--------------------------------------------------------------------------
By default, for Open MPI 4.0 and later, infiniband ports on a device
are not used by default.  The intent is to use UCX for these devices.
You can override this policy by setting the btl_openib_allow_ib MCA parameter
to true.

  Local host:              psid04
  Local adapter:           mlx5_0
  Local port:              1

--------------------------------------------------------------------------
--------------------------------------------------------------------------
WARNING: There was an error initializing an OpenFabrics device.

  Local host:   psid04
  Local device: mlx5_0
--------------------------------------------------------------------------

     Program PWSCF v.7.3.1 starts on 25Mar2025 at  1:13:11 

     This program is part of the open-source Quantum ESPRESSO suite
     for quantum simulation of materials; please cite
         "P. Giannozzi et al., J. Phys.:Condens. Matter 21 395502 (2009);
         "P. Giannozzi et al., J. Phys.:Condens. Matter 29 465901 (2017);
         "P. Giannozzi et al., J. Chem. Phys. 152 154105 (2020);
          URL http://www.quantum-espresso.org", 
     in publications or presentations arising from this work. More details at
     http://www.quantum-espresso.org/quote

     Parallel version (MPI), running on    34 processors

     MPI processes distributed on     1 nodes
     94119 MiB available memory on the printing compute node when the environment starts

     Waiting for input...
     Reading input from standard input
Warning: card &CELL ignored
Warning: card   CELL_DOFREE = 'ALL' ignored
Warning: card / ignored

     Current dimensions of program PWSCF are:
     Max number of different atomic species (ntypx) = 10
     Max number of k-points (npk) =  40000
     Max angular momentum in pseudopotentials (lmaxx) =  4
     Message from routine input:
     WARNING: "startingwfc" set to atomic+random may spoil restart
     Message from routine input:
     WARNING: "startingpot" set to atomic may spoil restart
     file O.pbe-n-kjpaw_psl.0.1.UPF: wavefunction(s)  2P renormalized

     R & G space division:  proc/nbgrp/npool/nimage =      34
     Subspace diagonalization in iterative solution of the eigenvalue problem:
     one sub-group per band group will be used
     custom distributed-memory algorithm (size of sub-group:  5*  5 procs)


     Parallelization info
     --------------------
     sticks:   dense  smooth     PW     G-vecs:    dense   smooth      PW
     Min         112     112     33                10995    10995    1772
     Max         113     113     34                11005    11005    1779
     Sum        3835    3835   1129               374027   374027   60327

     Using Slab Decomposition



     bravais-lattice index     =            0
     lattice parameter (alat)  =      20.9009  a.u.
     unit-cell volume          =   16846.7507 (a.u.)^3
     number of atoms/cell      =           67
     number of atomic types    =            3
     number of electrons       =      1288.00
     number of Kohn-Sham states=          773
     kinetic-energy cutoff     =      30.0000  Ry
     charge density cutoff     =     120.0000  Ry
     scf convergence threshold =      7.3E-07
     mixing beta               =       0.7000
     number of iterations used =            8  plain     mixing
     energy convergence thresh.=      1.0E-05
     force convergence thresh. =      5.0E-04
     Exchange-correlation= SLA  PW   PBX  PBC
                           (   1   4   3   4   0   0   0)
     nstep                     =          100


     celldm(1)=  20.900943  celldm(2)=   0.000000  celldm(3)=   0.000000
     celldm(4)=   0.000000  celldm(5)=   0.000000  celldm(6)=   0.000000

     crystal axes: (cart. coord. in units of alat)
               a(1) = (   1.000000   0.000000   0.000000 )  
               a(2) = (  -0.223489   0.918700   0.000000 )  
               a(3) = (  -4.200249  -1.021781   2.008375 )  

     reciprocal axes: (cart. coord. in units 2 pi/alat)
               b(1) = (  1.000000  0.243267  2.215131 )  
               b(2) = ( -0.000000  1.088495  0.553783 )  
               b(3) = (  0.000000 -0.000000  0.497915 )  


     PseudoPot. # 1 for Zn read from file:
     /home/ys/qepseudo/SSSP_1.3.0_PBE_efficiency/Zn_pbe_v1.uspp.F.UPF
     MD5 check sum: df62231357ef9e81f77b2b3087fa5675
     Pseudo is Ultrasoft, Zval = 20.0
     Generated by new atomic code, or converted to UPF format
     Using radial grid of  943 points,  6 beta functions with: 
                l(1) =   0
                l(2) =   0
                l(3) =   1
                l(4) =   1
                l(5) =   2
                l(6) =   2
     Q(r) pseudized with  8 coefficients,  rinner =    1.100   1.100   1.100
                                                       1.100   1.100

     PseudoPot. # 2 for H  read from file:
     /home/ys/qepseudo/SSSP_1.3.0_PBE_efficiency/H.pbe-rrkjus_psl.1.0.0.UPF
     MD5 check sum: f52b6d4d1c606e5624b1dc7b2218f220
     Pseudo is Ultrasoft, Zval =  1.0
     Generated using "atomic" code by A. Dal Corso  v.5.1
     Using radial grid of  929 points,  2 beta functions with: 
                l(1) =   0
                l(2) =   0
     Q(r) pseudized with 0 coefficients 


     PseudoPot. # 3 for O  read from file:
     /home/ys/qepseudo/SSSP_1.3.0_PBE_efficiency/O.pbe-n-kjpaw_psl.0.1.UPF
     MD5 check sum: 0234752ac141de4415c5fc33072bef88
     Pseudo is Projector augmented-wave + core cor, Zval =  6.0
     Generated using "atomic" code by A. Dal Corso  v.5.0.99 svn rev. 10869
     Shape of augmentation charge: BESSEL
     Using radial grid of 1095 points,  4 beta functions with: 
                l(1) =   0
                l(2) =   0
                l(3) =   1
                l(4) =   1
     Q(r) pseudized with 0 coefficients 


     atomic species   valence    mass     pseudopotential
     Zn               20.00    65.38000     Zn( 1.00)
     H                 1.00     1.00800     H ( 1.00)
     O                 6.00    16.00000     O ( 1.00)

     No symmetry found


                                    s                        frac. trans.

      isym =  1     identity                                     

 cryst.   s( 1) = (     1          0          0      )
                  (     0          1          0      )
                  (     0          0          1      )

 cart.    s( 1) = (  1.0000000  0.0000000  0.0000000 )
                  (  0.0000000  1.0000000  0.0000000 )
                  (  0.0000000  0.0000000  1.0000000 )


   Cartesian axes

     site n.     atom                  positions (alat units)
         1        Zn     tau(   1) = (  -0.0970639   0.0980210   0.1082939  )
         2        Zn     tau(   2) = (  -0.2088085   0.5573710   0.1082939  )
         3        Zn     tau(   3) = (  -0.4853192   0.0035714   0.2939406  )
         4        Zn     tau(   4) = (  -0.5970639   0.4629214   0.2939406  )
         5        Zn     tau(   5) = (  -0.8551296  -0.0882525   0.4890146  )
         6        Zn     tau(   6) = (  -0.9674382   0.3714473   0.4877292  )
         7        Zn     tau(   7) = (  -1.2131724  -0.1752839   0.6879483  )
         8        Zn     tau(   8) = (  -1.3173540   0.2859884   0.6874372  )
         9        Zn     tau(   9) = (  -0.1529362   0.3276960   0.1082939  )
        10        Zn     tau(  10) = (  -0.2646808   0.7870460   0.1082939  )
        11        Zn     tau(  11) = (  -0.5411915   0.2332464   0.2939406  )
        12        Zn     tau(  12) = (  -0.6529362   0.6925964   0.2939406  )
        13        Zn     tau(  13) = (  -0.9111612   0.1415108   0.4871026  )
        14        Zn     tau(  14) = (  -1.0232162   0.6012325   0.4883100  )
        15        Zn     tau(  15) = (  -1.2665792   0.0553404   0.6880703  )
        16        Zn     tau(  16) = (  -1.3765396   0.5148756   0.6874094  )
        17        Zn     tau(  17) = (   0.4029361   0.0980210   0.1082939  )
        18        Zn     tau(  18) = (   0.2911915   0.5573710   0.1082939  )
        19        Zn     tau(  19) = (   0.0146808   0.0035714   0.2939406  )
        20        Zn     tau(  20) = (  -0.0970639   0.4629214   0.2939406  )
        21        Zn     tau(  21) = (  -0.3558316  -0.0879851   0.4954040  )
        22        Zn     tau(  22) = (  -0.4703754   0.3696733   0.5028588  )
        23        Zn     tau(  23) = (  -0.7223088  -0.1768393   0.6886109  )
        24        Zn     tau(  24) = (  -0.8373491   0.2820498   0.6855383  )
        25        Zn     tau(  25) = (   0.3470638   0.3276960   0.1082939  )
        26        Zn     tau(  26) = (   0.2353192   0.7870460   0.1082939  )
        27        Zn     tau(  27) = (  -0.0411915   0.2332464   0.2939406  )
        28        Zn     tau(  28) = (  -0.1529362   0.6925964   0.2939406  )
        29        Zn     tau(  29) = (  -0.4145708   0.1415322   0.5015557  )
        30        Zn     tau(  30) = (  -0.5232667   0.6005052   0.4961357  )
        31        Zn     tau(  31) = (  -0.7810141   0.0525453   0.6856536  )
        32        Zn     tau(  32) = (  -0.8902960   0.5132032   0.6890318  )
        33        Zn     tau(  33) = (   0.1529362   0.0372043   0.0773528  )
        34        Zn     tau(  34) = (   0.0411915   0.4965543   0.0773528  )
        35        Zn     tau(  35) = (  -0.2353192  -0.0572454   0.2629995  )
        36        Zn     tau(  36) = (  -0.3470638   0.4021046   0.2629995  )
        37        Zn     tau(  37) = (  -0.6090394  -0.1488711   0.4468343  )
        38        Zn     tau(  38) = (  -0.7204202   0.3099103   0.4469033  )
        39        Zn     tau(  39) = (  -0.9759457  -0.2390184   0.6569602  )
        40        Zn     tau(  40) = (  -1.0856124   0.2195899   0.6566994  )
        41        Zn     tau(  41) = (   0.0970639   0.2668793   0.0773528  )
        42        Zn     tau(  42) = (  -0.0146808   0.7262293   0.0773528  )
        43        Zn     tau(  43) = (  -0.2911915   0.1724296   0.2629995  )
        44        Zn     tau(  44) = (  -0.4029361   0.6317796   0.2629995  )
        45        Zn     tau(  45) = (  -0.6645006   0.0812920   0.4467002  )
        46        Zn     tau(  46) = (  -0.7771202   0.5404573   0.4464218  )
        47        Zn     tau(  47) = (  -1.0329685  -0.0101624   0.6562499  )
        48        Zn     tau(  48) = (  -1.1407101   0.4506591   0.6574815  )
        49        Zn     tau(  49) = (   0.6529362   0.0372043   0.0773528  )
        50        Zn     tau(  50) = (   0.5411915   0.4965543   0.0773528  )
        51        Zn     tau(  51) = (   0.2646808  -0.0572454   0.2629995  )
        52        Zn     tau(  52) = (   0.1529362   0.4021046   0.2629995  )
        53        Zn     tau(  53) = (  -0.1084636  -0.1491981   0.4474074  )
        54        Zn     tau(  54) = (  -0.2213877   0.3102031   0.4473701  )
        55        Zn     tau(  55) = (  -0.4862469  -0.2410344   0.6525141  )
        56        Zn     tau(  56) = (  -0.5989190   0.2178516   0.6668442  )
        57        Zn     tau(  57) = (   0.5970639   0.2668793   0.0773528  )
        58        Zn     tau(  58) = (   0.4853192   0.7262293   0.0773528  )
        59        Zn     tau(  59) = (   0.2088085   0.1724296   0.2629995  )
        60        Zn     tau(  60) = (   0.0970639   0.6317796   0.2629995  )
        61        Zn     tau(  61) = (  -0.1651312   0.0810953   0.4477352  )
        62        Zn     tau(  62) = (  -0.2771599   0.5394340   0.4476073  )
        63        Zn     tau(  63) = (  -0.5449118  -0.0133228   0.6502642  )
        64        Zn     tau(  64) = (  -0.6595833   0.4477809   0.6474393  )
        65        O      tau(  65) = (  -0.5595518   0.2379019   0.8828621  )
        66        H      tau(  66) = (  -0.6199150   0.2991579   0.9056684  )
        67        H      tau(  67) = (  -0.5910338   0.1620055   0.9168906  )

   Crystallographic axes

     site n.     atom                  positions (cryst. coord.)
         1        Zn     tau(   1) = (  0.1666667  0.1666667  0.0539212  )
         2        Zn     tau(   2) = (  0.1666667  0.6666667  0.0539212  )
         3        Zn     tau(   3) = (  0.1666667  0.1666667  0.1463574  )
         4        Zn     tau(   4) = (  0.1666667  0.6666667  0.1463574  )
         5        Zn     tau(   5) = (  0.2066331  0.1747455  0.2434877  )
         6        Zn     tau(   6) = (  0.2033069  0.6744145  0.2428477  )
         7        Zn     tau(   7) = (  0.2680827  0.1901783  0.3425398  )
         8        Zn     tau(   8) = (  0.2749812  0.6919878  0.3422853  )
         9        Zn     tau(   9) = (  0.1666667  0.4166667  0.0539212  )
        10        Zn     tau(  10) = (  0.1666667  0.9166667  0.0539212  )
        11        Zn     tau(  11) = (  0.1666667  0.4166667  0.1463574  )
        12        Zn     tau(  12) = (  0.1666667  0.9166667  0.1463574  )
        13        Zn     tau(  13) = (  0.2022600  0.4237827  0.2425357  )
        14        Zn     tau(  14) = (  0.2047146  0.9248561  0.2431369  )
        15        Zn     tau(  15) = (  0.2710495  0.4412793  0.3426005  )
        16        Zn     tau(  16) = (  0.2714146  0.9411148  0.3422714  )
        17        Zn     tau(  17) = (  0.6666667  0.1666667  0.0539212  )
        18        Zn     tau(  18) = (  0.6666667  0.6666667  0.0539212  )
        19        Zn     tau(  19) = (  0.6666667  0.1666667  0.1463574  )
        20        Zn     tau(  20) = (  0.6666667  0.6666667  0.1463574  )
        21        Zn     tau(  21) = (  0.7201495  0.1785749  0.2466691  )
        22        Zn     tau(  22) = (  0.7334522  0.6808620  0.2503809  )
        23        Zn     tau(  23) = (  0.7600356  0.1888523  0.3428697  )
        24        Zn     tau(  24) = (  0.7498216  0.6866490  0.3413398  )
        25        Zn     tau(  25) = (  0.6666667  0.4166667  0.0539212  )
        26        Zn     tau(  26) = (  0.6666667  0.9166667  0.0539212  )
        27        Zn     tau(  27) = (  0.6666667  0.4166667  0.1463574  )
        28        Zn     tau(  28) = (  0.6666667  0.9166667  0.1463574  )
        29        Zn     tau(  29) = (  0.7308711  0.4318099  0.2497321  )
        30        Zn     tau(  30) = (  0.7218220  0.9283980  0.2470334  )
        31        Zn     tau(  31) = (  0.7505812  0.4368984  0.3413972  )
        32        Zn     tau(  32) = (  0.7608452  0.9401928  0.3430792  )
        33        Zn     tau(  33) = (  0.3333333  0.0833333  0.0385151  )
        34        Zn     tau(  34) = (  0.3333333  0.5833333  0.0385151  )
        35        Zn     tau(  35) = (  0.3333333  0.0833333  0.1309514  )
        36        Zn     tau(  36) = (  0.3333333  0.5833333  0.1309514  )
        37        Zn     tau(  37) = (  0.3445419  0.0854038  0.2224855  )
        38        Zn     tau(  38) = (  0.3449203  0.5848230  0.2225199  )
        39        Zn     tau(  39) = (  0.4211622  0.1036430  0.3271103  )
        40        Zn     tau(  40) = (  0.4224819  0.6026912  0.3269805  )
        41        Zn     tau(  41) = (  0.3333333  0.3333333  0.0385151  )
        42        Zn     tau(  42) = (  0.3333333  0.8333333  0.0385151  )
        43        Zn     tau(  43) = (  0.3333333  0.3333333  0.1309514  )
        44        Zn     tau(  44) = (  0.3333333  0.8333333  0.1309514  )
        45        Zn     tau(  45) = (  0.3447747  0.3358609  0.2224187  )
        46        Zn     tau(  46) = (  0.3432380  0.8355056  0.2222801  )
        47        Zn     tau(  47) = (  0.4182391  0.3523581  0.3267567  )
        48        Zn     tau(  48) = (  0.4253283  0.8546419  0.3273699  )
        49        Zn     tau(  49) = (  0.8333333  0.0833333  0.0385151  )
        50        Zn     tau(  50) = (  0.8333333  0.5833333  0.0385151  )
        51        Zn     tau(  51) = (  0.8333333  0.0833333  0.1309514  )
        52        Zn     tau(  52) = (  0.8333333  0.5833333  0.1309514  )
        53        Zn     tau(  53) = (  0.8463077  0.0853652  0.2227709  )
        54        Zn     tau(  54) = (  0.8450580  0.5854002  0.2227523  )
        55        Zn     tau(  55) = (  0.9005219  0.0989864  0.3248966  )
        56        Zn     tau(  56) = (  0.9312246  0.6064171  0.3320317  )
        57        Zn     tau(  57) = (  0.8333333  0.3333333  0.0385151  )
        58        Zn     tau(  58) = (  0.8333333  0.8333333  0.0385151  )
        59        Zn     tau(  59) = (  0.8333333  0.3333333  0.1309514  )
        60        Zn     tau(  60) = (  0.8333333  0.8333333  0.1309514  )
        61        Zn     tau(  61) = (  0.8463888  0.3362198  0.2229340  )
        62        Zn     tau(  62) = (  0.8455754  0.8350482  0.2228704  )
        63        Zn     tau(  63) = (  0.8922677  0.3456033  0.3237763  )
        64        Zn     tau(  64) = (  0.8835100  0.8459478  0.3223697  )
        65        O      tau(  65) = (  1.4539773  0.7478688  0.4395903  )
        66        H      tau(  66) = (  1.4590347  0.8271753  0.4509459  )
        67        H      tau(  67) = (  1.4794098  0.6841004  0.4565336  )

     number of k points=     4  Marzari-Vanderbilt smearing, width (Ry)=  0.0200
                       cart. coord. in units 2pi/alat
        k(    1) = (   0.0000000   0.0000000   0.0000000), wk =   0.5000000
        k(    2) = (   0.0000000  -0.5442473  -0.2768914), wk =   0.5000000
        k(    3) = (  -0.5000000  -0.1216334  -1.1075657), wk =   0.5000000
        k(    4) = (  -0.5000000  -0.6658807  -1.3844571), wk =   0.5000000

                       cryst. coord.
        k(    1) = (   0.0000000   0.0000000   0.0000000), wk =   0.5000000
        k(    2) = (   0.0000000  -0.5000000   0.0000000), wk =   0.5000000
        k(    3) = (  -0.5000000   0.0000000   0.0000000), wk =   0.5000000
        k(    4) = (  -0.5000000  -0.5000000   0.0000000), wk =   0.5000000

     Dense  grid:   374027 G-vectors     FFT dimensions: (  75,  72, 360)

     Dynamical RAM for                 wfc:      16.21 MB

     Dynamical RAM for     wfc (w. buffer):      81.03 MB

     Dynamical RAM for           str. fact:       0.50 MB

     Dynamical RAM for           local pot:       0.00 MB

     Dynamical RAM for          nlocal pot:      24.40 MB

     Dynamical RAM for                qrad:       2.64 MB

     Dynamical RAM for          rho,v,vnew:       1.86 MB

     Dynamical RAM for               rhoin:       0.62 MB

     Dynamical RAM for            rho*nmix:       2.69 MB

     Dynamical RAM for           G-vectors:       0.71 MB

     Dynamical RAM for          h,s,v(r/c):       4.37 MB

     Dynamical RAM for          <psi|beta>:      13.73 MB

     Dynamical RAM for                 psi:      32.41 MB

     Dynamical RAM for                hpsi:      32.41 MB

     Dynamical RAM for                spsi:      32.41 MB

     Dynamical RAM for      wfcinit/wfcrot:      51.22 MB

     Dynamical RAM for           addusdens:      41.98 MB

     Dynamical RAM for          addusforce:      63.47 MB

     Dynamical RAM for         addusstress:      33.75 MB

     Estimated static dynamical RAM per process >     114.72 MB

     Estimated max dynamical RAM per process >     232.74 MB

     Estimated total dynamical RAM >       7.73 GB

     Atomic positions and unit cell read from directory:
     ./tmp/Zn101_optimized_topsite_H2O.save/


     Check: negative core charge=   -0.000010
     Cannot read rho : file not found

     Initial potential from superposition of free atoms

     starting charge    1287.9910, renormalised to    1288.0000

     negative rho (up, down):  6.782E-03 0.000E+00
     Starting wfcs are  838 randomized atomic wfcs
[psid04:240942] 33 more processes have sent help message help-mpi-btl-openib.txt / ib port not selected
[psid04:240942] Set MCA parameter "orte_base_help_aggregate" to 0 to see all help / error messages
[psid04:240942] 33 more processes have sent help message help-mpi-btl-openib.txt / error in device init
     Checking if some PAW data can be deallocated... 
       PAW data deallocated on   33 nodes for type:  3
     Calculation restarted from scf iteration #     5

     total cpu time spent up to now is       65.2 secs

     Self-consistent Calculation

     iteration #  5     ecut=    30.00 Ry     beta= 0.70
     Calculation restarted from kpoint #     3
     Davidson diagonalization with overlap

---- Real-time Memory Report at c_bands before calling an iterative solver
           193 MiB given to the printing process from OS
             0 MiB allocation reported by mallinfo(arena+hblkhd)
         89794 MiB available memory on the node where the printing process lives
------------------
     c_bands:  1 eigenvalues not converged
     c_bands:  1 eigenvalues not converged
     ethr =  3.01E-10,  avg # of iterations = 21.0

     negative rho (up, down):  1.370E-02 0.000E+00

     total cpu time spent up to now is      889.2 secs

     total energy              =  -29618.28186577 Ry
     estimated scf accuracy    <       2.41183678 Ry

     iteration #  6     ecut=    30.00 Ry     beta= 0.70
     Davidson diagonalization with overlap

---- Real-time Memory Report at c_bands before calling an iterative solver
           270 MiB given to the printing process from OS
             0 MiB allocation reported by mallinfo(arena+hblkhd)
         88167 MiB available memory on the node where the printing process lives
------------------
     ethr =  3.01E-10,  avg # of iterations = 14.8

     negative rho (up, down):  1.370E-02 0.000E+00

     total cpu time spent up to now is     1925.0 secs

     total energy              =  -29578.94333901 Ry
     estimated scf accuracy    <       0.00000418 Ry

     iteration #  7     ecut=    30.00 Ry     beta= 0.70
     Davidson diagonalization with overlap

---- Real-time Memory Report at c_bands before calling an iterative solver
           289 MiB given to the printing process from OS
             0 MiB allocation reported by mallinfo(arena+hblkhd)
         88148 MiB available memory on the node where the printing process lives
------------------
     ethr =  3.01E-10,  avg # of iterations =  2.0

     negative rho (up, down):  1.369E-02 0.000E+00

     total cpu time spent up to now is     2136.2 secs

     End of self-consistent calculation

          k = 0.0000 0.0000 0.0000 ( 46769 PWs)   bands (ev):

  -123.9282-123.9227-123.9209-123.9207-123.9174-123.9162-123.9157-123.9113
  -123.8733-123.8688-123.8665-123.8659-123.8652-123.8645-123.8640-123.8630
  -123.8615-123.8607-123.8548-123.8531-123.8489-123.8473-123.8457-123.8415
  -123.8369-123.8359-123.8325-123.8316-123.8049-123.8022-123.8018-123.7998
  -123.7753-123.7725-123.7696-123.7684-123.7538-123.7519-123.7491-123.7454
  -123.7338-123.7277-123.7007-123.6978-123.6972-123.6961-123.6921-123.6859
  -123.6578-123.6480-123.6470-123.6427-123.6123-123.6061-123.5913-123.5889
  -123.5886-123.5871-123.5843-123.5802-123.5673-123.5518-123.5446-123.5432
   -78.0310 -78.0234 -78.0210 -78.0160 -78.0144 -78.0138 -78.0111 -78.0108
   -78.0099 -78.0089 -78.0085 -78.0080 -78.0045 -78.0036 -78.0034 -78.0025
   -78.0009 -77.9995 -77.9989 -77.9976 -77.9969 -77.9962 -77.9928 -77.9895
   -77.9692 -77.9680 -77.9640 -77.9637 -77.9636 -77.9622 -77.9611 -77.9600
   -77.9599 -77.9595 -77.9590 -77.9577 -77.9573 -77.9562 -77.9560 -77.9543
   -77.9529 -77.9526 -77.9516 -77.9505 -77.9504 -77.9498 -77.9497 -77.9491
   -77.9485 -77.9468 -77.9461 -77.9455 -77.9427 -77.9420 -77.9415 -77.9396
   -77.9387 -77.9375 -77.9363 -77.9359 -77.9354 -77.9344 -77.9339 -77.9332
   -77.9330 -77.9325 -77.9320 -77.9318 -77.9314 -77.9308 -77.9297 -77.9296
   -77.9282 -77.9274 -77.9260 -77.9240 -77.9236 -77.9215 -77.9185 -77.9178
   -77.9164 -77.9143 -77.9119 -77.9107 -77.8997 -77.8948 -77.8930 -77.8919
   -77.8905 -77.8894 -77.8889 -77.8881 -77.8856 -77.8833 -77.8819 -77.8816
   -77.8777 -77.8748 -77.8710 -77.8699 -77.8696 -77.8588 -77.8566 -77.8554
   -77.8546 -77.8531 -77.8523 -77.8513 -77.8495 -77.8485 -77.8464 -77.8441
   -77.8372 -77.8364 -77.8361 -77.8346 -77.8315 -77.8311 -77.8270 -77.8265
   -77.8264 -77.8235 -77.8164 -77.8123 -77.8102 -77.8078 -77.8021 -77.7952
   -77.7948 -77.7924 -77.7921 -77.7872 -77.7863 -77.7850 -77.7832 -77.7822
   -77.7817 -77.7803 -77.7800 -77.7786 -77.7770 -77.7759 -77.7734 -77.7683
   -77.7609 -77.7503 -77.7486 -77.7468 -77.7448 -77.7432 -77.7342 -77.7323
   -77.7285 -77.7281 -77.7211 -77.7146 -77.7120 -77.7092 -77.6998 -77.6974
   -77.6944 -77.6929 -77.6925 -77.6922 -77.6906 -77.6876 -77.6836 -77.6817
   -77.6778 -77.6776 -77.6756 -77.6750 -77.6743 -77.6729 -77.6704 -77.6697
   -77.6660 -77.6610 -77.6597 -77.6589 -77.6550 -77.6543 -77.6521 -77.6505
   -77.6486 -77.6470 -77.6380 -77.6311 -77.6295 -77.6269 -77.6192 -77.6085
   -19.6293  -7.2352  -7.1904  -6.1504  -6.0438  -5.9888  -5.8643  -5.8622
    -5.5863  -5.5690  -5.5269  -5.5247  -5.5210  -5.4924  -5.4853  -5.4690
    -5.4667  -5.4420  -5.4334  -5.4282  -5.3961  -5.3818  -5.3557  -5.3322
    -5.3285  -5.3240  -5.3181  -5.3143  -5.3085  -5.3007  -5.2846  -5.2784
    -5.2753  -5.2683  -5.2422  -5.2391  -5.2353  -5.2267  -5.2200  -5.2129
    -5.2103  -5.2046  -5.2028  -5.1876  -5.1859  -5.1847  -5.1652  -5.1635
    -5.1605  -5.1597  -5.1595  -5.1533  -5.1521  -5.1483  -5.1255  -5.1235
    -5.1191  -5.0997  -5.0991  -5.0985  -5.0882  -5.0876  -5.0871  -5.0803
    -5.0771  -5.0765  -5.0606  -5.0516  -5.0425  -5.0397  -5.0395  -5.0227
    -5.0193  -5.0162  -5.0152  -5.0027  -4.9967  -4.9875  -4.9847  -4.9824
    -4.9804  -4.9725  -4.9665  -4.9633  -4.9585  -4.9564  -4.9475  -4.9443
    -4.9407  -4.9357  -4.9311  -4.9307  -4.9184  -4.9108  -4.9096  -4.9045
    -4.8975  -4.8911  -4.8880  -4.8857  -4.8828  -4.8803  -4.8745  -4.8692
    -4.8635  -4.8590  -4.8562  -4.8479  -4.8438  -4.8390  -4.8256  -4.8225
    -4.8155  -4.8142  -4.8088  -4.8071  -4.8041  -4.8032  -4.7984  -4.7866
    -4.7837  -4.7789  -4.7776  -4.7685  -4.7642  -4.7585  -4.7546  -4.7524
    -4.7490  -4.7461  -4.7277  -4.7182  -4.7103  -4.7053  -4.7045  -4.7025
    -4.6978  -4.6957  -4.6907  -4.6861  -4.6824  -4.6760  -4.6715  -4.6688
    -4.6587  -4.6554  -4.6524  -4.6497  -4.6466  -4.6443  -4.6421  -4.6407
    -4.6345  -4.6267  -4.6255  -4.6238  -4.6228  -4.6174  -4.6141  -4.6068
    -4.6060  -4.6032  -4.5977  -4.5934  -4.5898  -4.5871  -4.5840  -4.5766
    -4.5732  -4.5720  -4.5618  -4.5590  -4.5551  -4.5529  -4.5522  -4.5446
    -4.5415  -4.5361  -4.5246  -4.5235  -4.5163  -4.5141  -4.5083  -4.5077
    -4.5063  -4.5047  -4.5033  -4.4993  -4.4966  -4.4939  -4.4906  -4.4820
    -4.4752  -4.4639  -4.4619  -4.4595  -4.4572  -4.4501  -4.4463  -4.4435
    -4.4337  -4.4299  -4.4291  -4.4230  -4.4204  -4.4168  -4.4153  -4.4131
    -4.4114  -4.4107  -4.4077  -4.4024  -4.4015  -4.3983  -4.3914  -4.3880
    -4.3872  -4.3856  -4.3829  -4.3809  -4.3773  -4.3765  -4.3707  -4.3678
    -4.3662  -4.3653  -4.3642  -4.3631  -4.3572  -4.3531  -4.3523  -4.3481
    -4.3466  -4.3441  -4.3404  -4.3386  -4.3340  -4.3301  -4.3299  -4.3228
    -4.3217  -4.3180  -4.3154  -4.3109  -4.3107  -4.3083  -4.2986  -4.2983
    -4.2950  -4.2848  -4.2834  -4.2791  -4.2749  -4.2724  -4.2705  -4.2653
    -4.2642  -4.2622  -4.2612  -4.2608  -4.2567  -4.2533  -4.2524  -4.2469
    -4.2408  -4.2391  -4.2378  -4.2345  -4.2285  -4.2261  -4.2254  -4.2186
    -4.2169  -4.2054  -4.2008  -4.1977  -4.1951  -4.1945  -4.1937  -4.1922
    -4.1862  -4.1833  -4.1828  -4.1810  -4.1768  -4.1757  -4.1716  -4.1702
    -4.1685  -4.1638  -4.1609  -4.1544  -4.1494  -4.1467  -4.1451  -4.1413
    -4.1388  -4.1349  -4.1334  -4.1284  -4.1231  -4.1188  -4.1185  -4.1138
    -4.1123  -4.1027  -4.1020  -4.0987  -4.0958  -4.0957  -4.0922  -4.0748
    -4.0708  -4.0535  -4.0511  -4.0454  -4.0402  -4.0324  -4.0314  -4.0199
    -4.0183  -3.9934  -3.9921  -3.9895  -3.9879  -3.9514  -3.9453  -3.9096
    -3.8998  -3.8900  -3.8573  -3.8066  -3.6979  -3.6692  -3.5782  -3.2463
    -3.0792  -3.0668  -2.9155  -2.9078  -2.2115  -2.0183  -1.8611  -1.8456
    -1.7757  -1.7689  -1.5318  -1.2071  -1.1304  -1.0905  -1.0627  -0.9711
    -0.9624  -0.5869  -0.5489  -0.4973  -0.4614  -0.4148   0.0153   0.1517
     0.1705   0.1908   0.2787   0.2841   0.6038   0.6123   0.6302   0.6575
     0.7017   0.8017   0.8163   0.8823   1.4519   1.4707   1.5110   1.5251
     1.5702   1.6670   1.6731   2.1576   2.2883   2.3078   2.3229   2.3386
     2.3573   2.3605   2.3731   2.7424   2.7717   2.7904   2.8239   2.9141
     2.9185   3.0324   3.4118   3.4903   3.5395   3.6055   3.7216   3.8222
     3.8886   4.1062   4.1378   4.2647   4.7290   4.7709   4.9214   4.9521
     5.0021   5.0072   5.0656   5.0971   5.0989   5.1141   5.2104   5.2317
     5.2328   5.3072   5.3878   5.5497   5.5670   5.5953   5.7228   5.8504
     5.9367   5.9920   6.1859   6.2990   6.3265   6.3395   6.4439   6.4881
     6.5274   6.5331   6.6479   6.7882   6.8214   6.8380   6.8654   6.9021
     7.0954   7.1241   7.1453   7.1831   7.2223   7.2511   7.3418   7.3508
     7.3990   7.4148   7.4886   7.6034   7.6664   7.6708   7.6876   7.7143
     7.7241   7.7408   7.7553   7.7871   7.8288   7.8908   7.9202   7.9317
     8.0873   8.0888   8.1740   8.1809   8.1938   8.2344   8.2520   8.2803
     8.2970   8.3795   8.3996   8.4520   8.4691   8.4779   8.4901   8.5313
     8.5760   8.5995   8.6239   8.8001   8.8614   8.8686   8.8862   8.9696
     9.0036   9.0074   9.0473   9.1777   9.2171   9.2679   9.3472   9.3659
     9.4430   9.5176   9.5807   9.5939   9.6055   9.6344   9.6430   9.6522
     9.6565   9.6976   9.7156   9.8831   9.9142   9.9959  10.0299  10.1439
    10.1763  10.2430  10.2546  10.2957  10.3173

     occupation numbers 
     1.0000   1.0000   1.0000   1.0000   1.0000   1.0000   1.0000   1.0000
     1.0000   1.0000   1.0000   1.0000   1.0000   1.0000   1.0000   1.0000
     1.0000   1.0000   1.0000   1.0000   1.0000   1.0000   1.0000   1.0000
     1.0000   1.0000   1.0000   1.0000   1.0000   1.0000   1.0000   1.0000
     1.0000   1.0000   1.0000   1.0000   1.0000   1.0000   1.0000   1.0000
     1.0000   1.0000   1.0000   1.0000   1.0000   1.0000   1.0000   1.0000
     1.0000   1.0000   1.0000   1.0000   1.0000   1.0000   1.0000   1.0000
     1.0000   1.0000   1.0000   1.0000   1.0000   1.0000   1.0000   1.0000
     1.0000   1.0000   1.0000   1.0000   1.0000   1.0000   1.0000   1.0000
     1.0000   1.0000   1.0000   1.0000   1.0000   1.0000   1.0000   1.0000
     1.0000   1.0000   1.0000   1.0000   1.0000   1.0000   1.0000   1.0000
     1.0000   1.0000   1.0000   1.0000   1.0000   1.0000   1.0000   1.0000
     1.0000   1.0000   1.0000   1.0000   1.0000   1.0000   1.0000   1.0000
     1.0000   1.0000   1.0000   1.0000   1.0000   1.0000   1.0000   1.0000
     1.0000   1.0000   1.0000   1.0000   1.0000   1.0000   1.0000   1.0000
     1.0000   1.0000   1.0000   1.0000   1.0000   1.0000   1.0000   1.0000
     1.0000   1.0000   1.0000   1.0000   1.0000   1.0000   1.0000   1.0000
     1.0000   1.0000   1.0000   1.0000   1.0000   1.0000   1.0000   1.0000
     1.0000   1.0000   1.0000   1.0000   1.0000   1.0000   1.0000   1.0000
     1.0000   1.0000   1.0000   1.0000   1.0000   1.0000   1.0000   1.0000
     1.0000   1.0000   1.0000   1.0000   1.0000   1.0000   1.0000   1.0000
     1.0000   1.0000   1.0000   1.0000   1.0000   1.0000   1.0000   1.0000
     1.0000   1.0000   1.0000   1.0000   1.0000   1.0000   1.0000   1.0000
     1.0000   1.0000   1.0000   1.0000   1.0000   1.0000   1.0000   1.0000
     1.0000   1.0000   1.0000   1.0000   1.0000   1.0000   1.0000   1.0000
     1.0000   1.0000   1.0000   1.0000   1.0000   1.0000   1.0000   1.0000
     1.0000   1.0000   1.0000   1.0000   1.0000   1.0000   1.0000   1.0000
     1.0000   1.0000   1.0000   1.0000   1.0000   1.0000   1.0000   1.0000
     1.0000   1.0000   1.0000   1.0000   1.0000   1.0000   1.0000   1.0000
     1.0000   1.0000   1.0000   1.0000   1.0000   1.0000   1.0000   1.0000
     1.0000   1.0000   1.0000   1.0000   1.0000   1.0000   1.0000   1.0000
     1.0000   1.0000   1.0000   1.0000   1.0000   1.0000   1.0000   1.0000
     1.0000   1.0000   1.0000   1.0000   1.0000   1.0000   1.0000   1.0000
     1.0000   1.0000   1.0000   1.0000   1.0000   1.0000   1.0000   1.0000
     1.0000   1.0000   1.0000   1.0000   1.0000   1.0000   1.0000   1.0000
     1.0000   1.0000   1.0000   1.0000   1.0000   1.0000   1.0000   1.0000
     1.0000   1.0000   1.0000   1.0000   1.0000   1.0000   1.0000   1.0000
     1.0000   1.0000   1.0000   1.0000   1.0000   1.0000   1.0000   1.0000
     1.0000   1.0000   1.0000   1.0000   1.0000   1.0000   1.0000   1.0000
     1.0000   1.0000   1.0000   1.0000   1.0000   1.0000   1.0000   1.0000
     1.0000   1.0000   1.0000   1.0000   1.0000   1.0000   1.0000   1.0000
     1.0000   1.0000   1.0000   1.0000   1.0000   1.0000   1.0000   1.0000
     1.0000   1.0000   1.0000   1.0000   1.0000   1.0000   1.0000   1.0000
     1.0000   1.0000   1.0000   1.0000   1.0000   1.0000   1.0000   1.0000
     1.0000   1.0000   1.0000   1.0000   1.0000   1.0000   1.0000   1.0000
     1.0000   1.0000   1.0000   1.0000   1.0000   1.0000   1.0000   1.0000
     1.0000   1.0000   1.0000   1.0000   1.0000   1.0000   1.0000   1.0000
     1.0000   1.0000   1.0000   1.0000   1.0000   1.0000   1.0000   1.0000
     1.0000   1.0000   1.0000   1.0000   1.0000   1.0000   1.0000   1.0000
     1.0000   1.0000   1.0000   1.0000   1.0000   1.0000   1.0000   1.0000
     1.0000   1.0000   1.0000   1.0000   1.0000   1.0000   1.0000   1.0000
     1.0000   1.0000   1.0000   1.0000   1.0000   1.0000   1.0000   1.0000
     1.0000   1.0000   1.0000   1.0000   1.0000   1.0000   1.0000   1.0000
     1.0000   1.0000   1.0000   1.0000   1.0000   1.0000   1.0000   1.0000
     1.0000   1.0000   1.0000   1.0000   1.0000   1.0000   1.0000   1.0000
     1.0000   1.0000   1.0000   1.0000   1.0000   1.0000   1.0000   1.0000
     1.0000   1.0000   1.0000   1.0000   1.0000   1.0000   1.0000   1.0000
     1.0000   1.0000   1.0000   1.0000   1.0000   1.0000   1.0000   1.0000
     1.0000   1.0000   1.0000   1.0000   1.0000   1.0000   1.0000   1.0000
     1.0000   1.0000   1.0000   1.0000   1.0000   1.0000   1.0000   1.0000
     1.0000   1.0000   1.0000   1.0000   1.0000   1.0000   1.0000   1.0000
     1.0000   1.0000   1.0000   1.0000   1.0000   1.0000   1.0000   1.0000
     1.0000   1.0000   1.0000   1.0000   1.0000   1.0000   1.0000   1.0000
     1.0000   1.0000   1.0000   1.0000   1.0000   1.0000   1.0000   1.0000
     1.0000   1.0000   1.0000   1.0000   1.0000   1.0000   1.0000   1.0000
     1.0000   1.0000   1.0000   1.0000   1.0000   1.0000   1.0000   1.0000
     1.0000   1.0000   1.0000   1.0000   1.0000   1.0000   1.0000   1.0000
     1.0000   1.0000   1.0000   1.0000   1.0000   1.0000   1.0000   1.0000
     1.0000   1.0000   1.0000   1.0000   1.0000   1.0000   1.0000   1.0000
     1.0000   1.0000   1.0000   1.0000   1.0000   1.0000   1.0000   1.0000
     1.0000   1.0000   1.0000   1.0000   1.0000   1.0000   1.0000   1.0000
     1.0000   1.0000   1.0000   1.0000   1.0000   1.0000   1.0000   1.0000
     1.0000   1.0000   1.0000   1.0000   1.0000   1.0000   1.0000   1.0000
     1.0000   1.0000   1.0000   1.0000   1.0000   1.0000   1.0000   1.0000
     1.0000   1.0000   1.0000   1.0000   1.0000   1.0000   1.0000   1.0000
     1.0000   1.0000   1.0000   1.0000   1.0000   1.0000   1.0000   1.0000
     1.0000   1.0000   1.0000   1.0000   1.0000   1.0000   1.0000   1.0000
     1.0000   1.0000   1.0000   1.0000   1.0000   1.0000   1.0000   1.0000
     1.0000   1.0000   1.0000   1.0000   1.0000   1.0000   1.0000   1.0000
     1.0000   1.0000   1.0000   1.0232   1.0638   1.0700   1.0744   1.0782
     1.0816   1.0820   1.0831   0.4620   0.3868   0.3417   0.2680   0.1218
     0.1167   0.0318   0.0000   0.0000   0.0000   0.0000   0.0000   0.0000
     0.0000   0.0000   0.0000   0.0000   0.0000   0.0000   0.0000   0.0000
     0.0000   0.0000   0.0000   0.0000   0.0000   0.0000   0.0000   0.0000
     0.0000   0.0000   0.0000   0.0000   0.0000   0.0000   0.0000   0.0000
     0.0000   0.0000   0.0000   0.0000   0.0000   0.0000   0.0000   0.0000
     0.0000   0.0000   0.0000   0.0000   0.0000   0.0000   0.0000   0.0000
     0.0000   0.0000   0.0000   0.0000   0.0000   0.0000   0.0000   0.0000
     0.0000   0.0000   0.0000   0.0000   0.0000   0.0000   0.0000   0.0000
     0.0000   0.0000   0.0000   0.0000   0.0000   0.0000   0.0000   0.0000
     0.0000   0.0000   0.0000   0.0000   0.0000   0.0000   0.0000   0.0000
     0.0000   0.0000   0.0000   0.0000   0.0000   0.0000   0.0000   0.0000
     0.0000   0.0000   0.0000   0.0000   0.0000   0.0000   0.0000   0.0000
     0.0000   0.0000   0.0000   0.0000   0.0000   0.0000   0.0000   0.0000
     0.0000   0.0000   0.0000   0.0000   0.0000   0.0000   0.0000   0.0000
     0.0000   0.0000   0.0000   0.0000   0.0000   0.0000   0.0000   0.0000
     0.0000   0.0000   0.0000   0.0000   0.0000

          k = 0.0000-0.5442-0.2769 ( 46780 PWs)   bands (ev):

  -123.9282-123.9227-123.9212-123.9205-123.9175-123.9162-123.9157-123.9114
  -123.8733-123.8688-123.8665-123.8658-123.8654-123.8646-123.8641-123.8630
  -123.8615-123.8608-123.8549-123.8532-123.8490-123.8473-123.8459-123.8416
  -123.8369-123.8359-123.8326-123.8316-123.8049-123.8023-123.8018-123.7999
  -123.7753-123.7725-123.7697-123.7685-123.7538-123.7519-123.7492-123.7455
  -123.7339-123.7278-123.7008-123.6976-123.6975-123.6961-123.6922-123.6860
  -123.6578-123.6481-123.6470-123.6428-123.6123-123.6061-123.5913-123.5889
  -123.5886-123.5872-123.5844-123.5802-123.5674-123.5518-123.5447-123.5433
   -78.0264 -78.0209 -78.0208 -78.0179 -78.0156 -78.0147 -78.0143 -78.0130
   -78.0107 -78.0102 -78.0086 -78.0073 -78.0044 -78.0040 -78.0036 -78.0032
   -78.0004 -77.9996 -77.9984 -77.9974 -77.9963 -77.9946 -77.9929 -77.9913
   -77.9681 -77.9649 -77.9636 -77.9630 -77.9626 -77.9609 -77.9606 -77.9595
   -77.9593 -77.9591 -77.9580 -77.9573 -77.9564 -77.9560 -77.9557 -77.9544
   -77.9536 -77.9529 -77.9526 -77.9515 -77.9511 -77.9502 -77.9501 -77.9491
   -77.9485 -77.9480 -77.9478 -77.9471 -77.9464 -77.9449 -77.9428 -77.9408
   -77.9395 -77.9378 -77.9363 -77.9361 -77.9356 -77.9352 -77.9341 -77.9319
   -77.9316 -77.9309 -77.9305 -77.9303 -77.9299 -77.9292 -77.9288 -77.9278
   -77.9269 -77.9262 -77.9256 -77.9252 -77.9241 -77.9233 -77.9228 -77.9216
   -77.9184 -77.9169 -77.9083 -77.9072 -77.9057 -77.9022 -77.8926 -77.8903
   -77.8895 -77.8887 -77.8881 -77.8872 -77.8853 -77.8847 -77.8829 -77.8809
   -77.8776 -77.8746 -77.8708 -77.8696 -77.8644 -77.8611 -77.8581 -77.8571
   -77.8552 -77.8545 -77.8525 -77.8522 -77.8513 -77.8442 -77.8431 -77.8427
   -77.8400 -77.8359 -77.8358 -77.8355 -77.8344 -77.8312 -77.8305 -77.8265
   -77.8263 -77.8212 -77.8163 -77.8145 -77.8102 -77.8091 -77.7970 -77.7950
   -77.7945 -77.7931 -77.7921 -77.7916 -77.7868 -77.7859 -77.7850 -77.7832
   -77.7816 -77.7806 -77.7800 -77.7772 -77.7766 -77.7753 -77.7730 -77.7704
   -77.7606 -77.7500 -77.7482 -77.7445 -77.7437 -77.7421 -77.7367 -77.7337
   -77.7323 -77.7284 -77.7185 -77.7144 -77.7140 -77.7089 -77.6996 -77.6953
   -77.6940 -77.6926 -77.6922 -77.6917 -77.6906 -77.6872 -77.6837 -77.6830
   -77.6779 -77.6770 -77.6754 -77.6748 -77.6740 -77.6728 -77.6714 -77.6702
   -77.6688 -77.6659 -77.6592 -77.6565 -77.6551 -77.6541 -77.6518 -77.6502
   -77.6487 -77.6464 -77.6378 -77.6329 -77.6306 -77.6293 -77.6180 -77.6100
   -19.6293  -7.2369  -6.8244  -6.8148  -6.0021  -5.9992  -5.6898  -5.6893
    -5.6325  -5.6286  -5.4450  -5.4400  -5.4254  -5.4223  -5.4156  -5.4144
    -5.4100  -5.4083  -5.3946  -5.3907  -5.3786  -5.3754  -5.3730  -5.3714
    -5.3564  -5.3530  -5.3463  -5.3429  -5.3383  -5.3376  -5.3267  -5.3232
    -5.3077  -5.3049  -5.3020  -5.2961  -5.2888  -5.2843  -5.2453  -5.2416
    -5.2245  -5.2219  -5.2137  -5.2125  -5.2107  -5.2053  -5.1777  -5.1760
    -5.1753  -5.1732  -5.1711  -5.1705  -5.1659  -5.1539  -5.1380  -5.1361
    -5.1292  -5.1243  -5.1219  -5.1178  -5.1097  -5.1088  -5.0827  -5.0782
    -5.0651  -5.0624  -5.0506  -5.0490  -5.0476  -5.0466  -5.0373  -5.0353
    -5.0227  -5.0211  -5.0183  -5.0132  -5.0129  -5.0087  -4.9942  -4.9867
    -4.9846  -4.9830  -4.9792  -4.9747  -4.9726  -4.9715  -4.9682  -4.9657
    -4.9573  -4.9562  -4.9514  -4.9489  -4.9471  -4.9427  -4.9273  -4.9256
    -4.9076  -4.9066  -4.8952  -4.8914  -4.8731  -4.8715  -4.8671  -4.8637
    -4.8564  -4.8560  -4.8502  -4.8492  -4.8455  -4.8449  -4.8405  -4.8387
    -4.8288  -4.8226  -4.8208  -4.8163  -4.8104  -4.8069  -4.8043  -4.8033
    -4.7936  -4.7912  -4.7852  -4.7802  -4.7767  -4.7741  -4.7595  -4.7568
    -4.7535  -4.7506  -4.7366  -4.7353  -4.7328  -4.7313  -4.7170  -4.7097
    -4.7032  -4.7012  -4.7005  -4.6980  -4.6943  -4.6926  -4.6894  -4.6869
    -4.6840  -4.6834  -4.6756  -4.6734  -4.6638  -4.6588  -4.6564  -4.6526
    -4.6504  -4.6470  -4.6371  -4.6333  -4.6252  -4.6232  -4.6138  -4.6048
    -4.6037  -4.6022  -4.5988  -4.5944  -4.5814  -4.5765  -4.5730  -4.5684
    -4.5580  -4.5552  -4.5518  -4.5505  -4.5486  -4.5450  -4.5427  -4.5419
    -4.5377  -4.5368  -4.5327  -4.5291  -4.5182  -4.5160  -4.5125  -4.5104
    -4.5019  -4.5004  -4.4928  -4.4901  -4.4891  -4.4875  -4.4841  -4.4814
    -4.4703  -4.4649  -4.4600  -4.4587  -4.4576  -4.4529  -4.4514  -4.4500
    -4.4439  -4.4414  -4.4335  -4.4288  -4.4253  -4.4199  -4.4177  -4.4149
    -4.4121  -4.4115  -4.4074  -4.4042  -4.3989  -4.3952  -4.3803  -4.3784
    -4.3746  -4.3720  -4.3692  -4.3661  -4.3595  -4.3568  -4.3546  -4.3510
    -4.3488  -4.3466  -4.3417  -4.3370  -4.3342  -4.3304  -4.3253  -4.3194
    -4.3159  -4.3138  -4.3110  -4.3100  -4.3078  -4.3062  -4.3045  -4.3029
    -4.2955  -4.2918  -4.2897  -4.2823  -4.2818  -4.2785  -4.2704  -4.2655
    -4.2605  -4.2595  -4.2581  -4.2517  -4.2507  -4.2475  -4.2432  -4.2397
    -4.2379  -4.2353  -4.2310  -4.2286  -4.2261  -4.2256  -4.2238  -4.2215
    -4.2164  -4.2143  -4.2125  -4.2119  -4.2089  -4.2036  -4.2028  -4.1994
    -4.1969  -4.1966  -4.1937  -4.1913  -4.1894  -4.1806  -4.1796  -4.1757
    -4.1750  -4.1742  -4.1713  -4.1711  -4.1695  -4.1667  -4.1605  -4.1576
    -4.1564  -4.1554  -4.1488  -4.1473  -4.1449  -4.1449  -4.1396  -4.1382
    -4.1375  -4.1351  -4.1320  -4.1289  -4.1285  -4.1271  -4.1240  -4.1230
    -4.1092  -4.1070  -4.1053  -4.1034  -4.1000  -4.0985  -4.0923  -4.0892
    -4.0853  -4.0827  -4.0797  -4.0771  -4.0636  -4.0609  -4.0552  -4.0546
    -4.0393  -4.0380  -4.0309  -4.0255  -4.0226  -4.0188  -3.9951  -3.9872
    -3.9270  -3.9230  -3.7611  -3.6351  -3.5727  -3.1298  -3.1091  -3.0841
    -3.0831  -2.8957  -2.8726  -2.8139  -2.8132  -2.1347  -1.9738  -1.9575
    -1.8911  -1.7472  -1.6371  -1.5842  -1.3951  -1.3875  -1.2011  -1.1217
    -0.8918  -0.8903  -0.3486  -0.3283  -0.1320  -0.1161  -0.0932  -0.0611
     0.0487   0.0648   0.0982   0.1052   0.1827   0.2045   0.4940   0.5034
     0.7517   0.7789   1.1044   1.1058   1.3917   1.3943   1.3990   1.4316
     1.7959   1.8050   2.1628   2.1748   2.2306   2.2695   2.3797   2.4038
     2.5712   2.5751   2.9034   2.9139   2.9457   2.9657   3.1858   3.2043
     3.2407   3.2506   3.2571   3.3066   3.9882   4.0048   4.0097   4.0447
     4.1395   4.1654   4.3285   4.3383   4.5799   4.5818   4.8663   4.8832
     4.9603   4.9738   5.1032   5.1044   5.1153   5.3492   5.3791   5.3873
     5.5349   5.5476   5.5940   5.6013   5.7743   5.8187   5.8300   5.8409
     5.9475   5.9565   5.9869   6.0135   6.0212   6.0680   6.1083   6.1194
     6.1498   6.1568   6.1745   6.1879   6.2856   6.3759   6.4889   6.5578
     6.6434   6.6454   6.7783   6.8748   6.8914   6.9549   7.0857   7.0993
     7.1047   7.1190   7.2188   7.2631   7.2912   7.3042   7.4665   7.4735
     7.6624   7.7338   7.8161   7.8376   7.8661   7.9066   7.9637   7.9701
     8.0179   8.0351   8.0881   8.0955   8.1042   8.1057   8.1455   8.1564
     8.2760   8.4056   8.4327   8.4518   8.5072   8.5700   8.6395   8.6615
     8.7351   8.7572   8.8013   8.8439   8.8853   8.9170   8.9407   8.9812
     9.0326   9.0449   9.0958   9.1094   9.1686   9.2453   9.3391   9.3627
     9.4081   9.4881   9.6019   9.6360   9.7217   9.8269   9.9781   9.9991
    10.0266  10.0434  10.0849  10.1104  10.1630  10.1699  10.2200  10.2359
    10.2780  10.3779  10.4842  10.5431  10.5876

     occupation numbers 
     1.0000   1.0000   1.0000   1.0000   1.0000   1.0000   1.0000   1.0000
     1.0000   1.0000   1.0000   1.0000   1.0000   1.0000   1.0000   1.0000
     1.0000   1.0000   1.0000   1.0000   1.0000   1.0000   1.0000   1.0000
     1.0000   1.0000   1.0000   1.0000   1.0000   1.0000   1.0000   1.0000
     1.0000   1.0000   1.0000   1.0000   1.0000   1.0000   1.0000   1.0000
     1.0000   1.0000   1.0000   1.0000   1.0000   1.0000   1.0000   1.0000
     1.0000   1.0000   1.0000   1.0000   1.0000   1.0000   1.0000   1.0000
     1.0000   1.0000   1.0000   1.0000   1.0000   1.0000   1.0000   1.0000
     1.0000   1.0000   1.0000   1.0000   1.0000   1.0000   1.0000   1.0000
     1.0000   1.0000   1.0000   1.0000   1.0000   1.0000   1.0000   1.0000
     1.0000   1.0000   1.0000   1.0000   1.0000   1.0000   1.0000   1.0000
     1.0000   1.0000   1.0000   1.0000   1.0000   1.0000   1.0000   1.0000
     1.0000   1.0000   1.0000   1.0000   1.0000   1.0000   1.0000   1.0000
     1.0000   1.0000   1.0000   1.0000   1.0000   1.0000   1.0000   1.0000
     1.0000   1.0000   1.0000   1.0000   1.0000   1.0000   1.0000   1.0000
     1.0000   1.0000   1.0000   1.0000   1.0000   1.0000   1.0000   1.0000
     1.0000   1.0000   1.0000   1.0000   1.0000   1.0000   1.0000   1.0000
     1.0000   1.0000   1.0000   1.0000   1.0000   1.0000   1.0000   1.0000
     1.0000   1.0000   1.0000   1.0000   1.0000   1.0000   1.0000   1.0000
     1.0000   1.0000   1.0000   1.0000   1.0000   1.0000   1.0000   1.0000
     1.0000   1.0000   1.0000   1.0000   1.0000   1.0000   1.0000   1.0000
     1.0000   1.0000   1.0000   1.0000   1.0000   1.0000   1.0000   1.0000
     1.0000   1.0000   1.0000   1.0000   1.0000   1.0000   1.0000   1.0000
     1.0000   1.0000   1.0000   1.0000   1.0000   1.0000   1.0000   1.0000
     1.0000   1.0000   1.0000   1.0000   1.0000   1.0000   1.0000   1.0000
     1.0000   1.0000   1.0000   1.0000   1.0000   1.0000   1.0000   1.0000
     1.0000   1.0000   1.0000   1.0000   1.0000   1.0000   1.0000   1.0000
     1.0000   1.0000   1.0000   1.0000   1.0000   1.0000   1.0000   1.0000
     1.0000   1.0000   1.0000   1.0000   1.0000   1.0000   1.0000   1.0000
     1.0000   1.0000   1.0000   1.0000   1.0000   1.0000   1.0000   1.0000
     1.0000   1.0000   1.0000   1.0000   1.0000   1.0000   1.0000   1.0000
     1.0000   1.0000   1.0000   1.0000   1.0000   1.0000   1.0000   1.0000
     1.0000   1.0000   1.0000   1.0000   1.0000   1.0000   1.0000   1.0000
     1.0000   1.0000   1.0000   1.0000   1.0000   1.0000   1.0000   1.0000
     1.0000   1.0000   1.0000   1.0000   1.0000   1.0000   1.0000   1.0000
     1.0000   1.0000   1.0000   1.0000   1.0000   1.0000   1.0000   1.0000
     1.0000   1.0000   1.0000   1.0000   1.0000   1.0000   1.0000   1.0000
     1.0000   1.0000   1.0000   1.0000   1.0000   1.0000   1.0000   1.0000
     1.0000   1.0000   1.0000   1.0000   1.0000   1.0000   1.0000   1.0000
     1.0000   1.0000   1.0000   1.0000   1.0000   1.0000   1.0000   1.0000
     1.0000   1.0000   1.0000   1.0000   1.0000   1.0000   1.0000   1.0000
     1.0000   1.0000   1.0000   1.0000   1.0000   1.0000   1.0000   1.0000
     1.0000   1.0000   1.0000   1.0000   1.0000   1.0000   1.0000   1.0000
     1.0000   1.0000   1.0000   1.0000   1.0000   1.0000   1.0000   1.0000
     1.0000   1.0000   1.0000   1.0000   1.0000   1.0000   1.0000   1.0000
     1.0000   1.0000   1.0000   1.0000   1.0000   1.0000   1.0000   1.0000
     1.0000   1.0000   1.0000   1.0000   1.0000   1.0000   1.0000   1.0000
     1.0000   1.0000   1.0000   1.0000   1.0000   1.0000   1.0000   1.0000
     1.0000   1.0000   1.0000   1.0000   1.0000   1.0000   1.0000   1.0000
     1.0000   1.0000   1.0000   1.0000   1.0000   1.0000   1.0000   1.0000
     1.0000   1.0000   1.0000   1.0000   1.0000   1.0000   1.0000   1.0000
     1.0000   1.0000   1.0000   1.0000   1.0000   1.0000   1.0000   1.0000
     1.0000   1.0000   1.0000   1.0000   1.0000   1.0000   1.0000   1.0000
     1.0000   1.0000   1.0000   1.0000   1.0000   1.0000   1.0000   1.0000
     1.0000   1.0000   1.0000   1.0000   1.0000   1.0000   1.0000   1.0000
     1.0000   1.0000   1.0000   1.0000   1.0000   1.0000   1.0000   1.0000
     1.0000   1.0000   1.0000   1.0000   1.0000   1.0000   1.0000   1.0000
     1.0000   1.0000   1.0000   1.0000   1.0000   1.0000   1.0000   1.0000
     1.0000   1.0000   1.0000   1.0000   1.0000   1.0000   1.0000   1.0000
     1.0000   1.0000   1.0000   1.0000   1.0000   1.0000   1.0000   1.0000
     1.0000   1.0000   1.0000   1.0000   1.0000   1.0000   1.0000   1.0000
     1.0000   1.0000   1.0000   1.0000   1.0000   1.0000   1.0000   1.0000
     1.0000   1.0000   1.0000   1.0000   1.0000   1.0000   1.0000   1.0000
     1.0000   1.0000   1.0000   1.0000   1.0000   1.0000   1.0000   1.0000
     1.0000   1.0000   1.0000   1.0000   1.0000   1.0000   1.0000   1.0000
     1.0000   1.0000   1.0000   1.0000   1.0000   1.0000   1.0000   1.0000
     1.0000   1.0000   1.0000   1.0000   1.0000   1.0000   1.0000   1.0000
     1.0000   1.0000   1.0000   1.0000   1.0000   1.0000   1.0000   1.0000
     1.0000   1.0000   1.0000   1.0000   1.0000   1.0000   1.0000   1.0000
     1.0000   1.0000   1.0000   1.0000   1.0000   1.0000   1.0000   1.0000
     1.0000   1.0000   1.0000   1.0000   1.0000   1.0000   1.0000   1.0000
     1.0000   1.0000   1.0000   1.0000   1.0000   1.0000   1.0000   1.0000
     1.0000   1.0000   1.0000   1.0000   1.0000   1.0000   1.0000   1.0000
     1.0000   1.0000   1.0000   1.0000   1.0000   1.0000   1.0000   1.0000
     1.0000   1.0000   1.0000   1.0000   1.0000   1.0000   1.0000   1.0000
     1.0000   1.0000   1.0000   1.0000   1.0000   1.0000   1.0000   1.0000
     1.0000   1.0000   1.0000   1.0000   1.0000   1.0000   1.0000   1.0000
     1.0000   1.0000   1.0000   1.0000   1.0000   1.0000   1.0000   1.0000
     1.0000   1.0000   1.0000   1.0000   1.0000   1.0000   1.0000   1.0000
     1.0001   1.0001   1.0244   1.0274   1.0441   1.0574   1.0833   1.0815
     0.9042   0.8961   0.1353   0.1221   0.0882   0.0709   0.0033   0.0024
     0.0012   0.0010   0.0009   0.0004   0.0000   0.0000   0.0000   0.0000
     0.0000   0.0000   0.0000   0.0000   0.0000   0.0000   0.0000   0.0000
     0.0000   0.0000   0.0000   0.0000   0.0000   0.0000   0.0000   0.0000
     0.0000   0.0000   0.0000   0.0000   0.0000   0.0000   0.0000   0.0000
     0.0000   0.0000   0.0000   0.0000   0.0000   0.0000   0.0000   0.0000
     0.0000   0.0000   0.0000   0.0000   0.0000   0.0000   0.0000   0.0000
     0.0000   0.0000   0.0000   0.0000   0.0000   0.0000   0.0000   0.0000
     0.0000   0.0000   0.0000   0.0000   0.0000   0.0000   0.0000   0.0000
     0.0000   0.0000   0.0000   0.0000   0.0000   0.0000   0.0000   0.0000
     0.0000   0.0000   0.0000   0.0000   0.0000   0.0000   0.0000   0.0000
     0.0000   0.0000   0.0000   0.0000   0.0000   0.0000   0.0000   0.0000
     0.0000   0.0000   0.0000   0.0000   0.0000   0.0000   0.0000   0.0000
     0.0000   0.0000   0.0000   0.0000   0.0000   0.0000   0.0000   0.0000
     0.0000   0.0000   0.0000   0.0000   0.0000   0.0000   0.0000   0.0000
     0.0000   0.0000   0.0000   0.0000   0.0000   0.0000   0.0000   0.0000
     0.0000   0.0000   0.0000   0.0000   0.0000

          k =-0.5000-0.1216-1.1076 ( 46770 PWs)   bands (ev):

  -123.9282-123.9227-123.9209-123.9207-123.9175-123.9161-123.9158-123.9113
  -123.8733-123.8688-123.8664-123.8658-123.8653-123.8647-123.8640-123.8629
  -123.8615-123.8608-123.8549-123.8532-123.8489-123.8473-123.8458-123.8416
  -123.8369-123.8359-123.8325-123.8316-123.8049-123.8022-123.8019-123.7998
  -123.7753-123.7725-123.7696-123.7685-123.7538-123.7519-123.7491-123.7454
  -123.7339-123.7278-123.7007-123.6978-123.6972-123.6961-123.6922-123.6859
  -123.6578-123.6480-123.6470-123.6427-123.6123-123.6061-123.5913-123.5889
  -123.5885-123.5872-123.5843-123.5802-123.5673-123.5518-123.5446-123.5433
   -78.0317 -78.0240 -78.0210 -78.0158 -78.0144 -78.0137 -78.0113 -78.0103
   -78.0094 -78.0090 -78.0086 -78.0080 -78.0043 -78.0037 -78.0035 -78.0025
   -78.0019 -77.9988 -77.9985 -77.9981 -77.9975 -77.9958 -77.9930 -77.9890
   -77.9703 -77.9681 -77.9651 -77.9636 -77.9632 -77.9622 -77.9608 -77.9600
   -77.9598 -77.9592 -77.9591 -77.9579 -77.9572 -77.9563 -77.9551 -77.9544
   -77.9530 -77.9528 -77.9516 -77.9509 -77.9509 -77.9500 -77.9495 -77.9486
   -77.9480 -77.9476 -77.9469 -77.9466 -77.9425 -77.9415 -77.9413 -77.9403
   -77.9381 -77.9370 -77.9358 -77.9354 -77.9349 -77.9343 -77.9335 -77.9332
   -77.9329 -77.9327 -77.9325 -77.9322 -77.9312 -77.9310 -77.9296 -77.9293
   -77.9284 -77.9272 -77.9262 -77.9245 -77.9234 -77.9225 -77.9189 -77.9177
   -77.9168 -77.9151 -77.9115 -77.9104 -77.8996 -77.8948 -77.8931 -77.8922
   -77.8906 -77.8899 -77.8891 -77.8883 -77.8856 -77.8831 -77.8813 -77.8808
   -77.8779 -77.8749 -77.8712 -77.8704 -77.8699 -77.8577 -77.8569 -77.8552
   -77.8548 -77.8531 -77.8524 -77.8517 -77.8495 -77.8487 -77.8471 -77.8443
   -77.8369 -77.8365 -77.8361 -77.8350 -77.8318 -77.8313 -77.8270 -77.8267
   -77.8265 -77.8234 -77.8165 -77.8124 -77.8103 -77.8076 -77.8027 -77.7953
   -77.7950 -77.7925 -77.7921 -77.7873 -77.7864 -77.7844 -77.7832 -77.7825
   -77.7818 -77.7803 -77.7799 -77.7788 -77.7770 -77.7758 -77.7733 -77.7677
   -77.7609 -77.7503 -77.7484 -77.7476 -77.7447 -77.7432 -77.7338 -77.7327
   -77.7286 -77.7282 -77.7211 -77.7145 -77.7115 -77.7091 -77.6998 -77.6980
   -77.6945 -77.6928 -77.6925 -77.6915 -77.6912 -77.6876 -77.6836 -77.6825
   -77.6778 -77.6776 -77.6755 -77.6752 -77.6744 -77.6732 -77.6708 -77.6700
   -77.6664 -77.6610 -77.6598 -77.6588 -77.6546 -77.6544 -77.6521 -77.6504
   -77.6492 -77.6465 -77.6381 -77.6311 -77.6297 -77.6271 -77.6192 -77.6079
   -19.6293  -7.2356  -6.9111  -6.8460  -5.8645  -5.8633  -5.8087  -5.7756
    -5.6289  -5.6155  -5.5271  -5.5232  -5.5202  -5.4899  -5.4856  -5.4844
    -5.4713  -5.4655  -5.4320  -5.4206  -5.4066  -5.3874  -5.3730  -5.3670
    -5.3399  -5.3200  -5.3184  -5.3145  -5.2785  -5.2757  -5.2726  -5.2564
    -5.2431  -5.2402  -5.2348  -5.2248  -5.2212  -5.2128  -5.2118  -5.2085
    -5.2044  -5.2020  -5.1966  -5.1888  -5.1866  -5.1846  -5.1638  -5.1614
    -5.1591  -5.1544  -5.1534  -5.1514  -5.1467  -5.1393  -5.1258  -5.1229
    -5.1051  -5.0998  -5.0991  -5.0989  -5.0914  -5.0872  -5.0870  -5.0818
    -5.0799  -5.0788  -5.0776  -5.0665  -5.0569  -5.0476  -5.0428  -5.0401
    -5.0208  -5.0156  -5.0147  -5.0024  -4.9983  -4.9969  -4.9947  -4.9930
    -4.9842  -4.9832  -4.9802  -4.9710  -4.9666  -4.9654  -4.9564  -4.9490
    -4.9422  -4.9383  -4.9338  -4.9295  -4.9179  -4.9163  -4.9138  -4.9082
    -4.9033  -4.8905  -4.8867  -4.8833  -4.8795  -4.8730  -4.8630  -4.8578
    -4.8506  -4.8472  -4.8424  -4.8366  -4.8363  -4.8304  -4.8279  -4.8262
    -4.8250  -4.8219  -4.8185  -4.8143  -4.8132  -4.8091  -4.8038  -4.8007
    -4.7849  -4.7818  -4.7783  -4.7704  -4.7677  -4.7601  -4.7543  -4.7491
    -4.7475  -4.7436  -4.7289  -4.7162  -4.7089  -4.7075  -4.7024  -4.6988
    -4.6956  -4.6925  -4.6909  -4.6737  -4.6706  -4.6670  -4.6615  -4.6608
    -4.6550  -4.6520  -4.6497  -4.6469  -4.6457  -4.6428  -4.6381  -4.6355
    -4.6334  -4.6270  -4.6256  -4.6249  -4.6174  -4.6152  -4.6128  -4.6021
    -4.5999  -4.5987  -4.5903  -4.5888  -4.5884  -4.5865  -4.5863  -4.5849
    -4.5812  -4.5774  -4.5743  -4.5718  -4.5680  -4.5615  -4.5566  -4.5533
    -4.5472  -4.5419  -4.5415  -4.5399  -4.5354  -4.5199  -4.5163  -4.5137
    -4.5067  -4.5031  -4.5009  -4.4957  -4.4911  -4.4901  -4.4897  -4.4824
    -4.4637  -4.4635  -4.4615  -4.4604  -4.4542  -4.4502  -4.4494  -4.4485
    -4.4457  -4.4430  -4.4420  -4.4379  -4.4333  -4.4290  -4.4282  -4.4214
    -4.4185  -4.4131  -4.4115  -4.4095  -4.4066  -4.4055  -4.4024  -4.3984
    -4.3959  -4.3920  -4.3871  -4.3842  -4.3813  -4.3803  -4.3781  -4.3740
    -4.3671  -4.3657  -4.3582  -4.3570  -4.3535  -4.3513  -4.3495  -4.3467
    -4.3429  -4.3376  -4.3329  -4.3308  -4.3285  -4.3263  -4.3257  -4.3227
    -4.3216  -4.3198  -4.3168  -4.3159  -4.3140  -4.3129  -4.3091  -4.3018
    -4.2997  -4.2971  -4.2921  -4.2849  -4.2826  -4.2784  -4.2756  -4.2712
    -4.2656  -4.2653  -4.2578  -4.2555  -4.2475  -4.2465  -4.2446  -4.2398
    -4.2383  -4.2351  -4.2326  -4.2262  -4.2249  -4.2189  -4.2091  -4.2039
    -4.2015  -4.1995  -4.1963  -4.1956  -4.1947  -4.1940  -4.1880  -4.1871
    -4.1843  -4.1822  -4.1764  -4.1711  -4.1694  -4.1664  -4.1612  -4.1598
    -4.1551  -4.1487  -4.1472  -4.1460  -4.1455  -4.1385  -4.1378  -4.1359
    -4.1323  -4.1311  -4.1293  -4.1238  -4.1221  -4.1193  -4.1177  -4.1174
    -4.1070  -4.1034  -4.1026  -4.1021  -4.1015  -4.0987  -4.0903  -4.0879
    -4.0817  -4.0621  -4.0558  -4.0515  -4.0415  -4.0340  -4.0219  -4.0206
    -4.0200  -3.9935  -3.9921  -3.9902  -3.9876  -3.9493  -3.9410  -3.9000
    -3.8925  -3.8820  -3.7853  -3.6701  -3.6048  -3.3659  -3.3328  -3.0848
    -3.0707  -3.0166  -2.9305  -2.9155  -2.9060  -2.2904  -2.1404  -2.0625
    -1.8612  -1.8167  -1.7699  -1.5911  -1.1300  -1.0862  -0.9723  -0.9665
    -0.7988  -0.7951  -0.4913  -0.4153  -0.1373   0.0937   0.1638   0.1836
     0.2139   0.2331   0.2800   0.2844   0.4134   0.4637   0.4740   0.5115
     0.8107   0.8519   1.4020   1.4034   1.5130   1.5394   1.6261   1.6455
     1.6688   1.6730   1.7190   1.7323   1.9622   1.9819   2.3387   2.3440
     2.3505   2.3844   2.4949   2.6589   2.7734   2.8165   2.9156   2.9190
     3.2055   3.2948   3.4228   3.4364   3.4906   3.5348   3.7254   3.8759
     4.1104   4.1362   4.6230   4.6291   4.6849   4.6978   4.7279   4.7674
     4.8176   4.8312   4.9857   5.0006   5.0281   5.0314   5.0378   5.0975
     5.1001   5.2744   5.3727   5.5004   5.5163   5.5594   5.5625   5.5758
     5.9988   6.0146   6.0622   6.1554   6.2197   6.2575   6.3000   6.3257
     6.3368   6.3564   6.5133   6.5305   6.5388   6.5416   6.6515   6.7875
     6.8634   6.9034   7.1175   7.1247   7.1951   7.2328   7.3235   7.3544
     7.3686   7.3909   7.4206   7.5418   7.5639   7.6238   7.6336   7.6982
     7.7391   7.7553   7.8098   7.9020   7.9690   7.9784   8.0287   8.0868
     8.1063   8.1264   8.1503   8.1799   8.1892   8.2096   8.2396   8.2811
     8.3858   8.4022   8.4643   8.4793   8.5516   8.5813   8.6033   8.6122
     8.7284   8.7844   8.9487   8.9884   9.0089   9.0121   9.0991   9.1478
     9.2054   9.2569   9.2837   9.3233   9.3598   9.3775   9.4610   9.5287
     9.6019   9.6061   9.6285   9.6318   9.6465   9.6647   9.8307   9.8785
     9.9031   9.9218   9.9850  10.0057  10.0399  10.0605  10.0732  10.2367
    10.2511  10.2990  10.3042  10.3268  10.3709

     occupation numbers 
     1.0000   1.0000   1.0000   1.0000   1.0000   1.0000   1.0000   1.0000
     1.0000   1.0000   1.0000   1.0000   1.0000   1.0000   1.0000   1.0000
     1.0000   1.0000   1.0000   1.0000   1.0000   1.0000   1.0000   1.0000
     1.0000   1.0000   1.0000   1.0000   1.0000   1.0000   1.0000   1.0000
     1.0000   1.0000   1.0000   1.0000   1.0000   1.0000   1.0000   1.0000
     1.0000   1.0000   1.0000   1.0000   1.0000   1.0000   1.0000   1.0000
     1.0000   1.0000   1.0000   1.0000   1.0000   1.0000   1.0000   1.0000
     1.0000   1.0000   1.0000   1.0000   1.0000   1.0000   1.0000   1.0000
     1.0000   1.0000   1.0000   1.0000   1.0000   1.0000   1.0000   1.0000
     1.0000   1.0000   1.0000   1.0000   1.0000   1.0000   1.0000   1.0000
     1.0000   1.0000   1.0000   1.0000   1.0000   1.0000   1.0000   1.0000
     1.0000   1.0000   1.0000   1.0000   1.0000   1.0000   1.0000   1.0000
     1.0000   1.0000   1.0000   1.0000   1.0000   1.0000   1.0000   1.0000
     1.0000   1.0000   1.0000   1.0000   1.0000   1.0000   1.0000   1.0000
     1.0000   1.0000   1.0000   1.0000   1.0000   1.0000   1.0000   1.0000
     1.0000   1.0000   1.0000   1.0000   1.0000   1.0000   1.0000   1.0000
     1.0000   1.0000   1.0000   1.0000   1.0000   1.0000   1.0000   1.0000
     1.0000   1.0000   1.0000   1.0000   1.0000   1.0000   1.0000   1.0000
     1.0000   1.0000   1.0000   1.0000   1.0000   1.0000   1.0000   1.0000
     1.0000   1.0000   1.0000   1.0000   1.0000   1.0000   1.0000   1.0000
     1.0000   1.0000   1.0000   1.0000   1.0000   1.0000   1.0000   1.0000
     1.0000   1.0000   1.0000   1.0000   1.0000   1.0000   1.0000   1.0000
     1.0000   1.0000   1.0000   1.0000   1.0000   1.0000   1.0000   1.0000
     1.0000   1.0000   1.0000   1.0000   1.0000   1.0000   1.0000   1.0000
     1.0000   1.0000   1.0000   1.0000   1.0000   1.0000   1.0000   1.0000
     1.0000   1.0000   1.0000   1.0000   1.0000   1.0000   1.0000   1.0000
     1.0000   1.0000   1.0000   1.0000   1.0000   1.0000   1.0000   1.0000
     1.0000   1.0000   1.0000   1.0000   1.0000   1.0000   1.0000   1.0000
     1.0000   1.0000   1.0000   1.0000   1.0000   1.0000   1.0000   1.0000
     1.0000   1.0000   1.0000   1.0000   1.0000   1.0000   1.0000   1.0000
     1.0000   1.0000   1.0000   1.0000   1.0000   1.0000   1.0000   1.0000
     1.0000   1.0000   1.0000   1.0000   1.0000   1.0000   1.0000   1.0000
     1.0000   1.0000   1.0000   1.0000   1.0000   1.0000   1.0000   1.0000
     1.0000   1.0000   1.0000   1.0000   1.0000   1.0000   1.0000   1.0000
     1.0000   1.0000   1.0000   1.0000   1.0000   1.0000   1.0000   1.0000
     1.0000   1.0000   1.0000   1.0000   1.0000   1.0000   1.0000   1.0000
     1.0000   1.0000   1.0000   1.0000   1.0000   1.0000   1.0000   1.0000
     1.0000   1.0000   1.0000   1.0000   1.0000   1.0000   1.0000   1.0000
     1.0000   1.0000   1.0000   1.0000   1.0000   1.0000   1.0000   1.0000
     1.0000   1.0000   1.0000   1.0000   1.0000   1.0000   1.0000   1.0000
     1.0000   1.0000   1.0000   1.0000   1.0000   1.0000   1.0000   1.0000
     1.0000   1.0000   1.0000   1.0000   1.0000   1.0000   1.0000   1.0000
     1.0000   1.0000   1.0000   1.0000   1.0000   1.0000   1.0000   1.0000
     1.0000   1.0000   1.0000   1.0000   1.0000   1.0000   1.0000   1.0000
     1.0000   1.0000   1.0000   1.0000   1.0000   1.0000   1.0000   1.0000
     1.0000   1.0000   1.0000   1.0000   1.0000   1.0000   1.0000   1.0000
     1.0000   1.0000   1.0000   1.0000   1.0000   1.0000   1.0000   1.0000
     1.0000   1.0000   1.0000   1.0000   1.0000   1.0000   1.0000   1.0000
     1.0000   1.0000   1.0000   1.0000   1.0000   1.0000   1.0000   1.0000
     1.0000   1.0000   1.0000   1.0000   1.0000   1.0000   1.0000   1.0000
     1.0000   1.0000   1.0000   1.0000   1.0000   1.0000   1.0000   1.0000
     1.0000   1.0000   1.0000   1.0000   1.0000   1.0000   1.0000   1.0000
     1.0000   1.0000   1.0000   1.0000   1.0000   1.0000   1.0000   1.0000
     1.0000   1.0000   1.0000   1.0000   1.0000   1.0000   1.0000   1.0000
     1.0000   1.0000   1.0000   1.0000   1.0000   1.0000   1.0000   1.0000
     1.0000   1.0000   1.0000   1.0000   1.0000   1.0000   1.0000   1.0000
     1.0000   1.0000   1.0000   1.0000   1.0000   1.0000   1.0000   1.0000
     1.0000   1.0000   1.0000   1.0000   1.0000   1.0000   1.0000   1.0000
     1.0000   1.0000   1.0000   1.0000   1.0000   1.0000   1.0000   1.0000
     1.0000   1.0000   1.0000   1.0000   1.0000   1.0000   1.0000   1.0000
     1.0000   1.0000   1.0000   1.0000   1.0000   1.0000   1.0000   1.0000
     1.0000   1.0000   1.0000   1.0000   1.0000   1.0000   1.0000   1.0000
     1.0000   1.0000   1.0000   1.0000   1.0000   1.0000   1.0000   1.0000
     1.0000   1.0000   1.0000   1.0000   1.0000   1.0000   1.0000   1.0000
     1.0000   1.0000   1.0000   1.0000   1.0000   1.0000   1.0000   1.0000
     1.0000   1.0000   1.0000   1.0000   1.0000   1.0000   1.0000   1.0000
     1.0000   1.0000   1.0000   1.0000   1.0000   1.0000   1.0000   1.0000
     1.0000   1.0000   1.0000   1.0000   1.0000   1.0000   1.0000   1.0000
     1.0000   1.0000   1.0000   1.0000   1.0000   1.0000   1.0000   1.0000
     1.0000   1.0000   1.0000   1.0000   1.0000   1.0000   1.0000   1.0000
     1.0000   1.0000   1.0000   1.0000   1.0000   1.0000   1.0000   1.0000
     1.0000   1.0000   1.0000   1.0000   1.0000   1.0000   1.0000   1.0000
     1.0000   1.0000   1.0000   1.0000   1.0000   1.0000   1.0000   1.0000
     1.0000   1.0000   1.0000   1.0000   1.0000   1.0000   1.0000   1.0000
     1.0000   1.0000   1.0000   1.0000   1.0000   1.0000   1.0000   1.0000
     1.0000   1.0000   1.0000   1.0000   1.0000   1.0000   1.0000   1.0000
     1.0000   1.0000   1.0000   1.0000   1.0000   1.0000   1.0000   1.0000
     1.0000   1.0000   1.0000   1.0000   1.0000   1.0000   1.0000   1.0000
     1.0000   1.0000   1.0000   1.0000   1.0000   1.0000   1.0000   1.0000
     1.0000   1.0000   1.0000   1.0000   1.0018   1.0025   1.0782   1.0794
     1.0805   1.0833   1.0258   0.6907   0.3826   0.2835   0.1201   0.1161
     0.0023   0.0004   0.0000   0.0000   0.0000   0.0000   0.0000   0.0000
     0.0000   0.0000   0.0000   0.0000   0.0000   0.0000   0.0000   0.0000
     0.0000   0.0000   0.0000   0.0000   0.0000   0.0000   0.0000   0.0000
     0.0000   0.0000   0.0000   0.0000   0.0000   0.0000   0.0000   0.0000
     0.0000   0.0000   0.0000   0.0000   0.0000   0.0000   0.0000   0.0000
     0.0000   0.0000   0.0000   0.0000   0.0000   0.0000   0.0000   0.0000
     0.0000   0.0000   0.0000   0.0000   0.0000   0.0000   0.0000   0.0000
     0.0000   0.0000   0.0000   0.0000   0.0000   0.0000   0.0000   0.0000
     0.0000   0.0000   0.0000   0.0000   0.0000   0.0000   0.0000   0.0000
     0.0000   0.0000   0.0000   0.0000   0.0000   0.0000   0.0000   0.0000
     0.0000   0.0000   0.0000   0.0000   0.0000   0.0000   0.0000   0.0000
     0.0000   0.0000   0.0000   0.0000   0.0000   0.0000   0.0000   0.0000
     0.0000   0.0000   0.0000   0.0000   0.0000   0.0000   0.0000   0.0000
     0.0000   0.0000   0.0000   0.0000   0.0000   0.0000   0.0000   0.0000
     0.0000   0.0000   0.0000   0.0000   0.0000   0.0000   0.0000   0.0000
     0.0000   0.0000   0.0000   0.0000   0.0000

          k =-0.5000-0.6659-1.3845 ( 46722 PWs)   bands (ev):

  -123.9281-123.9226-123.9209-123.9206-123.9174-123.9161-123.9156-123.9112
  -123.8732-123.8686-123.8663-123.8659-123.8651-123.8645-123.8640-123.8628
  -123.8614-123.8607-123.8548-123.8530-123.8488-123.8472-123.8457-123.8415
  -123.8368-123.8358-123.8325-123.8315-123.8048-123.8022-123.8017-123.7997
  -123.7752-123.7724-123.7695-123.7683-123.7537-123.7518-123.7491-123.7453
  -123.7338-123.7277-123.7007-123.6975-123.6973-123.6960-123.6920-123.6858
  -123.6577-123.6479-123.6468-123.6426-123.6122-123.6060-123.5912-123.5888
  -123.5884-123.5870-123.5842-123.5801-123.5672-123.5517-123.5445-123.5431
   -78.0259 -78.0204 -78.0202 -78.0175 -78.0151 -78.0139 -78.0136 -78.0129
   -78.0100 -78.0095 -78.0083 -78.0074 -78.0045 -78.0035 -78.0026 -78.0020
   -78.0012 -77.9988 -77.9975 -77.9969 -77.9964 -77.9945 -77.9921 -77.9909
   -77.9675 -77.9644 -77.9630 -77.9626 -77.9617 -77.9602 -77.9595 -77.9593
   -77.9587 -77.9584 -77.9583 -77.9571 -77.9559 -77.9553 -77.9548 -77.9539
   -77.9533 -77.9525 -77.9520 -77.9510 -77.9504 -77.9498 -77.9495 -77.9494
   -77.9488 -77.9482 -77.9476 -77.9464 -77.9459 -77.9451 -77.9434 -77.9399
   -77.9393 -77.9369 -77.9364 -77.9353 -77.9344 -77.9343 -77.9331 -77.9319
   -77.9317 -77.9306 -77.9305 -77.9298 -77.9294 -77.9287 -77.9285 -77.9276
   -77.9267 -77.9258 -77.9253 -77.9248 -77.9234 -77.9232 -77.9217 -77.9208
   -77.9176 -77.9162 -77.9077 -77.9065 -77.9050 -77.9013 -77.8923 -77.8901
   -77.8890 -77.8880 -77.8877 -77.8867 -77.8848 -77.8843 -77.8822 -77.8804
   -77.8772 -77.8741 -77.8703 -77.8691 -77.8639 -77.8605 -77.8574 -77.8558
   -77.8547 -77.8538 -77.8526 -77.8519 -77.8507 -77.8438 -77.8430 -77.8423
   -77.8398 -77.8355 -77.8354 -77.8350 -77.8339 -77.8307 -77.8299 -77.8261
   -77.8258 -77.8207 -77.8156 -77.8139 -77.8096 -77.8086 -77.7964 -77.7945
   -77.7943 -77.7924 -77.7917 -77.7915 -77.7865 -77.7855 -77.7841 -77.7826
   -77.7815 -77.7799 -77.7790 -77.7771 -77.7762 -77.7746 -77.7725 -77.7701
   -77.7599 -77.7494 -77.7475 -77.7439 -77.7430 -77.7418 -77.7360 -77.7333
   -77.7319 -77.7280 -77.7183 -77.7139 -77.7136 -77.7082 -77.6991 -77.6948
   -77.6936 -77.6920 -77.6918 -77.6907 -77.6901 -77.6866 -77.6831 -77.6825
   -77.6773 -77.6767 -77.6747 -77.6744 -77.6737 -77.6725 -77.6709 -77.6701
   -77.6685 -77.6656 -77.6585 -77.6560 -77.6548 -77.6539 -77.6511 -77.6495
   -77.6483 -77.6459 -77.6375 -77.6323 -77.6305 -77.6289 -77.6177 -77.6096
   -19.6293  -7.2356  -6.6765  -6.6622  -6.3779  -6.3673  -5.5942  -5.5850
    -5.4866  -5.4846  -5.4544  -5.4499  -5.4440  -5.4437  -5.4400  -5.4377
    -5.4291  -5.4273  -5.3928  -5.3909  -5.3886  -5.3835  -5.3710  -5.3676
    -5.3647  -5.3595  -5.3438  -5.3421  -5.3382  -5.3373  -5.3319  -5.3304
    -5.3267  -5.3199  -5.3103  -5.3067  -5.3018  -5.2978  -5.2016  -5.1986
    -5.1980  -5.1966  -5.1952  -5.1901  -5.1849  -5.1834  -5.1601  -5.1584
    -5.1560  -5.1540  -5.1529  -5.1506  -5.1468  -5.1424  -5.1371  -5.1309
    -5.1269  -5.1239  -5.1192  -5.1167  -5.1020  -5.0997  -5.0791  -5.0752
    -5.0745  -5.0728  -5.0688  -5.0643  -5.0530  -5.0500  -5.0463  -5.0438
    -5.0348  -5.0291  -5.0180  -5.0159  -5.0110  -5.0090  -5.0028  -4.9991
    -4.9965  -4.9931  -4.9862  -4.9804  -4.9791  -4.9752  -4.9714  -4.9706
    -4.9648  -4.9630  -4.9578  -4.9558  -4.9422  -4.9404  -4.9304  -4.9256
    -4.9174  -4.9161  -4.9126  -4.9096  -4.8946  -4.8907  -4.8815  -4.8764
    -4.8602  -4.8592  -4.8507  -4.8454  -4.8362  -4.8348  -4.8291  -4.8282
    -4.8263  -4.8242  -4.8195  -4.8155  -4.8055  -4.8022  -4.7947  -4.7922
    -4.7884  -4.7848  -4.7832  -4.7819  -4.7720  -4.7683  -4.7625  -4.7612
    -4.7513  -4.7480  -4.7433  -4.7400  -4.7297  -4.7263  -4.7237  -4.7222
    -4.7135  -4.7096  -4.7030  -4.6995  -4.6963  -4.6929  -4.6916  -4.6880
    -4.6765  -4.6720  -4.6686  -4.6664  -4.6572  -4.6559  -4.6465  -4.6421
    -4.6382  -4.6370  -4.6338  -4.6309  -4.6292  -4.6275  -4.6140  -4.6135
    -4.6073  -4.6063  -4.5993  -4.5917  -4.5851  -4.5800  -4.5763  -4.5741
    -4.5736  -4.5686  -4.5673  -4.5624  -4.5553  -4.5506  -4.5496  -4.5475
    -4.5391  -4.5331  -4.5310  -4.5292  -4.5222  -4.5200  -4.5116  -4.5091
    -4.5072  -4.5056  -4.5033  -4.5018  -4.4958  -4.4916  -4.4824  -4.4806
    -4.4759  -4.4720  -4.4655  -4.4625  -4.4605  -4.4570  -4.4549  -4.4532
    -4.4492  -4.4458  -4.4399  -4.4359  -4.4299  -4.4265  -4.4185  -4.4158
    -4.4116  -4.4100  -4.4041  -4.3981  -4.3960  -4.3885  -4.3855  -4.3811
    -4.3799  -4.3727  -4.3671  -4.3584  -4.3582  -4.3548  -4.3519  -4.3473
    -4.3466  -4.3443  -4.3431  -4.3402  -4.3296  -4.3285  -4.3276  -4.3255
    -4.3239  -4.3228  -4.3130  -4.3114  -4.3106  -4.3088  -4.2989  -4.2966
    -4.2940  -4.2874  -4.2864  -4.2830  -4.2772  -4.2715  -4.2700  -4.2691
    -4.2634  -4.2580  -4.2557  -4.2531  -4.2515  -4.2484  -4.2468  -4.2463
    -4.2436  -4.2414  -4.2373  -4.2330  -4.2289  -4.2246  -4.2204  -4.2153
    -4.2139  -4.2129  -4.2115  -4.2073  -4.2061  -4.2012  -4.1972  -4.1947
    -4.1918  -4.1899  -4.1890  -4.1870  -4.1851  -4.1844  -4.1819  -4.1768
    -4.1744  -4.1731  -4.1713  -4.1682  -4.1679  -4.1630  -4.1587  -4.1583
    -4.1551  -4.1543  -4.1523  -4.1504  -4.1487  -4.1466  -4.1396  -4.1359
    -4.1310  -4.1303  -4.1289  -4.1274  -4.1213  -4.1196  -4.1143  -4.1141
    -4.1127  -4.1113  -4.1031  -4.1004  -4.0980  -4.0950  -4.0896  -4.0857
    -4.0801  -4.0762  -4.0720  -4.0692  -4.0573  -4.0547  -4.0439  -4.0409
    -4.0381  -4.0343  -4.0340  -4.0279  -4.0147  -4.0113  -3.9735  -3.9647
    -3.9407  -3.9211  -3.6808  -3.3961  -3.3841  -3.2037  -3.2020  -2.7887
    -2.7402  -2.6005  -2.5495  -2.5013  -2.4913  -2.3730  -2.3693  -2.1999
    -2.1770  -2.1507  -2.1381  -1.7800  -1.7137  -1.6958  -1.3166  -1.3058
    -1.1325  -1.1077  -0.4627  -0.4587  -0.4544  -0.4272  -0.2311  -0.2152
    -0.1068  -0.0495   0.3268   0.3677   0.6753   0.7091   0.7559   0.7892
     1.2250   1.2341   1.4712   1.4830   1.4902   1.4952   2.0437   2.0743
     2.1160   2.1263   2.2252   2.2420   2.3807   2.3920   2.4338   2.4377
     2.6030   2.6120   2.7683   2.8011   2.8531   2.8666   3.1490   3.1596
     3.1977   3.2067   3.3100   3.3577   3.3770   3.3810   3.9086   3.9465
     4.1288   4.1366   4.2170   4.2309   4.3276   4.3320   4.3428   4.3761
     4.6711   4.6744   4.6858   4.6942   4.8491   4.8540   4.9695   4.9999
     5.1883   5.3416   5.3751   5.4887   5.5669   5.5857   5.6253   5.6439
     5.6983   5.7471   5.9657   5.9896   6.0157   6.0366   6.2246   6.3288
     6.3323   6.3918   6.4436   6.4538   6.6699   6.6775   6.6838   6.7038
     6.8429   6.9039   6.9083   6.9562   6.9863   7.0086   7.0864   7.1070
     7.2139   7.2525   7.2989   7.3397   7.3437   7.3547   7.4731   7.4908
     7.5423   7.5875   7.8599   7.9384   7.9723   7.9913   8.0067   8.0354
     8.2196   8.2623   8.3029   8.3092   8.4673   8.5110   8.6091   8.6220
     8.6817   8.7033   8.7258   8.7550   8.7631   8.7792   8.8230   8.8434
     8.8986   8.9258   8.9702   9.0018   9.0433   9.0720   9.2135   9.2485
     9.2671   9.2887   9.3119   9.3493   9.3830   9.4104   9.4617   9.5377
     9.6091   9.6285   9.6461   9.6656   9.7226   9.7703   9.7915   9.8182
     9.8487   9.8666   9.8758   9.8900   9.9928  10.0263  10.0595  10.0914
    10.1261  10.1562  10.2473  10.2946  10.3621

     occupation numbers 
     1.0000   1.0000   1.0000   1.0000   1.0000   1.0000   1.0000   1.0000
     1.0000   1.0000   1.0000   1.0000   1.0000   1.0000   1.0000   1.0000
     1.0000   1.0000   1.0000   1.0000   1.0000   1.0000   1.0000   1.0000
     1.0000   1.0000   1.0000   1.0000   1.0000   1.0000   1.0000   1.0000
     1.0000   1.0000   1.0000   1.0000   1.0000   1.0000   1.0000   1.0000
     1.0000   1.0000   1.0000   1.0000   1.0000   1.0000   1.0000   1.0000
     1.0000   1.0000   1.0000   1.0000   1.0000   1.0000   1.0000   1.0000
     1.0000   1.0000   1.0000   1.0000   1.0000   1.0000   1.0000   1.0000
     1.0000   1.0000   1.0000   1.0000   1.0000   1.0000   1.0000   1.0000
     1.0000   1.0000   1.0000   1.0000   1.0000   1.0000   1.0000   1.0000
     1.0000   1.0000   1.0000   1.0000   1.0000   1.0000   1.0000   1.0000
     1.0000   1.0000   1.0000   1.0000   1.0000   1.0000   1.0000   1.0000
     1.0000   1.0000   1.0000   1.0000   1.0000   1.0000   1.0000   1.0000
     1.0000   1.0000   1.0000   1.0000   1.0000   1.0000   1.0000   1.0000
     1.0000   1.0000   1.0000   1.0000   1.0000   1.0000   1.0000   1.0000
     1.0000   1.0000   1.0000   1.0000   1.0000   1.0000   1.0000   1.0000
     1.0000   1.0000   1.0000   1.0000   1.0000   1.0000   1.0000   1.0000
     1.0000   1.0000   1.0000   1.0000   1.0000   1.0000   1.0000   1.0000
     1.0000   1.0000   1.0000   1.0000   1.0000   1.0000   1.0000   1.0000
     1.0000   1.0000   1.0000   1.0000   1.0000   1.0000   1.0000   1.0000
     1.0000   1.0000   1.0000   1.0000   1.0000   1.0000   1.0000   1.0000
     1.0000   1.0000   1.0000   1.0000   1.0000   1.0000   1.0000   1.0000
     1.0000   1.0000   1.0000   1.0000   1.0000   1.0000   1.0000   1.0000
     1.0000   1.0000   1.0000   1.0000   1.0000   1.0000   1.0000   1.0000
     1.0000   1.0000   1.0000   1.0000   1.0000   1.0000   1.0000   1.0000
     1.0000   1.0000   1.0000   1.0000   1.0000   1.0000   1.0000   1.0000
     1.0000   1.0000   1.0000   1.0000   1.0000   1.0000   1.0000   1.0000
     1.0000   1.0000   1.0000   1.0000   1.0000   1.0000   1.0000   1.0000
     1.0000   1.0000   1.0000   1.0000   1.0000   1.0000   1.0000   1.0000
     1.0000   1.0000   1.0000   1.0000   1.0000   1.0000   1.0000   1.0000
     1.0000   1.0000   1.0000   1.0000   1.0000   1.0000   1.0000   1.0000
     1.0000   1.0000   1.0000   1.0000   1.0000   1.0000   1.0000   1.0000
     1.0000   1.0000   1.0000   1.0000   1.0000   1.0000   1.0000   1.0000
     1.0000   1.0000   1.0000   1.0000   1.0000   1.0000   1.0000   1.0000
     1.0000   1.0000   1.0000   1.0000   1.0000   1.0000   1.0000   1.0000
     1.0000   1.0000   1.0000   1.0000   1.0000   1.0000   1.0000   1.0000
     1.0000   1.0000   1.0000   1.0000   1.0000   1.0000   1.0000   1.0000
     1.0000   1.0000   1.0000   1.0000   1.0000   1.0000   1.0000   1.0000
     1.0000   1.0000   1.0000   1.0000   1.0000   1.0000   1.0000   1.0000
     1.0000   1.0000   1.0000   1.0000   1.0000   1.0000   1.0000   1.0000
     1.0000   1.0000   1.0000   1.0000   1.0000   1.0000   1.0000   1.0000
     1.0000   1.0000   1.0000   1.0000   1.0000   1.0000   1.0000   1.0000
     1.0000   1.0000   1.0000   1.0000   1.0000   1.0000   1.0000   1.0000
     1.0000   1.0000   1.0000   1.0000   1.0000   1.0000   1.0000   1.0000
     1.0000   1.0000   1.0000   1.0000   1.0000   1.0000   1.0000   1.0000
     1.0000   1.0000   1.0000   1.0000   1.0000   1.0000   1.0000   1.0000
     1.0000   1.0000   1.0000   1.0000   1.0000   1.0000   1.0000   1.0000
     1.0000   1.0000   1.0000   1.0000   1.0000   1.0000   1.0000   1.0000
     1.0000   1.0000   1.0000   1.0000   1.0000   1.0000   1.0000   1.0000
     1.0000   1.0000   1.0000   1.0000   1.0000   1.0000   1.0000   1.0000
     1.0000   1.0000   1.0000   1.0000   1.0000   1.0000   1.0000   1.0000
     1.0000   1.0000   1.0000   1.0000   1.0000   1.0000   1.0000   1.0000
     1.0000   1.0000   1.0000   1.0000   1.0000   1.0000   1.0000   1.0000
     1.0000   1.0000   1.0000   1.0000   1.0000   1.0000   1.0000   1.0000
     1.0000   1.0000   1.0000   1.0000   1.0000   1.0000   1.0000   1.0000
     1.0000   1.0000   1.0000   1.0000   1.0000   1.0000   1.0000   1.0000
     1.0000   1.0000   1.0000   1.0000   1.0000   1.0000   1.0000   1.0000
     1.0000   1.0000   1.0000   1.0000   1.0000   1.0000   1.0000   1.0000
     1.0000   1.0000   1.0000   1.0000   1.0000   1.0000   1.0000   1.0000
     1.0000   1.0000   1.0000   1.0000   1.0000   1.0000   1.0000   1.0000
     1.0000   1.0000   1.0000   1.0000   1.0000   1.0000   1.0000   1.0000
     1.0000   1.0000   1.0000   1.0000   1.0000   1.0000   1.0000   1.0000
     1.0000   1.0000   1.0000   1.0000   1.0000   1.0000   1.0000   1.0000
     1.0000   1.0000   1.0000   1.0000   1.0000   1.0000   1.0000   1.0000
     1.0000   1.0000   1.0000   1.0000   1.0000   1.0000   1.0000   1.0000
     1.0000   1.0000   1.0000   1.0000   1.0000   1.0000   1.0000   1.0000
     1.0000   1.0000   1.0000   1.0000   1.0000   1.0000   1.0000   1.0000
     1.0000   1.0000   1.0000   1.0000   1.0000   1.0000   1.0000   1.0000
     1.0000   1.0000   1.0000   1.0000   1.0000   1.0000   1.0000   1.0000
     1.0000   1.0000   1.0000   1.0000   1.0000   1.0000   1.0000   1.0000
     1.0000   1.0000   1.0000   1.0000   1.0000   1.0000   1.0000   1.0000
     1.0000   1.0000   1.0000   1.0000   1.0000   1.0000   1.0000   1.0000
     1.0000   1.0000   1.0000   1.0000   1.0000   1.0000   1.0000   1.0000
     1.0000   1.0000   1.0000   1.0000   1.0000   1.0000   1.0000   1.0000
     1.0000   1.0000   1.0000   1.0000   1.0000   1.0000   1.0000   1.0000
     1.0000   1.0000   1.0000   1.0000   1.0000   1.0000   1.0000   1.0000
     1.0000   1.0000   1.0000   1.0000   1.0000   1.0000   1.0000   1.0000
     1.0000   1.0000   1.0000   1.0000   1.0000   1.0000   1.0000   1.0000
     1.0000   1.0000   1.0000   1.0000   1.0000   1.0000   1.0060   1.0090
     1.0149   1.0167   1.0423   1.0479   1.0833   1.0829   1.0727   1.0709
     0.8338   0.8122   0.3953   0.3171   0.2122   0.1892   0.0060   0.0050
     0.0027   0.0023   0.0003   0.0001   0.0001   0.0001   0.0000   0.0000
     0.0000   0.0000   0.0000   0.0000   0.0000   0.0000   0.0000   0.0000
     0.0000   0.0000   0.0000   0.0000   0.0000   0.0000   0.0000   0.0000
     0.0000   0.0000   0.0000   0.0000   0.0000   0.0000   0.0000   0.0000
     0.0000   0.0000   0.0000   0.0000   0.0000   0.0000   0.0000   0.0000
     0.0000   0.0000   0.0000   0.0000   0.0000   0.0000   0.0000   0.0000
     0.0000   0.0000   0.0000   0.0000   0.0000   0.0000   0.0000   0.0000
     0.0000   0.0000   0.0000   0.0000   0.0000   0.0000   0.0000   0.0000
[...]
     atom   50 type  1   force =     0.00000000    0.00000000    0.00000000
     atom   51 type  1   force =     0.00000000    0.00000000    0.00000000
     atom   52 type  1   force =     0.00000000    0.00000000    0.00000000
     atom   53 type  1   force =     0.00000000    0.00000000    0.00000000
     atom   54 type  1   force =     0.00000000    0.00000000    0.00000000
     atom   55 type  1   force =     0.00000000    0.00000000    0.00000000
     atom   56 type  1   force =     0.00000000    0.00000000    0.00000000
     atom   57 type  1   force =     0.00000000    0.00000000    0.00000000
     atom   58 type  1   force =     0.00000000    0.00000000    0.00000000
     atom   59 type  1   force =     0.00000000    0.00000000    0.00000000
     atom   60 type  1   force =     0.00000000    0.00000000    0.00000000
     atom   61 type  1   force =     0.00000000    0.00000000    0.00000000
     atom   62 type  1   force =     0.00000000    0.00000000    0.00000000
     atom   63 type  1   force =     0.00000000    0.00000000    0.00000000
     atom   64 type  1   force =     0.00000000    0.00000000    0.00000000
     atom   65 type  3   force =     0.00000000    0.00000000    0.00000000
     atom   66 type  2   force =     0.00000000    0.00000000    0.00000000
     atom   67 type  2   force =     0.00000000    0.00000000    0.00000000
     The SCF correction term to forces
     atom    1 type  1   force =    -0.00000000   -0.00000000   -0.00000000
     atom    2 type  1   force =    -0.00000000   -0.00000000   -0.00000000
     atom    3 type  1   force =     0.00000000   -0.00000000   -0.00000000
     atom    4 type  1   force =     0.00000000    0.00000000   -0.00000000
     atom    5 type  1   force =    -0.00000805   -0.00001876    0.00003786
     atom    6 type  1   force =     0.00001599    0.00001831    0.00006438
     atom    7 type  1   force =    -0.00000781   -0.00001387    0.00000669
     atom    8 type  1   force =     0.00001389    0.00001155    0.00004769
     atom    9 type  1   force =    -0.00000000   -0.00000000   -0.00000000
     atom   10 type  1   force =    -0.00000000   -0.00000000   -0.00000000
     atom   11 type  1   force =     0.00000000    0.00000000   -0.00000000
     atom   12 type  1   force =     0.00000000    0.00000000   -0.00000000
     atom   13 type  1   force =    -0.00001336    0.00000578    0.00003890
     atom   14 type  1   force =     0.00002138   -0.00000061    0.00005928
     atom   15 type  1   force =     0.00002488   -0.00003080    0.00002844
     atom   16 type  1   force =     0.00000599    0.00004038    0.00001949
     atom   17 type  1   force =     0.00000000    0.00000000    0.00000000
     atom   18 type  1   force =     0.00000000    0.00000000    0.00000000
     atom   19 type  1   force =    -0.00000000   -0.00000000   -0.00000000
     atom   20 type  1   force =    -0.00000000   -0.00000000    0.00000000
     atom   21 type  1   force =     0.00000169   -0.00004998   -0.00003403
     atom   22 type  1   force =    -0.00003147    0.00003409   -0.00001388
     atom   23 type  1   force =    -0.00000143   -0.00004532    0.00001744
     atom   24 type  1   force =    -0.00002730    0.00003227    0.00000532
     atom   25 type  1   force =     0.00000000    0.00000000    0.00000000
     atom   26 type  1   force =     0.00000000    0.00000000    0.00000000
     atom   27 type  1   force =    -0.00000000   -0.00000000   -0.00000000
     atom   28 type  1   force =    -0.00000000    0.00000000   -0.00000000
     atom   29 type  1   force =    -0.00000442   -0.00003033   -0.00003451
     atom   30 type  1   force =    -0.00002896    0.00002950   -0.00001074
     atom   31 type  1   force =    -0.00002007   -0.00000340    0.00002506
     atom   32 type  1   force =    -0.00000807    0.00000010    0.00000876
     atom   33 type  1   force =    -0.00000000    0.00000000   -0.00000000
     atom   34 type  1   force =     0.00000000   -0.00000000   -0.00000000
     atom   35 type  1   force =    -0.00000000   -0.00000000   -0.00000000
     atom   36 type  1   force =    -0.00000000    0.00000000   -0.00000000
     atom   37 type  1   force =     0.00007343   -0.00002442    0.00000423
     atom   38 type  1   force =     0.00002914    0.00004277   -0.00000443
     atom   39 type  1   force =    -0.00001734   -0.00001431    0.00005088
     atom   40 type  1   force =     0.00000687    0.00001080    0.00005384
     atom   41 type  1   force =    -0.00000000   -0.00000000   -0.00000000
     atom   42 type  1   force =    -0.00000000    0.00000000   -0.00000000
     atom   43 type  1   force =    -0.00000000   -0.00000000   -0.00000000
     atom   44 type  1   force =    -0.00000000    0.00000000   -0.00000000
     atom   45 type  1   force =     0.00004166    0.00000458   -0.00002174
     atom   46 type  1   force =     0.00005734    0.00002711    0.00001611
     atom   47 type  1   force =    -0.00002694   -0.00001419    0.00004618
     atom   48 type  1   force =     0.00001622    0.00001359    0.00006272
     atom   49 type  1   force =     0.00000000   -0.00000000    0.00000000
     atom   50 type  1   force =     0.00000000    0.00000000    0.00000000
     atom   51 type  1   force =     0.00000000    0.00000000    0.00000000
     atom   52 type  1   force =     0.00000000    0.00000000    0.00000000
     atom   53 type  1   force =    -0.00006403   -0.00001212   -0.00000259
     atom   54 type  1   force =    -0.00001711   -0.00000890    0.00001514
     atom   55 type  1   force =     0.00002847   -0.00001790   -0.00001889
     atom   56 type  1   force =     0.00001124    0.00001180    0.00003606
     atom   57 type  1   force =     0.00000000   -0.00000000   -0.00000000
     atom   58 type  1   force =     0.00000000    0.00000000    0.00000000
     atom   59 type  1   force =     0.00000000    0.00000000   -0.00000000
     atom   60 type  1   force =     0.00000000    0.00000000    0.00000000
     atom   61 type  1   force =    -0.00003090   -0.00004111   -0.00000676
     atom   62 type  1   force =    -0.00004950    0.00002014    0.00001917
     atom   63 type  1   force =     0.00002329   -0.00003049    0.00001033
     atom   64 type  1   force =    -0.00001323    0.00004241   -0.00001752
     atom   65 type  3   force =     0.00000678   -0.00000952   -0.00000088
     atom   66 type  2   force =    -0.00000179    0.00000179    0.00000088
     atom   67 type  2   force =    -0.00000025   -0.00000206    0.00000117

     Total force =     0.001543     Total SCF correction =     0.000286
     SCF correction compared to forces is large: reduce conv_thr to get better values


     Computing stress (Cartesian axis) and pressure


     negative rho (up, down):  1.370E-02 0.000E+00
          total   stress  (Ry/bohr**3)                   (kbar)     P=     -282.32
  -0.00199293  -0.00003211   0.00002178         -293.17       -4.72        3.20
  -0.00003211  -0.00191308   0.00000425           -4.72     -281.42        0.63
   0.00002178   0.00000425  -0.00185146            3.20        0.63     -272.36

     kinetic stress (kbar)  15196.68      8.11      2.03
                                8.11  15160.55      1.32
                                2.03      1.32  15226.06

     local   stress (kbar)**********   3114.68  -1362.32
                             3114.68**********   -379.90
                            -1362.32   -379.901220891.02

     nonloc. stress (kbar)  -1841.13     -7.63      2.31
                               -7.63  -1815.93      0.27
                                2.31      0.27  -1856.21

     hartree stress (kbar) 637128.67  -1336.56    564.83
                            -1336.56 642309.49    158.28
                              564.83    158.28-568879.36

     exc-cor stress (kbar)  -7563.02     -0.89      0.33
                               -0.89  -7559.61      0.07
                                0.33      0.07  -7566.50

     corecor stress (kbar)     -3.49     -0.00     -0.02
                               -0.00     -3.47     -0.01
                               -0.02     -0.01     -3.64

     ewald   stress (kbar) 563818.72  -1782.44    796.04
                            -1782.44 570738.50    220.59
                              796.04    220.59-658083.73

     hubbard stress (kbar)      0.00      0.00      0.00
                                0.00      0.00      0.00
                                0.00      0.00      0.00

     DFT-D   stress (kbar)      0.00      0.00      0.00
                                0.00      0.00      0.00
                                0.00      0.00      0.00

     XDM     stress (kbar)      0.00      0.00      0.00
                                0.00      0.00      0.00
                                0.00      0.00      0.00

     dft-nl  stress (kbar)      0.00      0.00      0.00
                                0.00      0.00      0.00
                                0.00      0.00      0.00

     TS-vdW  stress (kbar)      0.00      0.00      0.00
                                0.00      0.00      0.00
                                0.00      0.00      0.00

     MDB     stress (kbar)      0.00      0.00      0.00
                                0.00      0.00      0.00
                                0.00      0.00      0.00

     3D-RISM stress (kbar)      0.00      0.00      0.00
                                0.00      0.00      0.00
                                0.00      0.00      0.00

     Energy error            =      7.9E-06 Ry
     Gradient error          =      4.2E-04 Ry/Bohr

     bfgs converged in  70 scf cycles and  69 bfgs steps
     (criteria: energy <  1.0E-05 Ry, force <  5.0E-04 Ry/Bohr)

     End of BFGS Geometry Optimization

     Final energy             =  -29578.9433997702 Ry

     File ./tmp/Zn101_optimized_topsite_H2O.bfgs deleted, as requested
Begin final coordinates

ATOMIC_POSITIONS (angstrom)
Zn              -1.0735556040        1.0841422490        1.1977635440    0   0   0
Zn              -2.3094850350        6.1646922450        1.1977635440    0   0   0
Zn              -5.3677775260        0.0395003770        3.2510723350    0   0   0
Zn              -6.6037069570        5.1200503720        3.2510723350    0   0   0
Zn              -9.4613369373       -0.9754944356        5.4093374841
Zn             -10.7021959782        4.1100849737        5.3967519937
Zn             -13.4186235169       -1.9365965822        7.6173546276
Zn             -14.5682111450        3.1649704711        7.6098877295
Zn              -1.6915203190        3.6244172470        1.1977635440    0   0   0
Zn              -2.9274497510        8.7049672430        1.1977635440    0   0   0
Zn              -5.9857422410        2.5797753750        3.2510723350    0   0   0
Zn              -7.2216716720        7.6603253700        3.2510723350    0   0   0
Zn             -10.0811031095        1.5648819772        5.3876225516
Zn             -11.3209826688        6.6482226080        5.4033617113
Zn             -14.0125673619        0.6105812654        7.6190259100
Zn             -15.2278416417        5.6970380789        7.6097016526
Zn               4.4565957630        1.0841422490        1.1977635440    0   0   0
Zn               3.2206663320        6.1646922450        1.1977635440    0   0   0
Zn               0.1623738410        0.0395003770        3.2510723350    0   0   0
Zn              -1.0735555900        5.1200503720        3.2510723350    0   0   0
Zn              -3.9344830075       -0.9725809260        5.4832522686
Zn              -5.1965047796        4.0915703776        5.5570678511
Zn              -7.9970537656       -1.9577783291        7.6211923883
Zn              -9.2602545604        3.1210911953        7.5848358450
Zn               3.8386310480        3.6244172470        1.1977635440    0   0   0
Zn               2.6027016170        8.7049672430        1.1977635440    0   0   0
Zn              -0.4555908740        2.5797753750        3.2510723350    0   0   0
Zn              -1.6915203050        7.6603253700        3.2510723350    0   0   0
Zn              -4.5788823090        1.5670511530        5.5446258087
Zn              -5.7872309813        6.6429645768        5.4903929155
Zn              -8.6362230599        0.5840830097        7.5866506010
Zn              -9.8556110017        5.6744572267        7.6255598041
Zn               1.6915203330        0.4114908770        0.8555452480    0   0   0
Zn               0.4555909020        5.4920408730        0.8555452480    0   0   0
Zn              -2.6027015890       -0.6331509950        2.9088540390    0   0   0
Zn              -3.8386310200        4.4473990010        2.9088540390    0   0   0
Zn              -6.7380197669       -1.6443529304        4.9410357206
Zn              -7.9684475164        3.4263431644        4.9413710775
Zn             -10.7910046615       -2.6411261358        7.2727093217
Zn             -12.0072897780        2.4310511500        7.2643288519
Zn               1.0735556170        2.9517658750        0.8555452480    0   0   0
Zn              -0.1623738140        8.0323158710        0.8555452480    0   0   0
Zn              -3.2206663040        1.9071240030        2.9088540390    0   0   0
Zn              -4.4565957350        6.9876739990        2.9088540390    0   0   0
Zn              -7.3495075308        0.9010718837        4.9440677537
Zn              -8.5960346145        5.9760344213        4.9345984631
Zn             -11.4228373499       -0.1116863648        7.2585117163
Zn             -12.6144144735        4.9859944853        7.2778155516
Zn               7.2216717000        0.4114908770        0.8555452480    0   0   0
Zn               5.9857422690        5.4920408730        0.8555452480    0   0   0
Zn               2.9274497780       -0.6331509950        2.9088540390    0   0   0
Zn               1.6915203470        4.4473990010        2.9088540390    0   0   0
Zn              -1.2005541630       -1.6483458033        4.9553088990
Zn              -2.4461099764        3.4338031537        4.9492170217
Zn              -5.3847087888       -2.6693351654        7.2183019428
Zn              -6.6265152612        2.4104218031        7.3653217460
Zn               6.6037069850        2.9517658750        0.8555452480    0   0   0
Zn               5.3677775540        8.0323158710        0.8555452480    0   0   0
Zn               2.3094850630        1.9071240030        2.9088540390    0   0   0
Zn               1.0735556320        6.9876739990        2.9088540390    0   0   0
Zn              -1.8272651953        0.8949942100        4.9556395505
Zn              -3.0663960168        5.9679744300        4.9550018536
Zn              -6.0288398062       -0.1491455830        7.1904097007
Zn              -7.2950866935        4.9570217112        7.1588016221
O               -6.1794277805        2.6277330040        9.7554894836
H               -6.8465887703        3.3035379277       10.0123772250
H               -6.5283581276        1.7872179790       10.1288220595
End final coordinates



     Writing all to output data dir ./tmp/Zn101_optimized_topsite_H2O.save/ :
     XML data file, charge density, pseudopotentials, collected wavefunctions

     init_run     :     63.61s CPU     64.74s WALL (       1 calls)
     electrons    :  17792.02s CPU  18058.99s WALL (       7 calls)
     update_pot   :      0.56s CPU      0.58s WALL (       6 calls)
     forces       :    386.25s CPU    388.35s WALL (       7 calls)
     stress       :    940.83s CPU    944.33s WALL (       7 calls)

     Called by init_run:
     wfcinit      :     62.79s CPU     63.89s WALL (       1 calls)
     wfcinit:atom :      0.03s CPU      0.05s WALL (       4 calls)
     wfcinit:wfcr :     62.35s CPU     63.39s WALL (       4 calls)
     potinit      :      0.08s CPU      0.09s WALL (       1 calls)
     hinit0       :      0.30s CPU      0.31s WALL (       1 calls)

     Called by electrons:
     c_bands      :  16623.94s CPU  16863.45s WALL (      72 calls)
     sum_band     :   1137.36s CPU   1164.20s WALL (      72 calls)
     v_of_rho     :      3.16s CPU      3.32s WALL (      73 calls)
     v_h          :      0.18s CPU      0.21s WALL (      73 calls)
     v_xc         :      3.53s CPU      3.72s WALL (      87 calls)
     newd         :     27.50s CPU     27.66s WALL (      73 calls)
     PAW_pot      :      2.68s CPU      2.69s WALL (      79 calls)
     mix_rho      :      0.38s CPU      0.45s WALL (      72 calls)

     Called by c_bands:
     init_us_2    :     13.24s CPU     13.30s WALL (     658 calls)
     cegterg      :  16599.78s CPU  16837.21s WALL (     288 calls)

     Called by sum_band:
     sum_band:wei :      0.19s CPU      0.19s WALL (      72 calls)
     sum_band:loo :   1111.19s CPU   1137.80s WALL (      72 calls)
     sum_band:buf :      2.65s CPU      2.66s WALL (     288 calls)
     sum_band:ini :      6.00s CPU      6.02s WALL (     288 calls)
     sum_band:cal :    975.72s CPU    980.78s WALL (     312 calls)
     sum_band:bec :     11.51s CPU     11.54s WALL (     312 calls)
     addusdens    :     24.70s CPU     24.85s WALL (      72 calls)
                                        0.00s GPU  (      72 calls)
     addusd:skk   :      0.34s CPU      0.34s WALL (     216 calls)
                                        0.00s GPU  (     216 calls)

     Called by *egterg:
     cdiaghg      :   1293.11s CPU   1344.26s WALL (    1047 calls)
     cegterg:over :   2553.52s CPU   2563.89s WALL (     803 calls)
     cegterg:upda :   1009.37s CPU   1016.14s WALL (     803 calls)
     cegterg:last :   4240.66s CPU   4269.28s WALL (     626 calls)
     cdiaghg:chol :    104.09s CPU    104.35s WALL (    1047 calls)
     cdiaghg:inve :     14.88s CPU     14.92s WALL (    1047 calls)
     cdiaghg:para :    417.23s CPU    423.52s WALL (    2094 calls)
     h_psi        :   4971.78s CPU   5101.61s WALL (    1095 calls)
     s_psi        :   1969.95s CPU   1974.73s WALL (    1095 calls)
     g_psi        :      1.49s CPU      1.50s WALL (     803 calls)

     Called by h_psi:
     h_psi:calbec :   2119.26s CPU   2130.48s WALL (    1095 calls)
     vloc_psi     :    865.48s CPU    976.44s WALL (    1095 calls)
     add_vuspsi   :   1981.93s CPU   1986.74s WALL (    1095 calls)

     General routines
     calbec       :   3555.99s CPU   3574.52s WALL (    1547 calls)
     fft          :      2.17s CPU      2.48s WALL (     990 calls)
     ffts         :      0.12s CPU      0.14s WALL (      72 calls)
     fftw         :    986.34s CPU   1110.83s WALL ( 1269214 calls)
     davcio       :      0.00s CPU      0.00s WALL (       8 calls)

     Parallel routines

     PAW routines
     PAW_pot      :      2.68s CPU      2.69s WALL (      79 calls)

     PWSCF        :      5h21m CPU      5h25m WALL


   This run was terminated on:   6:38:53  25Mar2025            

=------------------------------------------------------------------------------=
   JOB DONE.
=------------------------------------------------------------------------------=
Note: The following floating-point exceptions are signalling: IEEE_DENORMAL
Note: The following floating-point exceptions are signalling: IEEE_DENORMAL
Note: The following floating-point exceptions are signalling: IEEE_DENORMAL
Note: The following floating-point exceptions are signalling: IEEE_DENORMAL
Note: The following floating-point exceptions are signalling: IEEE_DENORMAL
Note: The following floating-point exceptions are signalling: IEEE_DENORMAL
Note: The following floating-point exceptions are signalling: IEEE_DENORMAL
Note: The following floating-point exceptions are signalling: IEEE_DENORMAL
Note: The following floating-point exceptions are signalling: IEEE_DENORMAL
Note: The following floating-point exceptions are signalling: IEEE_DENORMAL
Note: The following floating-point exceptions are signalling: IEEE_DENORMAL
Note: The following floating-point exceptions are signalling: IEEE_DENORMAL
