--------------------------------------------------------------------------
By default, for Open MPI 4.0 and later, infiniband ports on a device
are not used by default.  The intent is to use UCX for these devices.
You can override this policy by setting the btl_openib_allow_ib MCA parameter
to true.

  Local host:              psid10
  Local adapter:           mlx4_0
  Local port:              1

--------------------------------------------------------------------------
--------------------------------------------------------------------------
WARNING: There was an error initializing an OpenFabrics device.

  Local host:   psid10
  Local device: mlx4_0
--------------------------------------------------------------------------

     Program PWSCF v.7.3.1 starts on 15Apr2025 at  0:55:56 

     This program is part of the open-source Quantum ESPRESSO suite
     for quantum simulation of materials; please cite
         "P. Giannozzi et al., J. Phys.:Condens. Matter 21 395502 (2009);
         "P. Giannozzi et al., J. Phys.:Condens. Matter 29 465901 (2017);
         "P. Giannozzi et al., J. Chem. Phys. 152 154105 (2020);
          URL http://www.quantum-espresso.org", 
     in publications or presentations arising from this work. More details at
     http://www.quantum-espresso.org/quote

     Parallel version (MPI), running on    33 processors

     MPI processes distributed on     1 nodes
     13803 MiB available memory on the printing compute node when the environment starts

     Waiting for input...
     Reading input from standard input
Warning: card &CELL ignored
Warning: card   CELL_DOFREE = 'ALL' ignored
Warning: card / ignored
Warning: card END FINAL COORDINATES ignored

     Current dimensions of program PWSCF are:
     Max number of different atomic species (ntypx) = 10
     Max number of k-points (npk) =  40000
     Max angular momentum in pseudopotentials (lmaxx) =  4
     file C.pbe-n-kjpaw_psl.1.0.0.UPF: wavefunction(s)  2S 2P renormalized

     R & G space division:  proc/nbgrp/npool/nimage =      33
     Subspace diagonalization in iterative solution of the eigenvalue problem:
     one sub-group per band group will be used
     custom distributed-memory algorithm (size of sub-group:  5*  5 procs)


     Parallelization info
     --------------------
     sticks:   dense  smooth     PW     G-vecs:    dense   smooth      PW
     Min         270     154     42                40385    17444    2529
     Max         271     155     43                40396    17453    2536
     Sum        8941    5109   1411              1332973   575857   83601

     Using Slab Decomposition



     bravais-lattice index     =            0
     lattice parameter (alat)  =      20.9009  a.u.
     unit-cell volume          =   16846.7507 (a.u.)^3
     number of atoms/cell      =           65
     number of atomic types    =            4
     number of electrons       =      1002.00
     number of Kohn-Sham states=          601
     kinetic-energy cutoff     =      40.0000  Ry
     charge density cutoff     =     280.0000  Ry
     scf convergence threshold =      1.0E-06
     mixing beta               =       0.4000
     number of iterations used =            8  plain     mixing
     energy convergence thresh.=      1.0E-05
     force convergence thresh. =      5.0E-04
     Exchange-correlation= PBE
                           (   1   4   3   4   0   0   0)
     nstep                     =          300


     celldm(1)=  20.900943  celldm(2)=   0.000000  celldm(3)=   0.000000
     celldm(4)=   0.000000  celldm(5)=   0.000000  celldm(6)=   0.000000

     crystal axes: (cart. coord. in units of alat)
               a(1) = (   1.000000   0.000000   0.000000 )  
               a(2) = (  -0.223489   0.918700   0.000000 )  
               a(3) = (  -4.200249  -1.021781   2.008375 )  

     reciprocal axes: (cart. coord. in units 2 pi/alat)
               b(1) = (  1.000000  0.243267  2.215131 )  
               b(2) = ( -0.000000  1.088495  0.553783 )  
               b(3) = (  0.000000 -0.000000  0.497915 )  


     PseudoPot. # 1 for Zn read from file:
     /home/ys/qepseudo/SSSP_1.3.0_PBE_efficiency/Zn_pbe_v1.uspp.F.UPF
     MD5 check sum: df62231357ef9e81f77b2b3087fa5675
     Pseudo is Ultrasoft, Zval = 20.0
     Generated by new atomic code, or converted to UPF format
     Using radial grid of  943 points,  6 beta functions with: 
                l(1) =   0
                l(2) =   0
                l(3) =   1
                l(4) =   1
                l(5) =   2
                l(6) =   2
     Q(r) pseudized with  8 coefficients,  rinner =    1.100   1.100   1.100
                                                       1.100   1.100

     PseudoPot. # 2 for N  read from file:
     /home/ys/qepseudo/SSSP_1.3.0_PBE_efficiency/N.pbe-n-radius_5.UPF
     MD5 check sum: 16739722b17309cd8fe442a2ace49922
     Pseudo is Ultrasoft + core correction, Zval =  5.0
     Generated using "atomic" code by A. Dal Corso  v.5.1
     Using radial grid of 1085 points,  4 beta functions with: 
                l(1) =   0
                l(2) =   0
                l(3) =   1
                l(4) =   1
     Q(r) pseudized with 0 coefficients 


     PseudoPot. # 3 for C  read from file:
     /home/ys/qepseudo/SSSP_1.3.0_PBE_efficiency/C.pbe-n-kjpaw_psl.1.0.0.UPF
     MD5 check sum: 5d2aebdfa2cae82b50a7e79e9516da0f
     Pseudo is Projector augmented-wave + core cor, Zval =  4.0
     Generated using "atomic" code by A. Dal Corso  v.5.1
     Shape of augmentation charge: PSQ
     Using radial grid of 1073 points,  4 beta functions with: 
                l(1) =   0
                l(2) =   0
                l(3) =   1
                l(4) =   1
     Q(r) pseudized with 0 coefficients 


     PseudoPot. # 4 for H  read from file:
     /home/ys/qepseudo/SSSP_1.3.0_PBE_efficiency/H.pbe-rrkjus_psl.1.0.0.UPF
     MD5 check sum: f52b6d4d1c606e5624b1dc7b2218f220
     Pseudo is Ultrasoft, Zval =  1.0
     Generated using "atomic" code by A. Dal Corso  v.5.1
     Using radial grid of  929 points,  2 beta functions with: 
                l(1) =   0
                l(2) =   0
     Q(r) pseudized with 0 coefficients 


     atomic species   valence    mass     pseudopotential
     Zn               20.00    65.38000     Zn( 1.00)
     N                 5.00    14.00674     N ( 1.00)
     C                 4.00    12.01070     C ( 1.00)
     H                 1.00     1.00794     H ( 1.00)

     No symmetry found


                                    s                        frac. trans.

      isym =  1     identity                                     

 cryst.   s( 1) = (     1          0          0      )
                  (     0          1          0      )
                  (     0          0          1      )

 cart.    s( 1) = (  1.0000000  0.0000000  0.0000000 )
                  (  0.0000000  1.0000000  0.0000000 )
                  (  0.0000000  0.0000000  1.0000000 )


   Cartesian axes

     site n.     atom                  positions (alat units)
         1        Zn     tau(   1) = (  -0.0970639   0.0980210   0.1082940  )
         2        Zn     tau(   2) = (  -0.2088085   0.5573710   0.1082940  )
         3        Zn     tau(   3) = (  -0.4433239   0.0134763   0.3275355  )
         4        Zn     tau(   4) = (  -0.5550872   0.4727493   0.3273765  )
         5        Zn     tau(   5) = (  -0.8026179  -0.0739495   0.5207032  )
         6        Zn     tau(   6) = (  -0.9140714   0.3850885   0.5220892  )
         7        Zn     tau(   7) = (  -0.1529361   0.3276960   0.1082940  )
         8        Zn     tau(   8) = (  -0.2646808   0.7870460   0.1082940  )
         9        Zn     tau(   9) = (  -0.4991556   0.2430599   0.3275022  )
        10        Zn     tau(  10) = (  -0.6108814   0.7025028   0.3276164  )
        11        Zn     tau(  11) = (  -0.8587524   0.1556472   0.5156748  )
        12        Zn     tau(  12) = (  -0.9697642   0.6150923   0.5213627  )
        13        Zn     tau(  13) = (   0.4029362   0.0980210   0.1082940  )
        14        Zn     tau(  14) = (   0.2911915   0.5573710   0.1082940  )
        15        Zn     tau(  15) = (   0.0560232   0.0129866   0.3234861  )
        16        Zn     tau(  16) = (  -0.0551755   0.4727442   0.3245259  )
        17        Zn     tau(  17) = (  -0.2986743  -0.0729438   0.5206380  )
        18        Zn     tau(  18) = (  -0.4105775   0.3863679   0.5205477  )
        19        Zn     tau(  19) = (   0.3470638   0.3276960   0.1082940  )
        20        Zn     tau(  20) = (   0.2353192   0.7870460   0.1082940  )
        21        Zn     tau(  21) = (  -0.0001735   0.2431980   0.3234128  )
        22        Zn     tau(  22) = (  -0.1111076   0.7023029   0.3242769  )
        23        Zn     tau(  23) = (  -0.3546389   0.1566819   0.5206665  )
        24        Zn     tau(  24) = (  -0.4663897   0.6160853   0.5205400  )
        25        Zn     tau(  25) = (   0.1529361   0.0372043   0.0773528  )
        26        Zn     tau(  26) = (   0.0411915   0.4965543   0.0773528  )
        27        Zn     tau(  27) = (  -0.2120389  -0.0515133   0.2655233  )
        28        Zn     tau(  28) = (  -0.3239754   0.4077338   0.2653887  )
        29        Zn     tau(  29) = (  -0.5770231  -0.1406084   0.4576181  )
        30        Zn     tau(  30) = (  -0.6882881   0.3190019   0.4582689  )
        31        Zn     tau(  31) = (   0.0970639   0.2668793   0.0773528  )
        32        Zn     tau(  32) = (  -0.0146808   0.7262293   0.0773528  )
        33        Zn     tau(  33) = (  -0.2679750   0.1780589   0.2654831  )
        34        Zn     tau(  34) = (  -0.3797955   0.6374787   0.2654232  )
        35        Zn     tau(  35) = (  -0.6324795   0.0890324   0.4584491  )
        36        Zn     tau(  36) = (  -0.7447653   0.5483331   0.4576540  )
        37        Zn     tau(  37) = (   0.6529362   0.0372043   0.0773528  )
        38        Zn     tau(  38) = (   0.5411915   0.4965543   0.0773528  )
        39        Zn     tau(  39) = (   0.2879991  -0.0515428   0.2653706  )
        40        Zn     tau(  40) = (   0.1761889   0.4077359   0.2655057  )
        41        Zn     tau(  41) = (  -0.0735705  -0.1397381   0.4584906  )
        42        Zn     tau(  42) = (  -0.1855438   0.3195636   0.4582994  )
        43        Zn     tau(  43) = (   0.5970639   0.2668793   0.0773528  )
        44        Zn     tau(  44) = (   0.4853193   0.7262293   0.0773528  )
        45        Zn     tau(  45) = (   0.2322787   0.1781565   0.2650790  )
        46        Zn     tau(  46) = (   0.1203175   0.6374249   0.2650255  )
        47        Zn     tau(  47) = (  -0.1293980   0.0899218   0.4588459  )
        48        Zn     tau(  48) = (  -0.2414631   0.5492389   0.4579914  )
        49        H      tau(  49) = (  -0.9322267   0.1596669   1.3803744  )
        50        C      tau(  50) = (  -0.8441185   0.1334858   1.3421212  )
        51        C      tau(  51) = (  -0.8248596   0.0261372   1.0133752  )
        52        C      tau(  52) = (  -0.8744742   0.2372861   1.1399323  )
        53        C      tau(  53) = (  -0.8525460   0.1318143   0.9480986  )
        54        C      tau(  54) = (  -0.8469262   0.1324211   1.2058683  )
        55        C      tau(  55) = (  -0.8774620   0.2378827   1.0142487  )
        56        C      tau(  56) = (  -0.8223250   0.0274816   1.1393548  )
        57        N      tau(  57) = (  -0.8552910   0.1321139   0.8236263  )
        58        H      tau(  58) = (  -0.8050848  -0.0574872   0.9646995  )
        59        H      tau(  59) = (  -0.8940827   0.3210770   1.1884396  )
        60        H      tau(  60) = (  -0.8210737   0.0439933   1.3784281  )
        61        H      tau(  61) = (  -0.8742518   0.2082573   0.7767479  )
        62        H      tau(  62) = (  -0.8366323   0.0568671   0.7752065  )
        63        H      tau(  63) = (  -0.8992181   0.3212202   0.9659391  )
        64        H      tau(  64) = (  -0.8003981  -0.0559132   1.1875129  )
        65        H      tau(  65) = (  -0.7769761   0.1982391   1.3769277  )

     --------------------------------------------
     DFT-D3 Dispersion Correction (3-body terms):
     --------------------------------------------
       Reference C6 values for interpolation: 

         atom   Coordination number   C6
         H          0.912             6.05
         H          0.000            15.18
         C          0.000            98.23
         C          0.987            86.49
         C          1.998            58.72
         C          2.999            51.56
         C          3.984            36.41
         N          0.000            50.54
         N          0.994            44.25
         N          2.014            39.35
         N          2.990            31.16
         Zn         0.000           681.04
         Zn         1.942           306.91

       Values used:

         atom   Coordination number  R0_AB[au]  C6      C8
         Zn         5.596            3.053    306.91  23930.67
         Zn         5.575            3.053    306.91  23930.67
         Zn         7.236            3.053    306.91  23930.67
         Zn         7.241            3.053    306.91  23930.67
         Zn         5.102            3.053    306.91  23930.67
         Zn         5.042            3.053    306.91  23930.67
         Zn         5.587            3.053    306.91  23930.67
         Zn         5.588            3.053    306.91  23930.67
         Zn         7.239            3.053    306.91  23930.67
         Zn         7.235            3.053    306.91  23930.67
         Zn         5.312            3.053    306.91  23930.67
         Zn         5.079            3.053    306.91  23930.67
         Zn         5.528            3.053    306.91  23930.67
         Zn         5.524            3.053    306.91  23930.67
         Zn         7.398            3.053    306.91  23930.67
         Zn         7.319            3.053    306.91  23930.67
         Zn         5.116            3.053    306.91  23930.67
         Zn         5.120            3.053    306.91  23930.67
         Zn         5.527            3.053    306.91  23930.67
         Zn         5.525            3.053    306.91  23930.67
         Zn         7.383            3.053    306.91  23930.67
         Zn         7.337            3.053    306.91  23930.67
         Zn         5.118            3.053    306.91  23930.67
         Zn         5.116            3.053    306.91  23930.67
         Zn         5.386            3.053    306.91  23930.67
         Zn         5.376            3.053    306.91  23930.67
         Zn         8.137            3.053    306.91  23930.67
         Zn         8.142            3.053    306.91  23930.67
         Zn         6.482            3.053    306.91  23930.67
         Zn         6.469            3.053    306.91  23930.67
         Zn         5.385            3.053    306.91  23930.67
         Zn         5.380            3.053    306.91  23930.67
         Zn         8.142            3.053    306.91  23930.67
         Zn         8.141            3.053    306.91  23930.67
         Zn         6.465            3.053    306.91  23930.67
         Zn         6.481            3.053    306.91  23930.67
         Zn         5.330            3.053    306.91  23930.67
         Zn         5.334            3.053    306.91  23930.67
         Zn         8.174            3.053    306.91  23930.67
         Zn         8.161            3.053    306.91  23930.67
         Zn         6.501            3.053    306.91  23930.67
         Zn         6.502            3.053    306.91  23930.67
         Zn         5.332            3.053    306.91  23930.67
         Zn         5.329            3.053    306.91  23930.67
         Zn         8.210            3.053    306.91  23930.67
         Zn         8.177            3.053    306.91  23930.67
         Zn         6.498            3.053    306.91  23930.67
         Zn         6.508            3.053    306.91  23930.67
         H          0.997            2.062      6.18     74.75
         C          4.037            2.750     36.59   1058.29
         C          3.163            2.750     50.43   1458.40
         C          3.165            2.750     50.41   1457.83
         C          3.138            2.750     50.63   1464.17
         C          3.128            2.750     50.70   1466.33
         C          3.164            2.750     50.41   1458.04
         C          3.164            2.750     50.41   1457.97
         N          3.090            2.478     31.24    689.19
         H          1.003            2.062      6.18     74.69
         H          1.003            2.062      6.18     74.68
         H          0.998            2.062      6.18     74.74
         H          1.009            2.062      6.17     74.62
         H          1.009            2.062      6.17     74.62
         H          1.003            2.062      6.18     74.69
         H          1.003            2.062      6.18     74.68
         H          0.997            2.062      6.18     74.75

         Molecular C6 ( Ry / a.u.^6 ) =    839482.93


   Crystallographic axes

     site n.     atom                  positions (cryst. coord.)
         1        Zn     tau(   1) = (  0.1666667  0.1666667  0.0539212  )
         2        Zn     tau(   2) = (  0.1666668  0.6666667  0.0539212  )
         3        Zn     tau(   3) = (  0.2854887  0.1960524  0.1630849  )
         4        Zn     tau(   4) = (  0.2850989  0.6958805  0.1630057  )
         5        Zn     tau(   5) = (  0.3328187  0.2078629  0.2592660  )
         6        Zn     tau(   6) = (  0.3361040  0.7082908  0.2599560  )
         7        Zn     tau(   7) = (  0.1666668  0.4166667  0.0539212  )
         8        Zn     tau(   8) = (  0.1666667  0.9166667  0.0539212  )
         9        Zn     tau(   9) = (  0.2854332  0.4459344  0.1630683  )
        10        Zn     tau(  10) = (  0.2857275  0.9460988  0.1631251  )
        11        Zn     tau(  11) = (  0.3213987  0.4549930  0.2567622  )
        12        Zn     tau(  12) = (  0.3347541  0.9582464  0.2595943  )
        13        Zn     tau(  13) = (  0.6666668  0.1666667  0.0539212  )
        14        Zn     tau(  14) = (  0.6666667  0.6666667  0.0539212  )
        15        Zn     tau(  15) = (  0.7757467  0.1932769  0.1610686  )
        16        Zn     tau(  16) = (  0.7786949  0.6942964  0.1615863  )
        17        Zn     tau(  17) = (  0.8368624  0.2089214  0.2592335  )
        18        Zn     tau(  18) = (  0.8364945  0.7088297  0.2591885  )
        19        Zn     tau(  19) = (  0.6666668  0.4166667  0.0539212  )
        20        Zn     tau(  20) = (  0.6666668  0.9166667  0.0539212  )
        21        Zn     tau(  21) = (  0.7753905  0.4438202  0.1610321  )
        22        Zn     tau(  22) = (  0.7780553  0.9440319  0.1614623  )
        23        Zn     tau(  23) = (  0.8368213  0.4588835  0.2592477  )
        24        Zn     tau(  24) = (  0.8365479  0.9588716  0.2591847  )
        25        Zn     tau(  25) = (  0.3333333  0.0833333  0.0385151  )
        26        Zn     tau(  26) = (  0.3333333  0.5833333  0.0385151  )
        27        Zn     tau(  27) = (  0.3635987  0.0909704  0.1322081  )
        28        Zn     tau(  28) = (  0.3630835  0.5907838  0.1321410  )
        29        Zn     tau(  29) = (  0.4024557  0.1003695  0.2278549  )
        30        Zn     tau(  30) = (  0.4044403  0.6010133  0.2281790  )
        31        Zn     tau(  31) = (  0.3333333  0.3333333  0.0385151  )
        32        Zn     tau(  32) = (  0.3333333  0.8333333  0.0385151  )
        33        Zn     tau(  33) = (  0.3634207  0.3408362  0.1321880  )
        34        Zn     tau(  34) = (  0.3632292  0.8408790  0.1321582  )
        35        Zn     tau(  35) = (  0.4047042  0.3507925  0.2282687  )
        36        Zn     tau(  36) = (  0.4023897  0.8502985  0.2278728  )
        37        Zn     tau(  37) = (  0.8333333  0.0833333  0.0385151  )
        38        Zn     tau(  38) = (  0.8333333  0.5833333  0.0385151  )
        39        Zn     tau(  39) = (  0.8632912  0.0908536  0.1321320  )
        40        Zn     tau(  40) = (  0.8635075  0.5908508  0.1321993  )
        41        Zn     tau(  41) = (  0.9080527  0.1018000  0.2282893  )
        42        Zn     tau(  42) = (  0.9073887  0.6016416  0.2281941  )
        43        Zn     tau(  43) = (  0.8333333  0.3333333  0.0385151  )
        44        Zn     tau(  44) = (  0.8333333  0.8333333  0.0385151  )
        45        Zn     tau(  45) = (  0.8628030  0.3407186  0.1319868  )
        46        Zn     tau(  46) = (  0.8624481  0.8406001  0.1319602  )
        47        Zn     tau(  47) = (  0.9088810  0.3519803  0.2284663  )
        48        Zn     tau(  48) = (  0.9066596  0.8514713  0.2280408  )
        49        H      tau(  49) = (  2.1643256  0.9382241  0.6873091  )
        50        C      tau(  50) = (  2.1613288  0.8885422  0.6682622  )
        51        C      tau(  51) = (  1.4262579  0.5896399  0.5045747  )
        52        C      tau(  52) = (  1.7083494  0.8895595  0.5675894  )
        53        C      tau(  53) = (  1.2796829  0.6685198  0.4720725  )
        54        C      tau(  54) = (  1.8564440  0.8119287  0.6004199  )
        55        C      tau(  55) = (  1.4271009  0.8206075  0.5050096  )
        56        C      tau(  56) = (  1.7081809  0.6608686  0.5673018  )
        57        N      tau(  57) = (  1.0012884  0.5999154  0.4100959  )
        58        H      tau(  58) = (  1.3178665  0.4716594  0.4803383  )
        59        H      tau(  59) = (  1.8165745  1.0076280  0.5917419  )
        60        H      tau(  60) = (  2.2430276  0.8112362  0.6863400  )
        61        H      tau(  61) = (  0.8970090  0.6568366  0.3867544  )
        62        H      tau(  62) = (  0.8943859  0.4911956  0.3859870  )
        63        H      tau(  63) = (  1.3186060  0.8845669  0.4809555  )
        64        H      tau(  64) = (  1.8164971  0.5967630  0.5912805  )
        65        H      tau(  65) = (  2.3213245  0.9783011  0.6855929  )

     number of k points=     5  Marzari-Vanderbilt smearing, width (Ry)=  0.0200
                       cart. coord. in units 2pi/alat
        k(    1) = (   0.0000000   0.0000000   0.0000000), wk =   0.2222222
        k(    2) = (   0.0000000   0.3628315   0.1845943), wk =   0.4444444
        k(    3) = (   0.3333333   0.0810890   0.7383771), wk =   0.4444444
        k(    4) = (   0.3333333   0.4439205   0.9229714), wk =   0.4444444
        k(    5) = (   0.3333333  -0.2817426   0.5537829), wk =   0.4444444

                       cryst. coord.
        k(    1) = (   0.0000000   0.0000000   0.0000000), wk =   0.2222222
        k(    2) = (   0.0000000   0.3333333   0.0000000), wk =   0.4444444
        k(    3) = (   0.3333333   0.0000000   0.0000000), wk =   0.4444444
        k(    4) = (   0.3333333   0.3333333   0.0000000), wk =   0.4444444
        k(    5) = (   0.3333333  -0.3333333   0.0000000), wk =   0.4444444

     Dense  grid:  1332973 G-vectors     FFT dimensions: ( 120, 108, 540)

     Smooth grid:   575857 G-vectors     FFT dimensions: (  90,  80, 405)

     Dynamical RAM for                 wfc:      19.99 MB

     Dynamical RAM for     wfc (w. buffer):     119.95 MB

     Dynamical RAM for           str. fact:       2.47 MB

     Dynamical RAM for           local pot:       0.00 MB

     Dynamical RAM for          nlocal pot:      31.47 MB

     Dynamical RAM for                qrad:       5.37 MB

     Dynamical RAM for          rho,v,vnew:       6.89 MB

     Dynamical RAM for               rhoin:       2.30 MB

     Dynamical RAM for            rho*nmix:       9.86 MB

     Dynamical RAM for           G-vectors:       2.44 MB

     Dynamical RAM for          h,s,v(r/c):       2.64 MB

     Dynamical RAM for          <psi|beta>:       8.68 MB

     Dynamical RAM for                 psi:      39.98 MB

     Dynamical RAM for                hpsi:      39.98 MB

     Dynamical RAM for                spsi:      39.98 MB

     Dynamical RAM for      wfcinit/wfcrot:      54.37 MB

     Dynamical RAM for           addusdens:     144.24 MB

     Dynamical RAM for          addusforce:     202.67 MB

     Dynamical RAM for         addusstress:     123.90 MB

     Estimated static dynamical RAM per process >     182.38 MB

     Estimated max dynamical RAM per process >     394.91 MB

     Estimated total dynamical RAM >      12.73 GB

     Initial potential from superposition of free atoms

     starting charge    1001.9928, renormalised to    1002.0000

     negative rho (up, down):  1.601E-03 0.000E+00
     Starting wfcs are  665 randomized atomic wfcs
[psid10:12474] 32 more processes have sent help message help-mpi-btl-openib.txt / ib port not selected
[psid10:12474] Set MCA parameter "orte_base_help_aggregate" to 0 to see all help / error messages
[psid10:12474] 32 more processes have sent help message help-mpi-btl-openib.txt / error in device init
     Checking if some PAW data can be deallocated... 
       PAW data deallocated on   29 nodes for type:  3

     total cpu time spent up to now is       82.3 secs

     Self-consistent Calculation

     iteration #  1     ecut=    40.00 Ry     beta= 0.40
     Davidson diagonalization with overlap

---- Real-time Memory Report at c_bands before calling an iterative solver
           266 MiB given to the printing process from OS
             0 MiB allocation reported by mallinfo(arena+hblkhd)
          7111 MiB available memory on the node where the printing process lives
------------------
     ethr =  1.00E-02,  avg # of iterations =  7.6

     negative rho (up, down):  2.041E-03 0.000E+00

     total cpu time spent up to now is      476.7 secs

     total energy              =  -22308.85389258 Ry
     estimated scf accuracy    <      11.78152942 Ry

     iteration #  2     ecut=    40.00 Ry     beta= 0.40
     Davidson diagonalization with overlap

---- Real-time Memory Report at c_bands before calling an iterative solver
           367 MiB given to the printing process from OS
             0 MiB allocation reported by mallinfo(arena+hblkhd)
          5772 MiB available memory on the node where the printing process lives
------------------
     ethr =  1.18E-03,  avg # of iterations = 10.2

     negative rho (up, down):  3.082E-03 0.000E+00

     total cpu time spent up to now is      912.5 secs

     total energy              =  -22294.27101209 Ry
     estimated scf accuracy    <     288.31640510 Ry

     iteration #  3     ecut=    40.00 Ry     beta= 0.40
     Davidson diagonalization with overlap

---- Real-time Memory Report at c_bands before calling an iterative solver
           384 MiB given to the printing process from OS
             0 MiB allocation reported by mallinfo(arena+hblkhd)
          5750 MiB available memory on the node where the printing process lives
------------------
     ethr =  1.18E-03,  avg # of iterations =  8.0

     negative rho (up, down):  2.892E-03 0.000E+00

     total cpu time spent up to now is     1460.1 secs

     total energy              =  -22313.84619961 Ry
     estimated scf accuracy    <       5.26844288 Ry

     iteration #  4     ecut=    40.00 Ry     beta= 0.40
     Davidson diagonalization with overlap

---- Real-time Memory Report at c_bands before calling an iterative solver
           385 MiB given to the printing process from OS
             0 MiB allocation reported by mallinfo(arena+hblkhd)
          5726 MiB available memory on the node where the printing process lives
------------------
     ethr =  5.26E-04,  avg # of iterations =  4.0

     negative rho (up, down):  2.833E-03 0.000E+00

     total cpu time spent up to now is     1827.8 secs

     total energy              =  -22314.08879359 Ry
     estimated scf accuracy    <       6.30609236 Ry

     iteration #  5     ecut=    40.00 Ry     beta= 0.40
     Davidson diagonalization with overlap

---- Real-time Memory Report at c_bands before calling an iterative solver
           386 MiB given to the printing process from OS
             0 MiB allocation reported by mallinfo(arena+hblkhd)
          5699 MiB available memory on the node where the printing process lives
------------------
     ethr =  5.26E-04,  avg # of iterations =  2.0

     negative rho (up, down):  2.864E-03 0.000E+00

     total cpu time spent up to now is     2181.6 secs

     total energy              =  -22314.45914231 Ry
     estimated scf accuracy    <       0.41535182 Ry

     iteration #  6     ecut=    40.00 Ry     beta= 0.40
     Davidson diagonalization with overlap

---- Real-time Memory Report at c_bands before calling an iterative solver
           387 MiB given to the printing process from OS
             0 MiB allocation reported by mallinfo(arena+hblkhd)
          5680 MiB available memory on the node where the printing process lives
------------------
     ethr =  4.15E-05,  avg # of iterations = 10.2

     negative rho (up, down):  3.007E-03 0.000E+00

     total cpu time spent up to now is     2570.2 secs

     total energy              =  -22314.45607431 Ry
     estimated scf accuracy    <       0.19948511 Ry

     iteration #  7     ecut=    40.00 Ry     beta= 0.40
     Davidson diagonalization with overlap

---- Real-time Memory Report at c_bands before calling an iterative solver
           388 MiB given to the printing process from OS
             0 MiB allocation reported by mallinfo(arena+hblkhd)
          5658 MiB available memory on the node where the printing process lives
------------------
     c_bands:  1 eigenvalues not converged
     ethr =  1.99E-05,  avg # of iterations = 13.0

     negative rho (up, down):  3.089E-03 0.000E+00

     total cpu time spent up to now is     2958.1 secs

     total energy              =  -22314.45111071 Ry
     estimated scf accuracy    <       0.10167849 Ry

     iteration #  8     ecut=    40.00 Ry     beta= 0.40
     Davidson diagonalization with overlap

---- Real-time Memory Report at c_bands before calling an iterative solver
           388 MiB given to the printing process from OS
             0 MiB allocation reported by mallinfo(arena+hblkhd)
          5636 MiB available memory on the node where the printing process lives
------------------
     c_bands:  1 eigenvalues not converged
     ethr =  1.01E-05,  avg # of iterations =  8.4

     negative rho (up, down):  3.164E-03 0.000E+00

     total cpu time spent up to now is     3330.7 secs

     total energy              =  -22314.44787160 Ry
     estimated scf accuracy    <       0.08850158 Ry

     iteration #  9     ecut=    40.00 Ry     beta= 0.40
     Davidson diagonalization with overlap

---- Real-time Memory Report at c_bands before calling an iterative solver
           389 MiB given to the printing process from OS
             0 MiB allocation reported by mallinfo(arena+hblkhd)
          5613 MiB available memory on the node where the printing process lives
------------------
     ethr =  8.83E-06,  avg # of iterations = 10.6

     negative rho (up, down):  3.205E-03 0.000E+00

     total cpu time spent up to now is     3702.5 secs

     total energy              =  -22314.44575466 Ry
     estimated scf accuracy    <       0.04909037 Ry

     iteration # 10     ecut=    40.00 Ry     beta= 0.40
     Davidson diagonalization with overlap

---- Real-time Memory Report at c_bands before calling an iterative solver
           390 MiB given to the printing process from OS
             0 MiB allocation reported by mallinfo(arena+hblkhd)
          5587 MiB available memory on the node where the printing process lives
------------------
     c_bands:  1 eigenvalues not converged
     c_bands:  1 eigenvalues not converged
     ethr =  4.90E-06,  avg # of iterations = 15.0

     negative rho (up, down):  3.235E-03 0.000E+00

     total cpu time spent up to now is     4089.4 secs

     total energy              =  -22314.44220033 Ry
     estimated scf accuracy    <       0.04101590 Ry

     iteration # 11     ecut=    40.00 Ry     beta= 0.40
     Davidson diagonalization with overlap

---- Real-time Memory Report at c_bands before calling an iterative solver
           390 MiB given to the printing process from OS
             0 MiB allocation reported by mallinfo(arena+hblkhd)
          5587 MiB available memory on the node where the printing process lives
------------------
     ethr =  4.09E-06,  avg # of iterations =  4.4

     negative rho (up, down):  3.457E-03 0.000E+00

     total cpu time spent up to now is     4449.9 secs

     total energy              =  -22314.41641649 Ry
     estimated scf accuracy    <       0.03445847 Ry

     iteration # 12     ecut=    40.00 Ry     beta= 0.40
     Davidson diagonalization with overlap

---- Real-time Memory Report at c_bands before calling an iterative solver
           391 MiB given to the printing process from OS
             0 MiB allocation reported by mallinfo(arena+hblkhd)
          5585 MiB available memory on the node where the printing process lives
------------------
     c_bands:  1 eigenvalues not converged
     ethr =  3.44E-06,  avg # of iterations = 18.0

     negative rho (up, down):  3.364E-03 0.000E+00

     total cpu time spent up to now is     4941.9 secs

     total energy              =  -22314.40636489 Ry
     estimated scf accuracy    <       0.05188461 Ry

     iteration # 13     ecut=    40.00 Ry     beta= 0.40
     Davidson diagonalization with overlap

---- Real-time Memory Report at c_bands before calling an iterative solver
           391 MiB given to the printing process from OS
             0 MiB allocation reported by mallinfo(arena+hblkhd)
          5586 MiB available memory on the node where the printing process lives
------------------
     c_bands:  1 eigenvalues not converged
     ethr =  3.44E-06,  avg # of iterations = 15.6

     negative rho (up, down):  3.353E-03 0.000E+00

     total cpu time spent up to now is     5360.8 secs

     total energy              =  -22314.42369278 Ry
     estimated scf accuracy    <       0.00795135 Ry

     iteration # 14     ecut=    40.00 Ry     beta= 0.40
     Davidson diagonalization with overlap

---- Real-time Memory Report at c_bands before calling an iterative solver
           391 MiB given to the printing process from OS
             0 MiB allocation reported by mallinfo(arena+hblkhd)
          5586 MiB available memory on the node where the printing process lives
------------------
     c_bands:  1 eigenvalues not converged
     ethr =  7.94E-07,  avg # of iterations =  8.4

     negative rho (up, down):  3.351E-03 0.000E+00

     total cpu time spent up to now is     5725.7 secs

     total energy              =  -22314.42263075 Ry
     estimated scf accuracy    <       0.01194892 Ry

     iteration # 15     ecut=    40.00 Ry     beta= 0.40
     Davidson diagonalization with overlap

---- Real-time Memory Report at c_bands before calling an iterative solver
           391 MiB given to the printing process from OS
             0 MiB allocation reported by mallinfo(arena+hblkhd)
          5586 MiB available memory on the node where the printing process lives
------------------
     c_bands:  1 eigenvalues not converged
     c_bands:  1 eigenvalues not converged
     ethr =  7.94E-07,  avg # of iterations = 11.8

     negative rho (up, down):  3.359E-03 0.000E+00

     total cpu time spent up to now is     6097.3 secs

     total energy              =  -22314.41976788 Ry
     estimated scf accuracy    <       0.01401209 Ry

     iteration # 16     ecut=    40.00 Ry     beta= 0.40
     Davidson diagonalization with overlap

---- Real-time Memory Report at c_bands before calling an iterative solver
           391 MiB given to the printing process from OS
             0 MiB allocation reported by mallinfo(arena+hblkhd)
          5585 MiB available memory on the node where the printing process lives
------------------
     ethr =  7.94E-07,  avg # of iterations = 13.8

     negative rho (up, down):  3.362E-03 0.000E+00

     total cpu time spent up to now is     6488.9 secs

     total energy              =  -22314.41869146 Ry
     estimated scf accuracy    <       0.00427789 Ry

     iteration # 17     ecut=    40.00 Ry     beta= 0.40
     Davidson diagonalization with overlap

---- Real-time Memory Report at c_bands before calling an iterative solver
           391 MiB given to the printing process from OS
             0 MiB allocation reported by mallinfo(arena+hblkhd)
          5586 MiB available memory on the node where the printing process lives
------------------
     ethr =  4.27E-07,  avg # of iterations =  7.6

     negative rho (up, down):  3.346E-03 0.000E+00

     total cpu time spent up to now is     6859.7 secs

     total energy              =  -22314.41823258 Ry
     estimated scf accuracy    <       0.01918129 Ry

     iteration # 18     ecut=    40.00 Ry     beta= 0.40
     Davidson diagonalization with overlap

---- Real-time Memory Report at c_bands before calling an iterative solver
           391 MiB given to the printing process from OS
             0 MiB allocation reported by mallinfo(arena+hblkhd)
          5585 MiB available memory on the node where the printing process lives
------------------
     ethr =  4.27E-07,  avg # of iterations =  2.2

     negative rho (up, down):  3.343E-03 0.000E+00

     total cpu time spent up to now is     7213.0 secs

     total energy              =  -22314.41955775 Ry
     estimated scf accuracy    <       0.00154880 Ry

     iteration # 19     ecut=    40.00 Ry     beta= 0.40
     Davidson diagonalization with overlap

---- Real-time Memory Report at c_bands before calling an iterative solver
           391 MiB given to the printing process from OS
             0 MiB allocation reported by mallinfo(arena+hblkhd)
          5584 MiB available memory on the node where the printing process lives
------------------
     ethr =  1.55E-07,  avg # of iterations =  1.0

     negative rho (up, down):  3.342E-03 0.000E+00

     total cpu time spent up to now is     7465.3 secs

     total energy              =  -22314.41955793 Ry
     estimated scf accuracy    <       0.00046280 Ry

     iteration # 20     ecut=    40.00 Ry     beta= 0.40
     Davidson diagonalization with overlap

---- Real-time Memory Report at c_bands before calling an iterative solver
           391 MiB given to the printing process from OS
             0 MiB allocation reported by mallinfo(arena+hblkhd)
          5584 MiB available memory on the node where the printing process lives
------------------
     ethr =  4.62E-08,  avg # of iterations =  1.2

     negative rho (up, down):  3.341E-03 0.000E+00

     total cpu time spent up to now is     7737.1 secs

     total energy              =  -22314.41955768 Ry
     estimated scf accuracy    <       0.00017621 Ry

     iteration # 21     ecut=    40.00 Ry     beta= 0.40
     Davidson diagonalization with overlap

---- Real-time Memory Report at c_bands before calling an iterative solver
           391 MiB given to the printing process from OS
             0 MiB allocation reported by mallinfo(arena+hblkhd)
          5586 MiB available memory on the node where the printing process lives
------------------
     ethr =  1.76E-08,  avg # of iterations =  1.0

     negative rho (up, down):  3.340E-03 0.000E+00

     total cpu time spent up to now is     7988.8 secs

     total energy              =  -22314.41955380 Ry
     estimated scf accuracy    <       0.00009438 Ry

     iteration # 22     ecut=    40.00 Ry     beta= 0.40
     Davidson diagonalization with overlap

---- Real-time Memory Report at c_bands before calling an iterative solver
           391 MiB given to the printing process from OS
             0 MiB allocation reported by mallinfo(arena+hblkhd)
          5580 MiB available memory on the node where the printing process lives
------------------
     ethr =  9.42E-09,  avg # of iterations =  1.0

     negative rho (up, down):  3.340E-03 0.000E+00

     total cpu time spent up to now is     8240.6 secs

     total energy              =  -22314.41955370 Ry
     estimated scf accuracy    <       0.00002116 Ry

     iteration # 23     ecut=    40.00 Ry     beta= 0.40
     Davidson diagonalization with overlap

---- Real-time Memory Report at c_bands before calling an iterative solver
           391 MiB given to the printing process from OS
             0 MiB allocation reported by mallinfo(arena+hblkhd)
          5580 MiB available memory on the node where the printing process lives
------------------
     ethr =  2.11E-09,  avg # of iterations =  1.0

     negative rho (up, down):  3.339E-03 0.000E+00

     total cpu time spent up to now is     8492.4 secs

     total energy              =  -22314.41955410 Ry
     estimated scf accuracy    <       0.00000174 Ry

     iteration # 24     ecut=    40.00 Ry     beta= 0.40
     Davidson diagonalization with overlap

---- Real-time Memory Report at c_bands before calling an iterative solver
           391 MiB given to the printing process from OS
             0 MiB allocation reported by mallinfo(arena+hblkhd)
          5577 MiB available memory on the node where the printing process lives
------------------
     ethr =  1.74E-10,  avg # of iterations =  2.0

     negative rho (up, down):  3.339E-03 0.000E+00

     total cpu time spent up to now is     8844.4 secs

     End of self-consistent calculation

          k = 0.0000 0.0000 0.0000 ( 71933 PWs)   bands (ev):

  -125.3414-125.3389-125.3376-125.3363-125.3330-125.3320-125.3314-125.3302
  -125.2750-125.2735-125.2690-125.2673-125.2610-125.2598-125.2597-125.2583
  -125.1928-125.1920-125.1912-125.1910-125.1906-125.1901-125.1895-125.1892
  -125.1039-125.1028-125.1013-125.1004-125.0999-125.0989-125.0987-125.0974
  -125.0166-125.0163-125.0156-125.0156-125.0150-125.0144-125.0143-125.0127
  -124.9737-124.9354-124.9276-124.9275-124.9265-124.9259-124.9250-124.9247
   -79.4997 -79.4962 -79.4935 -79.4928 -79.4920 -79.4914 -79.4906 -79.4891
   -79.4882 -79.4878 -79.4877 -79.4866 -79.4863 -79.4861 -79.4856 -79.4847
   -79.4832 -79.4820 -79.4815 -79.4803 -79.4802 -79.4798 -79.4745 -79.4678
   -79.4330 -79.4308 -79.4292 -79.4251 -79.4250 -79.4236 -79.4234 -79.4211
   -79.4207 -79.4192 -79.4187 -79.4173 -79.4170 -79.4160 -79.4158 -79.4144
   -79.4108 -79.4096 -79.4095 -79.4087 -79.4085 -79.4080 -79.4068 -79.3962
   -79.3527 -79.3519 -79.3518 -79.3517 -79.3510 -79.3504 -79.3499 -79.3492
   -79.3491 -79.3482 -79.3410 -79.3405 -79.3404 -79.3400 -79.3400 -79.3395
   -79.3393 -79.3392 -79.3387 -79.3384 -79.3377 -79.3376 -79.3279 -79.3273
   -79.2652 -79.2646 -79.2640 -79.2626 -79.2616 -79.2611 -79.2609 -79.2601
   -79.2598 -79.2585 -79.2544 -79.2533 -79.2523 -79.2519 -79.2515 -79.2508
   -79.2507 -79.2498 -79.2496 -79.2486 -79.2484 -79.2480 -79.2396 -79.2362
   -79.1812 -79.1805 -79.1802 -79.1798 -79.1791 -79.1790 -79.1784 -79.1771
   -79.1764 -79.1759 -79.1672 -79.1670 -79.1664 -79.1662 -79.1658 -79.1650
   -79.1650 -79.1644 -79.1640 -79.1637 -79.1633 -79.1628 -79.1518 -79.1511
   -79.1456 -79.1252 -79.1130 -79.1068 -79.0986 -79.0986 -79.0976 -79.0970
   -79.0961 -79.0960 -79.0879 -79.0812 -79.0810 -79.0800 -79.0794 -79.0785
   -79.0779 -79.0773 -79.0767 -79.0678 -79.0652 -79.0649 -79.0569 -79.0527
   -17.3305 -15.1474 -12.9743 -12.6027 -10.9330  -9.4088  -8.7124  -8.3634
    -7.4981  -7.2916  -7.2330  -7.1620  -7.0918  -7.0882  -7.0697  -7.0152
    -6.9825  -6.9216  -6.8895  -6.8838  -6.8692  -6.8670  -6.8432  -6.8409
    -6.8391  -6.8085  -6.8073  -6.7750  -6.7631  -6.7177  -6.7141  -6.7119
    -6.6991  -6.6913  -6.6886  -6.6873  -6.6764  -6.6757  -6.6730  -6.6394
    -6.6383  -6.6350  -6.6340  -6.6293  -6.6271  -6.6138  -6.6124  -6.6009
    -6.5994  -6.5763  -6.5723  -6.5712  -6.5640  -6.5636  -6.5618  -6.5445
    -6.5442  -6.5162  -6.5137  -6.5107  -6.5088  -6.5067  -6.4798  -6.4786
    -6.4722  -6.4718  -6.4579  -6.4480  -6.4306  -6.4070  -6.4058  -6.4023
    -6.3986  -6.3740  -6.3728  -6.3649  -6.3633  -6.3568  -6.3435  -6.3429
    -6.3399  -6.3373  -6.3366  -6.3325  -6.3171  -6.3165  -6.2947  -6.2937
    -6.2895  -6.2888  -6.2876  -6.2669  -6.2481  -6.2471  -6.2446  -6.2425
    -6.2321  -6.2305  -6.2169  -6.2156  -6.2104  -6.2084  -6.1914  -6.1860
    -6.1839  -6.1828  -6.1809  -6.1660  -6.1649  -6.1643  -6.1624  -6.1608
    -6.1491  -6.1311  -6.1296  -6.1217  -6.1203  -6.1126  -6.1120  -6.0977
    -6.0932  -6.0880  -6.0857  -6.0844  -6.0816  -6.0747  -6.0723  -6.0590
    -6.0579  -6.0522  -6.0510  -6.0457  -6.0448  -6.0267  -6.0210  -6.0184
    -6.0182  -6.0108  -6.0087  -5.9949  -5.9877  -5.9863  -5.9861  -5.9847
    -5.9837  -5.9813  -5.9806  -5.9646  -5.9542  -5.9356  -5.9350  -5.9325
    -5.9312  -5.9247  -5.9227  -5.9165  -5.9143  -5.9064  -5.8931  -5.8925
    -5.8917  -5.8902  -5.8900  -5.8822  -5.8806  -5.8802  -5.8615  -5.8603
    -5.8575  -5.8567  -5.8524  -5.8501  -5.8467  -5.8444  -5.8415  -5.8317
    -5.8290  -5.8257  -5.8245  -5.8235  -5.8179  -5.8168  -5.8027  -5.8025
    -5.7931  -5.7912  -5.7907  -5.7895  -5.7844  -5.7831  -5.7693  -5.7679
    -5.7646  -5.7613  -5.7565  -5.7452  -5.7432  -5.7411  -5.7389  -5.7373
    -5.7368  -5.7338  -5.7256  -5.7242  -5.7226  -5.7208  -5.7190  -5.7181
    -5.7167  -5.7136  -5.7099  -5.7092  -5.7082  -5.7030  -5.6976  -5.6924
    -5.6888  -5.6859  -5.6841  -5.6800  -5.6794  -5.6687  -5.6652  -5.6599
    -5.6593  -5.6517  -5.6498  -5.6471  -5.6447  -5.6330  -5.6323  -5.6111
    -5.6059  -5.6046  -5.6028  -5.5920  -5.5914  -5.5895  -5.5788  -5.5776
    -5.5625  -5.5508  -5.5437  -5.5428  -5.5320  -5.5304  -5.5189  -5.5178
    -5.5053  -5.4621  -5.4570  -5.4443  -5.4228  -5.4221  -5.3759  -5.3652
    -5.3311  -5.3301  -5.0898  -4.7691  -4.6350  -4.4202  -4.3998  -4.3972
    -4.3439  -4.1720  -4.1338  -4.1333  -3.7580  -3.7571  -3.5664  -3.4106
    -2.8807  -2.7813  -2.5075  -2.3691  -2.3658  -2.2596  -2.2260  -2.1753
    -2.1737  -1.9033  -1.8132  -1.8060  -1.6367  -1.6273  -1.6176  -1.5605
    -1.5527  -1.0753  -0.8477  -0.8411  -0.6179  -0.4688  -0.4227  -0.2941
    -0.2783  -0.2377  -0.2350   0.1942   0.1982   0.3935   0.4005   0.4474
     0.4516   0.4893   0.7880   0.7946   0.9415   1.1347   1.4901   1.5003
     1.7803   1.7930   2.1046   2.1445   2.3453   2.3478   2.3527   2.3603
     2.4715   2.4716   2.8913   2.8948   2.9866   3.0379   3.0502   3.1314
     3.1371   3.3736   3.4284   3.6602   3.7491   3.7937   3.8010   4.1988
     4.2095   4.2539   4.5683   4.7010   4.8626   4.8916   4.9103   5.0120
     5.0227   5.2642   5.2711   5.3165   5.4158   5.4413   5.4475   5.4622
     5.4899   5.5402   5.6816   5.7816   5.7872   5.8008   5.8209   5.8966
     5.9295   5.9530   6.0277   6.0288   6.0780   6.0994   6.1568   6.1869
     6.2145   6.2236   6.2408   6.2616   6.3142   6.4396   6.4613   6.4849
     6.5540   6.6363   6.7018   6.7035   6.7486   6.8143   6.9207   6.9581
     7.0331   7.1025   7.1409   7.1575   7.1862   7.2418   7.3149   7.3271
     7.3696   7.3795   7.4927   7.5159   7.5803   7.6248   7.7181   7.7275
     7.8032   7.8066   7.8397   7.8603   7.8615   7.9158   7.9695   8.0633
     8.1221

     occupation numbers 
     1.0000   1.0000   1.0000   1.0000   1.0000   1.0000   1.0000   1.0000
     1.0000   1.0000   1.0000   1.0000   1.0000   1.0000   1.0000   1.0000
     1.0000   1.0000   1.0000   1.0000   1.0000   1.0000   1.0000   1.0000
     1.0000   1.0000   1.0000   1.0000   1.0000   1.0000   1.0000   1.0000
     1.0000   1.0000   1.0000   1.0000   1.0000   1.0000   1.0000   1.0000
     1.0000   1.0000   1.0000   1.0000   1.0000   1.0000   1.0000   1.0000
     1.0000   1.0000   1.0000   1.0000   1.0000   1.0000   1.0000   1.0000
     1.0000   1.0000   1.0000   1.0000   1.0000   1.0000   1.0000   1.0000
     1.0000   1.0000   1.0000   1.0000   1.0000   1.0000   1.0000   1.0000
     1.0000   1.0000   1.0000   1.0000   1.0000   1.0000   1.0000   1.0000
     1.0000   1.0000   1.0000   1.0000   1.0000   1.0000   1.0000   1.0000
     1.0000   1.0000   1.0000   1.0000   1.0000   1.0000   1.0000   1.0000
     1.0000   1.0000   1.0000   1.0000   1.0000   1.0000   1.0000   1.0000
     1.0000   1.0000   1.0000   1.0000   1.0000   1.0000   1.0000   1.0000
     1.0000   1.0000   1.0000   1.0000   1.0000   1.0000   1.0000   1.0000
     1.0000   1.0000   1.0000   1.0000   1.0000   1.0000   1.0000   1.0000
     1.0000   1.0000   1.0000   1.0000   1.0000   1.0000   1.0000   1.0000
     1.0000   1.0000   1.0000   1.0000   1.0000   1.0000   1.0000   1.0000
     1.0000   1.0000   1.0000   1.0000   1.0000   1.0000   1.0000   1.0000
     1.0000   1.0000   1.0000   1.0000   1.0000   1.0000   1.0000   1.0000
     1.0000   1.0000   1.0000   1.0000   1.0000   1.0000   1.0000   1.0000
     1.0000   1.0000   1.0000   1.0000   1.0000   1.0000   1.0000   1.0000
     1.0000   1.0000   1.0000   1.0000   1.0000   1.0000   1.0000   1.0000
     1.0000   1.0000   1.0000   1.0000   1.0000   1.0000   1.0000   1.0000
     1.0000   1.0000   1.0000   1.0000   1.0000   1.0000   1.0000   1.0000
     1.0000   1.0000   1.0000   1.0000   1.0000   1.0000   1.0000   1.0000
     1.0000   1.0000   1.0000   1.0000   1.0000   1.0000   1.0000   1.0000
     1.0000   1.0000   1.0000   1.0000   1.0000   1.0000   1.0000   1.0000
     1.0000   1.0000   1.0000   1.0000   1.0000   1.0000   1.0000   1.0000
     1.0000   1.0000   1.0000   1.0000   1.0000   1.0000   1.0000   1.0000
     1.0000   1.0000   1.0000   1.0000   1.0000   1.0000   1.0000   1.0000
     1.0000   1.0000   1.0000   1.0000   1.0000   1.0000   1.0000   1.0000
     1.0000   1.0000   1.0000   1.0000   1.0000   1.0000   1.0000   1.0000
     1.0000   1.0000   1.0000   1.0000   1.0000   1.0000   1.0000   1.0000
     1.0000   1.0000   1.0000   1.0000   1.0000   1.0000   1.0000   1.0000
     1.0000   1.0000   1.0000   1.0000   1.0000   1.0000   1.0000   1.0000
     1.0000   1.0000   1.0000   1.0000   1.0000   1.0000   1.0000   1.0000
     1.0000   1.0000   1.0000   1.0000   1.0000   1.0000   1.0000   1.0000
     1.0000   1.0000   1.0000   1.0000   1.0000   1.0000   1.0000   1.0000
     1.0000   1.0000   1.0000   1.0000   1.0000   1.0000   1.0000   1.0000
     1.0000   1.0000   1.0000   1.0000   1.0000   1.0000   1.0000   1.0000
     1.0000   1.0000   1.0000   1.0000   1.0000   1.0000   1.0000   1.0000
     1.0000   1.0000   1.0000   1.0000   1.0000   1.0000   1.0000   1.0000
     1.0000   1.0000   1.0000   1.0000   1.0000   1.0000   1.0000   1.0000
     1.0000   1.0000   1.0000   1.0000   1.0000   1.0000   1.0000   1.0000
     1.0000   1.0000   1.0000   1.0000   1.0000   1.0000   1.0000   1.0000
     1.0000   1.0000   1.0000   1.0000   1.0000   1.0000   1.0000   1.0000
     1.0000   1.0000   1.0000   1.0000   1.0000   1.0000   1.0000   1.0000
     1.0000   1.0000   1.0000   1.0000   1.0000   1.0000   1.0000   1.0000
     1.0000   1.0000   1.0000   1.0000   1.0000   1.0000   1.0000   1.0000
     1.0000   1.0000   1.0000   1.0000   1.0000   1.0000   1.0000   1.0000
     1.0000   1.0000   1.0000   1.0000   1.0000   1.0000   1.0000   1.0000
     1.0000   1.0000   1.0000   1.0000   1.0000   1.0000   1.0000   1.0000
     1.0000   1.0000   1.0000   1.0000   1.0000   1.0000   1.0000   1.0000
     1.0000   1.0000   1.0000   1.0000   1.0000   1.0000   1.0000   1.0000
     1.0000   1.0000   1.0000   1.0000   1.0000   1.0000   1.0000   1.0000
     1.0000   1.0000   1.0000   1.0000   1.0000   1.0000   1.0000   1.0000
     1.0000   1.0000   1.0000   1.0000   1.0000   1.0000   1.0000   1.0000
     1.0000   1.0000   1.0000   1.0000   1.0000   1.0000   1.0000   1.0000
     1.0000   1.0000   1.0000   1.0000   1.0000   1.0000   1.0000   1.0000
     1.0000   1.0000   1.0000   1.0000   1.0000   1.0000   1.0000   1.0000
     1.0000   1.0000   1.0000   1.0001   1.0001   1.0024   1.0027   1.0053
     1.0056   1.0093   1.0832   1.0833   0.9808   0.5174   0.0174   0.0151
     0.0001   0.0001   0.0000   0.0000   0.0000   0.0000   0.0000   0.0000
     0.0000   0.0000   0.0000   0.0000   0.0000   0.0000   0.0000   0.0000
     0.0000   0.0000   0.0000   0.0000   0.0000   0.0000   0.0000   0.0000
     0.0000   0.0000   0.0000   0.0000   0.0000   0.0000   0.0000   0.0000
     0.0000   0.0000   0.0000   0.0000   0.0000   0.0000   0.0000   0.0000
     0.0000   0.0000   0.0000   0.0000   0.0000   0.0000   0.0000   0.0000
     0.0000   0.0000   0.0000   0.0000   0.0000   0.0000   0.0000   0.0000
     0.0000   0.0000   0.0000   0.0000   0.0000   0.0000   0.0000   0.0000
     0.0000   0.0000   0.0000   0.0000   0.0000   0.0000   0.0000   0.0000
     0.0000   0.0000   0.0000   0.0000   0.0000   0.0000   0.0000   0.0000
     0.0000   0.0000   0.0000   0.0000   0.0000   0.0000   0.0000   0.0000
     0.0000   0.0000   0.0000   0.0000   0.0000   0.0000   0.0000   0.0000
     0.0000

          k = 0.0000 0.3628 0.1846 ( 71963 PWs)   bands (ev):

  -125.3414-125.3389-125.3376-125.3363-125.3329-125.3321-125.3313-125.3302
  -125.2750-125.2735-125.2690-125.2673-125.2610-125.2600-125.2595-125.2583
  -125.1928-125.1919-125.1913-125.1910-125.1905-125.1901-125.1896-125.1893
  -125.1039-125.1028-125.1012-125.1004-125.0998-125.0991-125.0985-125.0974
  -125.0166-125.0162-125.0158-125.0156-125.0149-125.0144-125.0144-125.0127
  -124.9737-124.9354-124.9276-124.9275-124.9266-124.9258-124.9251-124.9247
   -79.4981 -79.4962 -79.4936 -79.4934 -79.4919 -79.4913 -79.4911 -79.4906
   -79.4889 -79.4878 -79.4875 -79.4868 -79.4865 -79.4862 -79.4859 -79.4848
   -79.4831 -79.4821 -79.4812 -79.4808 -79.4801 -79.4761 -79.4741 -79.4694
   -79.4317 -79.4308 -79.4292 -79.4258 -79.4251 -79.4250 -79.4236 -79.4233
   -79.4195 -79.4188 -79.4172 -79.4170 -79.4162 -79.4157 -79.4148 -79.4143
   -79.4142 -79.4108 -79.4099 -79.4092 -79.4081 -79.4080 -79.4025 -79.3979
   -79.3518 -79.3517 -79.3511 -79.3511 -79.3504 -79.3501 -79.3500 -79.3491
   -79.3491 -79.3483 -79.3462 -79.3457 -79.3409 -79.3403 -79.3396 -79.3393
   -79.3388 -79.3384 -79.3378 -79.3376 -79.3342 -79.3334 -79.3294 -79.3289
   -79.2652 -79.2641 -79.2630 -79.2625 -79.2616 -79.2611 -79.2603 -79.2597
   -79.2592 -79.2585 -79.2581 -79.2547 -79.2544 -79.2533 -79.2517 -79.2508
   -79.2508 -79.2500 -79.2493 -79.2482 -79.2460 -79.2424 -79.2412 -79.2378
   -79.1812 -79.1804 -79.1802 -79.1800 -79.1790 -79.1789 -79.1784 -79.1771
   -79.1748 -79.1744 -79.1703 -79.1696 -79.1671 -79.1669 -79.1666 -79.1662
   -79.1655 -79.1651 -79.1649 -79.1632 -79.1579 -79.1574 -79.1534 -79.1526
   -79.1456 -79.1252 -79.1129 -79.1068 -79.0986 -79.0986 -79.0977 -79.0969
   -79.0961 -79.0960 -79.0879 -79.0812 -79.0810 -79.0801 -79.0792 -79.0785
   -79.0779 -79.0772 -79.0757 -79.0712 -79.0668 -79.0589 -79.0573 -79.0543
   -17.3305 -15.1474 -12.9743 -12.6027 -10.9330  -9.4088  -8.7123  -8.1972
    -7.7220  -7.4038  -7.2902  -7.1617  -7.1194  -7.0948  -6.9789  -6.9436
    -6.9033  -6.8642  -6.8587  -6.8439  -6.8397  -6.8360  -6.8254  -6.8197
    -6.8087  -6.7852  -6.7818  -6.7744  -6.7718  -6.7643  -6.7572  -6.7510
    -6.7340  -6.7204  -6.7180  -6.7110  -6.7097  -6.6951  -6.6908  -6.6754
    -6.6710  -6.6690  -6.6552  -6.6522  -6.6510  -6.6449  -6.6440  -6.6222
    -6.6098  -6.6069  -6.6016  -6.5985  -6.5839  -6.5479  -6.5414  -6.5380
    -6.5315  -6.5258  -6.5221  -6.4924  -6.4872  -6.4848  -6.4823  -6.4596
    -6.4547  -6.4453  -6.4425  -6.4316  -6.4280  -6.4174  -6.4150  -6.4025
    -6.3881  -6.3873  -6.3855  -6.3790  -6.3718  -6.3651  -6.3607  -6.3576
    -6.3559  -6.3454  -6.3380  -6.3308  -6.3264  -6.3255  -6.3217  -6.3135
    -6.3085  -6.3001  -6.2970  -6.2759  -6.2635  -6.2547  -6.2428  -6.2357
    -6.2336  -6.2318  -6.2309  -6.2215  -6.2193  -6.2069  -6.2015  -6.1962
    -6.1952  -6.1894  -6.1874  -6.1818  -6.1790  -6.1731  -6.1721  -6.1698
    -6.1675  -6.1617  -6.1524  -6.1442  -6.1430  -6.1264  -6.1252  -6.1150
    -6.1113  -6.1054  -6.1002  -6.0900  -6.0864  -6.0847  -6.0774  -6.0725
    -6.0704  -6.0648  -6.0579  -6.0523  -6.0464  -6.0441  -6.0229  -6.0201
    -6.0139  -6.0061  -6.0024  -6.0003  -5.9986  -5.9977  -5.9942  -5.9898
    -5.9789  -5.9764  -5.9659  -5.9655  -5.9558  -5.9364  -5.9271  -5.9150
    -5.9107  -5.9086  -5.9079  -5.9070  -5.9011  -5.8855  -5.8844  -5.8788
    -5.8765  -5.8743  -5.8723  -5.8690  -5.8639  -5.8615  -5.8590  -5.8556
    -5.8506  -5.8495  -5.8483  -5.8355  -5.8341  -5.8263  -5.8152  -5.8096
    -5.8090  -5.8057  -5.8044  -5.8025  -5.7938  -5.7907  -5.7894  -5.7876
    -5.7852  -5.7742  -5.7703  -5.7690  -5.7665  -5.7643  -5.7599  -5.7566
    -5.7550  -5.7503  -5.7472  -5.7409  -5.7390  -5.7383  -5.7311  -5.7281
    -5.7248  -5.7195  -5.7187  -5.7182  -5.7147  -5.7106  -5.7053  -5.7021
    -5.7002  -5.6973  -5.6953  -5.6936  -5.6850  -5.6820  -5.6779  -5.6762
    -5.6726  -5.6700  -5.6662  -5.6632  -5.6614  -5.6551  -5.6533  -5.6414
    -5.6320  -5.6290  -5.6271  -5.6232  -5.6198  -5.6177  -5.6172  -5.6142
    -5.6069  -5.6055  -5.6044  -5.6021  -5.6011  -5.5894  -5.5804  -5.5743
    -5.5719  -5.5700  -5.5643  -5.5609  -5.5545  -5.5501  -5.5324  -5.5105
    -5.4985  -5.4898  -5.4868  -5.4781  -5.4328  -5.4237  -5.4183  -5.3478
    -5.0930  -5.0373  -4.9949  -4.9819  -4.6558  -4.6370  -4.6176  -4.4202
    -4.3448  -4.3100  -3.9499  -3.5671  -3.5652  -3.4121  -3.3706  -3.3293
    -3.3136  -2.8972  -2.8232  -2.8013  -2.7414  -2.6026  -2.5583  -2.2757
    -2.2514  -1.8244  -1.7991  -1.7389  -1.6361  -1.6114  -1.5160  -1.4600
    -1.2038  -1.0782  -0.8475  -0.8082  -0.7294  -0.6163  -0.5834  -0.5428
    -0.4689  -0.2009  -0.0061   0.0812   0.2113   0.3596   0.4762   0.5534
     0.7319   0.7661   0.8509   0.9346   1.2592   1.2667   1.4427   1.4505
     1.6706   1.8316   2.0532   2.1173   2.3069   2.3434   2.3754   2.4949
     2.5706   2.9418   3.0142   3.0633   3.2892   3.3006   3.4534   3.4887
     3.6114   3.6830   3.7079   3.7235   3.8242   3.8550   4.0116   4.2360
     4.3275   4.3767   4.3901   4.4095   4.5086   4.5541   4.5652   4.6044
     4.7044   4.8106   4.9097   4.9197   4.9430   4.9710   5.0494   5.0547
     5.2103   5.2619   5.3870   5.4138   5.4612   5.5330   5.5553   5.6189
     5.7495   5.8246   5.8396   5.9280   6.0038   6.1620   6.1731   6.2207
     6.2718   6.2868   6.3075   6.3347   6.3802   6.4695   6.5273   6.5525
     6.6468   6.6887   6.7094   6.7730   6.8676   6.9322   6.9494   6.9920
     7.1011   7.1131   7.2214   7.2407   7.2702   7.3138   7.3896   7.4118
     7.4258   7.4642   7.4968   7.5692   7.5985   7.6341   7.7106   7.7532
     7.7731   7.8435   7.8586   7.9179   7.9593   8.0004   8.0681   8.0860
     8.0998

     occupation numbers 
     1.0000   1.0000   1.0000   1.0000   1.0000   1.0000   1.0000   1.0000
     1.0000   1.0000   1.0000   1.0000   1.0000   1.0000   1.0000   1.0000
     1.0000   1.0000   1.0000   1.0000   1.0000   1.0000   1.0000   1.0000
     1.0000   1.0000   1.0000   1.0000   1.0000   1.0000   1.0000   1.0000
     1.0000   1.0000   1.0000   1.0000   1.0000   1.0000   1.0000   1.0000
     1.0000   1.0000   1.0000   1.0000   1.0000   1.0000   1.0000   1.0000
     1.0000   1.0000   1.0000   1.0000   1.0000   1.0000   1.0000   1.0000
     1.0000   1.0000   1.0000   1.0000   1.0000   1.0000   1.0000   1.0000
     1.0000   1.0000   1.0000   1.0000   1.0000   1.0000   1.0000   1.0000
     1.0000   1.0000   1.0000   1.0000   1.0000   1.0000   1.0000   1.0000
     1.0000   1.0000   1.0000   1.0000   1.0000   1.0000   1.0000   1.0000
     1.0000   1.0000   1.0000   1.0000   1.0000   1.0000   1.0000   1.0000
     1.0000   1.0000   1.0000   1.0000   1.0000   1.0000   1.0000   1.0000
     1.0000   1.0000   1.0000   1.0000   1.0000   1.0000   1.0000   1.0000
     1.0000   1.0000   1.0000   1.0000   1.0000   1.0000   1.0000   1.0000
     1.0000   1.0000   1.0000   1.0000   1.0000   1.0000   1.0000   1.0000
     1.0000   1.0000   1.0000   1.0000   1.0000   1.0000   1.0000   1.0000
     1.0000   1.0000   1.0000   1.0000   1.0000   1.0000   1.0000   1.0000
     1.0000   1.0000   1.0000   1.0000   1.0000   1.0000   1.0000   1.0000
     1.0000   1.0000   1.0000   1.0000   1.0000   1.0000   1.0000   1.0000
     1.0000   1.0000   1.0000   1.0000   1.0000   1.0000   1.0000   1.0000
     1.0000   1.0000   1.0000   1.0000   1.0000   1.0000   1.0000   1.0000
     1.0000   1.0000   1.0000   1.0000   1.0000   1.0000   1.0000   1.0000
     1.0000   1.0000   1.0000   1.0000   1.0000   1.0000   1.0000   1.0000
     1.0000   1.0000   1.0000   1.0000   1.0000   1.0000   1.0000   1.0000
     1.0000   1.0000   1.0000   1.0000   1.0000   1.0000   1.0000   1.0000
     1.0000   1.0000   1.0000   1.0000   1.0000   1.0000   1.0000   1.0000
     1.0000   1.0000   1.0000   1.0000   1.0000   1.0000   1.0000   1.0000
     1.0000   1.0000   1.0000   1.0000   1.0000   1.0000   1.0000   1.0000
     1.0000   1.0000   1.0000   1.0000   1.0000   1.0000   1.0000   1.0000
     1.0000   1.0000   1.0000   1.0000   1.0000   1.0000   1.0000   1.0000
     1.0000   1.0000   1.0000   1.0000   1.0000   1.0000   1.0000   1.0000
     1.0000   1.0000   1.0000   1.0000   1.0000   1.0000   1.0000   1.0000
     1.0000   1.0000   1.0000   1.0000   1.0000   1.0000   1.0000   1.0000
     1.0000   1.0000   1.0000   1.0000   1.0000   1.0000   1.0000   1.0000
     1.0000   1.0000   1.0000   1.0000   1.0000   1.0000   1.0000   1.0000
     1.0000   1.0000   1.0000   1.0000   1.0000   1.0000   1.0000   1.0000
     1.0000   1.0000   1.0000   1.0000   1.0000   1.0000   1.0000   1.0000
     1.0000   1.0000   1.0000   1.0000   1.0000   1.0000   1.0000   1.0000
     1.0000   1.0000   1.0000   1.0000   1.0000   1.0000   1.0000   1.0000
     1.0000   1.0000   1.0000   1.0000   1.0000   1.0000   1.0000   1.0000
     1.0000   1.0000   1.0000   1.0000   1.0000   1.0000   1.0000   1.0000
     1.0000   1.0000   1.0000   1.0000   1.0000   1.0000   1.0000   1.0000
     1.0000   1.0000   1.0000   1.0000   1.0000   1.0000   1.0000   1.0000
     1.0000   1.0000   1.0000   1.0000   1.0000   1.0000   1.0000   1.0000
     1.0000   1.0000   1.0000   1.0000   1.0000   1.0000   1.0000   1.0000
     1.0000   1.0000   1.0000   1.0000   1.0000   1.0000   1.0000   1.0000
     1.0000   1.0000   1.0000   1.0000   1.0000   1.0000   1.0000   1.0000
     1.0000   1.0000   1.0000   1.0000   1.0000   1.0000   1.0000   1.0000
     1.0000   1.0000   1.0000   1.0000   1.0000   1.0000   1.0000   1.0000
     1.0000   1.0000   1.0000   1.0000   1.0000   1.0000   1.0000   1.0000
     1.0000   1.0000   1.0000   1.0000   1.0000   1.0000   1.0000   1.0000
     1.0000   1.0000   1.0000   1.0000   1.0000   1.0000   1.0000   1.0000
     1.0000   1.0000   1.0000   1.0000   1.0000   1.0000   1.0000   1.0000
     1.0000   1.0000   1.0000   1.0000   1.0000   1.0000   1.0000   1.0000
     1.0000   1.0000   1.0000   1.0000   1.0000   1.0000   1.0000   1.0000
     1.0000   1.0000   1.0000   1.0000   1.0000   1.0000   1.0000   1.0000
     1.0000   1.0000   1.0000   1.0000   1.0000   1.0000   1.0000   1.0000
     1.0000   1.0000   1.0000   1.0000   1.0000   1.0000   1.0000   1.0000
     1.0000   1.0000   1.0000   1.0000   1.0000   1.0000   1.0000   1.0000
     1.0000   1.0000   1.0000   1.0000   1.0000   1.0000   1.0000   1.0000
     1.0000   1.0000   1.0000   1.0000   1.0001   1.0014   1.0078   1.0195
     1.0733   1.0810   1.0708   0.9912   0.2245   0.2110   0.0329   0.0298
     0.0009   0.0000   0.0000   0.0000   0.0000   0.0000   0.0000   0.0000
     0.0000   0.0000   0.0000   0.0000   0.0000   0.0000   0.0000   0.0000
     0.0000   0.0000   0.0000   0.0000   0.0000   0.0000   0.0000   0.0000
     0.0000   0.0000   0.0000   0.0000   0.0000   0.0000   0.0000   0.0000
     0.0000   0.0000   0.0000   0.0000   0.0000   0.0000   0.0000   0.0000
     0.0000   0.0000   0.0000   0.0000   0.0000   0.0000   0.0000   0.0000
     0.0000   0.0000   0.0000   0.0000   0.0000   0.0000   0.0000   0.0000
     0.0000   0.0000   0.0000   0.0000   0.0000   0.0000   0.0000   0.0000
     0.0000   0.0000   0.0000   0.0000   0.0000   0.0000   0.0000   0.0000
     0.0000   0.0000   0.0000   0.0000   0.0000   0.0000   0.0000   0.0000
     0.0000   0.0000   0.0000   0.0000   0.0000   0.0000   0.0000   0.0000
     0.0000   0.0000   0.0000   0.0000   0.0000   0.0000   0.0000   0.0000
     0.0000

          k = 0.3333 0.0811 0.7384 ( 72005 PWs)   bands (ev):

  -125.3414-125.3389-125.3376-125.3363-125.3330-125.3320-125.3314-125.3302
  -125.2750-125.2735-125.2690-125.2673-125.2610-125.2598-125.2597-125.2583
  -125.1928-125.1920-125.1912-125.1910-125.1906-125.1901-125.1895-125.1892
  -125.1039-125.1028-125.1013-125.1004-125.0999-125.0989-125.0987-125.0974
  -125.0166-125.0163-125.0156-125.0156-125.0150-125.0144-125.0143-125.0127
  -124.9737-124.9354-124.9276-124.9275-124.9265-124.9259-124.9250-124.9247
   -79.4997 -79.4962 -79.4935 -79.4928 -79.4920 -79.4914 -79.4906 -79.4891
   -79.4882 -79.4878 -79.4877 -79.4866 -79.4863 -79.4861 -79.4856 -79.4847
   -79.4832 -79.4820 -79.4815 -79.4803 -79.4802 -79.4798 -79.4745 -79.4678
   -79.4330 -79.4308 -79.4292 -79.4251 -79.4250 -79.4236 -79.4234 -79.4211
   -79.4207 -79.4192 -79.4187 -79.4173 -79.4170 -79.4160 -79.4158 -79.4144
   -79.4108 -79.4096 -79.4095 -79.4087 -79.4085 -79.4080 -79.4068 -79.3962
   -79.3527 -79.3519 -79.3518 -79.3517 -79.3510 -79.3504 -79.3499 -79.3492
   -79.3491 -79.3482 -79.3410 -79.3405 -79.3404 -79.3400 -79.3400 -79.3395
   -79.3393 -79.3392 -79.3387 -79.3384 -79.3377 -79.3376 -79.3279 -79.3273
   -79.2652 -79.2646 -79.2640 -79.2626 -79.2616 -79.2611 -79.2609 -79.2601
   -79.2598 -79.2585 -79.2544 -79.2533 -79.2523 -79.2519 -79.2515 -79.2508
   -79.2507 -79.2498 -79.2496 -79.2486 -79.2484 -79.2480 -79.2396 -79.2362
   -79.1812 -79.1805 -79.1802 -79.1798 -79.1791 -79.1790 -79.1784 -79.1771
   -79.1764 -79.1759 -79.1672 -79.1670 -79.1664 -79.1662 -79.1658 -79.1650
   -79.1650 -79.1644 -79.1640 -79.1637 -79.1633 -79.1628 -79.1518 -79.1511
   -79.1456 -79.1252 -79.1130 -79.1068 -79.0986 -79.0986 -79.0976 -79.0970
   -79.0961 -79.0960 -79.0879 -79.0812 -79.0810 -79.0800 -79.0794 -79.0785
   -79.0779 -79.0773 -79.0767 -79.0678 -79.0652 -79.0649 -79.0569 -79.0527
   -17.3305 -15.1474 -12.9743 -12.6027 -10.9330  -9.4088  -8.7124  -8.2303
    -7.8607  -7.2917  -7.1623  -7.1289  -7.1003  -7.0663  -7.0186  -7.0058
    -6.9915  -6.9286  -6.9031  -6.9008  -6.8862  -6.8594  -6.8502  -6.8475
    -6.7983  -6.7936  -6.7833  -6.7745  -6.7711  -6.7296  -6.7238  -6.7202
    -6.7008  -6.6951  -6.6918  -6.6846  -6.6806  -6.6763  -6.6679  -6.6441
    -6.6409  -6.6318  -6.6295  -6.6202  -6.6061  -6.6049  -6.6033  -6.6014
    -6.5990  -6.5850  -6.5751  -6.5736  -6.5700  -6.5656  -6.5632  -6.5464
    -6.5375  -6.5219  -6.5190  -6.5148  -6.5078  -6.4801  -6.4790  -6.4744
    -6.4711  -6.4706  -6.4569  -6.4498  -6.4472  -6.4169  -6.3973  -6.3927
    -6.3802  -6.3782  -6.3692  -6.3685  -6.3647  -6.3619  -6.3450  -6.3395
    -6.3334  -6.3328  -6.3315  -6.3303  -6.3060  -6.3029  -6.3021  -6.2978
    -6.2833  -6.2801  -6.2787  -6.2739  -6.2650  -6.2604  -6.2546  -6.2464
    -6.2451  -6.2357  -6.2316  -6.2195  -6.2169  -6.2141  -6.2070  -6.2043
    -6.1839  -6.1762  -6.1609  -6.1593  -6.1562  -6.1556  -6.1543  -6.1529
    -6.1514  -6.1505  -6.1401  -6.1291  -6.1237  -6.1232  -6.1149  -6.0927
    -6.0866  -6.0828  -6.0820  -6.0798  -6.0693  -6.0594  -6.0561  -6.0553
    -6.0549  -6.0541  -6.0531  -6.0498  -6.0397  -6.0371  -6.0287  -6.0226
    -6.0216  -6.0068  -5.9951  -5.9933  -5.9911  -5.9884  -5.9815  -5.9779
    -5.9728  -5.9667  -5.9656  -5.9654  -5.9384  -5.9366  -5.9353  -5.9333
    -5.9239  -5.9215  -5.9209  -5.9197  -5.9194  -5.9164  -5.9135  -5.9088
    -5.9029  -5.8986  -5.8967  -5.8872  -5.8836  -5.8806  -5.8752  -5.8747
    -5.8744  -5.8673  -5.8593  -5.8585  -5.8452  -5.8398  -5.8337  -5.8302
    -5.8246  -5.8242  -5.8233  -5.8214  -5.8196  -5.8192  -5.8090  -5.8052
    -5.8037  -5.7983  -5.7873  -5.7843  -5.7805  -5.7768  -5.7737  -5.7717
    -5.7681  -5.7633  -5.7599  -5.7562  -5.7519  -5.7426  -5.7417  -5.7405
    -5.7389  -5.7351  -5.7284  -5.7271  -5.7245  -5.7155  -5.7107  -5.7085
    -5.7074  -5.7017  -5.7002  -5.6983  -5.6920  -5.6907  -5.6871  -5.6852
    -5.6847  -5.6783  -5.6737  -5.6682  -5.6660  -5.6630  -5.6613  -5.6576
    -5.6511  -5.6480  -5.6466  -5.6458  -5.6447  -5.6297  -5.6223  -5.6183
    -5.6125  -5.6116  -5.6018  -5.5971  -5.5851  -5.5804  -5.5793  -5.5626
    -5.5516  -5.5505  -5.5445  -5.5328  -5.5304  -5.5275  -5.5187  -5.5051
    -5.5046  -5.4562  -5.4453  -5.4167  -5.4157  -5.4041  -5.3718  -5.3615
    -5.1826  -5.1003  -5.0942  -5.0737  -4.6378  -4.5847  -4.4706  -4.4203
    -4.3441  -4.2546  -4.0397  -3.9691  -3.5686  -3.5615  -3.4626  -3.4548
    -3.4095  -2.9075  -2.8173  -2.8032  -2.7654  -2.2602  -2.2395  -1.9850
    -1.9838  -1.9792  -1.8639  -1.6362  -1.6150  -1.5540  -1.3485  -1.2086
    -1.2067  -0.9969  -0.8262  -0.6706  -0.5701  -0.4718  -0.4688  -0.4514
    -0.4094  -0.4078  -0.2996  -0.2876   0.3333   0.4534   0.4739   0.6526
     0.6551   0.6915   0.8830   0.9522   1.2829   1.3387   1.3802   1.4251
     1.4310   1.7421   1.8415   1.8581   2.0155   2.0961   2.2547   2.5938
     2.6779   2.7049   2.8246   2.8299   2.8528   2.8971   3.3854   3.3935
     3.4306   3.5868   3.6164   3.7361   3.8259   4.0542   4.2127   4.2393
     4.2584   4.3263   4.3348   4.4754   4.5006   4.5684   4.6470   4.8063
     4.8771   4.9175   4.9223   4.9557   4.9864   5.0232   5.0772   5.2250
     5.3239   5.3964   5.4307   5.4691   5.5338   5.6449   5.6785   5.7238
     5.7947   6.0155   6.0218   6.0589   6.1148   6.2363   6.2623   6.2839
     6.3900   6.4952   6.5233   6.5525   6.5550   6.5947   6.6945   6.7430
     6.7703   6.8435   6.8594   6.9006   6.9443   6.9789   7.0595   7.0779
     7.0893   7.1832   7.1899   7.2543   7.2719   7.3507   7.3873   7.4000
     7.4130   7.4783   7.5000   7.5439   7.5692   7.5950   7.6805   7.6959
     7.7556   7.8485   7.8942   7.8960   7.9058   7.9476   7.9689   8.0206
     8.1059

     occupation numbers 
     1.0000   1.0000   1.0000   1.0000   1.0000   1.0000   1.0000   1.0000
     1.0000   1.0000   1.0000   1.0000   1.0000   1.0000   1.0000   1.0000
     1.0000   1.0000   1.0000   1.0000   1.0000   1.0000   1.0000   1.0000
     1.0000   1.0000   1.0000   1.0000   1.0000   1.0000   1.0000   1.0000
     1.0000   1.0000   1.0000   1.0000   1.0000   1.0000   1.0000   1.0000
     1.0000   1.0000   1.0000   1.0000   1.0000   1.0000   1.0000   1.0000
     1.0000   1.0000   1.0000   1.0000   1.0000   1.0000   1.0000   1.0000
     1.0000   1.0000   1.0000   1.0000   1.0000   1.0000   1.0000   1.0000
     1.0000   1.0000   1.0000   1.0000   1.0000   1.0000   1.0000   1.0000
     1.0000   1.0000   1.0000   1.0000   1.0000   1.0000   1.0000   1.0000
     1.0000   1.0000   1.0000   1.0000   1.0000   1.0000   1.0000   1.0000
     1.0000   1.0000   1.0000   1.0000   1.0000   1.0000   1.0000   1.0000
     1.0000   1.0000   1.0000   1.0000   1.0000   1.0000   1.0000   1.0000
     1.0000   1.0000   1.0000   1.0000   1.0000   1.0000   1.0000   1.0000
     1.0000   1.0000   1.0000   1.0000   1.0000   1.0000   1.0000   1.0000
     1.0000   1.0000   1.0000   1.0000   1.0000   1.0000   1.0000   1.0000
     1.0000   1.0000   1.0000   1.0000   1.0000   1.0000   1.0000   1.0000
     1.0000   1.0000   1.0000   1.0000   1.0000   1.0000   1.0000   1.0000
     1.0000   1.0000   1.0000   1.0000   1.0000   1.0000   1.0000   1.0000
     1.0000   1.0000   1.0000   1.0000   1.0000   1.0000   1.0000   1.0000
     1.0000   1.0000   1.0000   1.0000   1.0000   1.0000   1.0000   1.0000
     1.0000   1.0000   1.0000   1.0000   1.0000   1.0000   1.0000   1.0000
     1.0000   1.0000   1.0000   1.0000   1.0000   1.0000   1.0000   1.0000
     1.0000   1.0000   1.0000   1.0000   1.0000   1.0000   1.0000   1.0000
     1.0000   1.0000   1.0000   1.0000   1.0000   1.0000   1.0000   1.0000
     1.0000   1.0000   1.0000   1.0000   1.0000   1.0000   1.0000   1.0000
     1.0000   1.0000   1.0000   1.0000   1.0000   1.0000   1.0000   1.0000
     1.0000   1.0000   1.0000   1.0000   1.0000   1.0000   1.0000   1.0000
     1.0000   1.0000   1.0000   1.0000   1.0000   1.0000   1.0000   1.0000
     1.0000   1.0000   1.0000   1.0000   1.0000   1.0000   1.0000   1.0000
     1.0000   1.0000   1.0000   1.0000   1.0000   1.0000   1.0000   1.0000
     1.0000   1.0000   1.0000   1.0000   1.0000   1.0000   1.0000   1.0000
     1.0000   1.0000   1.0000   1.0000   1.0000   1.0000   1.0000   1.0000
     1.0000   1.0000   1.0000   1.0000   1.0000   1.0000   1.0000   1.0000
     1.0000   1.0000   1.0000   1.0000   1.0000   1.0000   1.0000   1.0000
     1.0000   1.0000   1.0000   1.0000   1.0000   1.0000   1.0000   1.0000
     1.0000   1.0000   1.0000   1.0000   1.0000   1.0000   1.0000   1.0000
     1.0000   1.0000   1.0000   1.0000   1.0000   1.0000   1.0000   1.0000
     1.0000   1.0000   1.0000   1.0000   1.0000   1.0000   1.0000   1.0000
     1.0000   1.0000   1.0000   1.0000   1.0000   1.0000   1.0000   1.0000
     1.0000   1.0000   1.0000   1.0000   1.0000   1.0000   1.0000   1.0000
     1.0000   1.0000   1.0000   1.0000   1.0000   1.0000   1.0000   1.0000
     1.0000   1.0000   1.0000   1.0000   1.0000   1.0000   1.0000   1.0000
     1.0000   1.0000   1.0000   1.0000   1.0000   1.0000   1.0000   1.0000
     1.0000   1.0000   1.0000   1.0000   1.0000   1.0000   1.0000   1.0000
     1.0000   1.0000   1.0000   1.0000   1.0000   1.0000   1.0000   1.0000
     1.0000   1.0000   1.0000   1.0000   1.0000   1.0000   1.0000   1.0000
     1.0000   1.0000   1.0000   1.0000   1.0000   1.0000   1.0000   1.0000
     1.0000   1.0000   1.0000   1.0000   1.0000   1.0000   1.0000   1.0000
     1.0000   1.0000   1.0000   1.0000   1.0000   1.0000   1.0000   1.0000
     1.0000   1.0000   1.0000   1.0000   1.0000   1.0000   1.0000   1.0000
     1.0000   1.0000   1.0000   1.0000   1.0000   1.0000   1.0000   1.0000
     1.0000   1.0000   1.0000   1.0000   1.0000   1.0000   1.0000   1.0000
     1.0000   1.0000   1.0000   1.0000   1.0000   1.0000   1.0000   1.0000
     1.0000   1.0000   1.0000   1.0000   1.0000   1.0000   1.0000   1.0000
     1.0000   1.0000   1.0000   1.0000   1.0000   1.0000   1.0000   1.0000
     1.0000   1.0000   1.0000   1.0000   1.0000   1.0000   1.0000   1.0000
     1.0000   1.0000   1.0000   1.0000   1.0000   1.0000   1.0000   1.0000
     1.0000   1.0000   1.0000   1.0000   1.0000   1.0000   1.0000   1.0000
     1.0000   1.0000   1.0000   1.0000   1.0000   1.0000   1.0000   1.0000
     1.0000   1.0000   1.0000   1.0000   1.0000   1.0000   1.0000   1.0000
     1.0000   1.0000   1.0000   1.0000   1.0009   1.0058   1.0076   1.0471
     1.0480   1.0605   1.0499   0.9635   0.1837   0.1085   0.0696   0.0411
     0.0382   0.0002   0.0000   0.0000   0.0000   0.0000   0.0000   0.0000
     0.0000   0.0000   0.0000   0.0000   0.0000   0.0000   0.0000   0.0000
     0.0000   0.0000   0.0000   0.0000   0.0000   0.0000   0.0000   0.0000
     0.0000   0.0000   0.0000   0.0000   0.0000   0.0000   0.0000   0.0000
     0.0000   0.0000   0.0000   0.0000   0.0000   0.0000   0.0000   0.0000
     0.0000   0.0000   0.0000   0.0000   0.0000   0.0000   0.0000   0.0000
     0.0000   0.0000   0.0000   0.0000   0.0000   0.0000   0.0000   0.0000
     0.0000   0.0000   0.0000   0.0000   0.0000   0.0000   0.0000   0.0000
     0.0000   0.0000   0.0000   0.0000   0.0000   0.0000   0.0000   0.0000
     0.0000   0.0000   0.0000   0.0000   0.0000   0.0000   0.0000   0.0000
     0.0000   0.0000   0.0000   0.0000   0.0000   0.0000   0.0000   0.0000
     0.0000   0.0000   0.0000   0.0000   0.0000   0.0000   0.0000   0.0000
     0.0000

          k = 0.3333 0.4439 0.9230 ( 71974 PWs)   bands (ev):

  -125.3414-125.3389-125.3376-125.3363-125.3329-125.3321-125.3313-125.3302
  -125.2750-125.2735-125.2690-125.2673-125.2610-125.2600-125.2595-125.2583
  -125.1928-125.1919-125.1913-125.1910-125.1905-125.1901-125.1896-125.1893
  -125.1039-125.1028-125.1012-125.1004-125.0998-125.0991-125.0985-125.0974
  -125.0166-125.0162-125.0158-125.0156-125.0149-125.0144-125.0144-125.0127
  -124.9737-124.9354-124.9276-124.9275-124.9266-124.9258-124.9251-124.9247
   -79.4981 -79.4962 -79.4936 -79.4934 -79.4919 -79.4913 -79.4911 -79.4906
   -79.4889 -79.4878 -79.4875 -79.4868 -79.4865 -79.4862 -79.4859 -79.4848
   -79.4831 -79.4821 -79.4812 -79.4808 -79.4801 -79.4761 -79.4741 -79.4694
   -79.4317 -79.4308 -79.4292 -79.4258 -79.4251 -79.4250 -79.4236 -79.4233
   -79.4195 -79.4188 -79.4172 -79.4170 -79.4162 -79.4157 -79.4148 -79.4143
   -79.4142 -79.4108 -79.4099 -79.4092 -79.4081 -79.4080 -79.4025 -79.3979
   -79.3518 -79.3517 -79.3511 -79.3511 -79.3504 -79.3501 -79.3500 -79.3491
   -79.3491 -79.3483 -79.3462 -79.3457 -79.3409 -79.3403 -79.3396 -79.3393
   -79.3388 -79.3384 -79.3378 -79.3376 -79.3342 -79.3334 -79.3294 -79.3289
   -79.2652 -79.2641 -79.2630 -79.2625 -79.2616 -79.2611 -79.2603 -79.2597
   -79.2592 -79.2585 -79.2581 -79.2547 -79.2544 -79.2533 -79.2517 -79.2508
   -79.2508 -79.2500 -79.2493 -79.2482 -79.2460 -79.2424 -79.2412 -79.2378
   -79.1812 -79.1804 -79.1802 -79.1800 -79.1790 -79.1789 -79.1784 -79.1771
   -79.1748 -79.1744 -79.1703 -79.1696 -79.1671 -79.1670 -79.1666 -79.1662
   -79.1655 -79.1651 -79.1649 -79.1632 -79.1579 -79.1574 -79.1534 -79.1526
   -79.1456 -79.1252 -79.1129 -79.1068 -79.0986 -79.0986 -79.0977 -79.0969
   -79.0961 -79.0960 -79.0879 -79.0812 -79.0810 -79.0801 -79.0792 -79.0785
   -79.0779 -79.0772 -79.0757 -79.0712 -79.0668 -79.0589 -79.0573 -79.0543
   -17.3305 -15.1474 -12.9743 -12.6027 -10.9330  -9.4088  -8.7123  -8.0026
    -7.8174  -7.7218  -7.2907  -7.1616  -7.1196  -6.9978  -6.9811  -6.9294
    -6.9211  -6.8854  -6.8692  -6.8333  -6.8247  -6.8198  -6.8179  -6.8095
    -6.7936  -6.7821  -6.7811  -6.7719  -6.7647  -6.7571  -6.7518  -6.7507
    -6.7344  -6.7286  -6.7200  -6.7181  -6.7097  -6.7079  -6.7006  -6.6850
    -6.6770  -6.6752  -6.6706  -6.6522  -6.6446  -6.6284  -6.6253  -6.6223
    -6.6098  -6.6066  -6.5841  -6.5819  -6.5693  -6.5487  -6.5415  -6.5401
    -6.5379  -6.5317  -6.5224  -6.5062  -6.4858  -6.4812  -6.4602  -6.4581
    -6.4548  -6.4453  -6.4445  -6.4437  -6.4281  -6.4240  -6.4156  -6.4021
    -6.3877  -6.3802  -6.3784  -6.3682  -6.3666  -6.3652  -6.3597  -6.3560
    -6.3538  -6.3479  -6.3315  -6.3300  -6.3257  -6.3198  -6.3097  -6.3024
    -6.3001  -6.2973  -6.2947  -6.2781  -6.2757  -6.2695  -6.2631  -6.2520
    -6.2358  -6.2344  -6.2314  -6.2312  -6.2212  -6.2178  -6.2094  -6.2064
    -6.1960  -6.1954  -6.1909  -6.1871  -6.1814  -6.1721  -6.1680  -6.1620
    -6.1604  -6.1446  -6.1435  -6.1389  -6.1372  -6.1263  -6.1252  -6.1054
    -6.1003  -6.0977  -6.0915  -6.0895  -6.0884  -6.0866  -6.0846  -6.0725
    -6.0704  -6.0576  -6.0510  -6.0470  -6.0441  -6.0420  -6.0212  -6.0184
    -6.0156  -6.0059  -6.0031  -5.9999  -5.9992  -5.9981  -5.9939  -5.9899
    -5.9891  -5.9791  -5.9657  -5.9598  -5.9561  -5.9457  -5.9396  -5.9361
    -5.9274  -5.9249  -5.9110  -5.9087  -5.9007  -5.8883  -5.8852  -5.8843
    -5.8837  -5.8816  -5.8765  -5.8695  -5.8676  -5.8638  -5.8558  -5.8503
    -5.8497  -5.8478  -5.8460  -5.8431  -5.8342  -5.8264  -5.8214  -5.8151
    -5.8101  -5.8092  -5.8086  -5.8045  -5.7937  -5.7927  -5.7917  -5.7897
    -5.7891  -5.7859  -5.7665  -5.7647  -5.7627  -5.7563  -5.7552  -5.7508
    -5.7502  -5.7486  -5.7469  -5.7424  -5.7408  -5.7322  -5.7245  -5.7208
    -5.7189  -5.7184  -5.7149  -5.7113  -5.7091  -5.7074  -5.7043  -5.7023
    -5.7004  -5.6938  -5.6918  -5.6853  -5.6833  -5.6824  -5.6804  -5.6800
    -5.6759  -5.6725  -5.6686  -5.6670  -5.6614  -5.6543  -5.6511  -5.6501
    -5.6409  -5.6323  -5.6308  -5.6268  -5.6213  -5.6189  -5.6174  -5.6123
    -5.6095  -5.6085  -5.6062  -5.6049  -5.5897  -5.5864  -5.5804  -5.5746
    -5.5719  -5.5685  -5.5618  -5.5549  -5.5526  -5.5492  -5.5423  -5.5039
    -5.4976  -5.4933  -5.4873  -5.4550  -5.4409  -5.4027  -5.2291  -5.0953
    -5.0827  -5.0373  -4.9949  -4.9823  -4.7190  -4.6411  -4.6314  -4.4202
[...]
     atom   52 type  3   force =     0.00000000    0.00000000    0.00000000
     atom   53 type  3   force =     0.00000000    0.00000000    0.00000000
     atom   54 type  3   force =     0.00000000    0.00000000    0.00000000
     atom   55 type  3   force =     0.00000000    0.00000000    0.00000000
     atom   56 type  3   force =     0.00000000    0.00000000    0.00000000
     atom   57 type  2   force =     0.00000000    0.00000000    0.00000000
     atom   58 type  4   force =     0.00000000    0.00000000    0.00000000
     atom   59 type  4   force =     0.00000000    0.00000000    0.00000000
     atom   60 type  4   force =     0.00000000    0.00000000    0.00000000
     atom   61 type  4   force =     0.00000000    0.00000000    0.00000000
     atom   62 type  4   force =     0.00000000    0.00000000    0.00000000
     atom   63 type  4   force =     0.00000000    0.00000000    0.00000000
     atom   64 type  4   force =     0.00000000    0.00000000    0.00000000
     atom   65 type  4   force =     0.00000000    0.00000000    0.00000000
     The SCF correction term to forces
     atom    1 type  1   force =    -0.00000000    0.00000000    0.00000000
     atom    2 type  1   force =     0.00000000   -0.00000000    0.00000000
     atom    3 type  1   force =    -0.00009758    0.00015032   -0.00004463
     atom    4 type  1   force =     0.00005964   -0.00015634   -0.00001570
     atom    5 type  1   force =     0.00004143    0.00004394   -0.00010112
     atom    6 type  1   force =    -0.00004392   -0.00005119   -0.00004705
     atom    7 type  1   force =    -0.00000000    0.00000000    0.00000000
     atom    8 type  1   force =     0.00000000   -0.00000000   -0.00000000
     atom    9 type  1   force =     0.00004137   -0.00006144   -0.00003416
     atom   10 type  1   force =    -0.00008647    0.00005122   -0.00002078
     atom   11 type  1   force =     0.00006201   -0.00003120   -0.00015722
     atom   12 type  1   force =    -0.00005396    0.00004056   -0.00002579
     atom   13 type  1   force =     0.00000000   -0.00000000    0.00000000
     atom   14 type  1   force =    -0.00000000   -0.00000000   -0.00000000
     atom   15 type  1   force =     0.00010311    0.00002760    0.00003885
     atom   16 type  1   force =    -0.00005821   -0.00000821   -0.00003492
     atom   17 type  1   force =    -0.00003620    0.00011243   -0.00003271
     atom   18 type  1   force =     0.00004791   -0.00011297   -0.00008651
     atom   19 type  1   force =     0.00000000   -0.00000000    0.00000000
     atom   20 type  1   force =    -0.00000000    0.00000000    0.00000000
     atom   21 type  1   force =    -0.00004528    0.00001640    0.00002583
     atom   22 type  1   force =     0.00008950   -0.00001231   -0.00001937
     atom   23 type  1   force =    -0.00003080    0.00008567   -0.00009727
     atom   24 type  1   force =     0.00004463   -0.00008009   -0.00001685
     atom   25 type  1   force =     0.00000000   -0.00000000    0.00000000
     atom   26 type  1   force =    -0.00000000    0.00000000   -0.00000000
     atom   27 type  1   force =    -0.00003899    0.00013035   -0.00000996
     atom   28 type  1   force =     0.00003533   -0.00013072    0.00001373
     atom   29 type  1   force =    -0.00010501    0.00010691   -0.00003454
     atom   30 type  1   force =     0.00003183   -0.00013022    0.00001213
     atom   31 type  1   force =    -0.00000000   -0.00000000   -0.00000000
     atom   32 type  1   force =     0.00000000    0.00000000    0.00000000
     atom   33 type  1   force =    -0.00007386    0.00010724    0.00000435
     atom   34 type  1   force =     0.00008200   -0.00010383   -0.00000347
     atom   35 type  1   force =    -0.00001445    0.00000456   -0.00002422
     atom   36 type  1   force =    -0.00005983   -0.00001781    0.00000153
     atom   37 type  1   force =    -0.00000000    0.00000000    0.00000000
     atom   38 type  1   force =     0.00000000   -0.00000000    0.00000000
     atom   39 type  1   force =     0.00003827    0.00004371   -0.00000262
     atom   40 type  1   force =    -0.00002612   -0.00003165   -0.00002539
     atom   41 type  1   force =     0.00011775    0.00002530   -0.00002494
     atom   42 type  1   force =    -0.00002183   -0.00000492   -0.00007770
     atom   43 type  1   force =     0.00000000   -0.00000000    0.00000000
     atom   44 type  1   force =    -0.00000000    0.00000000   -0.00000000
     atom   45 type  1   force =     0.00009084   -0.00007200    0.00001334
     atom   46 type  1   force =    -0.00007873    0.00006977   -0.00003182
     atom   47 type  1   force =     0.00002050    0.00012040   -0.00006812
     atom   48 type  1   force =     0.00007598   -0.00009589   -0.00005619
     atom   49 type  4   force =    -0.00000077   -0.00000031   -0.00000040
     atom   50 type  3   force =    -0.00000380   -0.00000062   -0.00001504
     atom   51 type  3   force =     0.00001261    0.00001189    0.00000251
     atom   52 type  3   force =     0.00001444   -0.00001568    0.00002198
     atom   53 type  3   force =     0.00002724    0.00000180    0.00001702
     atom   54 type  3   force =    -0.00000073    0.00001400    0.00000109
     atom   55 type  3   force =     0.00001440    0.00000403    0.00001092
     atom   56 type  3   force =     0.00000645    0.00001866    0.00001448
     atom   57 type  2   force =     0.00001104   -0.00000159   -0.00002539
     atom   58 type  4   force =     0.00000176    0.00000042   -0.00000108
     atom   59 type  4   force =     0.00000242   -0.00000306    0.00000180
     atom   60 type  4   force =    -0.00000012   -0.00000076    0.00000040
     atom   61 type  4   force =    -0.00000133    0.00000403   -0.00000650
     atom   62 type  4   force =     0.00000162   -0.00000413   -0.00000669
     atom   63 type  4   force =     0.00000141    0.00000101   -0.00000039
     atom   64 type  4   force =     0.00000147    0.00000173    0.00000240
     atom   65 type  4   force =     0.00000080    0.00000082   -0.00000034

     DFT-D3 dispersion contribution to forces:
     atom    1 type  1   force =    -0.00113675   -0.00026522    0.00227376
     atom    2 type  1   force =    -0.00121158   -0.00028864    0.00218410
     atom    3 type  1   force =     0.00106811    0.00026958    0.00057961
     atom    4 type  1   force =     0.00112492    0.00024339    0.00059806
     atom    5 type  1   force =     0.00034796    0.00055478   -0.00103228
     atom    6 type  1   force =     0.00060325   -0.00030689   -0.00112186
     atom    7 type  1   force =    -0.00117389   -0.00029817    0.00222406
     atom    8 type  1   force =    -0.00117376   -0.00026383    0.00223869
     atom    9 type  1   force =     0.00110083    0.00023455    0.00058599
     atom   10 type  1   force =     0.00112708    0.00025915    0.00065401
     atom   11 type  1   force =     0.00041809   -0.00004680   -0.00053656
     atom   12 type  1   force =     0.00045560    0.00017390   -0.00166627
     atom   13 type  1   force =    -0.00133607   -0.00032641    0.00208818
     atom   14 type  1   force =    -0.00132926   -0.00030866    0.00203672
     atom   15 type  1   force =     0.00076753    0.00013201    0.00037535
     atom   16 type  1   force =     0.00085135    0.00025804    0.00042802
     atom   17 type  1   force =     0.00065572    0.00019464   -0.00200874
     atom   18 type  1   force =     0.00060454    0.00014146   -0.00201964
     atom   19 type  1   force =    -0.00132684   -0.00033066    0.00205869
     atom   20 type  1   force =    -0.00133918   -0.00030587    0.00206351
     atom   21 type  1   force =     0.00065269    0.00016272    0.00032554
     atom   22 type  1   force =     0.00089560    0.00015355    0.00038993
     atom   23 type  1   force =     0.00062155    0.00015869   -0.00198586
     atom   24 type  1   force =     0.00065071    0.00013539   -0.00204458
     atom   25 type  1   force =     0.00054535    0.00012060    0.00268301
     atom   26 type  1   force =     0.00054920    0.00014520    0.00260928
     atom   27 type  1   force =    -0.00097155   -0.00020561    0.00004255
     atom   28 type  1   force =    -0.00087449   -0.00022115   -0.00001405
     atom   29 type  1   force =    -0.00021551   -0.00000577   -0.00325595
     atom   30 type  1   force =    -0.00033507   -0.00022658   -0.00296550
     atom   31 type  1   force =     0.00054209    0.00013689    0.00265995
     atom   32 type  1   force =     0.00055412    0.00012634    0.00265526
     atom   33 type  1   force =    -0.00096796   -0.00020665    0.00001997
     atom   34 type  1   force =    -0.00087428   -0.00020448    0.00002013
     atom   35 type  1   force =    -0.00044458   -0.00003244   -0.00286476
     atom   36 type  1   force =    -0.00016469   -0.00003584   -0.00329741
     atom   37 type  1   force =     0.00062120    0.00015910    0.00261323
     atom   38 type  1   force =     0.00060804    0.00013886    0.00261975
     atom   39 type  1   force =    -0.00051142   -0.00014285    0.00005386
     atom   40 type  1   force =    -0.00060837   -0.00011212    0.00007056
     atom   41 type  1   force =     0.00014532    0.00006106   -0.00302215
     atom   42 type  1   force =     0.00003840   -0.00000528   -0.00309186
     atom   43 type  1   force =     0.00062069    0.00014896    0.00262255
     atom   44 type  1   force =     0.00060858    0.00015072    0.00259217
     atom   45 type  1   force =    -0.00046301   -0.00012643    0.00014406
     atom   46 type  1   force =    -0.00067234   -0.00011083   -0.00000754
     atom   47 type  1   force =     0.00022395    0.00006264   -0.00285726
     atom   48 type  1   force =     0.00000919   -0.00000385   -0.00319475
     atom   49 type  4   force =    -0.00007647    0.00001388   -0.00010779
     atom   50 type  3   force =    -0.00000617   -0.00000927   -0.00011210
     atom   51 type  3   force =     0.00006094   -0.00019354   -0.00001817
     atom   52 type  3   force =    -0.00002273    0.00009915   -0.00005012
     atom   53 type  3   force =    -0.00001508   -0.00000510   -0.00063981
     atom   54 type  3   force =    -0.00000173   -0.00000474   -0.00010889
     atom   55 type  3   force =    -0.00003761    0.00019551   -0.00000546
     atom   56 type  3   force =     0.00002364   -0.00009946   -0.00020579
     atom   57 type  2   force =     0.00003359    0.00001758   -0.00133275
     atom   58 type  4   force =     0.00000144    0.00001175   -0.00015967
     atom   59 type  4   force =     0.00001303   -0.00005273    0.00006175
     atom   60 type  4   force =     0.00000994   -0.00003187    0.00015810
     atom   61 type  4   force =     0.00005358   -0.00003130   -0.00135104
     atom   62 type  4   force =     0.00002925    0.00006978   -0.00138003
     atom   63 type  4   force =     0.00000539   -0.00000655   -0.00015393
     atom   64 type  4   force =    -0.00001016    0.00003643   -0.00000691
     atom   65 type  4   force =     0.00005810    0.00004928   -0.00011094

     Total force =     0.015758     Total SCF correction =     0.000664

     DFT-D3 dispersion Force =     0.015175


     Computing stress (Cartesian axis) and pressure


     negative rho (up, down):  3.336E-03 0.000E+00
          total   stress  (Ry/bohr**3)                   (kbar)     P=      -14.17
  -0.00015981   0.00000290   0.00000409          -23.51        0.43        0.60
   0.00000290  -0.00012065   0.00000091            0.43      -17.75        0.13
   0.00000409   0.00000091  -0.00000851            0.60        0.13       -1.25

     kinetic stress (kbar)  11689.79     20.61      7.83
                               20.61  11619.39      1.85
                                7.83      1.85  11677.85

     local   stress (kbar)-837983.96   3258.80   2943.31
                             3258.80-850401.13    716.36
                             2943.31    716.36 845890.36

     nonloc. stress (kbar)  -1127.51     -5.97     -2.72
                               -5.97  -1103.13     -0.72
                               -2.72     -0.72  -1139.31

     hartree stress (kbar) 443974.60  -1406.49  -1283.11
                            -1406.49 449326.94   -312.44
                            -1283.11   -312.44-391551.06

     exc-cor stress (kbar)  -5695.30     -1.37     -0.58
                               -1.37  -5689.98     -0.14
                               -0.58     -0.14  -5696.71

     corecor stress (kbar)    -71.32      0.21     -0.03
                                0.21    -72.10     -0.01
                               -0.03     -0.01    -72.07

     ewald   stress (kbar) 389196.59  -1865.81  -1664.50
                            -1865.81 396310.41   -404.88
                            -1664.50   -404.88-459107.00

     hubbard stress (kbar)      0.00      0.00      0.00
                                0.00      0.00      0.00
                                0.00      0.00      0.00

     DFT-D   stress (kbar)     -6.42      0.45      0.40
                                0.45     -8.15      0.10
                                0.40      0.10     -3.31

     XDM     stress (kbar)      0.00      0.00      0.00
                                0.00      0.00      0.00
                                0.00      0.00      0.00

     dft-nl  stress (kbar)      0.00      0.00      0.00
                                0.00      0.00      0.00
                                0.00      0.00      0.00

     TS-vdW  stress (kbar)      0.00      0.00      0.00
                                0.00      0.00      0.00
                                0.00      0.00      0.00

     MDB     stress (kbar)      0.00      0.00      0.00
                                0.00      0.00      0.00
                                0.00      0.00      0.00

     3D-RISM stress (kbar)      0.00      0.00      0.00
                                0.00      0.00      0.00
                                0.00      0.00      0.00

     Energy error            =      1.1E-04 Ry
     Gradient error          =      4.6E-03 Ry/Bohr

     number of scf cycles    =  24
     number of bfgs steps    =  23

     energy             old  =  -22314.4204851803 Ry
     energy             new  =  -22314.4205906745 Ry

     CASE: energy            _new < energy            _old

     new trust radius        =       0.0241633551 bohr
     new conv_thr            =       0.0000000913 Ry


ATOMIC_POSITIONS (angstrom)
Zn              -1.0735560000        1.0841420000        1.1977640000    0   0   0
Zn              -2.3094850000        6.1646920000        1.1977640000    0   0   0
Zn              -4.9032235651        0.1494365458        3.6319132751
Zn              -6.1225960220        5.2331998085        3.6397333810
Zn              -8.8773545070       -0.8249512112        5.7429751119
Zn             -10.1110702252        4.2638201703        5.7677634584
Zn              -1.6915200000        3.6244170000        1.1977640000    0   0   0
Zn              -2.9274500000        8.7049670000        1.1977640000    0   0   0
Zn              -5.5104867150        2.6906855322        3.6371341749
Zn              -6.7463651881        7.7708490458        3.6446514011
Zn              -9.5105010057        1.7144430113        5.7063202924
Zn             -10.7268592896        6.8041637875        5.7771324149
Zn               4.4565960000        1.0841420000        1.1977640000    0   0   0
Zn               3.2206660000        6.1646920000        1.1977640000    0   0   0
Zn               0.5976020891        0.1344486352        3.5493727082
Zn              -0.6259086432        5.2313852954        3.5841956008
Zn              -3.3062348623       -0.8034191502        5.7752245499
Zn              -4.5496021911        4.2716033159        5.7701503732
Zn               3.8386310000        3.6244170000        1.1977640000    0   0   0
Zn               2.6027020000        8.7049670000        1.1977640000    0   0   0
Zn              -0.0376953082        2.6827152415        3.5480858108
Zn              -1.2349504563        7.7594317420        3.5734581901
Zn              -3.9328077131        1.7302532206        5.7752082455
Zn              -5.1569438087        6.8131306734        5.7702421512
Zn               1.6915200000        0.4114910000        0.8555450000    0   0   0
Zn               0.4555910000        5.4920410000        0.8555450000    0   0   0
Zn              -2.3726847650       -0.5767769210        2.9446198172
Zn              -3.5971830236        4.5056369049        2.9284715287
Zn              -6.3820242723       -1.5570867052        5.0579053843
Zn              -7.6044638427        3.5247999684        5.0726364488
Zn               1.0735560000        2.9517660000        0.8555450000    0   0   0
Zn              -0.1623740000        8.0323160000        0.8555450000    0   0   0
Zn              -2.9929937423        1.9629269705        2.9353327635
Zn              -4.2133366785        7.0477785764        2.9377847943
Zn              -6.9927167865        0.9840827888        5.0735126615
Zn              -8.2326527223        6.0689550168        5.0598416594
Zn               7.2216720000        0.4114910000        0.8555450000    0   0   0
Zn               5.9857420000        5.4920410000        0.8555450000    0   0   0
Zn               3.2069547802       -0.5674371733        2.9311225499
Zn               1.9598637016        4.5124780903        2.9446305678
Zn              -0.8125086487       -1.5492091949        5.0818336993
Zn              -2.0732346214        3.5327689088        5.0676721713
Zn               6.6037070000        2.9517660000        0.8555450000    0   0   0
Zn               5.3677780000        8.0323160000        0.8555450000    0   0   0
Zn               2.5903166545        1.9742624162        2.9407056067
Zn               1.3389067702        7.0537607569        2.9313692644
Zn              -1.4382801462        0.9962278803        5.0855953702
Zn              -2.6833877132        6.0694235128        5.0631205884
H              -10.3117756818        1.7611002138       15.2591133991
C               -9.3351511645        1.4696165640       14.8417943987
C               -9.1340499956        0.2971243558       11.2052671520
C               -9.6727111134        2.6306310804       12.6131667453
C               -9.4539391468        1.4588836878       10.4851452538
C               -9.3662792113        1.4655317563       13.3352261406
C               -9.7134366988        2.6336659921       11.2189407900
C               -9.0922331619        0.3031912596       12.6005584782
N               -9.5774413403        1.4388109577        9.0958028596
H               -8.9180583110       -0.6216302148       10.6571340827
H               -9.8867761753        3.5636917258       13.1474807686
H               -9.0800875416        0.4757900670       15.2362419275
H               -9.5296585273        2.3280073023        8.6053109365
H               -9.1424251471        0.6742415666        8.5852793341
H               -9.9580177730        3.5503649165       10.6809928723
H               -8.8439022378       -0.6268652926       13.1236705728
H               -8.5928075505        2.1888379910       15.2212532830



     Writing config-only to output data dir ./tmp/Zn101_3layer_ptoluidine_relax.save/ :
     XML data file
     NEW-OLD atomic charge density approx. for the potential

     negative rho (up, down):  3.334E-03 0.000E+00

     total cpu time spent up to now is    76546.9 secs

     Self-consistent Calculation

     iteration #  1     ecut=    40.00 Ry     beta= 0.40
     Davidson diagonalization with overlap

---- Real-time Memory Report at c_bands before calling an iterative solver
           468 MiB given to the printing process from OS
             0 MiB allocation reported by mallinfo(arena+hblkhd)
          8812 MiB available memory on the node where the printing process lives
------------------
