
     Program PWSCF v.7.3.1 starts on 28Mar2025 at  2:57:38 

     This program is part of the open-source Quantum ESPRESSO suite
     for quantum simulation of materials; please cite
         "P. Giannozzi et al., J. Phys.:Condens. Matter 21 395502 (2009);
         "P. Giannozzi et al., J. Phys.:Condens. Matter 29 465901 (2017);
         "P. Giannozzi et al., J. Chem. Phys. 152 154105 (2020);
          URL http://www.quantum-espresso.org", 
     in publications or presentations arising from this work. More details at
     http://www.quantum-espresso.org/quote

     Parallel version (MPI), running on    33 processors

     MPI processes distributed on     1 nodes
     12359 MiB available memory on the printing compute node when the environment starts

     Waiting for input...
     Reading input from standard input
Warning: card &CELL ignored
Warning: card   CELL_DOFREE = 'ALL' ignored
Warning: card / ignored

     Current dimensions of program PWSCF are:
     Max number of different atomic species (ntypx) = 10
     Max number of k-points (npk) =  40000
     Max angular momentum in pseudopotentials (lmaxx) =  4
     file C.pbe-n-kjpaw_psl.1.0.0.UPF: wavefunction(s)  2S 2P renormalized

     R & G space division:  proc/nbgrp/npool/nimage =      33
     Subspace diagonalization in iterative solution of the eigenvalue problem:
     a serial algorithm will be used


     Parallelization info
     --------------------
     sticks:   dense  smooth     PW     G-vecs:    dense   smooth      PW
     Min        1506     861    219               252806   109203   14053
     Max        1507     862    220               252809   109208   14057
     Sum       49717   28417   7237              8342671  3603727  463837

     Using Slab Decomposition



     bravais-lattice index     =            1
     lattice parameter (alat)  =      47.2432  a.u.
     unit-cell volume          =  105442.7265 (a.u.)^3
     number of atoms/cell      =           15
     number of atomic types    =            3
     number of electrons       =        44.00
     number of Kohn-Sham states=           26
     kinetic-energy cutoff     =      40.0000  Ry
     charge density cutoff     =     280.0000  Ry
     scf convergence threshold =      1.0E-06
     mixing beta               =       0.4000
     number of iterations used =            8  plain     mixing
     energy convergence thresh.=      1.0E-05
     force convergence thresh. =      5.0E-04
     Exchange-correlation= PBE
                           (   1   4   3   4   0   0   0)
     nstep                     =          100


     celldm(1)=  47.243153  celldm(2)=   0.000000  celldm(3)=   0.000000
     celldm(4)=   0.000000  celldm(5)=   0.000000  celldm(6)=   0.000000

     crystal axes: (cart. coord. in units of alat)
               a(1) = (   1.000000   0.000000   0.000000 )  
               a(2) = (   0.000000   1.000000   0.000000 )  
               a(3) = (   0.000000   0.000000   1.000000 )  

     reciprocal axes: (cart. coord. in units 2 pi/alat)
               b(1) = (  1.000000  0.000000  0.000000 )  
               b(2) = (  0.000000  1.000000  0.000000 )  
               b(3) = (  0.000000  0.000000  1.000000 )  


     PseudoPot. # 1 for N  read from file:
     /home/ys/qepseudo/SSSP_1.3.0_PBE_efficiency/N.pbe-n-radius_5.UPF
     MD5 check sum: 16739722b17309cd8fe442a2ace49922
     Pseudo is Ultrasoft + core correction, Zval =  5.0
     Generated using "atomic" code by A. Dal Corso  v.5.1
     Using radial grid of 1085 points,  4 beta functions with: 
                l(1) =   0
                l(2) =   0
                l(3) =   1
                l(4) =   1
     Q(r) pseudized with 0 coefficients 


     PseudoPot. # 2 for C  read from file:
     /home/ys/qepseudo/SSSP_1.3.0_PBE_efficiency/C.pbe-n-kjpaw_psl.1.0.0.UPF
     MD5 check sum: 5d2aebdfa2cae82b50a7e79e9516da0f
     Pseudo is Projector augmented-wave + core cor, Zval =  4.0
     Generated using "atomic" code by A. Dal Corso  v.5.1
     Shape of augmentation charge: PSQ
     Using radial grid of 1073 points,  4 beta functions with: 
                l(1) =   0
                l(2) =   0
                l(3) =   1
                l(4) =   1
     Q(r) pseudized with 0 coefficients 


     PseudoPot. # 3 for H  read from file:
     /home/ys/qepseudo/SSSP_1.3.0_PBE_efficiency/H.pbe-rrkjus_psl.1.0.0.UPF
     MD5 check sum: f52b6d4d1c606e5624b1dc7b2218f220
     Pseudo is Ultrasoft, Zval =  1.0
     Generated using "atomic" code by A. Dal Corso  v.5.1
     Using radial grid of  929 points,  2 beta functions with: 
                l(1) =   0
                l(2) =   0
     Q(r) pseudized with 0 coefficients 


     atomic species   valence    mass     pseudopotential
     N                 5.00    14.00674     N ( 1.00)
     C                 4.00    12.01070     C ( 1.00)
     H                 1.00     1.00794     H ( 1.00)

     No symmetry found


                                    s                        frac. trans.

      isym =  1     identity                                     

 cryst.   s( 1) = (     1          0          0      )
                  (     0          1          0      )
                  (     0          0          1      )

 cart.    s( 1) = (  1.0000000  0.0000000  0.0000000 )
                  (  0.0000000  1.0000000  0.0000000 )
                  (  0.0000000  0.0000000  1.0000000 )


     point group C_1 (1)    
     there are  1 classes
     the character table:

       E    
A      1.00

     the symmetry operations in each class and the name of the first element:

     E        1
          identity                                               

   Cartesian axes

     site n.     atom                  positions (alat units)
         1        N      tau(   1) = (   0.3082947   0.1828037   0.1828315  )
         2        N      tau(   2) = (   0.0365610   0.1828114   0.1828110  )
         3        C      tau(   3) = (   0.2536349   0.1828048   0.1828216  )
         4        C      tau(   4) = (   0.2245678   0.1342953   0.1828205  )
         5        C      tau(   5) = (   0.2245703   0.2313162   0.1828198  )
         6        C      tau(   6) = (   0.1402862   0.1828077   0.1828165  )
         7        C      tau(   7) = (   0.1690955   0.1343761   0.1828184  )
         8        C      tau(   8) = (   0.1690981   0.2312380   0.1828176  )
         9        C      tau(   9) = (   0.0830612   0.1828096   0.1828136  )
        10        H      tau(  10) = (   0.2461947   0.0962926   0.1828220  )
        11        H      tau(  11) = (   0.2461991   0.2693177   0.1828205  )
        12        H      tau(  12) = (   0.1473592   0.0964985   0.1828172  )
        13        H      tau(  13) = (   0.1473633   0.2691166   0.1828158  )
        14        H      tau(  14) = (   0.3290493   0.2174296   0.1827788  )
        15        H      tau(  15) = (   0.3290475   0.1481764   0.1827792  )

   Crystallographic axes

     site n.     atom                  positions (cryst. coord.)
         1        N      tau(   1) = (  0.3082947  0.1828037  0.1828315  )
         2        N      tau(   2) = (  0.0365610  0.1828114  0.1828110  )
         3        C      tau(   3) = (  0.2536349  0.1828048  0.1828216  )
         4        C      tau(   4) = (  0.2245678  0.1342953  0.1828205  )
         5        C      tau(   5) = (  0.2245703  0.2313162  0.1828198  )
         6        C      tau(   6) = (  0.1402862  0.1828077  0.1828165  )
         7        C      tau(   7) = (  0.1690955  0.1343761  0.1828184  )
         8        C      tau(   8) = (  0.1690981  0.2312380  0.1828176  )
         9        C      tau(   9) = (  0.0830612  0.1828096  0.1828136  )
        10        H      tau(  10) = (  0.2461947  0.0962926  0.1828220  )
        11        H      tau(  11) = (  0.2461991  0.2693177  0.1828205  )
        12        H      tau(  12) = (  0.1473592  0.0964985  0.1828172  )
        13        H      tau(  13) = (  0.1473633  0.2691166  0.1828158  )
        14        H      tau(  14) = (  0.3290493  0.2174296  0.1827788  )
        15        H      tau(  15) = (  0.3290475  0.1481764  0.1827792  )

     number of k points=     5  Marzari-Vanderbilt smearing, width (Ry)=  0.0200
                       cart. coord. in units 2pi/alat
        k(    1) = (   0.0000000   0.0000000   0.0000000), wk =   0.2222222
        k(    2) = (   0.0000000   0.3333333   0.0000000), wk =   0.4444444
        k(    3) = (   0.3333333   0.0000000   0.0000000), wk =   0.4444444
        k(    4) = (   0.3333333   0.3333333   0.0000000), wk =   0.4444444
        k(    5) = (   0.3333333  -0.3333333   0.0000000), wk =   0.4444444

                       cryst. coord.
        k(    1) = (   0.0000000   0.0000000   0.0000000), wk =   0.2222222
        k(    2) = (   0.0000000   0.3333333   0.0000000), wk =   0.4444444
        k(    3) = (   0.3333333   0.0000000   0.0000000), wk =   0.4444444
        k(    4) = (   0.3333333   0.3333333   0.0000000), wk =   0.4444444
        k(    5) = (   0.3333333  -0.3333333   0.0000000), wk =   0.4444444

     Dense  grid:  8342671 G-vectors     FFT dimensions: ( 256, 256, 256)

     Smooth grid:  3603727 G-vectors     FFT dimensions: ( 192, 192, 192)

     Dynamical RAM for                 wfc:       5.42 MB

     Dynamical RAM for     wfc (w. buffer):      32.49 MB

     Dynamical RAM for           str. fact:      11.57 MB

     Dynamical RAM for           local pot:       0.00 MB

     Dynamical RAM for          nlocal pot:      17.50 MB

     Dynamical RAM for                qrad:       1.15 MB

     Dynamical RAM for          rho,v,vnew:      23.57 MB

     Dynamical RAM for               rhoin:       7.86 MB

     Dynamical RAM for            rho*nmix:      61.72 MB

     Dynamical RAM for           G-vectors:      15.30 MB

     Dynamical RAM for          h,s,v(r/c):       0.12 MB

     Dynamical RAM for          <psi|beta>:       0.03 MB

     Dynamical RAM for                 psi:      10.83 MB

     Dynamical RAM for                hpsi:      10.83 MB

     Dynamical RAM for                spsi:      10.83 MB

     Dynamical RAM for      wfcinit/wfcrot:      17.54 MB

     Dynamical RAM for           addusdens:     192.88 MB

     Dynamical RAM for          addusforce:     241.10 MB

     Dynamical RAM for         addusstress:     192.88 MB

     Estimated static dynamical RAM per process >     144.87 MB

     Estimated max dynamical RAM per process >     447.70 MB

     Estimated total dynamical RAM >      14.43 GB

     Initial potential from superposition of free atoms

     starting charge      43.9996, renormalised to      44.0000

     negative rho (up, down):  1.008E-02 0.000E+00
     Starting wfcs are   42 randomized atomic wfcs
     Checking if some PAW data can be deallocated... 
       PAW data deallocated on   18 nodes for type:  2

     total cpu time spent up to now is       11.6 secs

     Self-consistent Calculation

     iteration #  1     ecut=    40.00 Ry     beta= 0.40
     Davidson diagonalization with overlap

---- Real-time Memory Report at c_bands before calling an iterative solver
           298 MiB given to the printing process from OS
             0 MiB allocation reported by mallinfo(arena+hblkhd)
          6393 MiB available memory on the node where the printing process lives
------------------
     ethr =  1.00E-02,  avg # of iterations =  2.0

     negative rho (up, down):  1.151E-02 0.000E+00

     total cpu time spent up to now is       27.5 secs

     total energy              =    -176.32373102 Ry
     estimated scf accuracy    <       1.81462673 Ry

     iteration #  2     ecut=    40.00 Ry     beta= 0.40
     Davidson diagonalization with overlap

---- Real-time Memory Report at c_bands before calling an iterative solver
           371 MiB given to the printing process from OS
             0 MiB allocation reported by mallinfo(arena+hblkhd)
          5336 MiB available memory on the node where the printing process lives
------------------
     ethr =  4.12E-03,  avg # of iterations =  2.0

     negative rho (up, down):  1.244E-02 0.000E+00

     total cpu time spent up to now is       41.3 secs

     total energy              =    -176.41655065 Ry
     estimated scf accuracy    <       0.24625535 Ry

     iteration #  3     ecut=    40.00 Ry     beta= 0.40
     Davidson diagonalization with overlap

---- Real-time Memory Report at c_bands before calling an iterative solver
           374 MiB given to the printing process from OS
             0 MiB allocation reported by mallinfo(arena+hblkhd)
          5225 MiB available memory on the node where the printing process lives
------------------
     ethr =  5.60E-04,  avg # of iterations =  8.0

     negative rho (up, down):  1.280E-02 0.000E+00

     total cpu time spent up to now is       57.0 secs

     total energy              =    -176.44005967 Ry
     estimated scf accuracy    <       0.06821340 Ry

     iteration #  4     ecut=    40.00 Ry     beta= 0.40
     Davidson diagonalization with overlap

---- Real-time Memory Report at c_bands before calling an iterative solver
           377 MiB given to the printing process from OS
             0 MiB allocation reported by mallinfo(arena+hblkhd)
          5323 MiB available memory on the node where the printing process lives
------------------
     ethr =  1.55E-04,  avg # of iterations =  2.0

     negative rho (up, down):  1.330E-02 0.000E+00

     total cpu time spent up to now is       70.1 secs

     total energy              =    -176.44303795 Ry
     estimated scf accuracy    <       0.01527375 Ry

     iteration #  5     ecut=    40.00 Ry     beta= 0.40
     Davidson diagonalization with overlap

---- Real-time Memory Report at c_bands before calling an iterative solver
           381 MiB given to the printing process from OS
             0 MiB allocation reported by mallinfo(arena+hblkhd)
          5257 MiB available memory on the node where the printing process lives
------------------
     ethr =  3.47E-05,  avg # of iterations = 15.8

     negative rho (up, down):  1.337E-02 0.000E+00

     total cpu time spent up to now is       88.5 secs

     total energy              =    -176.44455714 Ry
     estimated scf accuracy    <       0.00185214 Ry

     iteration #  6     ecut=    40.00 Ry     beta= 0.40
     Davidson diagonalization with overlap

---- Real-time Memory Report at c_bands before calling an iterative solver
           384 MiB given to the printing process from OS
             0 MiB allocation reported by mallinfo(arena+hblkhd)
          5330 MiB available memory on the node where the printing process lives
------------------
     ethr =  4.21E-06,  avg # of iterations =  6.0

     negative rho (up, down):  1.340E-02 0.000E+00

     total cpu time spent up to now is      103.9 secs

     total energy              =    -176.44478376 Ry
     estimated scf accuracy    <       0.00015176 Ry

     iteration #  7     ecut=    40.00 Ry     beta= 0.40
     Davidson diagonalization with overlap

---- Real-time Memory Report at c_bands before calling an iterative solver
           387 MiB given to the printing process from OS
             0 MiB allocation reported by mallinfo(arena+hblkhd)
          5219 MiB available memory on the node where the printing process lives
------------------
     ethr =  3.45E-07,  avg # of iterations =  5.0

     negative rho (up, down):  1.342E-02 0.000E+00

     total cpu time spent up to now is      120.5 secs

     total energy              =    -176.44480763 Ry
     estimated scf accuracy    <       0.00010337 Ry

     iteration #  8     ecut=    40.00 Ry     beta= 0.40
     Davidson diagonalization with overlap

---- Real-time Memory Report at c_bands before calling an iterative solver
           391 MiB given to the printing process from OS
             0 MiB allocation reported by mallinfo(arena+hblkhd)
          5296 MiB available memory on the node where the printing process lives
------------------
     ethr =  2.35E-07,  avg # of iterations =  2.0

     negative rho (up, down):  1.344E-02 0.000E+00

     total cpu time spent up to now is      134.3 secs

     total energy              =    -176.44481941 Ry
     estimated scf accuracy    <       0.00000708 Ry

     iteration #  9     ecut=    40.00 Ry     beta= 0.40
     Davidson diagonalization with overlap

---- Real-time Memory Report at c_bands before calling an iterative solver
           394 MiB given to the printing process from OS
             0 MiB allocation reported by mallinfo(arena+hblkhd)
          5266 MiB available memory on the node where the printing process lives
------------------
     ethr =  1.61E-08,  avg # of iterations =  4.4

     negative rho (up, down):  1.345E-02 0.000E+00

     total cpu time spent up to now is      151.2 secs

     total energy              =    -176.44482065 Ry
     estimated scf accuracy    <       0.00001280 Ry

     iteration # 10     ecut=    40.00 Ry     beta= 0.40
     Davidson diagonalization with overlap

---- Real-time Memory Report at c_bands before calling an iterative solver
           397 MiB given to the printing process from OS
             0 MiB allocation reported by mallinfo(arena+hblkhd)
          5276 MiB available memory on the node where the printing process lives
------------------
     ethr =  1.61E-08,  avg # of iterations =  2.0

     negative rho (up, down):  1.345E-02 0.000E+00

     total cpu time spent up to now is      165.2 secs

     total energy              =    -176.44482138 Ry
     estimated scf accuracy    <       0.00000109 Ry

     iteration # 11     ecut=    40.00 Ry     beta= 0.40
     Davidson diagonalization with overlap

---- Real-time Memory Report at c_bands before calling an iterative solver
           397 MiB given to the printing process from OS
             0 MiB allocation reported by mallinfo(arena+hblkhd)
          5275 MiB available memory on the node where the printing process lives
------------------
     ethr =  2.48E-09,  avg # of iterations =  4.2

     negative rho (up, down):  1.347E-02 0.000E+00

     total cpu time spent up to now is      181.2 secs

     End of self-consistent calculation

          k = 0.0000 0.0000 0.0000 (450991 PWs)   bands (ev):

   -23.7008 -22.1932 -21.3468 -18.9403 -18.8781 -15.9951 -15.7192 -13.7773
   -13.4704 -13.2911 -11.2299 -11.0646 -10.6353 -10.1416  -9.8846  -8.9898
    -8.7837  -8.0743  -7.7618  -7.5434  -6.7690  -5.4081  -1.7879  -1.6296
    -0.9880  -0.3593

     occupation numbers 
     1.0000   1.0000   1.0000   1.0000   1.0000   1.0000   1.0000   1.0000
     1.0000   1.0000   1.0000   1.0000   1.0000   1.0000   1.0000   1.0000
     1.0000   1.0000   1.0000   1.0000   1.0000   1.0000   0.0000   0.0000
     0.0000   0.0000

          k = 0.0000 0.3333 0.0000 (450515 PWs)   bands (ev):

   -23.7008 -22.1932 -21.3468 -18.9403 -18.8781 -15.9951 -15.7192 -13.7773
   -13.4704 -13.2910 -11.2299 -11.0646 -10.6353 -10.1416  -9.8846  -8.9898
    -8.7837  -8.0743  -7.7618  -7.5434  -6.7690  -5.4081  -1.7879  -1.6296
    -0.9880  -0.3637

     occupation numbers 
     1.0000   1.0000   1.0000   1.0000   1.0000   1.0000   1.0000   1.0000
     1.0000   1.0000   1.0000   1.0000   1.0000   1.0000   1.0000   1.0000
     1.0000   1.0000   1.0000   1.0000   1.0000   1.0000   0.0000   0.0000
     0.0000   0.0000

          k = 0.3333 0.0000 0.0000 (450515 PWs)   bands (ev):

   -23.7008 -22.1932 -21.3468 -18.9403 -18.8781 -15.9951 -15.7192 -13.7773
   -13.4704 -13.2910 -11.2299 -11.0646 -10.6353 -10.1416  -9.8846  -8.9898
    -8.7837  -8.0743  -7.7618  -7.5434  -6.7690  -5.4080  -1.7879  -1.6296
    -0.9880  -0.3591

     occupation numbers 
     1.0000   1.0000   1.0000   1.0000   1.0000   1.0000   1.0000   1.0000
     1.0000   1.0000   1.0000   1.0000   1.0000   1.0000   1.0000   1.0000
     1.0000   1.0000   1.0000   1.0000   1.0000   1.0000   0.0000   0.0000
     0.0000   0.0000

          k = 0.3333 0.3333 0.0000 (450333 PWs)   bands (ev):

   -23.7008 -22.1932 -21.3468 -18.9403 -18.8781 -15.9951 -15.7192 -13.7773
   -13.4704 -13.2910 -11.2299 -11.0646 -10.6352 -10.1416  -9.8846  -8.9898
    -8.7837  -8.0743  -7.7618  -7.5434  -6.7690  -5.4080  -1.7879  -1.6296
    -0.9879  -0.3632

     occupation numbers 
     1.0000   1.0000   1.0000   1.0000   1.0000   1.0000   1.0000   1.0000
     1.0000   1.0000   1.0000   1.0000   1.0000   1.0000   1.0000   1.0000
     1.0000   1.0000   1.0000   1.0000   1.0000   1.0000   0.0000   0.0000
     0.0000   0.0000

          k = 0.3333-0.3333 0.0000 (450333 PWs)   bands (ev):

   -23.7008 -22.1932 -21.3468 -18.9403 -18.8781 -15.9951 -15.7192 -13.7773
   -13.4704 -13.2910 -11.2299 -11.0646 -10.6352 -10.1416  -9.8846  -8.9898
    -8.7837  -8.0743  -7.7618  -7.5434  -6.7690  -5.4080  -1.7879  -1.6296
    -0.9880  -0.3632

     occupation numbers 
     1.0000   1.0000   1.0000   1.0000   1.0000   1.0000   1.0000   1.0000
     1.0000   1.0000   1.0000   1.0000   1.0000   1.0000   1.0000   1.0000
     1.0000   1.0000   1.0000   1.0000   1.0000   1.0000   0.0000   0.0000
     0.0000   0.0000

     the Fermi energy is    -3.0350 ev

!    total energy              =    -176.44482146 Ry
     estimated scf accuracy    <       0.00000064 Ry
     smearing contrib. (-TS)   =      -0.00000000 Ry
     internal energy E=F+TS    =    -176.44482146 Ry

     The total energy is F=E-TS. E is the sum of the following terms:
     one-electron contribution =    -701.50706980 Ry
     hartree contribution      =     355.96003936 Ry
     xc contribution           =     -47.26312598 Ry
     ewald contribution        =     259.54323481 Ry
     one-center paw contrib.   =     -43.17789984 Ry
      -> PAW hartree energy AE =       0.00000000 Ry
      -> PAW hartree energy PS =       0.00000000 Ry
      -> PAW xc energy AE      =       0.00000000 Ry
      -> PAW xc energy PS      =       0.00000000 Ry
      -> total E_H with PAW    =     355.96003936 Ry
      -> total E_XC with PAW   =     -47.26312598 Ry

     convergence has been achieved in  11 iterations

     negative rho (up, down):  1.347E-02 0.000E+00

     Forces acting on atoms (cartesian axes, Ry/au):

     atom    1 type  1   force =     0.00228906   -0.00002269   -0.00007998
     atom    2 type  1   force =    -0.02401451   -0.00000864   -0.00012781
     atom    3 type  2   force =    -0.00822241   -0.00002360    0.00011636
     atom    4 type  2   force =     0.00121005    0.00031429    0.00015592
     atom    5 type  2   force =     0.00119835   -0.00042486    0.00014573
     atom    6 type  2   force =    -0.00621928   -0.00000186    0.00007005
     atom    7 type  2   force =    -0.00014307   -0.00251480    0.00018732
     atom    8 type  2   force =    -0.00013286    0.00245516    0.00016892
     atom    9 type  2   force =     0.03266173    0.00023424    0.00011849
     atom   10 type  3   force =    -0.00115012    0.00129722   -0.00012214
     atom   11 type  3   force =    -0.00114854   -0.00129844   -0.00012146
     atom   12 type  3   force =     0.00105258    0.00201333   -0.00012225
     atom   13 type  3   force =     0.00105542   -0.00202133   -0.00012144
     atom   14 type  3   force =     0.00078406   -0.00053464   -0.00013391
     atom   15 type  3   force =     0.00077954    0.00053663   -0.00013380
     The non-local contrib.  to forces
     atom    1 type  1   force =    -0.05421081   -0.00001866   -0.00410197
     atom    2 type  1   force =     1.80522822   -0.00007945    0.00008990
     atom    3 type  2   force =     0.33757952   -0.00003092    0.00028817
     atom    4 type  2   force =     0.05698704    0.03610777    0.00009622
     atom    5 type  2   force =     0.05697930   -0.03607457    0.00009244
     atom    6 type  2   force =    -0.27434382   -0.00002744    0.00005122
     atom    7 type  2   force =    -0.01600406    0.03187531    0.00011722
     atom    8 type  2   force =    -0.01601880   -0.03182283    0.00011204
     atom    9 type  2   force =     0.28601097    0.00008388    0.00010981
     atom   10 type  3   force =    -0.03693718    0.06736123   -0.00000220
     atom   11 type  3   force =    -0.03694111   -0.06735948   -0.00000088
     atom   12 type  3   force =     0.03924924    0.06817945    0.00000318
     atom   13 type  3   force =     0.03924640   -0.06817964    0.00000442
     atom   14 type  3   force =    -0.05265611   -0.08691968    0.00012336
     atom   15 type  3   force =    -0.05264954    0.08692032    0.00012239
     The ionic contribution  to forces
     atom    1 type  1   force =     9.92082261   -0.00024690    0.00902875
     atom    2 type  1   force =   -13.73168530    0.00049827   -0.00072898
     atom    3 type  2   force =     2.60485116   -0.00007265   -0.00009362
     atom    4 type  2   force =     2.69812878   -7.02725462    0.00017838
     atom    5 type  2   force =     2.69851637    7.02709612    0.00008579
     atom    6 type  2   force =    -3.48520681    0.00005912   -0.00011790
     atom    7 type  2   force =    -2.65133398   -6.95685705    0.00004292
     atom    8 type  2   force =    -2.65095955    6.95696958   -0.00006521
     atom    9 type  2   force =    -1.30739253   -0.00004961   -0.00001230
     atom   10 type  3   force =     1.50628778   -3.28025269    0.00013253
     atom   11 type  3   force =     1.50645275    3.28018179    0.00007135
     atom   12 type  3   force =    -1.47541803   -3.26290937   -0.00005801
     atom   13 type  3   force =    -1.47525012    3.26296039   -0.00011487
     atom   14 type  3   force =     2.92118563    2.89842297   -0.00419087
     atom   15 type  3   force =     2.92100125   -2.89854533   -0.00415795
     The local contribution  to forces
     atom    1 type  1   force =    -9.86457724    0.00024710   -0.00491387
     atom    2 type  1   force =    11.91101424   -0.00042204    0.00063453
     atom    3 type  2   force =    -2.94413479    0.00012553   -0.00022232
     atom    4 type  2   force =    -2.75164240    6.99081603   -0.00028095
     atom    5 type  2   force =    -2.75202391   -6.99071698   -0.00018566
     atom    6 type  2   force =     3.74753817   -0.00002572    0.00005851
     atom    7 type  2   force =     2.66586629    6.92151079   -0.00016954
     atom    8 type  2   force =     2.66550286   -6.92168460   -0.00005698
     atom    9 type  2   force =     1.07149013   -0.00004501   -0.00010299
     atom   10 type  3   force =    -1.47043618    3.21416089   -0.00012995
     atom   11 type  3   force =    -1.47059540   -3.21408211   -0.00006941
     atom   12 type  3   force =     1.43725272    3.19668378    0.00005513
     atom   13 type  3   force =     1.43709025   -3.19673177    0.00011159
     atom   14 type  3   force =    -2.86768870   -2.81202447    0.00405611
     atom   15 type  3   force =    -2.86751546    2.81215863    0.00402426
     The core correction contribution to forces
     atom    1 type  1   force =     0.00039465    0.00000064    0.00002964
     atom    2 type  1   force =    -0.00941095   -0.00000028   -0.00000120
     atom    3 type  2   force =    -0.00629358   -0.00004127    0.00026664
     atom    4 type  2   force =    -0.00198800    0.00054899    0.00028495
     atom    5 type  2   force =    -0.00199726   -0.00062344    0.00027585
     atom    6 type  2   force =     0.00589065   -0.00000351    0.00020106
     atom    7 type  2   force =     0.00146016    0.00054657    0.00031934
     atom    8 type  2   force =     0.00147328   -0.00058750    0.00030187
     atom    9 type  2   force =    -0.01852413    0.00025005    0.00024594
     atom   10 type  3   force =     0.00000000    0.00000000    0.00000000
     atom   11 type  3   force =     0.00000000    0.00000000    0.00000000
     atom   12 type  3   force =     0.00000000    0.00000000    0.00000000
     atom   13 type  3   force =     0.00000000    0.00000000    0.00000000
     atom   14 type  3   force =     0.00000000    0.00000000    0.00000000
     atom   15 type  3   force =     0.00000000    0.00000000    0.00000000
     The Hubbard contrib.    to forces
     atom    1 type  1   force =     0.00000000    0.00000000    0.00000000
     atom    2 type  1   force =     0.00000000    0.00000000    0.00000000
     atom    3 type  2   force =     0.00000000    0.00000000    0.00000000
     atom    4 type  2   force =     0.00000000    0.00000000    0.00000000
     atom    5 type  2   force =     0.00000000    0.00000000    0.00000000
     atom    6 type  2   force =     0.00000000    0.00000000    0.00000000
     atom    7 type  2   force =     0.00000000    0.00000000    0.00000000
     atom    8 type  2   force =     0.00000000    0.00000000    0.00000000
     atom    9 type  2   force =     0.00000000    0.00000000    0.00000000
     atom   10 type  3   force =     0.00000000    0.00000000    0.00000000
     atom   11 type  3   force =     0.00000000    0.00000000    0.00000000
     atom   12 type  3   force =     0.00000000    0.00000000    0.00000000
     atom   13 type  3   force =     0.00000000    0.00000000    0.00000000
     atom   14 type  3   force =     0.00000000    0.00000000    0.00000000
     atom   15 type  3   force =     0.00000000    0.00000000    0.00000000
     The SCF correction term to forces
     atom    1 type  1   force =    -0.00010556    0.00000041    0.00000001
     atom    2 type  1   force =     0.00087388    0.00000015    0.00000048
     atom    3 type  2   force =    -0.00019012    0.00000101    0.00000004
     atom    4 type  2   force =    -0.00024078    0.00010141   -0.00000014
     atom    5 type  2   force =    -0.00024155   -0.00010070   -0.00000014
     atom    6 type  2   force =    -0.00006287    0.00000097   -0.00000030
     atom    7 type  2   force =    -0.00009688    0.00041488   -0.00000008
     atom    8 type  2   force =    -0.00009607   -0.00041420   -0.00000026
     atom    9 type  2   force =     0.00111188    0.00000022    0.00000057
     atom   10 type  3   force =    -0.00002995    0.00003309    0.00000003
     atom   11 type  3   force =    -0.00003017   -0.00003334    0.00000002
     atom   12 type  3   force =     0.00000324    0.00006477   -0.00000001
     atom   13 type  3   force =     0.00000350   -0.00006502   -0.00000005
     atom   14 type  3   force =    -0.00002215   -0.00000818    0.00000003
     atom   15 type  3   force =    -0.00002212    0.00000830    0.00000004

     Total force =     0.042297     Total SCF correction =     0.001601


     Computing stress (Cartesian axis) and pressure


     negative rho (up, down):  1.347E-02 0.000E+00
          total   stress  (Ry/bohr**3)                   (kbar)     P=       -0.07
  -0.00000031  -0.00000000   0.00000000           -0.05       -0.00        0.00
  -0.00000000  -0.00000059   0.00000000           -0.00       -0.09        0.00
   0.00000000   0.00000000  -0.00000046            0.00        0.00       -0.07

     kinetic stress (kbar)     69.57      0.00      0.00
                                0.00     72.52      0.00
                                0.00      0.00     82.49

     local   stress (kbar)   -650.12      0.01     -0.01
                                0.01   -353.94      0.00
                               -0.01      0.00    -79.63

     nonloc. stress (kbar)     19.15     -0.00      0.00
                               -0.00     18.49     -0.00
                                0.00     -0.00     17.83

     hartree stress (kbar)    286.18     -0.00      0.01
                               -0.00    157.45     -0.00
                                0.01     -0.00     52.98

     exc-cor stress (kbar)     -6.12     -0.00     -0.00
                               -0.00     -6.32     -0.00
                               -0.00     -0.00     -6.80

     corecor stress (kbar)    -12.10     -0.00      0.00
                               -0.00    -12.03      0.00
                                0.00      0.00    -11.89

     ewald   stress (kbar)    293.39     -0.00      0.00
                               -0.00    123.75     -0.00
                                0.00     -0.00    -55.05

     hubbard stress (kbar)      0.00      0.00      0.00
                                0.00      0.00      0.00
                                0.00      0.00      0.00

     DFT-D   stress (kbar)      0.00      0.00      0.00
                                0.00      0.00      0.00
                                0.00      0.00      0.00

     XDM     stress (kbar)      0.00      0.00      0.00
                                0.00      0.00      0.00
                                0.00      0.00      0.00

     dft-nl  stress (kbar)      0.00      0.00      0.00
                                0.00      0.00      0.00
                                0.00      0.00      0.00

     TS-vdW  stress (kbar)      0.00      0.00      0.00
                                0.00      0.00      0.00
                                0.00      0.00      0.00

     MDB     stress (kbar)      0.00      0.00      0.00
                                0.00      0.00      0.00
                                0.00      0.00      0.00

     3D-RISM stress (kbar)      0.00      0.00      0.00
                                0.00      0.00      0.00
                                0.00      0.00      0.00


     BFGS Geometry Optimization
     Energy error            =      0.0E+00 Ry
     Gradient error          =      3.3E-02 Ry/Bohr

     number of scf cycles    =   1
     number of bfgs steps    =   0

     energy             new  =    -176.4448214568 Ry

     new trust radius        =       0.0326627811 bohr
     new conv_thr            =       0.0000010000 Ry


ATOMIC_POSITIONS (angstrom)
N                7.7085793185        4.5700809906        4.5707456775
N                0.9013180661        4.5702804289        4.5702083642
C                6.3365208876        4.5701075121        4.5706025770
C                5.6148343323        3.3575483135        4.5705955067
C                5.6148921405        5.7826801732        4.5705721172
C                3.5038628997        4.5701920135        4.5704500665
C                4.2273122883        3.3580712230        4.5705581272
C                4.2273816930        5.7822482148        4.5705293900
C                2.0938138412        4.5703629530        4.5704027008
H                6.1542593806        2.4080024616        4.5704853668
H                6.1543692214        6.7322558946        4.5704487283
H                3.6845380021        2.4135274090        4.5703663106
H                3.6846405060        6.7268463601        4.5703307359
H                8.2266479091        5.4354560787        4.5694001358
H                8.2265995134        3.7046939734        4.5694101954



     Writing config-only to output data dir ./tmp/ABN.save/ :
     XML data file
     NEW-OLD atomic charge density approx. for the potential

     negative rho (up, down):  1.344E-02 0.000E+00

     total cpu time spent up to now is      199.7 secs

     Self-consistent Calculation

     iteration #  1     ecut=    40.00 Ry     beta= 0.40
     Davidson diagonalization with overlap

---- Real-time Memory Report at c_bands before calling an iterative solver
           409 MiB given to the printing process from OS
             0 MiB allocation reported by mallinfo(arena+hblkhd)
          7593 MiB available memory on the node where the printing process lives
------------------
     ethr =  1.00E-06,  avg # of iterations =  6.0

     negative rho (up, down):  1.339E-02 0.000E+00

     total cpu time spent up to now is      223.0 secs

     total energy              =    -176.44186678 Ry
     estimated scf accuracy    <       0.00304143 Ry

     iteration #  2     ecut=    40.00 Ry     beta= 0.40
     Davidson diagonalization with overlap

---- Real-time Memory Report at c_bands before calling an iterative solver
           409 MiB given to the printing process from OS
             0 MiB allocation reported by mallinfo(arena+hblkhd)
          6406 MiB available memory on the node where the printing process lives
------------------
     ethr =  6.91E-06,  avg # of iterations =  8.0

     negative rho (up, down):  1.338E-02 0.000E+00

     total cpu time spent up to now is      238.1 secs

     total energy              =    -176.44232645 Ry
     estimated scf accuracy    <       0.00147194 Ry

     iteration #  3     ecut=    40.00 Ry     beta= 0.40
     Davidson diagonalization with overlap

---- Real-time Memory Report at c_bands before calling an iterative solver
           409 MiB given to the printing process from OS
             0 MiB allocation reported by mallinfo(arena+hblkhd)
          6299 MiB available memory on the node where the printing process lives
------------------
     ethr =  3.35E-06,  avg # of iterations =  3.4

     negative rho (up, down):  1.337E-02 0.000E+00

     total cpu time spent up to now is      251.3 secs

     total energy              =    -176.44253313 Ry
     estimated scf accuracy    <       0.00008799 Ry

     iteration #  4     ecut=    40.00 Ry     beta= 0.40
     Davidson diagonalization with overlap

---- Real-time Memory Report at c_bands before calling an iterative solver
           409 MiB given to the printing process from OS
             0 MiB allocation reported by mallinfo(arena+hblkhd)
          6189 MiB available memory on the node where the printing process lives
------------------
     ethr =  2.00E-07,  avg # of iterations =  4.0

     negative rho (up, down):  1.336E-02 0.000E+00

     total cpu time spent up to now is      265.3 secs

     total energy              =    -176.44253842 Ry
     estimated scf accuracy    <       0.00004829 Ry

     iteration #  5     ecut=    40.00 Ry     beta= 0.40
     Davidson diagonalization with overlap

---- Real-time Memory Report at c_bands before calling an iterative solver
           409 MiB given to the printing process from OS
             0 MiB allocation reported by mallinfo(arena+hblkhd)
          6078 MiB available memory on the node where the printing process lives
------------------
     ethr =  1.10E-07,  avg # of iterations =  4.0

     negative rho (up, down):  1.336E-02 0.000E+00

     total cpu time spent up to now is      279.3 secs

     total energy              =    -176.44254809 Ry
     estimated scf accuracy    <       0.00000354 Ry

     iteration #  6     ecut=    40.00 Ry     beta= 0.40
     Davidson diagonalization with overlap

---- Real-time Memory Report at c_bands before calling an iterative solver
           409 MiB given to the printing process from OS
             0 MiB allocation reported by mallinfo(arena+hblkhd)
          5954 MiB available memory on the node where the printing process lives
------------------
     ethr =  8.05E-09,  avg # of iterations =  2.0

     negative rho (up, down):  1.336E-02 0.000E+00

     total cpu time spent up to now is      292.2 secs

     total energy              =    -176.44254790 Ry
     estimated scf accuracy    <       0.00000139 Ry

     iteration #  7     ecut=    40.00 Ry     beta= 0.40
     Davidson diagonalization with overlap

---- Real-time Memory Report at c_bands before calling an iterative solver
           409 MiB given to the printing process from OS
             0 MiB allocation reported by mallinfo(arena+hblkhd)
          5851 MiB available memory on the node where the printing process lives
------------------
     ethr =  3.16E-09,  avg # of iterations =  3.8

     negative rho (up, down):  1.335E-02 0.000E+00

     total cpu time spent up to now is      305.5 secs

     End of self-consistent calculation

          k = 0.0000 0.0000 0.0000 (450991 PWs)   bands (ev):

   -23.6814 -21.9951 -21.2832 -18.9672 -18.9374 -16.0613 -15.7465 -13.8249
   -13.4804 -13.3159 -11.2644 -11.0964 -10.6643 -10.1564  -9.9122  -8.9598
    -8.8143  -8.1114  -7.5811  -7.4368  -6.7920  -5.4154  -1.8875  -1.6572
    -0.9908  -0.3729

     occupation numbers 
     1.0000   1.0000   1.0000   1.0000   1.0000   1.0000   1.0000   1.0000
     1.0000   1.0000   1.0000   1.0000   1.0000   1.0000   1.0000   1.0000
     1.0000   1.0000   1.0000   1.0000   1.0000   1.0000   0.0000   0.0000
     0.0000   0.0000

          k = 0.0000 0.3333 0.0000 (450515 PWs)   bands (ev):

   -23.6814 -21.9951 -21.2832 -18.9671 -18.9374 -16.0613 -15.7465 -13.8248
   -13.4803 -13.3159 -11.2643 -11.0964 -10.6643 -10.1564  -9.9121  -8.9598
    -8.8143  -8.1114  -7.5811  -7.4367  -6.7920  -5.4154  -1.8875  -1.6572
    -0.9908  -0.3765

     occupation numbers 
     1.0000   1.0000   1.0000   1.0000   1.0000   1.0000   1.0000   1.0000
     1.0000   1.0000   1.0000   1.0000   1.0000   1.0000   1.0000   1.0000
     1.0000   1.0000   1.0000   1.0000   1.0000   1.0000   0.0000   0.0000
     0.0000   0.0000

          k = 0.3333 0.0000 0.0000 (450515 PWs)   bands (ev):

   -23.6814 -21.9951 -21.2832 -18.9671 -18.9374 -16.0613 -15.7465 -13.8248
   -13.4803 -13.3159 -11.2643 -11.0964 -10.6643 -10.1564  -9.9121  -8.9598
    -8.8143  -8.1114  -7.5811  -7.4368  -6.7920  -5.4154  -1.8875  -1.6572
    -0.9908  -0.3726

     occupation numbers 
     1.0000   1.0000   1.0000   1.0000   1.0000   1.0000   1.0000   1.0000
     1.0000   1.0000   1.0000   1.0000   1.0000   1.0000   1.0000   1.0000
     1.0000   1.0000   1.0000   1.0000   1.0000   1.0000   0.0000   0.0000
     0.0000   0.0000

          k = 0.3333 0.3333 0.0000 (450333 PWs)   bands (ev):

   -23.6814 -21.9951 -21.2832 -18.9671 -18.9374 -16.0613 -15.7465 -13.8248
   -13.4803 -13.3159 -11.2643 -11.0964 -10.6643 -10.1564  -9.9121  -8.9598
    -8.8143  -8.1114  -7.5811  -7.4367  -6.7920  -5.4153  -1.8875  -1.6572
    -0.9907  -0.3761

     occupation numbers 
     1.0000   1.0000   1.0000   1.0000   1.0000   1.0000   1.0000   1.0000
     1.0000   1.0000   1.0000   1.0000   1.0000   1.0000   1.0000   1.0000
     1.0000   1.0000   1.0000   1.0000   1.0000   1.0000   0.0000   0.0000
     0.0000   0.0000

          k = 0.3333-0.3333 0.0000 (450333 PWs)   bands (ev):

   -23.6814 -21.9951 -21.2832 -18.9671 -18.9374 -16.0613 -15.7465 -13.8248
   -13.4803 -13.3159 -11.2643 -11.0964 -10.6643 -10.1564  -9.9121  -8.9598
    -8.8143  -8.1114  -7.5811  -7.4367  -6.7920  -5.4153  -1.8875  -1.6572
    -0.9908  -0.3761

     occupation numbers 
     1.0000   1.0000   1.0000   1.0000   1.0000   1.0000   1.0000   1.0000
     1.0000   1.0000   1.0000   1.0000   1.0000   1.0000   1.0000   1.0000
     1.0000   1.0000   1.0000   1.0000   1.0000   1.0000   0.0000   0.0000
     0.0000   0.0000

     the Fermi energy is    -3.9407 ev

!    total energy              =    -176.44254814 Ry
     estimated scf accuracy    <       0.00000006 Ry
     smearing contrib. (-TS)   =       0.00000000 Ry
     internal energy E=F+TS    =    -176.44254814 Ry

     The total energy is F=E-TS. E is the sum of the following terms:
     one-electron contribution =    -700.94456833 Ry
     hartree contribution      =     355.66260518 Ry
     xc contribution           =     -47.22268484 Ry
     ewald contribution        =     259.23915876 Ry
     one-center paw contrib.   =     -43.17705891 Ry
      -> PAW hartree energy AE =       0.00000000 Ry
      -> PAW hartree energy PS =       0.00000000 Ry
      -> PAW xc energy AE      =       0.00000000 Ry
      -> PAW xc energy PS      =       0.00000000 Ry
      -> total E_H with PAW    =     355.66260518 Ry
      -> total E_XC with PAW   =     -47.22268484 Ry

     convergence has been achieved in   7 iterations

     negative rho (up, down):  1.335E-02 0.000E+00

     Forces acting on atoms (cartesian axes, Ry/au):

     atom    1 type  1   force =    -0.00697637    0.00001158   -0.00007464
     atom    2 type  1   force =     0.09454907    0.00001306   -0.00010153
     atom    3 type  2   force =     0.00622206   -0.00005645    0.00012112
     atom    4 type  2   force =    -0.00458803   -0.00129548    0.00014680
     atom    5 type  2   force =    -0.00455235    0.00128918    0.00013714
     atom    6 type  2   force =     0.01990915    0.00001466    0.00011483
     atom    7 type  2   force =     0.00270641    0.00151043    0.00015446
     atom    8 type  2   force =     0.00271588   -0.00153384    0.00014240
     atom    9 type  2   force =    -0.11142500    0.00018225    0.00008144
     atom   10 type  3   force =    -0.00013282    0.00047989   -0.00011415
     atom   11 type  3   force =    -0.00015824   -0.00054354   -0.00011413
     atom   12 type  3   force =    -0.00037554   -0.00068145   -0.00010977
     atom   13 type  3   force =    -0.00035232    0.00064308   -0.00011043
     atom   14 type  3   force =     0.00122137    0.00039285   -0.00013691
     atom   15 type  3   force =     0.00123673   -0.00042621   -0.00013663
     The non-local contrib.  to forces
     atom    1 type  1   force =    -0.06091381    0.00001049   -0.00406736
     atom    2 type  1   force =     1.89758606    0.00020274    0.00035013
     atom    3 type  2   force =     0.34957649   -0.00005966    0.00028861
     atom    4 type  2   force =     0.05178744    0.03548694    0.00011165
     atom    5 type  2   force =     0.05183688   -0.03534325    0.00010685
     atom    6 type  2   force =    -0.23625067   -0.00000799    0.00016866
     atom    7 type  2   force =    -0.01421228    0.03908940    0.00010307
     atom    8 type  2   force =    -0.01421272   -0.03894580    0.00010056
     atom    9 type  2   force =     0.17120483    0.00008422    0.00010297
     atom   10 type  3   force =    -0.03697806    0.06764015    0.00000885
     atom   11 type  3   force =    -0.03697447   -0.06762931    0.00000974
     atom   12 type  3   force =     0.03959193    0.06863318    0.00001619
     atom   13 type  3   force =     0.03958565   -0.06862903    0.00001658
     atom   14 type  3   force =    -0.05271880   -0.08712445    0.00012658
     atom   15 type  3   force =    -0.05271720    0.08713084    0.00012564
     The ionic contribution  to forces
     atom    1 type  1   force =     9.86856671   -0.00014637    0.00847219
     atom    2 type  1   force =   -13.28694012   -0.00036894   -0.00173859
     atom    3 type  2   force =     2.66016138   -0.00019485    0.00036515
     atom    4 type  2   force =     2.69495742   -7.03770791    0.00066080
     atom    5 type  2   force =     2.69546966    7.03765825    0.00053079
     atom    6 type  2   force =    -3.35679741   -0.00042572   -0.00047729
     atom    7 type  2   force =    -2.63995306   -6.94669439    0.00077561
     atom    8 type  2   force =    -2.63935812    6.94699060    0.00056617
     atom    9 type  2   force =    -1.89198741    0.00131356    0.00088293
     atom   10 type  3   force =     1.50845087   -3.28454688   -0.00020986
     atom   11 type  3   force =     1.50849426    3.28431464   -0.00025940
     atom   12 type  3   force =    -1.48064989   -3.27178563   -0.00043380
     atom   13 type  3   force =    -1.48036181    3.27179856   -0.00047244
     atom   14 type  3   force =     2.92001552    2.90091274   -0.00434739
     atom   15 type  3   force =     2.91993200   -2.90111765   -0.00431489
     The local contribution  to forces
     atom    1 type  1   force =    -9.81514301    0.00015342   -0.00438485
     atom    2 type  1   force =    11.49565285    0.00018775    0.00141378
     atom    3 type  2   force =    -2.99669045    0.00025146   -0.00068050
     atom    4 type  2   force =    -2.74935923    7.00029098   -0.00078573
     atom    5 type  2   force =    -2.74987435   -7.00030637   -0.00065174
     atom    6 type  2   force =     3.60830188    0.00044951    0.00034330
     atom    7 type  2   force =     2.65546362    6.90880234   -0.00091766
     atom    8 type  2   force =     2.65486748   -6.90920971   -0.00070355
     atom    9 type  2   force =     1.62407178   -0.00146249   -0.00103032
     atom   10 type  3   force =    -1.47157170    3.21739499    0.00021043
     atom   11 type  3   force =    -1.47164409   -3.21722525    0.00025911
     atom   12 type  3   force =     1.44071005    3.20246968    0.00043140
     atom   13 type  3   force =     1.44045151   -3.20251320    0.00046900
     atom   14 type  3   force =    -2.86604910   -2.81338831    0.00420748
     atom   15 type  3   force =    -2.86595181    2.81356547    0.00417621
     The core correction contribution to forces
     atom    1 type  1   force =     0.00052072    0.00000020    0.00002930
     atom    2 type  1   force =    -0.01139781   -0.00000240   -0.00000313
     atom    3 type  2   force =    -0.00674835   -0.00004755    0.00027141
     atom    4 type  2   force =    -0.00186658    0.00059813    0.00028380
     atom    5 type  2   force =    -0.00187745   -0.00067068    0.00027493
     atom    6 type  2   force =     0.00466366    0.00000485    0.00020351
     atom    7 type  2   force =     0.00141885    0.00032345    0.00031720
     atom    8 type  2   force =     0.00142984   -0.00036707    0.00030295
     atom    9 type  2   force =    -0.01452960    0.00025292    0.00024934
     atom   10 type  3   force =     0.00000000    0.00000000    0.00000000
     atom   11 type  3   force =     0.00000000    0.00000000    0.00000000
     atom   12 type  3   force =     0.00000000    0.00000000    0.00000000
     atom   13 type  3   force =     0.00000000    0.00000000    0.00000000
     atom   14 type  3   force =     0.00000000    0.00000000    0.00000000
     atom   15 type  3   force =     0.00000000    0.00000000    0.00000000
     The Hubbard contrib.    to forces
     atom    1 type  1   force =     0.00000000    0.00000000    0.00000000
     atom    2 type  1   force =     0.00000000    0.00000000    0.00000000
     atom    3 type  2   force =     0.00000000    0.00000000    0.00000000
     atom    4 type  2   force =     0.00000000    0.00000000    0.00000000
     atom    5 type  2   force =     0.00000000    0.00000000    0.00000000
     atom    6 type  2   force =     0.00000000    0.00000000    0.00000000
     atom    7 type  2   force =     0.00000000    0.00000000    0.00000000
     atom    8 type  2   force =     0.00000000    0.00000000    0.00000000
     atom    9 type  2   force =     0.00000000    0.00000000    0.00000000
     atom   10 type  3   force =     0.00000000    0.00000000    0.00000000
     atom   11 type  3   force =     0.00000000    0.00000000    0.00000000
     atom   12 type  3   force =     0.00000000    0.00000000    0.00000000
     atom   13 type  3   force =     0.00000000    0.00000000    0.00000000
     atom   14 type  3   force =     0.00000000    0.00000000    0.00000000
     atom   15 type  3   force =     0.00000000    0.00000000    0.00000000
     The SCF correction term to forces
     atom    1 type  1   force =     0.00002337   -0.00000018   -0.00000037
     atom    2 type  1   force =    -0.00032157   -0.00000009   -0.00000016
     atom    3 type  2   force =    -0.00004667    0.00000013    0.00000002
     atom    4 type  2   force =    -0.00007672    0.00004236   -0.00000017
     atom    5 type  2   force =    -0.00007675   -0.00004278   -0.00000013
     atom    6 type  2   force =     0.00002205   -0.00000000    0.00000021
     atom    7 type  2   force =     0.00001963   -0.00000439   -0.00000021
     atom    8 type  2   force =     0.00001976    0.00000413   -0.00000018
     atom    9 type  2   force =    -0.00015424    0.00000003    0.00000008
     atom   10 type  3   force =    -0.00000359   -0.00000238   -0.00000001
     atom   11 type  3   force =    -0.00000359    0.00000236   -0.00000003
     atom   12 type  3   force =     0.00000271    0.00000731   -0.00000001
     atom   13 type  3   force =     0.00000268   -0.00000727   -0.00000001
     atom   14 type  3   force =     0.00000411   -0.00000114   -0.00000003
     atom   15 type  3   force =     0.00000409    0.00000111   -0.00000004

     Total force =     0.148016     Total SCF correction =     0.000383


     Computing stress (Cartesian axis) and pressure


     negative rho (up, down):  1.335E-02 0.000E+00
          total   stress  (Ry/bohr**3)                   (kbar)     P=       -0.16
  -0.00000234  -0.00000000  -0.00000000           -0.34       -0.00       -0.00
  -0.00000000  -0.00000039   0.00000000           -0.00       -0.06        0.00
  -0.00000000   0.00000000  -0.00000045           -0.00        0.00       -0.07

     kinetic stress (kbar)     69.45      0.00      0.00
                                0.00     72.40      0.00
                                0.00      0.00     82.38

     local   stress (kbar)   -649.51      0.01     -0.01
                                0.01   -353.87      0.00
                               -0.01      0.00    -79.38

     nonloc. stress (kbar)     19.10     -0.00      0.00
                               -0.00     18.49     -0.00
                                0.00     -0.00     17.83

     hartree stress (kbar)    286.02     -0.00      0.01
                               -0.00    157.34     -0.00
                                0.01     -0.00     52.83

     exc-cor stress (kbar)     -6.11     -0.00     -0.00
                               -0.00     -6.30     -0.00
                               -0.00     -0.00     -6.79

     corecor stress (kbar)    -12.09     -0.00     -0.00
                               -0.00    -12.03      0.00
                               -0.00      0.00    -11.89

     ewald   stress (kbar)    292.80     -0.00      0.00
                               -0.00    123.92     -0.00
                                0.00     -0.00    -55.05

     hubbard stress (kbar)      0.00      0.00      0.00
                                0.00      0.00      0.00
                                0.00      0.00      0.00

     DFT-D   stress (kbar)      0.00      0.00      0.00
                                0.00      0.00      0.00
                                0.00      0.00      0.00

     XDM     stress (kbar)      0.00      0.00      0.00
                                0.00      0.00      0.00
                                0.00      0.00      0.00

     dft-nl  stress (kbar)      0.00      0.00      0.00
                                0.00      0.00      0.00
                                0.00      0.00      0.00

     TS-vdW  stress (kbar)      0.00      0.00      0.00
                                0.00      0.00      0.00
                                0.00      0.00      0.00

     MDB     stress (kbar)      0.00      0.00      0.00
                                0.00      0.00      0.00
                                0.00      0.00      0.00

     3D-RISM stress (kbar)      0.00      0.00      0.00
                                0.00      0.00      0.00
                                0.00      0.00      0.00

     Energy error            =      2.3E-03 Ry
     Gradient error          =      1.1E-01 Ry/Bohr

     number of scf cycles    =   2
     number of bfgs steps    =   1

     energy             old  =    -176.4448214568 Ry
     energy             new  =    -176.4425481350 Ry

     CASE: energy            _new > energy            _old

     new trust radius        =       0.0071923056 bohr
     new conv_thr            =       0.0000010000 Ry


ATOMIC_POSITIONS (angstrom)
N                7.7076347309        4.5700903556        4.5707786806
N                0.9112277281        4.5702839935        4.5702611067
C                6.3399138902        4.5701172502        4.5705545592
C                5.6143350004        3.3574186220        4.5705311679
C                5.6143976370        5.7828554934        4.5705119811
C                3.5064293036        4.5701927828        4.5704211620
C                4.2273713284        3.3591089645        4.5704808277
C                4.2274365185        5.7812350856        4.5704596836
C                2.0803358813        4.5702662943        4.5703538066
H                6.1547339827        2.4074671580        4.5705357678
H                6.1548431679        6.7327917002        4.5704988475
H                3.6841036512        2.4126966018        4.5704167555
H                3.6842049824        6.7276804666        4.5703808491
H                8.2263243625        5.4356767011        4.5694553958
H                8.2262778350        3.7044725306        4.5694654089



     Writing config-only to output data dir ./tmp/ABN.save/ :
     XML data file
     NEW-OLD atomic charge density approx. for the potential

     negative rho (up, down):  1.334E-02 0.000E+00

     total cpu time spent up to now is      324.0 secs

     Self-consistent Calculation

     iteration #  1     ecut=    40.00 Ry     beta= 0.40
     Davidson diagonalization with overlap

---- Real-time Memory Report at c_bands before calling an iterative solver
           409 MiB given to the printing process from OS
             0 MiB allocation reported by mallinfo(arena+hblkhd)
          7585 MiB available memory on the node where the printing process lives
------------------
     ethr =  1.00E-06,  avg # of iterations =  9.0

     negative rho (up, down):  1.339E-02 0.000E+00

     total cpu time spent up to now is      347.6 secs

     total energy              =    -176.44467305 Ry
     estimated scf accuracy    <       0.00166728 Ry

     iteration #  2     ecut=    40.00 Ry     beta= 0.40
     Davidson diagonalization with overlap

---- Real-time Memory Report at c_bands before calling an iterative solver
           409 MiB given to the printing process from OS
             0 MiB allocation reported by mallinfo(arena+hblkhd)
          6400 MiB available memory on the node where the printing process lives
------------------
     ethr =  3.79E-06,  avg # of iterations =  4.0

     negative rho (up, down):  1.341E-02 0.000E+00

     total cpu time spent up to now is      362.0 secs

     total energy              =    -176.44492442 Ry
     estimated scf accuracy    <       0.00060406 Ry

     iteration #  3     ecut=    40.00 Ry     beta= 0.40
     Davidson diagonalization with overlap

---- Real-time Memory Report at c_bands before calling an iterative solver
           409 MiB given to the printing process from OS
             0 MiB allocation reported by mallinfo(arena+hblkhd)
          6291 MiB available memory on the node where the printing process lives
------------------
     ethr =  1.37E-06,  avg # of iterations =  4.0

     negative rho (up, down):  1.342E-02 0.000E+00

     total cpu time spent up to now is      375.5 secs

     total energy              =    -176.44500521 Ry
     estimated scf accuracy    <       0.00004885 Ry

     iteration #  4     ecut=    40.00 Ry     beta= 0.40
     Davidson diagonalization with overlap

---- Real-time Memory Report at c_bands before calling an iterative solver
           409 MiB given to the printing process from OS
             0 MiB allocation reported by mallinfo(arena+hblkhd)
          6187 MiB available memory on the node where the printing process lives
------------------
     ethr =  1.11E-07,  avg # of iterations =  4.0

     negative rho (up, down):  1.343E-02 0.000E+00

     total cpu time spent up to now is      389.1 secs

     total energy              =    -176.44500812 Ry
     estimated scf accuracy    <       0.00001372 Ry

     iteration #  5     ecut=    40.00 Ry     beta= 0.40
     Davidson diagonalization with overlap

---- Real-time Memory Report at c_bands before calling an iterative solver
           409 MiB given to the printing process from OS
             0 MiB allocation reported by mallinfo(arena+hblkhd)
          6073 MiB available memory on the node where the printing process lives
------------------
     ethr =  3.12E-08,  avg # of iterations =  4.0

     negative rho (up, down):  1.344E-02 0.000E+00

     total cpu time spent up to now is      402.9 secs

     total energy              =    -176.44501077 Ry
     estimated scf accuracy    <       0.00000146 Ry

     iteration #  6     ecut=    40.00 Ry     beta= 0.40
     Davidson diagonalization with overlap

---- Real-time Memory Report at c_bands before calling an iterative solver
           409 MiB given to the printing process from OS
             0 MiB allocation reported by mallinfo(arena+hblkhd)
          5963 MiB available memory on the node where the printing process lives
------------------
     ethr =  3.32E-09,  avg # of iterations =  2.0

     negative rho (up, down):  1.344E-02 0.000E+00

     total cpu time spent up to now is      415.5 secs

     End of self-consistent calculation

          k = 0.0000 0.0000 0.0000 (450991 PWs)   bands (ev):

   -23.6969 -22.1443 -21.3381 -18.9471 -18.8926 -16.0107 -15.7258 -13.7886
   -13.4731 -13.2978 -11.2383 -11.0721 -10.6422 -10.1455  -9.8918  -8.9828
    -8.7905  -8.0818  -7.7216  -7.5199  -6.7748  -5.4106  -1.8101  -1.6363
    -0.9886  -0.3614

     occupation numbers 
     1.0000   1.0000   1.0000   1.0000   1.0000   1.0000   1.0000   1.0000
     1.0000   1.0000   1.0000   1.0000   1.0000   1.0000   1.0000   1.0000
     1.0000   1.0000   1.0000   1.0000   1.0000   1.0000   0.0000   0.0000
     0.0000   0.0000

          k = 0.0000 0.3333 0.0000 (450515 PWs)   bands (ev):

   -23.6969 -22.1443 -21.3381 -18.9470 -18.8926 -16.0107 -15.7258 -13.7885
   -13.4731 -13.2978 -11.2383 -11.0721 -10.6422 -10.1455  -9.8917  -8.9828
    -8.7904  -8.0818  -7.7215  -7.5199  -6.7748  -5.4106  -1.8101  -1.6363
    -0.9885  -0.3655

     occupation numbers 
     1.0000   1.0000   1.0000   1.0000   1.0000   1.0000   1.0000   1.0000
     1.0000   1.0000   1.0000   1.0000   1.0000   1.0000   1.0000   1.0000
     1.0000   1.0000   1.0000   1.0000   1.0000   1.0000   0.0000   0.0000
     0.0000   0.0000

          k = 0.3333 0.0000 0.0000 (450515 PWs)   bands (ev):

   -23.6969 -22.1443 -21.3381 -18.9470 -18.8926 -16.0107 -15.7258 -13.7885
   -13.4731 -13.2978 -11.2383 -11.0721 -10.6422 -10.1455  -9.8917  -8.9828
    -8.7904  -8.0818  -7.7215  -7.5199  -6.7748  -5.4106  -1.8101  -1.6363
    -0.9886  -0.3610

     occupation numbers 
     1.0000   1.0000   1.0000   1.0000   1.0000   1.0000   1.0000   1.0000
     1.0000   1.0000   1.0000   1.0000   1.0000   1.0000   1.0000   1.0000
     1.0000   1.0000   1.0000   1.0000   1.0000   1.0000   0.0000   0.0000
     0.0000   0.0000

          k = 0.3333 0.3333 0.0000 (450333 PWs)   bands (ev):

   -23.6969 -22.1442 -21.3381 -18.9470 -18.8926 -16.0107 -15.7258 -13.7885
   -13.4731 -13.2978 -11.2383 -11.0721 -10.6422 -10.1455  -9.8917  -8.9828
    -8.7904  -8.0818  -7.7215  -7.5199  -6.7748  -5.4106  -1.8101  -1.6363
    -0.9885  -0.3650

     occupation numbers 
     1.0000   1.0000   1.0000   1.0000   1.0000   1.0000   1.0000   1.0000
     1.0000   1.0000   1.0000   1.0000   1.0000   1.0000   1.0000   1.0000
     1.0000   1.0000   1.0000   1.0000   1.0000   1.0000   0.0000   0.0000
     0.0000   0.0000

          k = 0.3333-0.3333 0.0000 (450333 PWs)   bands (ev):

   -23.6969 -22.1442 -21.3381 -18.9470 -18.8926 -16.0107 -15.7258 -13.7885
   -13.4731 -13.2978 -11.2383 -11.0721 -10.6422 -10.1455  -9.8917  -8.9828
    -8.7904  -8.0818  -7.7215  -7.5199  -6.7748  -5.4106  -1.8101  -1.6363
    -0.9885  -0.3650

     occupation numbers 
     1.0000   1.0000   1.0000   1.0000   1.0000   1.0000   1.0000   1.0000
     1.0000   1.0000   1.0000   1.0000   1.0000   1.0000   1.0000   1.0000
     1.0000   1.0000   1.0000   1.0000   1.0000   1.0000   0.0000   0.0000
     0.0000   0.0000

     the Fermi energy is    -3.9351 ev

!    total energy              =    -176.44501070 Ry
     estimated scf accuracy    <       0.00000031 Ry
     smearing contrib. (-TS)   =       0.00000000 Ry
     internal energy E=F+TS    =    -176.44501070 Ry

     The total energy is F=E-TS. E is the sum of the following terms:
     one-electron contribution =    -701.38372792 Ry
     hartree contribution      =     355.89661371 Ry
     xc contribution           =     -47.25376827 Ry
     ewald contribution        =     259.47357962 Ry
     one-center paw contrib.   =     -43.17770784 Ry
      -> PAW hartree energy AE =       0.00000000 Ry
      -> PAW hartree energy PS =       0.00000000 Ry
      -> PAW xc energy AE      =       0.00000000 Ry
      -> PAW xc energy PS      =       0.00000000 Ry
      -> total E_H with PAW    =     355.89661371 Ry
      -> total E_XC with PAW   =     -47.25376827 Ry

     convergence has been achieved in   6 iterations

     negative rho (up, down):  1.344E-02 0.000E+00

     Forces acting on atoms (cartesian axes, Ry/au):

     atom    1 type  1   force =     0.00018694   -0.00001479   -0.00007882
     atom    2 type  1   force =     0.00450273   -0.00000628   -0.00012401
     atom    3 type  2   force =    -0.00501882   -0.00003054    0.00011774
     atom    4 type  2   force =    -0.00009103   -0.00005842    0.00015398
     atom    5 type  2   force =    -0.00009245   -0.00002932    0.00014400
     atom    6 type  2   force =    -0.00078687    0.00000238    0.00007996
     atom    7 type  2   force =     0.00041571   -0.00159251    0.00017976
     atom    8 type  2   force =     0.00042594    0.00154081    0.00016289
     atom    9 type  2   force =    -0.00072530    0.00022434    0.00011241
     atom   10 type  3   force =    -0.00096043    0.00112138   -0.00012042
     atom   11 type  3   force =    -0.00096477   -0.00113636   -0.00011992
     atom   12 type  3   force =     0.00070434    0.00142045   -0.00011956
     atom   13 type  3   force =     0.00071172   -0.00143520   -0.00011904
     atom   14 type  3   force =     0.00084626   -0.00033507   -0.00013457
     atom   15 type  3   force =     0.00084603    0.00032914   -0.00013440
     The non-local contrib.  to forces
     atom    1 type  1   force =    -0.05571149   -0.00001217   -0.00409310
     atom    2 type  1   force =     1.82723241   -0.00001721    0.00014927
     atom    3 type  2   force =     0.34021119   -0.00003671    0.00028845
     atom    4 type  2   force =     0.05580283    0.03599798    0.00010002
     atom    5 type  2   force =     0.05580727   -0.03594022    0.00009625
     atom    6 type  2   force =    -0.26614124   -0.00002259    0.00007818
     atom    7 type  2   force =    -0.01562125    0.03354700    0.00011354
     atom    8 type  2   force =    -0.01563237   -0.03347445    0.00010916
     atom    9 type  2   force =     0.26007416    0.00008456    0.00010711
     atom   10 type  3   force =    -0.03694625    0.06742262    0.00000023
     atom   11 type  3   force =    -0.03694853   -0.06741886    0.00000145
     atom   12 type  3   force =     0.03932311    0.06827766    0.00000602
     atom   13 type  3   force =     0.03931952   -0.06827690    0.00000709
     atom   14 type  3   force =    -0.05267032   -0.08696531    0.00012408
     atom   15 type  3   force =    -0.05266486    0.08696719    0.00012312
     The ionic contribution  to forces
     atom    1 type  1   force =     9.90926209   -0.00022479    0.00890515
     atom    2 type  1   force =   -13.63100178    0.00029566   -0.00096292
     atom    3 type  2   force =     2.61710032   -0.00009927    0.00000855
     atom    4 type  2   force =     2.69741204   -7.02954450    0.00028443
     atom    5 type  2   force =     2.69782711    7.02940967    0.00018363
     atom    6 type  2   force =    -3.45742335   -0.00004484   -0.00019676
     atom    7 type  2   force =    -2.64884282   -6.95458379    0.00020415
     atom    8 type  2   force =    -2.64842052    6.95473671    0.00007370
     atom    9 type  2   force =    -1.43833574    0.00025940    0.00019564
     atom   10 type  3   force =     1.50676360   -3.28119702    0.00005728
     atom   11 type  3   force =     1.50690182    3.28109069   -0.00000134
     atom   12 type  3   force =    -1.47656468   -3.26485752   -0.00014040
     atom   13 type  3   force =    -1.47637045    3.26490008   -0.00019327
     atom   14 type  3   force =     2.92092727    2.89896963   -0.00422534
     atom   15 type  3   force =     2.92076510   -2.89911011   -0.00419251
     The local contribution  to forces
     atom    1 type  1   force =    -9.85374095    0.00022659   -0.00479830
     atom    2 type  1   force =    11.81865776   -0.00027878    0.00081316
     atom    3 type  2   force =    -2.95597149    0.00015350   -0.00032406
     atom    4 type  2   force =    -2.75136927    6.99305757   -0.00039237
     atom    5 type  2   force =    -2.75178068   -6.99298376   -0.00028876
     atom    6 type  2   force =     3.71691101    0.00007702    0.00011980
     atom    7 type  2   force =     2.66338169    6.91905979   -0.00033418
     atom    8 type  2   force =     2.66296817   -6.91928490   -0.00019942
     atom    9 type  2   force =     1.19594656   -0.00036449   -0.00031427
     atom   10 type  3   force =    -1.47072136    3.21491070   -0.00005509
     atom   11 type  3   force =    -1.47086161   -3.21481211    0.00000282
     atom   12 type  3   force =     1.43800189    3.19804119    0.00013767
     atom   13 type  3   force =     1.43781860   -3.19808834    0.00018999
     atom   14 type  3   force =    -2.86735027   -2.81234494    0.00408949
     atom   15 type  3   force =    -2.86719381    2.81248853    0.00405779
     The core correction contribution to forces
     atom    1 type  1   force =     0.00042202    0.00000055    0.00002956
     atom    2 type  1   force =    -0.00987497   -0.00000070   -0.00000167
     atom    3 type  2   force =    -0.00639325   -0.00004268    0.00026756
     atom    4 type  2   force =    -0.00196148    0.00056012    0.00028470
     atom    5 type  2   force =    -0.00197107   -0.00063411    0.00027558
     atom    6 type  2   force =     0.00562697   -0.00000175    0.00020142
     atom    7 type  2   force =     0.00145100    0.00049650    0.00031897
     atom    8 type  2   force =     0.00146368   -0.00053807    0.00030209
     atom    9 type  2   force =    -0.01761012    0.00025024    0.00024638
     atom   10 type  3   force =     0.00000000    0.00000000    0.00000000
     atom   11 type  3   force =     0.00000000    0.00000000    0.00000000
     atom   12 type  3   force =     0.00000000    0.00000000    0.00000000
     atom   13 type  3   force =     0.00000000    0.00000000    0.00000000
     atom   14 type  3   force =     0.00000000    0.00000000    0.00000000
     atom   15 type  3   force =     0.00000000    0.00000000    0.00000000
     The Hubbard contrib.    to forces
     atom    1 type  1   force =     0.00000000    0.00000000    0.00000000
     atom    2 type  1   force =     0.00000000    0.00000000    0.00000000
     atom    3 type  2   force =     0.00000000    0.00000000    0.00000000
     atom    4 type  2   force =     0.00000000    0.00000000    0.00000000
     atom    5 type  2   force =     0.00000000    0.00000000    0.00000000
     atom    6 type  2   force =     0.00000000    0.00000000    0.00000000
     atom    7 type  2   force =     0.00000000    0.00000000    0.00000000
     atom    8 type  2   force =     0.00000000    0.00000000    0.00000000
     atom    9 type  2   force =     0.00000000    0.00000000    0.00000000
     atom   10 type  3   force =     0.00000000    0.00000000    0.00000000
     atom   11 type  3   force =     0.00000000    0.00000000    0.00000000
     atom   12 type  3   force =     0.00000000    0.00000000    0.00000000
     atom   13 type  3   force =     0.00000000    0.00000000    0.00000000
     atom   14 type  3   force =     0.00000000    0.00000000    0.00000000
     atom   15 type  3   force =     0.00000000    0.00000000    0.00000000
     The SCF correction term to forces
     atom    1 type  1   force =     0.00001982    0.00000053    0.00000069
     atom    2 type  1   force =    -0.00044614    0.00000024    0.00000096
     atom    3 type  2   force =     0.00009895    0.00000011    0.00000006
     atom    4 type  2   force =     0.00008939   -0.00012409    0.00000002
     atom    5 type  2   force =     0.00008948    0.00012459    0.00000012
     atom    6 type  2   force =     0.00030429    0.00000004    0.00000015
     atom    7 type  2   force =     0.00011164   -0.00010653    0.00000010
     atom    8 type  2   force =     0.00011152    0.00010702    0.00000018
     atom    9 type  2   force =    -0.00073561    0.00000012    0.00000038
     atom   10 type  3   force =     0.00000813   -0.00000943   -0.00000003
     atom   11 type  3   force =     0.00000810    0.00000941   -0.00000003
     atom   12 type  3   force =     0.00000856   -0.00003539   -0.00000004
     atom   13 type  3   force =     0.00000860    0.00003544   -0.00000003
     atom   14 type  3   force =     0.00000413    0.00001105    0.00000002
     atom   15 type  3   force =     0.00000416   -0.00001098    0.00000002

     Total force =     0.007960     Total SCF correction =     0.000970
     SCF correction compared to forces is large: reduce conv_thr to get better values


     Computing stress (Cartesian axis) and pressure


     negative rho (up, down):  1.344E-02 0.000E+00
          total   stress  (Ry/bohr**3)                   (kbar)     P=       -0.09
  -0.00000080  -0.00000000   0.00000000           -0.12       -0.00        0.00
  -0.00000000  -0.00000054   0.00000000           -0.00       -0.08        0.00
   0.00000000   0.00000000  -0.00000045            0.00        0.00       -0.07

     kinetic stress (kbar)     69.54      0.00      0.00
                                0.00     72.49      0.00
                                0.00      0.00     82.47

     local   stress (kbar)   -649.99      0.01     -0.01
                                0.01   -353.93      0.00
                               -0.01      0.00    -79.57

     nonloc. stress (kbar)     19.14     -0.00      0.00
                               -0.00     18.49     -0.00
                                0.00     -0.00     17.83

     hartree stress (kbar)    286.15     -0.00      0.01
                               -0.00    157.42     -0.00
                                0.01     -0.00     52.95

     exc-cor stress (kbar)     -6.12     -0.00     -0.00
                               -0.00     -6.32     -0.00
                               -0.00     -0.00     -6.80

     corecor stress (kbar)    -12.09     -0.00      0.00
                               -0.00    -12.03      0.00
                                0.00      0.00    -11.89

     ewald   stress (kbar)    293.25     -0.00      0.00
                               -0.00    123.79     -0.00
                                0.00     -0.00    -55.05

     hubbard stress (kbar)      0.00      0.00      0.00
                                0.00      0.00      0.00
                                0.00      0.00      0.00

     DFT-D   stress (kbar)      0.00      0.00      0.00
                                0.00      0.00      0.00
                                0.00      0.00      0.00

     XDM     stress (kbar)      0.00      0.00      0.00
                                0.00      0.00      0.00
                                0.00      0.00      0.00

     dft-nl  stress (kbar)      0.00      0.00      0.00
                                0.00      0.00      0.00
                                0.00      0.00      0.00

     TS-vdW  stress (kbar)      0.00      0.00      0.00
                                0.00      0.00      0.00
                                0.00      0.00      0.00

     MDB     stress (kbar)      0.00      0.00      0.00
                                0.00      0.00      0.00
                                0.00      0.00      0.00

     3D-RISM stress (kbar)      0.00      0.00      0.00
                                0.00      0.00      0.00
                                0.00      0.00      0.00

     Energy error            =      1.9E-04 Ry
     Gradient error          =      5.0E-03 Ry/Bohr

     number of scf cycles    =   3
     number of bfgs steps    =   1

     energy             old  =    -176.4448214568 Ry
     energy             new  =    -176.4450107032 Ry

     CASE: energy            _new < energy            _old

     new trust radius        =       0.0053299523 bohr
     new conv_thr            =       0.0000001004 Ry


ATOMIC_POSITIONS (angstrom)
N                7.7078011988        4.5700820953        4.5707359196
N                0.9127848169        4.5702805154        4.5701937711
C                6.3370941695        4.5701009109        4.5706183376
C                5.6143259707        3.3573985048        4.5706146933
C                5.6143875222        5.7828273420        4.5705900893
C                3.5058344527        4.5701939429        4.5704641991
C                4.2275793526        3.3582171634        4.5705784988
C                4.2276500832        5.7820986145        4.5705481642
C                2.0809772394        4.5703882059        4.5704149266
H                6.1542075031        2.4080804510        4.5704704387
H                6.1543145190        6.7321707119        4.5704337980
H                3.6844962303        2.4134849298        4.5703518665
H                3.6846014231        6.7268843516        4.5703162508
H                8.2267811508        5.4354888925        4.5693824713
H                8.2267343677        3.7046573681        4.5693925752



     Writing config-only to output data dir ./tmp/ABN.save/ :
     XML data file
     NEW-OLD atomic charge density approx. for the potential

     negative rho (up, down):  1.344E-02 0.000E+00

     total cpu time spent up to now is      433.9 secs

     Self-consistent Calculation

     iteration #  1     ecut=    40.00 Ry     beta= 0.40
     Davidson diagonalization with overlap

---- Real-time Memory Report at c_bands before calling an iterative solver
           409 MiB given to the printing process from OS
             0 MiB allocation reported by mallinfo(arena+hblkhd)
          7592 MiB available memory on the node where the printing process lives
------------------
     ethr =  1.00E-06,  avg # of iterations =  3.0

     Threshold (ethr) on eigenvalues was too large:
     Diagonalizing with lowered threshold

     Davidson diagonalization with overlap

---- Real-time Memory Report at c_bands before calling an iterative solver
           409 MiB given to the printing process from OS
             0 MiB allocation reported by mallinfo(arena+hblkhd)
          7157 MiB available memory on the node where the printing process lives
------------------
     ethr =  3.38E-08,  avg # of iterations =  2.0

     negative rho (up, down):  1.344E-02 0.000E+00

     total cpu time spent up to now is      461.3 secs

     total energy              =    -176.44502841 Ry
     estimated scf accuracy    <       0.00001699 Ry

     iteration #  2     ecut=    40.00 Ry     beta= 0.40
     Davidson diagonalization with overlap

---- Real-time Memory Report at c_bands before calling an iterative solver
           409 MiB given to the printing process from OS
             0 MiB allocation reported by mallinfo(arena+hblkhd)
          6404 MiB available memory on the node where the printing process lives
------------------
     ethr =  3.86E-08,  avg # of iterations =  3.0

     negative rho (up, down):  1.344E-02 0.000E+00

     total cpu time spent up to now is      475.0 secs

     total energy              =    -176.44502969 Ry
     estimated scf accuracy    <       0.00000403 Ry

     iteration #  3     ecut=    40.00 Ry     beta= 0.40
     Davidson diagonalization with overlap

---- Real-time Memory Report at c_bands before calling an iterative solver
           409 MiB given to the printing process from OS
             0 MiB allocation reported by mallinfo(arena+hblkhd)
          6293 MiB available memory on the node where the printing process lives
------------------
     ethr =  9.15E-09,  avg # of iterations =  4.0

     negative rho (up, down):  1.344E-02 0.000E+00

     total cpu time spent up to now is      488.6 secs

     total energy              =    -176.44503006 Ry
     estimated scf accuracy    <       0.00000085 Ry

[...]
     1.0000   1.0000   1.0000   1.0000   1.0000   1.0000   0.0000   0.0000
     0.0000   0.0000

          k = 0.0000 0.3333 0.0000 (450515 PWs)   bands (ev):

   -23.6825 -22.1531 -21.3467 -18.9604 -18.9005 -16.0187 -15.7291 -13.7995
   -13.4572 -13.2952 -11.2429 -11.0777 -10.6562 -10.1496  -9.8885  -8.9839
    -8.8002  -8.0771  -7.7226  -7.5177  -6.7822  -5.4090  -1.8091  -1.6333
    -0.9865  -0.3637

     occupation numbers 
     1.0000   1.0000   1.0000   1.0000   1.0000   1.0000   1.0000   1.0000
     1.0000   1.0000   1.0000   1.0000   1.0000   1.0000   1.0000   1.0000
     1.0000   1.0000   1.0000   1.0000   1.0000   1.0000   0.0000   0.0000
     0.0000   0.0000

          k = 0.3333 0.0000 0.0000 (450515 PWs)   bands (ev):

   -23.6825 -22.1531 -21.3467 -18.9604 -18.9005 -16.0187 -15.7291 -13.7995
   -13.4572 -13.2952 -11.2429 -11.0777 -10.6562 -10.1496  -9.8885  -8.9839
    -8.8002  -8.0771  -7.7226  -7.5177  -6.7823  -5.4090  -1.8091  -1.6333
    -0.9865  -0.3591

     occupation numbers 
     1.0000   1.0000   1.0000   1.0000   1.0000   1.0000   1.0000   1.0000
     1.0000   1.0000   1.0000   1.0000   1.0000   1.0000   1.0000   1.0000
     1.0000   1.0000   1.0000   1.0000   1.0000   1.0000   0.0000   0.0000
     0.0000   0.0000

          k = 0.3333 0.3333 0.0000 (450333 PWs)   bands (ev):

   -23.6825 -22.1531 -21.3467 -18.9604 -18.9005 -16.0187 -15.7291 -13.7995
   -13.4572 -13.2952 -11.2429 -11.0777 -10.6562 -10.1496  -9.8885  -8.9839
    -8.8002  -8.0771  -7.7226  -7.5177  -6.7822  -5.4089  -1.8091  -1.6333
    -0.9864  -0.3632

     occupation numbers 
     1.0000   1.0000   1.0000   1.0000   1.0000   1.0000   1.0000   1.0000
     1.0000   1.0000   1.0000   1.0000   1.0000   1.0000   1.0000   1.0000
     1.0000   1.0000   1.0000   1.0000   1.0000   1.0000   0.0000   0.0000
     0.0000   0.0000

          k = 0.3333-0.3333 0.0000 (450333 PWs)   bands (ev):

   -23.6825 -22.1531 -21.3467 -18.9604 -18.9005 -16.0187 -15.7291 -13.7995
   -13.4572 -13.2952 -11.2429 -11.0777 -10.6562 -10.1496  -9.8885  -8.9839
    -8.8002  -8.0771  -7.7226  -7.5177  -6.7822  -5.4089  -1.8091  -1.6333
    -0.9864  -0.3632

     occupation numbers 
     1.0000   1.0000   1.0000   1.0000   1.0000   1.0000   1.0000   1.0000
     1.0000   1.0000   1.0000   1.0000   1.0000   1.0000   1.0000   1.0000
     1.0000   1.0000   1.0000   1.0000   1.0000   1.0000   0.0000   0.0000
     0.0000   0.0000

     the Fermi energy is    -3.9305 ev

!    total energy              =    -176.44505468 Ry
     estimated scf accuracy    <          7.0E-09 Ry
     smearing contrib. (-TS)   =       0.00000000 Ry
     internal energy E=F+TS    =    -176.44505468 Ry

     The total energy is F=E-TS. E is the sum of the following terms:
     one-electron contribution =    -701.85046432 Ry
     hartree contribution      =     356.13246100 Ry
     xc contribution           =     -47.26618776 Ry
     ewald contribution        =     259.71735952 Ry
     one-center paw contrib.   =     -43.17822312 Ry
      -> PAW hartree energy AE =       0.00000000 Ry
      -> PAW hartree energy PS =       0.00000000 Ry
      -> PAW xc energy AE      =       0.00000000 Ry
      -> PAW xc energy PS      =       0.00000000 Ry
      -> total E_H with PAW    =     356.13246100 Ry
      -> total E_XC with PAW   =     -47.26618776 Ry

     convergence has been achieved in   4 iterations

     negative rho (up, down):  1.345E-02 0.000E+00

     Forces acting on atoms (cartesian axes, Ry/au):

     atom    1 type  1   force =     0.00023705   -0.00001273   -0.00005503
     atom    2 type  1   force =     0.00001951    0.00005560   -0.00008714
     atom    3 type  2   force =     0.00002034   -0.00002241    0.00009366
     atom    4 type  2   force =    -0.00013491   -0.00003359    0.00009228
     atom    5 type  2   force =    -0.00010671    0.00001704    0.00008733
     atom    6 type  2   force =     0.00031822    0.00001032    0.00015570
     atom    7 type  2   force =     0.00008966   -0.00011310    0.00009633
     atom    8 type  2   force =     0.00012084    0.00011539    0.00009293
     atom    9 type  2   force =     0.00002201    0.00002950    0.00003366
     atom   10 type  3   force =     0.00003195   -0.00024329   -0.00007021
     atom   11 type  3   force =     0.00006848    0.00022156   -0.00007350
     atom   12 type  3   force =    -0.00021180   -0.00002675   -0.00005240
     atom   13 type  3   force =    -0.00017538    0.00003493   -0.00005720
     atom   14 type  3   force =    -0.00016012    0.00012616   -0.00012876
     atom   15 type  3   force =    -0.00013912   -0.00015863   -0.00012764
     The non-local contrib.  to forces
     atom    1 type  1   force =    -0.05282867   -0.00002476   -0.00379345
     atom    2 type  1   force =     1.82385407    0.00098398    0.00143321
     atom    3 type  2   force =     0.34562962   -0.00003382    0.00028187
     atom    4 type  2   force =     0.05585803    0.03640139    0.00014255
     atom    5 type  2   force =     0.05589141   -0.03626491    0.00014175
     atom    6 type  2   force =    -0.26406511    0.00000323    0.00035143
     atom    7 type  2   force =    -0.01635443    0.03513643    0.00019003
     atom    8 type  2   force =    -0.01634260   -0.03487201    0.00019108
     atom    9 type  2   force =     0.25934477    0.00007143    0.00021960
     atom   10 type  3   force =    -0.03711036    0.06765822    0.00006930
     atom   11 type  3   force =    -0.03710485   -0.06765988    0.00006809
     atom   12 type  3   force =     0.03949747    0.06851276    0.00007686
     atom   13 type  3   force =     0.03949844   -0.06850975    0.00007494
     atom   14 type  3   force =    -0.05299365   -0.08670486    0.00014792
     atom   15 type  3   force =    -0.05299602    0.08670860    0.00014686
     The ionic contribution  to forces
     atom    1 type  1   force =     9.88909489   -0.00021569    0.00521391
     atom    2 type  1   force =   -13.65764635   -0.00274109   -0.00728998
     atom    3 type  2   force =     2.64039065   -0.00081524    0.00379072
     atom    4 type  2   force =     2.70743999   -7.03882897    0.00336874
     atom    5 type  2   force =     2.70876258    7.03819089    0.00299895
     atom    6 type  2   force =    -3.44294582   -0.00158809    0.00172940
     atom    7 type  2   force =    -2.65629875   -6.96347746    0.00291604
     atom    8 type  2   force =    -2.65438678    6.96400988    0.00238923
     atom    9 type  2   force =    -1.44958808    0.00538385    0.00439067
     atom   10 type  3   force =     1.51151477   -3.28679596   -0.00209758
     atom   11 type  3   force =     1.51166352    3.28677801   -0.00210144
     atom   12 type  3   force =    -1.48075212   -3.27083101   -0.00230312
     atom   13 type  3   force =    -1.48035990    3.27106502   -0.00229665
     atom   14 type  3   force =     2.92655137    2.89297296   -0.00537295
     atom   15 type  3   force =     2.92656002   -2.89310710   -0.00533594
     The local contribution  to forces
     atom    1 type  1   force =    -9.83640924    0.00023252   -0.00138301
     atom    2 type  1   force =    11.84375893    0.00182193    0.00590337
     atom    3 type  2   force =    -2.97937889    0.00087890   -0.00412596
     atom    4 type  2   force =    -2.76142954    7.00183547   -0.00357748
     atom    5 type  2   force =    -2.76274470   -7.00127120   -0.00320303
     atom    6 type  2   force =     3.70181391    0.00160121   -0.00199966
     atom    7 type  2   force =     2.67127336    6.92779223   -0.00320047
     atom    8 type  2   force =     2.66937244   -6.92853124   -0.00266339
     atom    9 type  2   force =     1.20810850   -0.00565775   -0.00468561
     atom   10 type  3   force =    -1.47432941    3.21889938    0.00207892
     atom   11 type  3   force =    -1.47444690   -3.21889157    0.00208069
     atom   12 type  3   force =     1.44108394    3.20229950    0.00229446
     atom   13 type  3   force =     1.44072797   -3.20251827    0.00228513
     atom   14 type  3   force =    -2.87367267   -2.80613474    0.00521744
     atom   15 type  3   force =    -2.87365780    2.80624277    0.00518261
     The core correction contribution to forces
     atom    1 type  1   force =     0.00042532    0.00000054    0.00002703
     atom    2 type  1   force =    -0.00980595   -0.00000763   -0.00000942
     atom    3 type  2   force =    -0.00658898   -0.00004678    0.00026682
     atom    4 type  2   force =    -0.00196439    0.00055922    0.00027715
     atom    5 type  2   force =    -0.00197689   -0.00062805    0.00026828
     atom    6 type  2   force =     0.00551585   -0.00000099    0.00019247
     atom    7 type  2   force =     0.00148604    0.00046048    0.00030848
     atom    8 type  2   force =     0.00149562   -0.00050514    0.00029379
     atom    9 type  2   force =    -0.01770524    0.00023630    0.00022966
     atom   10 type  3   force =     0.00000000    0.00000000    0.00000000
     atom   11 type  3   force =     0.00000000    0.00000000    0.00000000
     atom   12 type  3   force =     0.00000000    0.00000000    0.00000000
     atom   13 type  3   force =     0.00000000    0.00000000    0.00000000
     atom   14 type  3   force =     0.00000000    0.00000000    0.00000000
     atom   15 type  3   force =     0.00000000    0.00000000    0.00000000
     The Hubbard contrib.    to forces
     atom    1 type  1   force =     0.00000000    0.00000000    0.00000000
     atom    2 type  1   force =     0.00000000    0.00000000    0.00000000
     atom    3 type  2   force =     0.00000000    0.00000000    0.00000000
     atom    4 type  2   force =     0.00000000    0.00000000    0.00000000
     atom    5 type  2   force =     0.00000000    0.00000000    0.00000000
     atom    6 type  2   force =     0.00000000    0.00000000    0.00000000
     atom    7 type  2   force =     0.00000000    0.00000000    0.00000000
     atom    8 type  2   force =     0.00000000    0.00000000    0.00000000
     atom    9 type  2   force =     0.00000000    0.00000000    0.00000000
     atom   10 type  3   force =     0.00000000    0.00000000    0.00000000
     atom   11 type  3   force =     0.00000000    0.00000000    0.00000000
     atom   12 type  3   force =     0.00000000    0.00000000    0.00000000
     atom   13 type  3   force =     0.00000000    0.00000000    0.00000000
     atom   14 type  3   force =     0.00000000    0.00000000    0.00000000
     atom   15 type  3   force =     0.00000000    0.00000000    0.00000000
     The SCF correction term to forces
     atom    1 type  1   force =    -0.00000033   -0.00000028    0.00000217
     atom    2 type  1   force =    -0.00009629    0.00000345   -0.00000262
     atom    3 type  2   force =     0.00001286   -0.00000043    0.00000190
     atom    4 type  2   force =     0.00000592    0.00000436    0.00000302
     atom    5 type  2   force =     0.00000581   -0.00000463    0.00000308
     atom    6 type  2   force =     0.00004429   -0.00000000    0.00000374
     atom    7 type  2   force =     0.00002835   -0.00001973    0.00000395
     atom    8 type  2   force =     0.00002707    0.00001895    0.00000390
     atom    9 type  2   force =    -0.00009303    0.00000073    0.00000104
     atom   10 type  3   force =     0.00000187    0.00000012    0.00000084
     atom   11 type  3   force =     0.00000162    0.00000005    0.00000084
     atom   12 type  3   force =     0.00000383   -0.00000296    0.00000108
     atom   13 type  3   force =     0.00000302    0.00000297    0.00000106
     atom   14 type  3   force =    -0.00000026   -0.00000215    0.00000051
     atom   15 type  3   force =    -0.00000042    0.00000214    0.00000052

     Total force =     0.000806     Total SCF correction =     0.000150
     SCF correction compared to forces is large: reduce conv_thr to get better values


     Computing stress (Cartesian axis) and pressure


     negative rho (up, down):  1.345E-02 0.000E+00
          total   stress  (Ry/bohr**3)                   (kbar)     P=       -0.06
  -0.00000045   0.00000000   0.00000000           -0.07        0.00        0.00
   0.00000000  -0.00000037   0.00000000            0.00       -0.06        0.00
   0.00000000   0.00000000  -0.00000045            0.00        0.00       -0.07

     kinetic stress (kbar)     69.59     -0.00      0.00
                               -0.00     72.53      0.00
                                0.00      0.00     82.49

     local   stress (kbar)   -650.27      0.01     -0.01
                                0.01   -354.25      0.00
                               -0.01      0.00    -79.66

     nonloc. stress (kbar)     19.14     -0.00      0.00
                               -0.00     18.49     -0.00
                                0.00     -0.00     17.83

     hartree stress (kbar)    286.26     -0.01      0.00
                               -0.01    157.57     -0.00
                                0.00     -0.00     53.02

     exc-cor stress (kbar)     -6.12      0.00      0.00
                                0.00     -6.32     -0.00
                                0.00     -0.00     -6.80

     corecor stress (kbar)    -12.10     -0.00     -0.00
                               -0.00    -12.03      0.00
                               -0.00      0.00    -11.89

     ewald   stress (kbar)    293.43     -0.01      0.00
                               -0.01    123.96     -0.00
                                0.00     -0.00    -55.05

     hubbard stress (kbar)      0.00      0.00      0.00
                                0.00      0.00      0.00
                                0.00      0.00      0.00

     DFT-D   stress (kbar)      0.00      0.00      0.00
                                0.00      0.00      0.00
                                0.00      0.00      0.00

     XDM     stress (kbar)      0.00      0.00      0.00
                                0.00      0.00      0.00
                                0.00      0.00      0.00

     dft-nl  stress (kbar)      0.00      0.00      0.00
                                0.00      0.00      0.00
                                0.00      0.00      0.00

     TS-vdW  stress (kbar)      0.00      0.00      0.00
                                0.00      0.00      0.00
                                0.00      0.00      0.00

     MDB     stress (kbar)      0.00      0.00      0.00
                                0.00      0.00      0.00
                                0.00      0.00      0.00

     3D-RISM stress (kbar)      0.00      0.00      0.00
                                0.00      0.00      0.00
                                0.00      0.00      0.00

     Energy error            =      8.4E-07 Ry
     Gradient error          =      3.2E-04 Ry/Bohr

     bfgs converged in   8 scf cycles and   6 bfgs steps
     (criteria: energy <  1.0E-05 Ry, force <  5.0E-04 Ry/Bohr)

     End of BFGS Geometry Optimization

     Final energy             =    -176.4450546845 Ry

     File ./tmp/ABN.bfgs deleted, as requested
Begin final coordinates

ATOMIC_POSITIONS (angstrom)
N                7.7055663426        4.5700350422        4.5704914700
N                0.9157667792        4.5703667475        4.5698387671
C                6.3364639658        4.5700218855        4.5710057414
C                5.6130712480        3.3574401408        4.5710560887
C                5.6132123053        5.7826600723        4.5710038702
C                3.5077384129        4.5702488453        4.5709311878
C                4.2272449379        3.3586516418        4.5710164360
C                4.2274374634        5.7816314851        4.5709532533
C                2.0838962059        4.5708020878        4.5706439904
H                6.1532016063        2.4088675278        4.5701343666
H                6.1533096893        6.7312536988        4.5700942774
H                3.6841610817        2.4136890731        4.5700463660
H                3.6843506921        6.7266015912        4.5700038746
H                8.2270774752        5.4340579668        4.5689371639
H                8.2270717946        3.7060261941        4.5689491465
End final coordinates



     Writing all to output data dir ./tmp/ABN.save/ :
     XML data file, charge density, pseudopotentials, collected wavefunctions

     init_run     :     10.69s CPU     11.35s WALL (       1 calls)
     electrons    :    699.08s CPU    758.89s WALL (       8 calls)
     update_pot   :      4.49s CPU      5.15s WALL (       7 calls)
     forces       :     40.73s CPU     44.27s WALL (       8 calls)
     stress       :     70.54s CPU     79.02s WALL (       8 calls)

     Called by init_run:
     wfcinit      :      5.26s CPU      5.41s WALL (       1 calls)
     wfcinit:atom :      0.04s CPU      0.04s WALL (       5 calls)
     wfcinit:wfcr :      4.95s CPU      5.09s WALL (       5 calls)
     potinit      :      0.58s CPU      0.64s WALL (       1 calls)
     hinit0       :      0.15s CPU      0.18s WALL (       1 calls)

     Called by electrons:
     c_bands      :    493.71s CPU    505.12s WALL (      52 calls)
     sum_band     :    131.38s CPU    153.98s WALL (      52 calls)
     v_of_rho     :     25.54s CPU     27.20s WALL (      55 calls)
     v_h          :      2.81s CPU      3.05s WALL (      55 calls)
     v_xc         :     29.57s CPU     31.98s WALL (      71 calls)
     newd         :     46.91s CPU     69.45s WALL (      55 calls)
     PAW_pot      :      1.32s CPU      1.33s WALL (      62 calls)
     mix_rho      :      4.84s CPU      5.13s WALL (      52 calls)

     Called by c_bands:
     init_us_2    :      9.43s CPU      9.48s WALL (     640 calls)
     cegterg      :    485.16s CPU    496.47s WALL (     260 calls)

     Called by sum_band:
     sum_band:wei :      0.00s CPU      0.00s WALL (      52 calls)
     sum_band:loo :     75.46s CPU     77.43s WALL (      52 calls)
     sum_band:buf :      0.66s CPU      0.67s WALL (     260 calls)
     sum_band:ini :      3.85s CPU      3.86s WALL (     260 calls)
     sum_band:cal :     20.89s CPU     20.96s WALL (     295 calls)
     sum_band:bec :      0.01s CPU      0.01s WALL (     295 calls)
     addusdens    :     43.90s CPU     64.23s WALL (      52 calls)
                                        0.00s GPU  (      52 calls)
     addusd:skk   :      0.88s CPU      0.93s WALL (     156 calls)
                                        0.00s GPU  (     156 calls)

     Called by *egterg:
     cdiaghg      :      0.86s CPU      0.86s WALL (    1197 calls)
     cegterg:over :     37.01s CPU     37.13s WALL (     997 calls)
     cegterg:upda :     18.26s CPU     18.31s WALL (     997 calls)
     cegterg:last :     49.51s CPU     49.65s WALL (     569 calls)
     h_psi        :    318.00s CPU    328.92s WALL (    1262 calls)
     s_psi        :     44.33s CPU     44.45s WALL (    1262 calls)
     g_psi        :      0.57s CPU      0.58s WALL (     997 calls)

     Called by h_psi:
     h_psi:calbec :     49.20s CPU     49.36s WALL (    1262 calls)
     vloc_psi     :    222.27s CPU    232.90s WALL (    1262 calls)
     add_vuspsi   :     44.73s CPU     44.85s WALL (    1262 calls)

     General routines
     calbec       :     84.49s CPU     84.76s WALL (    1757 calls)
     fft          :     40.50s CPU     43.13s WALL (     911 calls)
     ffts         :      1.19s CPU      1.28s WALL (     107 calls)
     fftw         :    185.51s CPU    197.50s WALL (   42446 calls)
     interpolate  :      2.86s CPU      3.01s WALL (      55 calls)

     Parallel routines

     PAW routines
     PAW_pot      :      1.32s CPU      1.33s WALL (      62 calls)

     PWSCF        :  13m55.53s CPU  15m12.25s WALL


   This run was terminated on:   3:12:50  28Mar2025            

=------------------------------------------------------------------------------=
   JOB DONE.
=------------------------------------------------------------------------------=
