
     Program PWSCF v.7.3.1 starts on 26Mar2025 at 22:26:59 

     This program is part of the open-source Quantum ESPRESSO suite
     for quantum simulation of materials; please cite
         "P. Giannozzi et al., J. Phys.:Condens. Matter 21 395502 (2009);
         "P. Giannozzi et al., J. Phys.:Condens. Matter 29 465901 (2017);
         "P. Giannozzi et al., J. Chem. Phys. 152 154105 (2020);
          URL http://www.quantum-espresso.org", 
     in publications or presentations arising from this work. More details at
     http://www.quantum-espresso.org/quote

     Parallel version (MPI), running on    33 processors

     MPI processes distributed on     1 nodes
     30321 MiB available memory on the printing compute node when the environment starts

     Waiting for input...
     Reading input from standard input

     Current dimensions of program PWSCF are:
     Max number of different atomic species (ntypx) = 10
     Max number of k-points (npk) =  40000
     Max angular momentum in pseudopotentials (lmaxx) =  4
     Found identity + ( -0.5000  0.0000  0.0000) symmetry
     This is a supercell, fractional translations are disabled

     R & G space division:  proc/nbgrp/npool/nimage =      33
     Subspace diagonalization in iterative solution of the eigenvalue problem:
     one sub-group per band group will be used
     custom distributed-memory algorithm (size of sub-group:  5*  5 procs)


     Parallelization info
     --------------------
     sticks:   dense  smooth     PW     G-vecs:    dense   smooth      PW
     Min         228     130     36                36393    15714    2270
     Max         230     131     37                36401    15723    2280
     Sum        7555    4303   1189              1201061   518755   75035

     Using Slab Decomposition



     bravais-lattice index     =            0
     lattice parameter (alat)  =      19.7617  a.u.
     unit-cell volume          =   15176.5939 (a.u.)^3
     number of atoms/cell      =           48
     number of atomic types    =            1
     number of electrons       =       960.00
     number of Kohn-Sham states=          576
     kinetic-energy cutoff     =      40.0000  Ry
     charge density cutoff     =     280.0000  Ry
     scf convergence threshold =      1.0E-05
     mixing beta               =       0.3000
     number of iterations used =            8  plain     mixing
     Exchange-correlation= SLA  PW   PBE  PBE
                           (   1   4   3   4   0   0   0)

     celldm(1)=  19.761696  celldm(2)=   0.000000  celldm(3)=   0.000000
     celldm(4)=   0.000000  celldm(5)=   0.000000  celldm(6)=   0.000000

     crystal axes: (cart. coord. in units of alat)
               a(1) = (   1.000000   0.000000   0.000000 )  
               a(2) = (  -0.500000   0.866025   0.000000 )  
               a(3) = (   0.000000   0.000000   2.270759 )  

     reciprocal axes: (cart. coord. in units 2 pi/alat)
               b(1) = (  1.000000  0.577350 -0.000000 )  
               b(2) = (  0.000000  1.154701  0.000000 )  
               b(3) = (  0.000000 -0.000000  0.440381 )  


     PseudoPot. # 1 for Zn read from file:
     /home/ys/qepseudo/SSSP_1.3.0_PBE_efficiency/Zn_pbe_v1.uspp.F.UPF
     MD5 check sum: df62231357ef9e81f77b2b3087fa5675
     Pseudo is Ultrasoft, Zval = 20.0
     Generated by new atomic code, or converted to UPF format
     Using radial grid of  943 points,  6 beta functions with: 
                l(1) =   0
                l(2) =   0
                l(3) =   1
                l(4) =   1
                l(5) =   2
                l(6) =   2
     Q(r) pseudized with  8 coefficients,  rinner =    1.100   1.100   1.100
                                                       1.100   1.100

     atomic species   valence    mass     pseudopotential
     Zn               20.00    65.38000     Zn( 1.00)

     No symmetry found


                                    s                        frac. trans.

      isym =  1     identity                                     

 cryst.   s( 1) = (     1          0          0      )
                  (     0          1          0      )
                  (     0          0          1      )

 cart.    s( 1) = (  1.0000000  0.0000000  0.0000000 )
                  (  0.0000000  1.0000000  0.0000000 )
                  (  0.0000000  0.0000000  1.0000000 )


   Cartesian axes

     site n.     atom                  positions (alat units)
         1        Zn     tau(   1) = (   0.0000000   0.1443375   0.1164998  )
         2        Zn     tau(   2) = (   0.5000000   0.1443375   0.1164998  )
         3        Zn     tau(   3) = (   0.0000000   0.1443375   0.5824993  )
         4        Zn     tau(   4) = (   0.5000000   0.1443375   0.5824993  )
         5        Zn     tau(   5) = (  -0.1250000   0.3608439   0.1164998  )
         6        Zn     tau(   6) = (   0.3750000   0.3608439   0.1164998  )
         7        Zn     tau(   7) = (  -0.1250000   0.3608439   0.5824993  )
         8        Zn     tau(   8) = (   0.3750000   0.3608439   0.5824993  )
         9        Zn     tau(   9) = (  -0.2500000   0.5773502   0.1164998  )
        10        Zn     tau(  10) = (   0.2500000   0.5773502   0.1164998  )
        11        Zn     tau(  11) = (  -0.2500000   0.5773502   0.5824993  )
        12        Zn     tau(  12) = (   0.2500000   0.5773502   0.5824993  )
        13        Zn     tau(  13) = (  -0.3750000   0.7938567   0.1164998  )
        14        Zn     tau(  14) = (   0.1250000   0.7938567   0.1164998  )
        15        Zn     tau(  15) = (  -0.3750000   0.7938567   0.5824993  )
        16        Zn     tau(  16) = (   0.1250000   0.7938567   0.5824993  )
        17        Zn     tau(  17) = (   0.2500000   0.1443375   0.1164998  )
        18        Zn     tau(  18) = (   0.7500000   0.1443375   0.1164998  )
        19        Zn     tau(  19) = (   0.2500000   0.1443375   0.5824993  )
        20        Zn     tau(  20) = (   0.7500000   0.1443375   0.5824993  )
        21        Zn     tau(  21) = (   0.1250000   0.3608439   0.1164998  )
        22        Zn     tau(  22) = (   0.6250000   0.3608439   0.1164998  )
        23        Zn     tau(  23) = (   0.1250000   0.3608439   0.5824993  )
        24        Zn     tau(  24) = (   0.6250000   0.3608439   0.5824993  )
        25        Zn     tau(  25) = (   0.0000000   0.5773502   0.1164998  )
        26        Zn     tau(  26) = (   0.5000000   0.5773502   0.1164998  )
        27        Zn     tau(  27) = (   0.0000000   0.5773502   0.5824993  )
        28        Zn     tau(  28) = (   0.5000000   0.5773502   0.5824993  )
        29        Zn     tau(  29) = (  -0.1250000   0.7938567   0.1164998  )
        30        Zn     tau(  30) = (   0.3750000   0.7938567   0.1164998  )
        31        Zn     tau(  31) = (  -0.1250000   0.7938567   0.5824993  )
        32        Zn     tau(  32) = (   0.3750000   0.7938567   0.5824993  )
        33        Zn     tau(  33) = (   0.1250000   0.0721688   0.3494996  )
        34        Zn     tau(  34) = (   0.6250000   0.0721688   0.3494996  )
        35        Zn     tau(  35) = (   0.0000000   0.2886752   0.3494996  )
        36        Zn     tau(  36) = (   0.5000000   0.2886752   0.3494996  )
        37        Zn     tau(  37) = (  -0.1250000   0.5051815   0.3494996  )
        38        Zn     tau(  38) = (   0.3750000   0.5051815   0.3494996  )
        39        Zn     tau(  39) = (  -0.2500000   0.7216879   0.3494996  )
        40        Zn     tau(  40) = (   0.2500000   0.7216879   0.3494996  )
        41        Zn     tau(  41) = (   0.3750000   0.0721688   0.3494996  )
        42        Zn     tau(  42) = (   0.8750000   0.0721688   0.3494996  )
        43        Zn     tau(  43) = (   0.2500000   0.2886752   0.3494996  )
        44        Zn     tau(  44) = (   0.7500000   0.2886752   0.3494996  )
        45        Zn     tau(  45) = (   0.1250000   0.5051815   0.3494996  )
        46        Zn     tau(  46) = (   0.6250000   0.5051815   0.3494996  )
        47        Zn     tau(  47) = (   0.0000000   0.7216879   0.3494996  )
        48        Zn     tau(  48) = (   0.5000000   0.7216879   0.3494996  )

   Crystallographic axes

     site n.     atom                  positions (cryst. coord.)
         1        Zn     tau(   1) = (  0.0833333  0.1666666  0.0513044  )
         2        Zn     tau(   2) = (  0.5833333  0.1666666  0.0513044  )
         3        Zn     tau(   3) = (  0.0833333  0.1666666  0.2565219  )
         4        Zn     tau(   4) = (  0.5833333  0.1666666  0.2565219  )
         5        Zn     tau(   5) = (  0.0833333  0.4166666  0.0513044  )
         6        Zn     tau(   6) = (  0.5833333  0.4166666  0.0513044  )
         7        Zn     tau(   7) = (  0.0833333  0.4166666  0.2565219  )
         8        Zn     tau(   8) = (  0.5833333  0.4166666  0.2565219  )
         9        Zn     tau(   9) = (  0.0833333  0.6666666  0.0513044  )
        10        Zn     tau(  10) = (  0.5833333  0.6666666  0.0513044  )
        11        Zn     tau(  11) = (  0.0833333  0.6666666  0.2565219  )
        12        Zn     tau(  12) = (  0.5833333  0.6666666  0.2565219  )
        13        Zn     tau(  13) = (  0.0833333  0.9166667  0.0513044  )
        14        Zn     tau(  14) = (  0.5833334  0.9166667  0.0513044  )
        15        Zn     tau(  15) = (  0.0833333  0.9166667  0.2565219  )
        16        Zn     tau(  16) = (  0.5833334  0.9166667  0.2565219  )
        17        Zn     tau(  17) = (  0.3333333  0.1666666  0.0513044  )
        18        Zn     tau(  18) = (  0.8333334  0.1666666  0.0513044  )
        19        Zn     tau(  19) = (  0.3333333  0.1666666  0.2565219  )
        20        Zn     tau(  20) = (  0.8333334  0.1666666  0.2565219  )
        21        Zn     tau(  21) = (  0.3333333  0.4166666  0.0513044  )
        22        Zn     tau(  22) = (  0.8333333  0.4166666  0.0513044  )
        23        Zn     tau(  23) = (  0.3333333  0.4166666  0.2565219  )
        24        Zn     tau(  24) = (  0.8333333  0.4166666  0.2565219  )
        25        Zn     tau(  25) = (  0.3333333  0.6666666  0.0513044  )
        26        Zn     tau(  26) = (  0.8333333  0.6666666  0.0513044  )
        27        Zn     tau(  27) = (  0.3333333  0.6666666  0.2565219  )
        28        Zn     tau(  28) = (  0.8333333  0.6666666  0.2565219  )
        29        Zn     tau(  29) = (  0.3333334  0.9166667  0.0513044  )
        30        Zn     tau(  30) = (  0.8333334  0.9166667  0.0513044  )
        31        Zn     tau(  31) = (  0.3333334  0.9166667  0.2565219  )
        32        Zn     tau(  32) = (  0.8333334  0.9166667  0.2565219  )
        33        Zn     tau(  33) = (  0.1666667  0.0833334  0.1539131  )
        34        Zn     tau(  34) = (  0.6666667  0.0833334  0.1539131  )
        35        Zn     tau(  35) = (  0.1666667  0.3333334  0.1539131  )
        36        Zn     tau(  36) = (  0.6666667  0.3333334  0.1539131  )
        37        Zn     tau(  37) = (  0.1666667  0.5833334  0.1539131  )
        38        Zn     tau(  38) = (  0.6666667  0.5833334  0.1539131  )
        39        Zn     tau(  39) = (  0.1666667  0.8333334  0.1539131  )
        40        Zn     tau(  40) = (  0.6666667  0.8333334  0.1539131  )
        41        Zn     tau(  41) = (  0.4166667  0.0833334  0.1539131  )
        42        Zn     tau(  42) = (  0.9166667  0.0833334  0.1539131  )
        43        Zn     tau(  43) = (  0.4166667  0.3333334  0.1539131  )
        44        Zn     tau(  44) = (  0.9166667  0.3333334  0.1539131  )
        45        Zn     tau(  45) = (  0.4166667  0.5833334  0.1539131  )
        46        Zn     tau(  46) = (  0.9166667  0.5833334  0.1539131  )
        47        Zn     tau(  47) = (  0.4166667  0.8333334  0.1539131  )
        48        Zn     tau(  48) = (  0.9166667  0.8333334  0.1539131  )

     number of k points=    10  Marzari-Vanderbilt smearing, width (Ry)=  0.0200
                       cart. coord. in units 2pi/alat
        k(    1) = (   0.0000000   0.0000000   0.0000000), wk =   0.1250000
        k(    2) = (   0.0000000   0.2886751   0.0000000), wk =   0.2500000
        k(    3) = (   0.0000000  -0.5773503   0.0000000), wk =   0.1250000
        k(    4) = (   0.2500000   0.1443376   0.0000000), wk =   0.2500000
        k(    5) = (   0.2500000   0.4330127   0.0000000), wk =   0.2500000
        k(    6) = (   0.2500000  -0.4330127   0.0000000), wk =   0.2500000
        k(    7) = (   0.2500000  -0.1443376   0.0000000), wk =   0.2500000
        k(    8) = (  -0.5000000  -0.2886751   0.0000000), wk =   0.1250000
        k(    9) = (  -0.5000000   0.0000000   0.0000000), wk =   0.2500000
        k(   10) = (  -0.5000000  -0.8660254   0.0000000), wk =   0.1250000

                       cryst. coord.
        k(    1) = (   0.0000000   0.0000000   0.0000000), wk =   0.1250000
        k(    2) = (   0.0000000   0.2500000   0.0000000), wk =   0.2500000
        k(    3) = (   0.0000000  -0.5000000   0.0000000), wk =   0.1250000
        k(    4) = (   0.2500000   0.0000000   0.0000000), wk =   0.2500000
        k(    5) = (   0.2500000   0.2500000   0.0000000), wk =   0.2500000
        k(    6) = (   0.2500000  -0.5000000   0.0000000), wk =   0.2500000
        k(    7) = (   0.2500000  -0.2500000   0.0000000), wk =   0.2500000
        k(    8) = (  -0.5000000   0.0000000   0.0000000), wk =   0.1250000
        k(    9) = (  -0.5000000   0.2500000   0.0000000), wk =   0.2500000
        k(   10) = (  -0.5000000  -0.5000000   0.0000000), wk =   0.1250000

     Dense  grid:  1201061 G-vectors     FFT dimensions: ( 108, 108, 240)

     Smooth grid:   518755 G-vectors     FFT dimensions: (  80,  80, 192)

     Dynamical RAM for                 wfc:      17.26 MB

     Dynamical RAM for     wfc (w. buffer):     189.88 MB

     Dynamical RAM for           str. fact:       0.56 MB

     Dynamical RAM for           local pot:       0.00 MB

     Dynamical RAM for          nlocal pot:      25.89 MB

     Dynamical RAM for                qrad:       1.34 MB

     Dynamical RAM for          rho,v,vnew:       3.80 MB

     Dynamical RAM for               rhoin:       1.27 MB

     Dynamical RAM for            rho*nmix:       8.89 MB

     Dynamical RAM for           G-vectors:       2.20 MB

     Dynamical RAM for          h,s,v(r/c):       2.42 MB

     Dynamical RAM for          <psi|beta>:       7.59 MB

     Dynamical RAM for                 psi:      34.52 MB

     Dynamical RAM for                hpsi:      34.52 MB

     Dynamical RAM for                spsi:      34.52 MB

     Dynamical RAM for      wfcinit/wfcrot:      46.32 MB

     Dynamical RAM for           addusdens:     129.95 MB

     Estimated static dynamical RAM per process >     229.61 MB

     Estimated max dynamical RAM per process >     368.45 MB

     Estimated total dynamical RAM >      11.87 GB

     Initial potential from superposition of free atoms

     starting charge     959.9932, renormalised to     960.0000

     negative rho (up, down):  4.194E-03 0.000E+00
     Starting wfcs are  624 randomized atomic wfcs

     total cpu time spent up to now is      117.1 secs

     Self-consistent Calculation

     iteration #  1     ecut=    40.00 Ry     beta= 0.30
     Davidson diagonalization with overlap

---- Real-time Memory Report at c_bands before calling an iterative solver
           298 MiB given to the printing process from OS
             0 MiB allocation reported by mallinfo(arena+hblkhd)
         22294 MiB available memory on the node where the printing process lives
------------------
     ethr =  1.00E-02,  avg # of iterations =  9.4

     Threshold (ethr) on eigenvalues was too large:
     Diagonalizing with lowered threshold

     Davidson diagonalization with overlap

---- Real-time Memory Report at c_bands before calling an iterative solver
           392 MiB given to the printing process from OS
             0 MiB allocation reported by mallinfo(arena+hblkhd)
         21169 MiB available memory on the node where the printing process lives
------------------
     ethr =  1.61E-04,  avg # of iterations = 11.2

     negative rho (up, down):  4.779E-03 0.000E+00

     total cpu time spent up to now is     1543.4 secs

     total energy              =  -22154.01711624 Ry
     estimated scf accuracy    <       1.57417206 Ry

     iteration #  2     ecut=    40.00 Ry     beta= 0.30
     Davidson diagonalization with overlap

---- Real-time Memory Report at c_bands before calling an iterative solver
           402 MiB given to the printing process from OS
             0 MiB allocation reported by mallinfo(arena+hblkhd)
         21066 MiB available memory on the node where the printing process lives
------------------
     ethr =  1.64E-04,  avg # of iterations =  2.6

     negative rho (up, down):  5.207E-03 0.000E+00

     total cpu time spent up to now is     2315.7 secs

     total energy              =  -22154.26472916 Ry
     estimated scf accuracy    <       0.15561591 Ry

     iteration #  3     ecut=    40.00 Ry     beta= 0.30
     Davidson diagonalization with overlap

---- Real-time Memory Report at c_bands before calling an iterative solver
           405 MiB given to the printing process from OS
             0 MiB allocation reported by mallinfo(arena+hblkhd)
         21043 MiB available memory on the node where the printing process lives
------------------
     c_bands:  1 eigenvalues not converged
     c_bands:  1 eigenvalues not converged
     ethr =  1.62E-05,  avg # of iterations = 11.8

     negative rho (up, down):  6.199E-03 0.000E+00

     total cpu time spent up to now is     2994.7 secs

     total energy              =  -22154.25123860 Ry
     estimated scf accuracy    <       0.07003376 Ry

     iteration #  4     ecut=    40.00 Ry     beta= 0.30
     Davidson diagonalization with overlap

---- Real-time Memory Report at c_bands before calling an iterative solver
           406 MiB given to the printing process from OS
             0 MiB allocation reported by mallinfo(arena+hblkhd)
         21023 MiB available memory on the node where the printing process lives
------------------
     ethr =  7.30E-06,  avg # of iterations =  6.3

     negative rho (up, down):  6.086E-03 0.000E+00

     total cpu time spent up to now is     3677.5 secs

     total energy              =  -22154.25413576 Ry
     estimated scf accuracy    <       0.01137322 Ry

     iteration #  5     ecut=    40.00 Ry     beta= 0.30
     Davidson diagonalization with overlap

---- Real-time Memory Report at c_bands before calling an iterative solver
           406 MiB given to the printing process from OS
             0 MiB allocation reported by mallinfo(arena+hblkhd)
         21005 MiB available memory on the node where the printing process lives
------------------
     ethr =  1.18E-06,  avg # of iterations =  6.3

     negative rho (up, down):  6.009E-03 0.000E+00

     total cpu time spent up to now is     4362.5 secs

     total energy              =  -22154.25494760 Ry
     estimated scf accuracy    <       0.00121064 Ry

     iteration #  6     ecut=    40.00 Ry     beta= 0.30
     Davidson diagonalization with overlap

---- Real-time Memory Report at c_bands before calling an iterative solver
           406 MiB given to the printing process from OS
             0 MiB allocation reported by mallinfo(arena+hblkhd)
         20988 MiB available memory on the node where the printing process lives
------------------
     ethr =  1.26E-07,  avg # of iterations =  2.0

     negative rho (up, down):  5.997E-03 0.000E+00

     total cpu time spent up to now is     5178.2 secs

     total energy              =  -22154.25530345 Ry
     estimated scf accuracy    <       0.00021249 Ry

     iteration #  7     ecut=    40.00 Ry     beta= 0.30
     Davidson diagonalization with overlap

---- Real-time Memory Report at c_bands before calling an iterative solver
           407 MiB given to the printing process from OS
             0 MiB allocation reported by mallinfo(arena+hblkhd)
         20973 MiB available memory on the node where the printing process lives
------------------
     ethr =  2.21E-08,  avg # of iterations =  2.0

     negative rho (up, down):  6.005E-03 0.000E+00

     total cpu time spent up to now is     5839.5 secs

     total energy              =  -22154.25530251 Ry
     estimated scf accuracy    <       0.00037980 Ry

     iteration #  8     ecut=    40.00 Ry     beta= 0.30
     Davidson diagonalization with overlap

---- Real-time Memory Report at c_bands before calling an iterative solver
           407 MiB given to the printing process from OS
             0 MiB allocation reported by mallinfo(arena+hblkhd)
         20945 MiB available memory on the node where the printing process lives
------------------
     ethr =  2.21E-08,  avg # of iterations =  1.0

     negative rho (up, down):  6.030E-03 0.000E+00

     total cpu time spent up to now is     6309.6 secs

     total energy              =  -22154.25532632 Ry
     estimated scf accuracy    <       0.00002292 Ry

     iteration #  9     ecut=    40.00 Ry     beta= 0.30
     Davidson diagonalization with overlap

---- Real-time Memory Report at c_bands before calling an iterative solver
           408 MiB given to the printing process from OS
             0 MiB allocation reported by mallinfo(arena+hblkhd)
         20927 MiB available memory on the node where the printing process lives
------------------
     ethr =  2.39E-09,  avg # of iterations =  3.0

     negative rho (up, down):  6.046E-03 0.000E+00

     total cpu time spent up to now is     7316.5 secs

     total energy              =  -22154.25532626 Ry
     estimated scf accuracy    <       0.00005721 Ry

     iteration # 10     ecut=    40.00 Ry     beta= 0.30
     Davidson diagonalization with overlap

---- Real-time Memory Report at c_bands before calling an iterative solver
           408 MiB given to the printing process from OS
             0 MiB allocation reported by mallinfo(arena+hblkhd)
         20911 MiB available memory on the node where the printing process lives
------------------
     ethr =  2.39E-09,  avg # of iterations =  2.0

     negative rho (up, down):  6.110E-03 0.000E+00

     total cpu time spent up to now is     8175.1 secs

     End of self-consistent calculation

          k = 0.0000 0.0000 0.0000 ( 64855 PWs)   bands (ev):

  -125.0660-125.0643-125.0643-125.0643-125.0642-125.0642-125.0642-125.0627
  -125.0626-125.0625-125.0625-125.0625-125.0624-125.0624-125.0624-125.0624
  -124.8618-124.8617-124.8601-124.8601-124.8601-124.8601-124.8600-124.8600
  -124.8600-124.8600-124.8600-124.8600-124.8600-124.8599-124.8584-124.8584
  -124.8584-124.8583-124.8583-124.8583-124.8583-124.8583-124.8583-124.8582
  -124.8582-124.8582-124.8582-124.8582-124.8582-124.8582-124.8582-124.8582
   -79.2326 -79.2326 -79.2326 -79.2260 -79.2260 -79.2259 -79.2259 -79.2259
   -79.2259 -79.2146 -79.2146 -79.2146 -79.2146 -79.2145 -79.2145 -79.2143
   -79.2126 -79.2126 -79.2126 -79.2126 -79.2125 -79.2125 -79.2124 -79.2124
   -79.2124 -79.2123 -79.2123 -79.2122 -79.2105 -79.2105 -79.2104 -79.2104
   -79.2103 -79.2103 -79.2103 -79.2103 -79.2102 -79.2059 -79.2059 -79.2059
   -79.2013 -79.2012 -79.2012 -79.2012 -79.2012 -79.2012 -79.1965 -79.1965
   -79.0250 -79.0250 -79.0250 -79.0250 -79.0250 -79.0250 -79.0184 -79.0184
   -79.0184 -79.0184 -79.0184 -79.0184 -79.0184 -79.0183 -79.0183 -79.0183
   -79.0183 -79.0183 -79.0183 -79.0182 -79.0166 -79.0165 -79.0165 -79.0165
   -79.0165 -79.0164 -79.0164 -79.0164 -79.0164 -79.0164 -79.0164 -79.0163
   -79.0147 -79.0147 -79.0146 -79.0146 -79.0146 -79.0146 -79.0146 -79.0146
   -79.0145 -79.0145 -79.0145 -79.0145 -79.0145 -79.0145 -79.0145 -79.0145
   -79.0145 -79.0144 -79.0071 -79.0071 -79.0071 -79.0070 -79.0070 -79.0070
   -79.0070 -79.0070 -79.0070 -79.0070 -79.0070 -79.0070 -79.0050 -79.0050
   -79.0050 -79.0050 -79.0050 -79.0050 -79.0050 -79.0050 -79.0050 -79.0050
   -79.0050 -79.0050 -78.9984 -78.9984 -78.9984 -78.9984 -78.9984 -78.9984
   -78.9937 -78.9937 -78.9937 -78.9937 -78.9937 -78.9937 -78.9937 -78.9937
   -78.9937 -78.9937 -78.9937 -78.9937 -78.9890 -78.9890 -78.9890 -78.9890
    -8.6224  -7.3996  -7.0910  -7.0682  -7.0682  -7.0681  -7.0681  -7.0681
    -7.0681  -6.9136  -6.9136  -6.9136  -6.7245  -6.7245  -6.7245  -6.6770
    -6.6770  -6.6770  -6.5879  -6.5879  -6.5879  -6.5878  -6.5878  -6.5878
    -6.5390  -6.5390  -6.5390  -6.5389  -6.5389  -6.5389  -6.5353  -6.5353
    -6.5353  -6.4779  -6.4779  -6.4779  -6.4779  -6.4778  -6.4778  -6.4312
    -6.4312  -6.4312  -6.4312  -6.4312  -6.4312  -6.3338  -6.3338  -6.3337
    -6.3337  -6.3337  -6.3337  -6.3322  -6.3322  -6.3322  -6.2722  -6.2722
    -6.2722  -6.2722  -6.2721  -6.2721  -6.2687  -6.2102  -6.2102  -6.2102
    -6.2101  -6.2101  -6.2101  -6.1705  -6.1705  -6.1705  -6.1705  -6.1705
    -6.1705  -6.1448  -6.1448  -6.1448  -6.1448  -6.1448  -6.1448  -6.1212
    -6.1212  -6.1211  -6.1211  -6.1211  -6.1211  -6.1211  -6.1211  -6.0962
    -6.0962  -6.0962  -6.0954  -6.0954  -6.0954  -6.0954  -6.0954  -6.0954
    -5.9931  -5.9931  -5.9931  -5.9931  -5.9930  -5.9930  -5.9153  -5.9153
    -5.8966  -5.8966  -5.8642  -5.8642  -5.8642  -5.8642  -5.8642  -5.8642
    -5.8622  -5.8622  -5.8622  -5.8622  -5.8621  -5.8621  -5.8308  -5.8308
    -5.8308  -5.7817  -5.7817  -5.7817  -5.7817  -5.7817  -5.7817  -5.7752
    -5.7752  -5.7752  -5.7752  -5.7752  -5.7752  -5.7749  -5.7749  -5.7749
    -5.7749  -5.7748  -5.7748  -5.7531  -5.7531  -5.7531  -5.7531  -5.7531
    -5.7531  -5.7438  -5.7438  -5.7438  -5.7438  -5.7438  -5.7438  -5.7271
    -5.7270  -5.7270  -5.7270  -5.7270  -5.7270  -5.7148  -5.7078  -5.7078
    -5.7078  -5.7078  -5.7077  -5.7077  -5.6957  -5.6957  -5.6957  -5.6093
    -5.6093  -5.5741  -5.5741  -5.5740  -5.5740  -5.5740  -5.5740  -5.5675
    -5.5675  -5.5675  -5.5675  -5.5675  -5.5675  -5.5447  -5.5447  -5.5447
    -5.5447  -5.5447  -5.5447  -5.5280  -5.5280  -5.5280  -5.5013  -5.5013
    -5.5013  -5.5013  -5.5013  -5.5013  -5.4927  -5.4927  -5.4927  -5.4927
    -5.4927  -5.4927  -5.4445  -5.4445  -5.4445  -5.4445  -5.4444  -5.4444
    -5.4324  -5.4324  -5.4324  -5.4320  -5.4320  -5.4320  -5.3958  -5.3958
    -5.3958  -5.3897  -5.3897  -5.3897  -5.3897  -5.3897  -5.3896  -5.3820
    -5.3820  -5.3608  -5.3608  -5.3183  -5.3183  -5.3183  -5.3183  -5.3183
    -5.3183  -5.2888  -5.2888  -5.2888  -5.2888  -5.2888  -5.2888  -5.2800
    -5.2800  -5.2800  -5.0702  -5.0702  -5.0702  -5.0701  -5.0701  -5.0701
    -4.3971  -4.3971  -4.3971  -4.3970  -4.3970  -4.3970  -3.4497  -2.1033
    -2.1033  -2.1033  -2.1033  -2.1033  -2.1033  -2.0199  -2.0198  -2.0198
    -2.0198  -2.0198  -2.0198  -0.8425  -0.8425  -0.8425  -0.7122  -0.6398
    -0.6398  -0.6398  -0.6398  -0.6398  -0.6398  -0.0843  -0.0843  -0.0843
     0.2451   0.2451   0.2451   1.5364   1.5364   1.5365   1.5365   1.5365
     1.5365   1.5808   1.5808   1.5808   1.5809   1.5809   1.5809   2.3094
     2.3094   2.3094   3.1081   3.3013   3.3013   3.3013   4.1417   4.1417
     4.1417   4.8836   4.8836   4.8836   4.8836   4.8837   4.8837   5.0747
     5.2665   5.4273   5.4273   5.4273   5.4273   5.4273   5.4273   5.4348
     5.4348   5.4349   5.4349   5.4349   5.4349   5.6053   5.6053   5.6054
     5.6054   5.6054   5.6054   6.2000   6.3989   6.5624   6.5624   6.5624
     6.8733   6.8733   6.8733   6.8733   6.8733   6.8734   7.0110   7.0110
     7.0110   7.0110   7.0110   7.0110   7.1025   7.1025   7.1025   7.1025
     7.1025   7.1025   7.1889   7.1889   7.1890   7.1890   7.1890   7.1890
     8.0389   8.0389   8.0389   8.0389   8.0389   8.0389   8.1450   8.1450
     8.1450   8.1450   8.1450   8.1450   8.1864   8.1864   8.1864   8.1864
     8.1864   8.1864   8.2075   8.3661   8.3759   8.3759   8.3759   9.2833

     occupation numbers 
     1.0000   1.0000   1.0000   1.0000   1.0000   1.0000   1.0000   1.0000
     1.0000   1.0000   1.0000   1.0000   1.0000   1.0000   1.0000   1.0000
     1.0000   1.0000   1.0000   1.0000   1.0000   1.0000   1.0000   1.0000
     1.0000   1.0000   1.0000   1.0000   1.0000   1.0000   1.0000   1.0000
     1.0000   1.0000   1.0000   1.0000   1.0000   1.0000   1.0000   1.0000
     1.0000   1.0000   1.0000   1.0000   1.0000   1.0000   1.0000   1.0000
     1.0000   1.0000   1.0000   1.0000   1.0000   1.0000   1.0000   1.0000
     1.0000   1.0000   1.0000   1.0000   1.0000   1.0000   1.0000   1.0000
     1.0000   1.0000   1.0000   1.0000   1.0000   1.0000   1.0000   1.0000
     1.0000   1.0000   1.0000   1.0000   1.0000   1.0000   1.0000   1.0000
     1.0000   1.0000   1.0000   1.0000   1.0000   1.0000   1.0000   1.0000
     1.0000   1.0000   1.0000   1.0000   1.0000   1.0000   1.0000   1.0000
     1.0000   1.0000   1.0000   1.0000   1.0000   1.0000   1.0000   1.0000
     1.0000   1.0000   1.0000   1.0000   1.0000   1.0000   1.0000   1.0000
     1.0000   1.0000   1.0000   1.0000   1.0000   1.0000   1.0000   1.0000
     1.0000   1.0000   1.0000   1.0000   1.0000   1.0000   1.0000   1.0000
     1.0000   1.0000   1.0000   1.0000   1.0000   1.0000   1.0000   1.0000
     1.0000   1.0000   1.0000   1.0000   1.0000   1.0000   1.0000   1.0000
     1.0000   1.0000   1.0000   1.0000   1.0000   1.0000   1.0000   1.0000
     1.0000   1.0000   1.0000   1.0000   1.0000   1.0000   1.0000   1.0000
     1.0000   1.0000   1.0000   1.0000   1.0000   1.0000   1.0000   1.0000
     1.0000   1.0000   1.0000   1.0000   1.0000   1.0000   1.0000   1.0000
     1.0000   1.0000   1.0000   1.0000   1.0000   1.0000   1.0000   1.0000
     1.0000   1.0000   1.0000   1.0000   1.0000   1.0000   1.0000   1.0000
     1.0000   1.0000   1.0000   1.0000   1.0000   1.0000   1.0000   1.0000
     1.0000   1.0000   1.0000   1.0000   1.0000   1.0000   1.0000   1.0000
     1.0000   1.0000   1.0000   1.0000   1.0000   1.0000   1.0000   1.0000
     1.0000   1.0000   1.0000   1.0000   1.0000   1.0000   1.0000   1.0000
     1.0000   1.0000   1.0000   1.0000   1.0000   1.0000   1.0000   1.0000
     1.0000   1.0000   1.0000   1.0000   1.0000   1.0000   1.0000   1.0000
     1.0000   1.0000   1.0000   1.0000   1.0000   1.0000   1.0000   1.0000
     1.0000   1.0000   1.0000   1.0000   1.0000   1.0000   1.0000   1.0000
     1.0000   1.0000   1.0000   1.0000   1.0000   1.0000   1.0000   1.0000
     1.0000   1.0000   1.0000   1.0000   1.0000   1.0000   1.0000   1.0000
     1.0000   1.0000   1.0000   1.0000   1.0000   1.0000   1.0000   1.0000
     1.0000   1.0000   1.0000   1.0000   1.0000   1.0000   1.0000   1.0000
     1.0000   1.0000   1.0000   1.0000   1.0000   1.0000   1.0000   1.0000
     1.0000   1.0000   1.0000   1.0000   1.0000   1.0000   1.0000   1.0000
     1.0000   1.0000   1.0000   1.0000   1.0000   1.0000   1.0000   1.0000
     1.0000   1.0000   1.0000   1.0000   1.0000   1.0000   1.0000   1.0000
     1.0000   1.0000   1.0000   1.0000   1.0000   1.0000   1.0000   1.0000
     1.0000   1.0000   1.0000   1.0000   1.0000   1.0000   1.0000   1.0000
     1.0000   1.0000   1.0000   1.0000   1.0000   1.0000   1.0000   1.0000
     1.0000   1.0000   1.0000   1.0000   1.0000   1.0000   1.0000   1.0000
     1.0000   1.0000   1.0000   1.0000   1.0000   1.0000   1.0000   1.0000
     1.0000   1.0000   1.0000   1.0000   1.0000   1.0000   1.0000   1.0000
     1.0000   1.0000   1.0000   1.0000   1.0000   1.0000   1.0000   1.0000
     1.0000   1.0000   1.0000   1.0000   1.0000   1.0000   1.0000   1.0000
     1.0000   1.0000   1.0000   1.0000   1.0000   1.0000   1.0000   1.0000
     1.0000   1.0000   1.0000   1.0000   1.0000   1.0000   1.0000   1.0000
     1.0000   1.0000   1.0000   1.0000   1.0000   1.0000   1.0000   1.0000
     1.0000   1.0000   1.0000   1.0000   1.0000   1.0000   1.0000   1.0000
     1.0000   1.0000   1.0000   1.0000   1.0000   1.0000   1.0000   1.0000
     1.0000   1.0000   1.0000   1.0000   1.0000   1.0000   1.0000   1.0000
     1.0000   1.0000   1.0000   1.0000   1.0000   1.0000   1.0000   1.0000
     1.0000   1.0000   1.0000   1.0000   1.0000   1.0000   1.0000   1.0000
     1.0000   1.0000   1.0000   1.0000   1.0000   1.0000   1.0000   1.0000
     1.0000   1.0000   1.0000   1.0000   1.0000   1.0000   1.0000   1.0000
     1.0000   1.0000   1.0000   1.0000   1.0000   1.0000   1.0000   1.0000
     1.0000   1.0000   1.0000   0.1848   0.1848   0.1848   0.1848   0.1848
     0.1848   0.1224   0.1224   0.1223   0.1223   0.1223   0.1222   0.0000
     0.0000   0.0000   0.0000   0.0000   0.0000   0.0000   0.0000   0.0000
     0.0000   0.0000   0.0000   0.0000   0.0000   0.0000   0.0000   0.0000
     0.0000   0.0000   0.0000   0.0000   0.0000   0.0000   0.0000   0.0000
     0.0000   0.0000   0.0000   0.0000   0.0000   0.0000   0.0000   0.0000
     0.0000   0.0000   0.0000   0.0000   0.0000   0.0000   0.0000   0.0000
     0.0000   0.0000   0.0000   0.0000   0.0000   0.0000   0.0000   0.0000
     0.0000   0.0000   0.0000   0.0000   0.0000   0.0000   0.0000   0.0000
     0.0000   0.0000   0.0000   0.0000   0.0000   0.0000   0.0000   0.0000
     0.0000   0.0000   0.0000   0.0000   0.0000   0.0000   0.0000   0.0000
     0.0000   0.0000   0.0000   0.0000   0.0000   0.0000   0.0000   0.0000
     0.0000   0.0000   0.0000   0.0000   0.0000   0.0000   0.0000   0.0000

          k = 0.0000 0.2887 0.0000 ( 64808 PWs)   bands (ev):

  -125.0659-125.0649-125.0645-125.0645-125.0639-125.0638-125.0636-125.0629
  -125.0629-125.0626-125.0626-125.0625-125.0625-125.0624-125.0622-125.0622
  -124.8616-124.8616-124.8607-124.8607-124.8603-124.8603-124.8603-124.8603
  -124.8596-124.8596-124.8596-124.8596-124.8594-124.8593-124.8587-124.8587
  -124.8587-124.8587-124.8584-124.8584-124.8583-124.8583-124.8583-124.8583
  -124.8582-124.8582-124.8582-124.8582-124.8580-124.8580-124.8580-124.8580
   -79.2318 -79.2318 -79.2312 -79.2273 -79.2273 -79.2263 -79.2263 -79.2244
   -79.2244 -79.2215 -79.2183 -79.2183 -79.2156 -79.2156 -79.2142 -79.2131
   -79.2126 -79.2126 -79.2119 -79.2119 -79.2116 -79.2115 -79.2115 -79.2112
   -79.2112 -79.2108 -79.2108 -79.2105 -79.2105 -79.2104 -79.2103 -79.2102
   -79.2100 -79.2100 -79.2089 -79.2089 -79.2077 -79.2067 -79.2067 -79.2056
   -79.2030 -79.2027 -79.2027 -79.2008 -79.2008 -79.1994 -79.1979 -79.1969
   -79.0243 -79.0243 -79.0242 -79.0242 -79.0236 -79.0236 -79.0197 -79.0197
   -79.0197 -79.0197 -79.0188 -79.0188 -79.0187 -79.0187 -79.0183 -79.0181
   -79.0172 -79.0171 -79.0169 -79.0169 -79.0168 -79.0168 -79.0168 -79.0168
   -79.0167 -79.0167 -79.0161 -79.0160 -79.0160 -79.0160 -79.0157 -79.0157
   -79.0150 -79.0150 -79.0150 -79.0150 -79.0147 -79.0147 -79.0146 -79.0146
   -79.0146 -79.0146 -79.0145 -79.0145 -79.0145 -79.0145 -79.0143 -79.0143
   -79.0142 -79.0142 -79.0139 -79.0139 -79.0107 -79.0107 -79.0107 -79.0107
   -79.0081 -79.0081 -79.0080 -79.0080 -79.0040 -79.0040 -79.0040 -79.0040
   -79.0037 -79.0037 -79.0037 -79.0037 -79.0013 -79.0013 -79.0013 -79.0013
   -79.0001 -79.0001 -78.9992 -78.9992 -78.9992 -78.9992 -78.9981 -78.9981
   -78.9955 -78.9955 -78.9952 -78.9952 -78.9952 -78.9952 -78.9933 -78.9933
   -78.9932 -78.9932 -78.9919 -78.9919 -78.9904 -78.9904 -78.9894 -78.9893
    -8.5036  -7.6200  -7.2997  -7.2480  -7.2480  -7.0284  -6.8974  -6.8712
    -6.8712  -6.8486  -6.8454  -6.8454  -6.7057  -6.6908  -6.6908  -6.6898
    -6.6740  -6.6617  -6.6372  -6.6372  -6.5889  -6.5795  -6.5760  -6.5760
    -6.5668  -6.5668  -6.5472  -6.5472  -6.5274  -6.5274  -6.5175  -6.5175
    -6.5158  -6.5112  -6.5112  -6.5081  -6.5081  -6.5013  -6.5013  -6.4854
    -6.4854  -6.4597  -6.4597  -6.4222  -6.4222  -6.3941  -6.3941  -6.3792
    -6.3792  -6.3748  -6.3209  -6.3161  -6.3161  -6.3145  -6.3145  -6.3141
    -6.3141  -6.2678  -6.2678  -6.2578  -6.2507  -6.2285  -6.2285  -6.2222
    -6.2222  -6.2205  -6.2204  -6.2204  -6.2074  -6.2074  -6.2037  -6.2037
    -6.1946  -6.1946  -6.1828  -6.1828  -6.1787  -6.1770  -6.1770  -6.1531
    -6.1369  -6.1225  -6.1225  -6.1133  -6.1133  -6.0994  -6.0994  -6.0920
    -6.0893  -6.0893  -6.0769  -6.0623  -6.0623  -6.0485  -6.0485  -6.0474
    -6.0474  -5.9579  -5.9579  -5.9578  -5.9578  -5.9425  -5.9399  -5.9359
    -5.9359  -5.9335  -5.9335  -5.9229  -5.9229  -5.9117  -5.9100  -5.9100
    -5.8918  -5.8918  -5.8881  -5.8842  -5.8803  -5.8728  -5.8728  -5.8675
    -5.8448  -5.8448  -5.8378  -5.8378  -5.8238  -5.8101  -5.7942  -5.7942
    -5.7941  -5.7941  -5.7853  -5.7853  -5.7753  -5.7753  -5.7746  -5.7718
    -5.7718  -5.7542  -5.7542  -5.7461  -5.7461  -5.7388  -5.7290  -5.7290
    -5.7128  -5.7114  -5.7114  -5.7040  -5.7040  -5.6962  -5.6962  -5.6937
    -5.6937  -5.6910  -5.6910  -5.6780  -5.6665  -5.6665  -5.6558  -5.6426
    -5.6381  -5.6381  -5.6321  -5.6321  -5.6171  -5.6171  -5.6158  -5.6150
    -5.6150  -5.6112  -5.6098  -5.6040  -5.6040  -5.5785  -5.5627  -5.5593
    -5.5593  -5.5548  -5.5548  -5.5465  -5.5465  -5.5441  -5.5441  -5.5422
    -5.5422  -5.5397  -5.5253  -5.5253  -5.5245  -5.5200  -5.5200  -5.5113
    -5.5113  -5.4902  -5.4902  -5.4610  -5.4590  -5.4564  -5.4564  -5.4527
    -5.4527  -5.4503  -5.4503  -5.4384  -5.4384  -5.4291  -5.4244  -5.4244
    -5.4221  -5.4180  -5.4130  -5.4126  -5.4008  -5.4008  -5.3981  -5.3981
    -5.3871  -5.3855  -5.3855  -5.3790  -5.3668  -5.3668  -5.3629  -5.3578
    -5.3440  -5.3440  -5.3400  -5.3311  -5.3188  -5.3188  -5.3126  -5.3099
    -5.3099  -5.3002  -5.3002  -5.2917  -5.2917  -5.2811  -5.2811  -5.1429
    -5.1429  -5.1282  -5.1282  -5.1227  -5.1227  -5.1043  -5.1036  -4.9464
    -4.9339  -4.6377  -4.6377  -3.8807  -3.8807  -3.4797  -3.3934  -3.3934
    -3.3648  -2.6732  -2.3015  -2.3015  -2.2218  -2.0209  -2.0209  -1.9710
    -1.9710  -1.5146  -1.5146  -1.2920  -1.2920  -1.1167  -0.7948  -0.5727
    -0.5727  -0.5606  -0.5606  -0.5520   0.0240   0.0240   0.2692   0.2692
     0.5602   0.5602   0.6336   0.8767   0.8986   0.8986   1.1837   1.1837
     1.5566   1.5566   2.2266   2.2266   2.6475   2.6967   2.6967   2.7212
     2.7829   2.7829   2.9502   2.9502   3.2200   3.5469   3.6909   3.6909
     3.9089   3.9089   4.1123   4.1853   4.1853   4.5564   4.5564   4.8020
     4.8020   4.8435   4.8435   5.1519   5.1519   5.1607   5.1607   5.1876
     5.3815   5.4262   5.4262   5.5685   5.6429   5.7937   5.7937   5.8069
     6.0895   6.0943   6.0943   6.3005   6.3132   6.3132   6.3160   6.5114
     6.5393   6.5393   6.5947   6.5947   6.7104   6.7593   6.7593   7.0103
     7.0103   7.0871   7.0871   7.1723   7.1723   7.2408   7.3090   7.3090
     7.4096   7.4239   7.4239   7.4475   7.4475   7.6570   7.6570   7.6687
     7.6687   7.7003   7.7003   7.7431   7.8568   7.8568   7.9462   7.9462
     8.0235   8.0235   8.1347   8.3104   8.3230   8.4778   8.6369   8.6369
     8.6962   8.7085   8.7085   8.8081   8.8081   8.8259   8.8259   8.8365

     occupation numbers 
     1.0000   1.0000   1.0000   1.0000   1.0000   1.0000   1.0000   1.0000
     1.0000   1.0000   1.0000   1.0000   1.0000   1.0000   1.0000   1.0000
     1.0000   1.0000   1.0000   1.0000   1.0000   1.0000   1.0000   1.0000
     1.0000   1.0000   1.0000   1.0000   1.0000   1.0000   1.0000   1.0000
     1.0000   1.0000   1.0000   1.0000   1.0000   1.0000   1.0000   1.0000
     1.0000   1.0000   1.0000   1.0000   1.0000   1.0000   1.0000   1.0000
     1.0000   1.0000   1.0000   1.0000   1.0000   1.0000   1.0000   1.0000
     1.0000   1.0000   1.0000   1.0000   1.0000   1.0000   1.0000   1.0000
     1.0000   1.0000   1.0000   1.0000   1.0000   1.0000   1.0000   1.0000
     1.0000   1.0000   1.0000   1.0000   1.0000   1.0000   1.0000   1.0000
     1.0000   1.0000   1.0000   1.0000   1.0000   1.0000   1.0000   1.0000
     1.0000   1.0000   1.0000   1.0000   1.0000   1.0000   1.0000   1.0000
     1.0000   1.0000   1.0000   1.0000   1.0000   1.0000   1.0000   1.0000
     1.0000   1.0000   1.0000   1.0000   1.0000   1.0000   1.0000   1.0000
     1.0000   1.0000   1.0000   1.0000   1.0000   1.0000   1.0000   1.0000
     1.0000   1.0000   1.0000   1.0000   1.0000   1.0000   1.0000   1.0000
     1.0000   1.0000   1.0000   1.0000   1.0000   1.0000   1.0000   1.0000
     1.0000   1.0000   1.0000   1.0000   1.0000   1.0000   1.0000   1.0000
     1.0000   1.0000   1.0000   1.0000   1.0000   1.0000   1.0000   1.0000
     1.0000   1.0000   1.0000   1.0000   1.0000   1.0000   1.0000   1.0000
     1.0000   1.0000   1.0000   1.0000   1.0000   1.0000   1.0000   1.0000
     1.0000   1.0000   1.0000   1.0000   1.0000   1.0000   1.0000   1.0000
     1.0000   1.0000   1.0000   1.0000   1.0000   1.0000   1.0000   1.0000
     1.0000   1.0000   1.0000   1.0000   1.0000   1.0000   1.0000   1.0000
     1.0000   1.0000   1.0000   1.0000   1.0000   1.0000   1.0000   1.0000
     1.0000   1.0000   1.0000   1.0000   1.0000   1.0000   1.0000   1.0000
     1.0000   1.0000   1.0000   1.0000   1.0000   1.0000   1.0000   1.0000
     1.0000   1.0000   1.0000   1.0000   1.0000   1.0000   1.0000   1.0000
     1.0000   1.0000   1.0000   1.0000   1.0000   1.0000   1.0000   1.0000
     1.0000   1.0000   1.0000   1.0000   1.0000   1.0000   1.0000   1.0000
     1.0000   1.0000   1.0000   1.0000   1.0000   1.0000   1.0000   1.0000
     1.0000   1.0000   1.0000   1.0000   1.0000   1.0000   1.0000   1.0000
     1.0000   1.0000   1.0000   1.0000   1.0000   1.0000   1.0000   1.0000
     1.0000   1.0000   1.0000   1.0000   1.0000   1.0000   1.0000   1.0000
     1.0000   1.0000   1.0000   1.0000   1.0000   1.0000   1.0000   1.0000
     1.0000   1.0000   1.0000   1.0000   1.0000   1.0000   1.0000   1.0000
     1.0000   1.0000   1.0000   1.0000   1.0000   1.0000   1.0000   1.0000
     1.0000   1.0000   1.0000   1.0000   1.0000   1.0000   1.0000   1.0000
     1.0000   1.0000   1.0000   1.0000   1.0000   1.0000   1.0000   1.0000
     1.0000   1.0000   1.0000   1.0000   1.0000   1.0000   1.0000   1.0000
     1.0000   1.0000   1.0000   1.0000   1.0000   1.0000   1.0000   1.0000
     1.0000   1.0000   1.0000   1.0000   1.0000   1.0000   1.0000   1.0000
     1.0000   1.0000   1.0000   1.0000   1.0000   1.0000   1.0000   1.0000
     1.0000   1.0000   1.0000   1.0000   1.0000   1.0000   1.0000   1.0000
     1.0000   1.0000   1.0000   1.0000   1.0000   1.0000   1.0000   1.0000
     1.0000   1.0000   1.0000   1.0000   1.0000   1.0000   1.0000   1.0000
     1.0000   1.0000   1.0000   1.0000   1.0000   1.0000   1.0000   1.0000
     1.0000   1.0000   1.0000   1.0000   1.0000   1.0000   1.0000   1.0000
     1.0000   1.0000   1.0000   1.0000   1.0000   1.0000   1.0000   1.0000
     1.0000   1.0000   1.0000   1.0000   1.0000   1.0000   1.0000   1.0000
     1.0000   1.0000   1.0000   1.0000   1.0000   1.0000   1.0000   1.0000
     1.0000   1.0000   1.0000   1.0000   1.0000   1.0000   1.0000   1.0000
     1.0000   1.0000   1.0000   1.0000   1.0000   1.0000   1.0000   1.0000
     1.0000   1.0000   1.0000   1.0000   1.0000   1.0000   1.0000   1.0000
     1.0000   1.0000   1.0000   1.0000   1.0000   1.0000   1.0000   1.0000
     1.0000   1.0000   1.0000   1.0000   1.0000   1.0000   1.0000   1.0000
     1.0000   1.0000   1.0000   1.0000   1.0000   1.0000   1.0000   1.0000
     1.0000   1.0000   1.0000   1.0000   1.0000   1.0000   1.0000   1.0000
     1.0000   1.0000   1.0000   1.0000   1.0000   1.0000   1.0000   1.0000
     1.0006   1.0006   1.0019   1.0373   1.0444   1.0444   0.9985   0.9985
     0.1541   0.1541   0.0000   0.0000   0.0000   0.0000   0.0000   0.0000
     0.0000   0.0000   0.0000   0.0000   0.0000   0.0000   0.0000   0.0000
     0.0000   0.0000   0.0000   0.0000   0.0000   0.0000   0.0000   0.0000
     0.0000   0.0000   0.0000   0.0000   0.0000   0.0000   0.0000   0.0000
     0.0000   0.0000   0.0000   0.0000   0.0000   0.0000   0.0000   0.0000
     0.0000   0.0000   0.0000   0.0000   0.0000   0.0000   0.0000   0.0000
     0.0000   0.0000   0.0000   0.0000   0.0000   0.0000   0.0000   0.0000
     0.0000   0.0000   0.0000   0.0000   0.0000   0.0000   0.0000   0.0000
     0.0000   0.0000   0.0000   0.0000   0.0000   0.0000   0.0000   0.0000
     0.0000   0.0000   0.0000   0.0000   0.0000   0.0000   0.0000   0.0000
     0.0000   0.0000   0.0000   0.0000   0.0000   0.0000   0.0000   0.0000
     0.0000   0.0000   0.0000   0.0000   0.0000   0.0000   0.0000   0.0000

          k = 0.0000-0.5774 0.0000 ( 64842 PWs)   bands (ev):

  -125.0656-125.0654-125.0646-125.0646-125.0634-125.0634-125.0634-125.0634
  -125.0631-125.0629-125.0626-125.0625-125.0625-125.0624-125.0621-125.0621
  -124.8613-124.8613-124.8612-124.8612-124.8604-124.8604-124.8604-124.8604
  -124.8592-124.8592-124.8592-124.8592-124.8591-124.8591-124.8591-124.8591
  -124.8588-124.8588-124.8587-124.8587-124.8583-124.8583-124.8583-124.8583
  -124.8582-124.8582-124.8582-124.8582-124.8579-124.8579-124.8579-124.8579
   -79.2299 -79.2298 -79.2298 -79.2297 -79.2274 -79.2273 -79.2263 -79.2263
   -79.2218 -79.2218 -79.2218 -79.2218 -79.2169 -79.2169 -79.2138 -79.2137
   -79.2127 -79.2127 -79.2114 -79.2113 -79.2113 -79.2113 -79.2110 -79.2109
   -79.2105 -79.2104 -79.2103 -79.2103 -79.2103 -79.2102 -79.2099 -79.2099
   -79.2088 -79.2087 -79.2087 -79.2086 -79.2054 -79.2054 -79.2054 -79.2054
   -79.2046 -79.2045 -79.2019 -79.2017 -79.2008 -79.2008 -79.1979 -79.1978
   -79.0223 -79.0223 -79.0222 -79.0222 -79.0222 -79.0222 -79.0221 -79.0221
   -79.0198 -79.0198 -79.0197 -79.0197 -79.0187 -79.0187 -79.0187 -79.0187
   -79.0179 -79.0178 -79.0177 -79.0177 -79.0169 -79.0169 -79.0168 -79.0168
   -79.0155 -79.0155 -79.0155 -79.0155 -79.0155 -79.0155 -79.0155 -79.0155
   -79.0152 -79.0151 -79.0151 -79.0150 -79.0146 -79.0146 -79.0146 -79.0146
   -79.0145 -79.0145 -79.0145 -79.0145 -79.0142 -79.0142 -79.0142 -79.0142
   -79.0142 -79.0142 -79.0142 -79.0142 -79.0142 -79.0142 -79.0141 -79.0141
   -79.0093 -79.0093 -79.0093 -79.0093 -79.0027 -79.0027 -79.0027 -79.0027
   -79.0012 -79.0012 -79.0012 -79.0012 -79.0011 -79.0011 -79.0011 -79.0011
   -78.9979 -78.9979 -78.9979 -78.9979 -78.9979 -78.9979 -78.9979 -78.9979
   -78.9971 -78.9971 -78.9970 -78.9970 -78.9943 -78.9943 -78.9942 -78.9942
   -78.9933 -78.9933 -78.9933 -78.9933 -78.9904 -78.9904 -78.9903 -78.9903
    -8.1557  -8.1556  -7.3167  -7.3167  -7.0251  -7.0251  -6.8630  -6.8629
    -6.8589  -6.8588  -6.7488  -6.7488  -6.7487  -6.7487  -6.6527  -6.6526
    -6.6462  -6.6462  -6.6462  -6.6462  -6.6237  -6.6236  -6.6061  -6.6060
    -6.6060  -6.6059  -6.5524  -6.5524  -6.5279  -6.5278  -6.5278  -6.5277
    -6.5052  -6.5052  -6.4865  -6.4865  -6.4865  -6.4865  -6.4621  -6.4621
    -6.4621  -6.4621  -6.4597  -6.4596  -6.4486  -6.4486  -6.4252  -6.4252
    -6.4208  -6.4208  -6.4207  -6.4207  -6.3091  -6.3091  -6.3004  -6.3004
    -6.2919  -6.2919  -6.2919  -6.2919  -6.2905  -6.2904  -6.2696  -6.2696
    -6.2695  -6.2695  -6.2350  -6.2349  -6.2201  -6.2201  -6.2201  -6.2201
    -6.2048  -6.2048  -6.1997  -6.1997  -6.1691  -6.1690  -6.1407  -6.1407
    -6.1107  -6.1107  -6.1023  -6.1023  -6.0814  -6.0814  -6.0813  -6.0813
    -6.0605  -6.0605  -6.0605  -6.0605  -6.0408  -6.0408  -6.0312  -6.0312
    -6.0248  -6.0247  -6.0211  -6.0210  -6.0081  -6.0080  -5.9887  -5.9887
    -5.9887  -5.9887  -5.9456  -5.9456  -5.9446  -5.9445  -5.9141  -5.9141
    -5.9042  -5.9042  -5.8707  -5.8706  -5.8706  -5.8706  -5.8138  -5.8137
    -5.8080  -5.8080  -5.8073  -5.8073  -5.8073  -5.8073  -5.8039  -5.8038
    -5.7861  -5.7861  -5.7838  -5.7837  -5.7745  -5.7745  -5.7744  -5.7744
    -5.7666  -5.7665  -5.7661  -5.7661  -5.7661  -5.7661  -5.7547  -5.7547
    -5.7526  -5.7526  -5.7526  -5.7526  -5.6741  -5.6741  -5.6727  -5.6727
    -5.6658  -5.6658  -5.6443  -5.6443  -5.6443  -5.6443  -5.6298  -5.6297
    -5.6225  -5.6225  -5.6033  -5.6033  -5.6033  -5.6033  -5.5931  -5.5931
    -5.5691  -5.5690  -5.5421  -5.5420  -5.5276  -5.5276  -5.5275  -5.5275
    -5.5251  -5.5251  -5.5251  -5.5251  -5.5219  -5.5219  -5.5197  -5.5196
    -5.4977  -5.4977  -5.4977  -5.4976  -5.4877  -5.4876  -5.4869  -5.4868
    -5.4853  -5.4853  -5.4779  -5.4779  -5.4627  -5.4627  -5.4627  -5.4627
    -5.4498  -5.4498  -5.4498  -5.4498  -5.4385  -5.4385  -5.4214  -5.4213
    -5.4143  -5.4143  -5.4142  -5.4142  -5.4111  -5.4111  -5.4102  -5.4102
    -5.4036  -5.4036  -5.4013  -5.4012  -5.3990  -5.3989  -5.3692  -5.3691
    -5.3615  -5.3615  -5.3615  -5.3615  -5.3229  -5.3229  -5.3229  -5.3229
    -5.2530  -5.2530  -5.2529  -5.2529  -5.2342  -5.2342  -5.2331  -5.2331
    -5.2330  -5.2330  -5.2002  -5.2002  -5.1975  -5.1975  -4.7014  -4.7014
    -4.4178  -4.4178  -4.4178  -4.4178  -3.7280  -3.7280  -3.1101  -3.1100
    -3.0612  -3.0612  -3.0612  -3.0612  -2.3910  -2.3910  -2.2395  -2.2395
    -1.7576  -1.7576  -1.7576  -1.7575  -0.7550  -0.7550  -0.7550  -0.7550
    -0.3252  -0.3252  -0.3251  -0.3251  -0.0901  -0.0900   0.0133   0.0133
     1.0215   1.0215   1.0495   1.0495   1.3384   1.3384   1.3701   1.3702
     1.3702   1.3702   2.2239   2.2239   2.9004   2.9004   2.9004   2.9004
     3.1020   3.1020   3.1020   3.1020   3.3226   3.3226   3.5553   3.5553
     3.8670   3.8670   3.8670   3.8670   3.9986   3.9986   4.2583   4.2583
     4.4473   4.4473   4.7462   4.7462   4.8583   4.8583   5.4828   5.4828
     5.5261   5.5262   5.7263   5.7263   5.8014   5.8014   5.9299   5.9299
     5.9300   5.9300   5.9835   5.9835   5.9835   5.9835   6.1541   6.1541
     6.1541   6.1541   6.4276   6.4276   6.5601   6.5601   6.6448   6.6448
     6.6637   6.6637   6.8486   6.8487   6.8668   6.8668   7.0141   7.0141
     7.0141   7.0141   7.5863   7.5863   7.7462   7.7462   8.0648   8.0648
     8.0909   8.0909   8.0909   8.0909   8.2791   8.2792   8.4780   8.4780
     8.4780   8.4780   8.6272   8.6272   8.6272   8.6272   8.6689   8.6689
     8.7369   8.7369   8.8119   8.8120   8.9997   8.9997   8.9997   8.9997

     occupation numbers 
     1.0000   1.0000   1.0000   1.0000   1.0000   1.0000   1.0000   1.0000
     1.0000   1.0000   1.0000   1.0000   1.0000   1.0000   1.0000   1.0000
     1.0000   1.0000   1.0000   1.0000   1.0000   1.0000   1.0000   1.0000
     1.0000   1.0000   1.0000   1.0000   1.0000   1.0000   1.0000   1.0000
     1.0000   1.0000   1.0000   1.0000   1.0000   1.0000   1.0000   1.0000
     1.0000   1.0000   1.0000   1.0000   1.0000   1.0000   1.0000   1.0000
     1.0000   1.0000   1.0000   1.0000   1.0000   1.0000   1.0000   1.0000
     1.0000   1.0000   1.0000   1.0000   1.0000   1.0000   1.0000   1.0000
     1.0000   1.0000   1.0000   1.0000   1.0000   1.0000   1.0000   1.0000
     1.0000   1.0000   1.0000   1.0000   1.0000   1.0000   1.0000   1.0000
     1.0000   1.0000   1.0000   1.0000   1.0000   1.0000   1.0000   1.0000
     1.0000   1.0000   1.0000   1.0000   1.0000   1.0000   1.0000   1.0000
     1.0000   1.0000   1.0000   1.0000   1.0000   1.0000   1.0000   1.0000
     1.0000   1.0000   1.0000   1.0000   1.0000   1.0000   1.0000   1.0000
     1.0000   1.0000   1.0000   1.0000   1.0000   1.0000   1.0000   1.0000
     1.0000   1.0000   1.0000   1.0000   1.0000   1.0000   1.0000   1.0000
     1.0000   1.0000   1.0000   1.0000   1.0000   1.0000   1.0000   1.0000
     1.0000   1.0000   1.0000   1.0000   1.0000   1.0000   1.0000   1.0000
     1.0000   1.0000   1.0000   1.0000   1.0000   1.0000   1.0000   1.0000
     1.0000   1.0000   1.0000   1.0000   1.0000   1.0000   1.0000   1.0000
     1.0000   1.0000   1.0000   1.0000   1.0000   1.0000   1.0000   1.0000
     1.0000   1.0000   1.0000   1.0000   1.0000   1.0000   1.0000   1.0000
     1.0000   1.0000   1.0000   1.0000   1.0000   1.0000   1.0000   1.0000
     1.0000   1.0000   1.0000   1.0000   1.0000   1.0000   1.0000   1.0000
     1.0000   1.0000   1.0000   1.0000   1.0000   1.0000   1.0000   1.0000
     1.0000   1.0000   1.0000   1.0000   1.0000   1.0000   1.0000   1.0000
     1.0000   1.0000   1.0000   1.0000   1.0000   1.0000   1.0000   1.0000
     1.0000   1.0000   1.0000   1.0000   1.0000   1.0000   1.0000   1.0000
     1.0000   1.0000   1.0000   1.0000   1.0000   1.0000   1.0000   1.0000
     1.0000   1.0000   1.0000   1.0000   1.0000   1.0000   1.0000   1.0000
     1.0000   1.0000   1.0000   1.0000   1.0000   1.0000   1.0000   1.0000
     1.0000   1.0000   1.0000   1.0000   1.0000   1.0000   1.0000   1.0000
     1.0000   1.0000   1.0000   1.0000   1.0000   1.0000   1.0000   1.0000
     1.0000   1.0000   1.0000   1.0000   1.0000   1.0000   1.0000   1.0000
     1.0000   1.0000   1.0000   1.0000   1.0000   1.0000   1.0000   1.0000
     1.0000   1.0000   1.0000   1.0000   1.0000   1.0000   1.0000   1.0000
     1.0000   1.0000   1.0000   1.0000   1.0000   1.0000   1.0000   1.0000
     1.0000   1.0000   1.0000   1.0000   1.0000   1.0000   1.0000   1.0000
     1.0000   1.0000   1.0000   1.0000   1.0000   1.0000   1.0000   1.0000
     1.0000   1.0000   1.0000   1.0000   1.0000   1.0000   1.0000   1.0000
     1.0000   1.0000   1.0000   1.0000   1.0000   1.0000   1.0000   1.0000
     1.0000   1.0000   1.0000   1.0000   1.0000   1.0000   1.0000   1.0000
     1.0000   1.0000   1.0000   1.0000   1.0000   1.0000   1.0000   1.0000
     1.0000   1.0000   1.0000   1.0000   1.0000   1.0000   1.0000   1.0000
     1.0000   1.0000   1.0000   1.0000   1.0000   1.0000   1.0000   1.0000
     1.0000   1.0000   1.0000   1.0000   1.0000   1.0000   1.0000   1.0000
     1.0000   1.0000   1.0000   1.0000   1.0000   1.0000   1.0000   1.0000
     1.0000   1.0000   1.0000   1.0000   1.0000   1.0000   1.0000   1.0000
     1.0000   1.0000   1.0000   1.0000   1.0000   1.0000   1.0000   1.0000
     1.0000   1.0000   1.0000   1.0000   1.0000   1.0000   1.0000   1.0000
     1.0000   1.0000   1.0000   1.0000   1.0000   1.0000   1.0000   1.0000
     1.0000   1.0000   1.0000   1.0000   1.0000   1.0000   1.0000   1.0000
     1.0000   1.0000   1.0000   1.0000   1.0000   1.0000   1.0000   1.0000
     1.0000   1.0000   1.0000   1.0000   1.0000   1.0000   1.0000   1.0000
     1.0000   1.0000   1.0000   1.0000   1.0000   1.0000   1.0000   1.0000
     1.0000   1.0000   1.0000   1.0000   1.0000   1.0000   1.0000   1.0000
     1.0000   1.0000   1.0000   1.0000   1.0000   1.0000   1.0000   1.0000
     1.0000   1.0000   1.0000   1.0000   1.0000   1.0000   1.0000   1.0000
     1.0000   1.0000   1.0000   1.0000   1.0000   1.0000   1.0000   1.0000
     1.0812   1.0812   1.0833   1.0833   0.6568   0.6568   0.5691   0.5690
     0.5690   0.5689   0.0000   0.0000   0.0000   0.0000   0.0000   0.0000
     0.0000   0.0000   0.0000   0.0000   0.0000   0.0000   0.0000   0.0000
     0.0000   0.0000   0.0000   0.0000   0.0000   0.0000   0.0000   0.0000
     0.0000   0.0000   0.0000   0.0000   0.0000   0.0000   0.0000   0.0000
     0.0000   0.0000   0.0000   0.0000   0.0000   0.0000   0.0000   0.0000
     0.0000   0.0000   0.0000   0.0000   0.0000   0.0000   0.0000   0.0000
     0.0000   0.0000   0.0000   0.0000   0.0000   0.0000   0.0000   0.0000
     0.0000   0.0000   0.0000   0.0000   0.0000   0.0000   0.0000   0.0000
     0.0000   0.0000   0.0000   0.0000   0.0000   0.0000   0.0000   0.0000
     0.0000   0.0000   0.0000   0.0000   0.0000   0.0000   0.0000   0.0000
     0.0000   0.0000   0.0000   0.0000   0.0000   0.0000   0.0000   0.0000
     0.0000   0.0000   0.0000   0.0000   0.0000   0.0000   0.0000   0.0000

          k = 0.2500 0.1443 0.0000 ( 64808 PWs)   bands (ev):

  -125.0659-125.0649-125.0645-125.0645-125.0639-125.0639-125.0636-125.0629
  -125.0629-125.0626-125.0626-125.0626-125.0624-125.0624-125.0622-125.0622
  -124.8616-124.8616-124.8607-124.8607-124.8603-124.8603-124.8603-124.8603
  -124.8596-124.8596-124.8596-124.8596-124.8594-124.8593-124.8587-124.8587
  -124.8587-124.8587-124.8584-124.8584-124.8584-124.8583-124.8583-124.8583
  -124.8583-124.8583-124.8582-124.8582-124.8580-124.8580-124.8580-124.8580
   -79.2318 -79.2318 -79.2312 -79.2273 -79.2273 -79.2263 -79.2263 -79.2244
   -79.2244 -79.2215 -79.2183 -79.2183 -79.2156 -79.2156 -79.2142 -79.2131
   -79.2126 -79.2126 -79.2119 -79.2119 -79.2116 -79.2115 -79.2115 -79.2112
   -79.2112 -79.2108 -79.2108 -79.2105 -79.2104 -79.2104 -79.2103 -79.2103
   -79.2100 -79.2100 -79.2089 -79.2089 -79.2077 -79.2067 -79.2067 -79.2056
   -79.2030 -79.2027 -79.2027 -79.2008 -79.2008 -79.1994 -79.1979 -79.1969
   -79.0243 -79.0243 -79.0242 -79.0242 -79.0236 -79.0236 -79.0197 -79.0197
   -79.0197 -79.0197 -79.0188 -79.0188 -79.0187 -79.0187 -79.0183 -79.0181
   -79.0172 -79.0171 -79.0169 -79.0169 -79.0168 -79.0168 -79.0168 -79.0168
   -79.0167 -79.0167 -79.0161 -79.0160 -79.0160 -79.0160 -79.0157 -79.0157
   -79.0150 -79.0150 -79.0150 -79.0150 -79.0147 -79.0147 -79.0147 -79.0146
   -79.0146 -79.0146 -79.0145 -79.0145 -79.0145 -79.0145 -79.0143 -79.0143
   -79.0142 -79.0142 -79.0139 -79.0139 -79.0107 -79.0107 -79.0107 -79.0107
   -79.0081 -79.0081 -79.0080 -79.0080 -79.0040 -79.0040 -79.0040 -79.0040
   -79.0037 -79.0037 -79.0037 -79.0037 -79.0013 -79.0013 -79.0013 -79.0013
   -79.0001 -79.0001 -78.9992 -78.9992 -78.9992 -78.9992 -78.9981 -78.9981
   -78.9955 -78.9955 -78.9952 -78.9952 -78.9952 -78.9952 -78.9933 -78.9933
   -78.9932 -78.9932 -78.9919 -78.9919 -78.9904 -78.9904 -78.9894 -78.9893
    -8.5036  -7.6200  -7.2997  -7.2480  -7.2480  -7.0284  -6.8974  -6.8712
    -6.8712  -6.8486  -6.8454  -6.8454  -6.7057  -6.6908  -6.6908  -6.6898
    -6.6740  -6.6617  -6.6372  -6.6372  -6.5889  -6.5795  -6.5760  -6.5760
    -6.5668  -6.5668  -6.5472  -6.5472  -6.5274  -6.5274  -6.5175  -6.5175
    -6.5158  -6.5112  -6.5112  -6.5081  -6.5081  -6.5013  -6.5013  -6.4854
    -6.4854  -6.4597  -6.4597  -6.4222  -6.4222  -6.3941  -6.3941  -6.3792
    -6.3792  -6.3748  -6.3209  -6.3161  -6.3161  -6.3145  -6.3145  -6.3141
    -6.3141  -6.2678  -6.2678  -6.2578  -6.2507  -6.2285  -6.2285  -6.2222
    -6.2222  -6.2205  -6.2204  -6.2204  -6.2074  -6.2074  -6.2037  -6.2037
    -6.1946  -6.1946  -6.1828  -6.1828  -6.1787  -6.1770  -6.1770  -6.1531
    -6.1369  -6.1225  -6.1225  -6.1133  -6.1133  -6.0994  -6.0994  -6.0920
    -6.0893  -6.0893  -6.0769  -6.0623  -6.0623  -6.0485  -6.0485  -6.0474
    -6.0474  -5.9579  -5.9579  -5.9578  -5.9578  -5.9425  -5.9399  -5.9359
    -5.9359  -5.9335  -5.9335  -5.9229  -5.9229  -5.9117  -5.9100  -5.9100
    -5.8918  -5.8918  -5.8881  -5.8842  -5.8803  -5.8728  -5.8728  -5.8675
    -5.8448  -5.8448  -5.8378  -5.8378  -5.8238  -5.8101  -5.7942  -5.7942
    -5.7941  -5.7941  -5.7853  -5.7853  -5.7753  -5.7753  -5.7746  -5.7718
    -5.7718  -5.7542  -5.7542  -5.7461  -5.7461  -5.7388  -5.7290  -5.7290
    -5.7128  -5.7114  -5.7114  -5.7040  -5.7040  -5.6962  -5.6962  -5.6937
    -5.6937  -5.6910  -5.6910  -5.6780  -5.6665  -5.6665  -5.6558  -5.6426
    -5.6381  -5.6381  -5.6321  -5.6321  -5.6171  -5.6171  -5.6158  -5.6150
    -5.6150  -5.6112  -5.6098  -5.6040  -5.6040  -5.5785  -5.5627  -5.5593
    -5.5593  -5.5548  -5.5548  -5.5465  -5.5465  -5.5441  -5.5441  -5.5422
    -5.5422  -5.5397  -5.5253  -5.5253  -5.5245  -5.5200  -5.5200  -5.5113
    -5.5113  -5.4902  -5.4902  -5.4610  -5.4590  -5.4564  -5.4564  -5.4527
    -5.4527  -5.4503  -5.4503  -5.4384  -5.4384  -5.4291  -5.4244  -5.4244
    -5.4221  -5.4180  -5.4130  -5.4126  -5.4008  -5.4008  -5.3981  -5.3981
    -5.3871  -5.3855  -5.3855  -5.3790  -5.3668  -5.3668  -5.3629  -5.3578
    -5.3440  -5.3440  -5.3400  -5.3311  -5.3188  -5.3188  -5.3126  -5.3099
    -5.3099  -5.3002  -5.3002  -5.2917  -5.2917  -5.2811  -5.2811  -5.1429
    -5.1429  -5.1282  -5.1282  -5.1227  -5.1227  -5.1043  -5.1036  -4.9464
    -4.9339  -4.6377  -4.6377  -3.8807  -3.8807  -3.4797  -3.3934  -3.3934
    -3.3648  -2.6732  -2.3015  -2.3015  -2.2218  -2.0209  -2.0209  -1.9710
    -1.9710  -1.5146  -1.5146  -1.2920  -1.2920  -1.1167  -0.7948  -0.5727
    -0.5727  -0.5606  -0.5606  -0.5520   0.0240   0.0240   0.2692   0.2692
     0.5602   0.5602   0.6336   0.8767   0.8986   0.8986   1.1837   1.1837
     1.5566   1.5566   2.2266   2.2266   2.6475   2.6967   2.6967   2.7212
     2.7829   2.7829   2.9502   2.9502   3.2200   3.5469   3.6909   3.6909
     3.9089   3.9089   4.1123   4.1853   4.1853   4.5564   4.5564   4.8020
     4.8020   4.8435   4.8435   5.1519   5.1519   5.1607   5.1607   5.1876
     5.3815   5.4262   5.4262   5.5685   5.6429   5.7937   5.7937   5.8069
     6.0895   6.0943   6.0943   6.3005   6.3132   6.3132   6.3160   6.5114
     6.5393   6.5393   6.5947   6.5947   6.7104   6.7593   6.7593   7.0103
     7.0103   7.0871   7.0871   7.1723   7.1723   7.2408   7.3090   7.3090
     7.4096   7.4239   7.4239   7.4475   7.4475   7.6570   7.6570   7.6687
     7.6687   7.7003   7.7003   7.7431   7.8568   7.8568   7.9462   7.9462
     8.0235   8.0235   8.1347   8.3104   8.3230   8.4778   8.6369   8.6369
     8.6962   8.7085   8.8081   8.8081   8.8257   8.8259   8.8359   8.8365

     occupation numbers 
     1.0000   1.0000   1.0000   1.0000   1.0000   1.0000   1.0000   1.0000
     1.0000   1.0000   1.0000   1.0000   1.0000   1.0000   1.0000   1.0000
     1.0000   1.0000   1.0000   1.0000   1.0000   1.0000   1.0000   1.0000
     1.0000   1.0000   1.0000   1.0000   1.0000   1.0000   1.0000   1.0000
     1.0000   1.0000   1.0000   1.0000   1.0000   1.0000   1.0000   1.0000
     1.0000   1.0000   1.0000   1.0000   1.0000   1.0000   1.0000   1.0000
     1.0000   1.0000   1.0000   1.0000   1.0000   1.0000   1.0000   1.0000
     1.0000   1.0000   1.0000   1.0000   1.0000   1.0000   1.0000   1.0000
     1.0000   1.0000   1.0000   1.0000   1.0000   1.0000   1.0000   1.0000
     1.0000   1.0000   1.0000   1.0000   1.0000   1.0000   1.0000   1.0000
     1.0000   1.0000   1.0000   1.0000   1.0000   1.0000   1.0000   1.0000
     1.0000   1.0000   1.0000   1.0000   1.0000   1.0000   1.0000   1.0000
     1.0000   1.0000   1.0000   1.0000   1.0000   1.0000   1.0000   1.0000
     1.0000   1.0000   1.0000   1.0000   1.0000   1.0000   1.0000   1.0000
     1.0000   1.0000   1.0000   1.0000   1.0000   1.0000   1.0000   1.0000
     1.0000   1.0000   1.0000   1.0000   1.0000   1.0000   1.0000   1.0000
     1.0000   1.0000   1.0000   1.0000   1.0000   1.0000   1.0000   1.0000
     1.0000   1.0000   1.0000   1.0000   1.0000   1.0000   1.0000   1.0000
     1.0000   1.0000   1.0000   1.0000   1.0000   1.0000   1.0000   1.0000
     1.0000   1.0000   1.0000   1.0000   1.0000   1.0000   1.0000   1.0000
     1.0000   1.0000   1.0000   1.0000   1.0000   1.0000   1.0000   1.0000
     1.0000   1.0000   1.0000   1.0000   1.0000   1.0000   1.0000   1.0000
     1.0000   1.0000   1.0000   1.0000   1.0000   1.0000   1.0000   1.0000
     1.0000   1.0000   1.0000   1.0000   1.0000   1.0000   1.0000   1.0000
     1.0000   1.0000   1.0000   1.0000   1.0000   1.0000   1.0000   1.0000
     1.0000   1.0000   1.0000   1.0000   1.0000   1.0000   1.0000   1.0000
     1.0000   1.0000   1.0000   1.0000   1.0000   1.0000   1.0000   1.0000
     1.0000   1.0000   1.0000   1.0000   1.0000   1.0000   1.0000   1.0000
     1.0000   1.0000   1.0000   1.0000   1.0000   1.0000   1.0000   1.0000
     1.0000   1.0000   1.0000   1.0000   1.0000   1.0000   1.0000   1.0000
     1.0000   1.0000   1.0000   1.0000   1.0000   1.0000   1.0000   1.0000
     1.0000   1.0000   1.0000   1.0000   1.0000   1.0000   1.0000   1.0000
     1.0000   1.0000   1.0000   1.0000   1.0000   1.0000   1.0000   1.0000
     1.0000   1.0000   1.0000   1.0000   1.0000   1.0000   1.0000   1.0000
     1.0000   1.0000   1.0000   1.0000   1.0000   1.0000   1.0000   1.0000
     1.0000   1.0000   1.0000   1.0000   1.0000   1.0000   1.0000   1.0000
     1.0000   1.0000   1.0000   1.0000   1.0000   1.0000   1.0000   1.0000
     1.0000   1.0000   1.0000   1.0000   1.0000   1.0000   1.0000   1.0000
     1.0000   1.0000   1.0000   1.0000   1.0000   1.0000   1.0000   1.0000
     1.0000   1.0000   1.0000   1.0000   1.0000   1.0000   1.0000   1.0000
     1.0000   1.0000   1.0000   1.0000   1.0000   1.0000   1.0000   1.0000
     1.0000   1.0000   1.0000   1.0000   1.0000   1.0000   1.0000   1.0000
     1.0000   1.0000   1.0000   1.0000   1.0000   1.0000   1.0000   1.0000
     1.0000   1.0000   1.0000   1.0000   1.0000   1.0000   1.0000   1.0000
     1.0000   1.0000   1.0000   1.0000   1.0000   1.0000   1.0000   1.0000
     1.0000   1.0000   1.0000   1.0000   1.0000   1.0000   1.0000   1.0000
     1.0000   1.0000   1.0000   1.0000   1.0000   1.0000   1.0000   1.0000
     1.0000   1.0000   1.0000   1.0000   1.0000   1.0000   1.0000   1.0000
     1.0000   1.0000   1.0000   1.0000   1.0000   1.0000   1.0000   1.0000
     1.0000   1.0000   1.0000   1.0000   1.0000   1.0000   1.0000   1.0000
     1.0000   1.0000   1.0000   1.0000   1.0000   1.0000   1.0000   1.0000
     1.0000   1.0000   1.0000   1.0000   1.0000   1.0000   1.0000   1.0000
     1.0000   1.0000   1.0000   1.0000   1.0000   1.0000   1.0000   1.0000
     1.0000   1.0000   1.0000   1.0000   1.0000   1.0000   1.0000   1.0000
     1.0000   1.0000   1.0000   1.0000   1.0000   1.0000   1.0000   1.0000
     1.0000   1.0000   1.0000   1.0000   1.0000   1.0000   1.0000   1.0000
     1.0000   1.0000   1.0000   1.0000   1.0000   1.0000   1.0000   1.0000
     1.0000   1.0000   1.0000   1.0000   1.0000   1.0000   1.0000   1.0000
     1.0000   1.0000   1.0000   1.0000   1.0000   1.0000   1.0000   1.0000
     1.0006   1.0006   1.0019   1.0373   1.0444   1.0444   0.9985   0.9985
     0.1541   0.1541   0.0000   0.0000   0.0000   0.0000   0.0000   0.0000
     0.0000   0.0000   0.0000   0.0000   0.0000   0.0000   0.0000   0.0000
     0.0000   0.0000   0.0000   0.0000   0.0000   0.0000   0.0000   0.0000
     0.0000   0.0000   0.0000   0.0000   0.0000   0.0000   0.0000   0.0000
     0.0000   0.0000   0.0000   0.0000   0.0000   0.0000   0.0000   0.0000
     0.0000   0.0000   0.0000   0.0000   0.0000   0.0000   0.0000   0.0000
     0.0000   0.0000   0.0000   0.0000   0.0000   0.0000   0.0000   0.0000
     0.0000   0.0000   0.0000   0.0000   0.0000   0.0000   0.0000   0.0000
     0.0000   0.0000   0.0000   0.0000   0.0000   0.0000   0.0000   0.0000
     0.0000   0.0000   0.0000   0.0000   0.0000   0.0000   0.0000   0.0000
     0.0000   0.0000   0.0000   0.0000   0.0000   0.0000   0.0000   0.0000
     0.0000   0.0000   0.0000   0.0000   0.0000   0.0000   0.0000   0.0000

          k = 0.2500 0.4330 0.0000 ( 64876 PWs)   bands (ev):

  -125.0656-125.0652-125.0651-125.0640-125.0640-125.0634-125.0633-125.0632
  -125.0629-125.0629-125.0627-125.0627-125.0624-125.0623-125.0622-125.0621
  -124.8614-124.8614-124.8609-124.8609-124.8609-124.8609-124.8598-124.8598
  -124.8598-124.8597-124.8592-124.8592-124.8590-124.8590-124.8590-124.8590
  -124.8587-124.8586-124.8586-124.8586-124.8585-124.8585-124.8585-124.8585
  -124.8582-124.8582-124.8581-124.8580-124.8580-124.8580-124.8579-124.8578
   -79.2309 -79.2293 -79.2293 -79.2287 -79.2287 -79.2266 -79.2266 -79.2245
   -79.2245 -79.2241 -79.2205 -79.2197 -79.2161 -79.2160 -79.2139 -79.2134
   -79.2133 -79.2126 -79.2125 -79.2120 -79.2120 -79.2114 -79.2112 -79.2111
   -79.2108 -79.2107 -79.2106 -79.2106 -79.2102 -79.2101 -79.2101 -79.2099
   -79.2092 -79.2074 -79.2073 -79.2060 -79.2059 -79.2059 -79.2053 -79.2053
   -79.2046 -79.2045 -79.2031 -79.2031 -79.2005 -79.1990 -79.1990 -79.1976
   -79.0233 -79.0233 -79.0217 -79.0217 -79.0217 -79.0217 -79.0212 -79.0211
   -79.0211 -79.0211 -79.0191 -79.0190 -79.0190 -79.0190 -79.0180 -79.0178
   -79.0175 -79.0175 -79.0174 -79.0173 -79.0170 -79.0169 -79.0169 -79.0169
   -79.0165 -79.0165 -79.0162 -79.0162 -79.0161 -79.0161 -79.0156 -79.0155
   -79.0154 -79.0153 -79.0153 -79.0153 -79.0150 -79.0149 -79.0149 -79.0149
   -79.0148 -79.0148 -79.0148 -79.0148 -79.0145 -79.0144 -79.0143 -79.0143
   -79.0143 -79.0143 -79.0141 -79.0141 -79.0130 -79.0130 -79.0122 -79.0122
   -79.0085 -79.0085 -79.0085 -79.0085 -79.0050 -79.0050 -79.0050 -79.0050
   -79.0017 -79.0016 -78.9999 -78.9999 -78.9998 -78.9998 -78.9985 -78.9984
   -78.9984 -78.9984 -78.9984 -78.9984 -78.9978 -78.9977 -78.9977 -78.9977
   -78.9971 -78.9970 -78.9970 -78.9970 -78.9956 -78.9956 -78.9955 -78.9955
   -78.9930 -78.9930 -78.9915 -78.9915 -78.9914 -78.9914 -78.9901 -78.9901
    -8.2698  -7.8230  -7.8229  -7.1112  -6.9134  -6.8390  -6.8390  -6.8032
    -6.8032  -6.7962  -6.7962  -6.7921  -6.7921  -6.7678  -6.7267  -6.7266
    -6.6975  -6.6974  -6.6541  -6.6541  -6.6222  -6.6082  -6.6082  -6.6035
    -6.6035  -6.5871  -6.5870  -6.5669  -6.5669  -6.5589  -6.5588  -6.5428
    -6.5332  -6.5332  -6.4909  -6.4908  -6.4709  -6.4709  -6.4683  -6.4608
    -6.4608  -6.4392  -6.4388  -6.4165  -6.4114  -6.4114  -6.4109  -6.4109
    -6.4019  -6.4019  -6.3912  -6.3687  -6.3687  -6.3114  -6.3008  -6.3008
    -6.2960  -6.2960  -6.2910  -6.2910  -6.2906  -6.2773  -6.2661  -6.2620
    -6.2620  -6.2536  -6.2479  -6.2479  -6.2426  -6.2426  -6.2406  -6.2211
    -6.2211  -6.2008  -6.2008  -6.1764  -6.1764  -6.1647  -6.1463  -6.1444
    -6.1402  -6.1402  -6.1168  -6.1168  -6.1069  -6.1069  -6.0934  -6.0878
    -6.0549  -6.0549  -6.0454  -6.0453  -6.0408  -6.0320  -6.0188  -6.0188
    -5.9962  -5.9905  -5.9905  -5.9879  -5.9790  -5.9790  -5.9714  -5.9714
    -5.9690  -5.9690  -5.9559  -5.9476  -5.9409  -5.9144  -5.9144  -5.9062
    -5.9062  -5.9053  -5.8977  -5.8899  -5.8899  -5.8848  -5.8848  -5.8762
    -5.8761  -5.8521  -5.8521  -5.8451  -5.8451  -5.8323  -5.8323  -5.8319
    -5.8312  -5.8275  -5.8275  -5.8073  -5.7955  -5.7955  -5.7925  -5.7713
    -5.7618  -5.7618  -5.7544  -5.7509  -5.7509  -5.7485  -5.7118  -5.7118
    -5.6928  -5.6928  -5.6903  -5.6903  -5.6562  -5.6529  -5.6529  -5.6520
    -5.6519  -5.6454  -5.6312  -5.6295  -5.6295  -5.6225  -5.6224  -5.5914
    -5.5912  -5.5912  -5.5907  -5.5907  -5.5814  -5.5813  -5.5796  -5.5796
    -5.5772  -5.5772  -5.5731  -5.5730  -5.5653  -5.5653  -5.5480  -5.5479
    -5.5473  -5.5473  -5.5435  -5.5389  -5.5352  -5.5352  -5.5135  -5.5135
    -5.5110  -5.5085  -5.5085  -5.5057  -5.5017  -5.4824  -5.4824  -5.4807
    -5.4780  -5.4780  -5.4648  -5.4600  -5.4600  -5.4585  -5.4585  -5.4564
    -5.4564  -5.4544  -5.4544  -5.4417  -5.4417  -5.4393  -5.4393  -5.4322
    -5.4322  -5.4294  -5.4166  -5.4166  -5.4084  -5.4084  -5.4082  -5.3974
    -5.3937  -5.3851  -5.3851  -5.3733  -5.3733  -5.3732  -5.3676  -5.3664
    -5.3634  -5.3634  -5.3339  -5.3264  -5.3264  -5.3071  -5.3071  -5.2807
    -5.2747  -5.2747  -5.2716  -5.2715  -5.2706  -5.2706  -5.2557  -5.2274
    -5.1858  -5.1858  -5.1818  -5.1818  -5.1431  -5.1431  -5.0638  -5.0638
    -4.4557  -4.2327  -4.2327  -4.0434  -4.0434  -3.2447  -3.2447  -3.1951
    -3.1445  -2.8771  -2.8771  -2.8492  -2.8492  -2.7802  -2.7801  -1.7957
    -1.7957  -1.7012  -1.7012  -1.4131  -1.4131  -0.8447  -0.4756  -0.4755
    -0.4120  -0.4120  -0.3231  -0.2412   0.2949   0.3502   0.3503   0.4236
     0.4236   0.6999   0.6999   0.7892   0.9704   0.9704   1.0869   1.4159
     1.4159   1.9760   1.9760   2.5312   2.5523   2.8208   2.9858   3.0909
     3.3262   3.3262   3.3643   3.3644   3.4436   3.4468   3.4468   3.5750
     3.5750   3.6674   3.8903   3.8903   4.3749   4.3749   4.3920   4.4250
     4.4436   4.4436   4.5670   4.5670   4.8790   4.9330   5.1392   5.1392
     5.2203   5.2203   5.4134   5.4444   5.4444   5.4523   5.4523   5.6114
     5.8645   5.8645   6.0709   6.0709   6.0905   6.1241   6.1241   6.5420
     6.5421   6.5479   6.6438   6.6458   6.6458   6.7363   6.9521   6.9992
     6.9992   7.0020   7.0104   7.0104   7.0439   7.0439   7.1637   7.1637
     7.1856   7.1856   7.2117   7.2117   7.2219   7.2219   7.4466   7.4466
     8.0921   8.2146   8.2146   8.3535   8.3620   8.3837   8.3837   8.5232
     8.5232   8.5393   8.5538   8.5826   8.5826   8.6236   8.6236   8.6581
     8.6785   8.6785   8.7008   8.7429   8.8064   8.8064   9.0136   9.0137

     occupation numbers 
     1.0000   1.0000   1.0000   1.0000   1.0000   1.0000   1.0000   1.0000
     1.0000   1.0000   1.0000   1.0000   1.0000   1.0000   1.0000   1.0000
     1.0000   1.0000   1.0000   1.0000   1.0000   1.0000   1.0000   1.0000
     1.0000   1.0000   1.0000   1.0000   1.0000   1.0000   1.0000   1.0000
     1.0000   1.0000   1.0000   1.0000   1.0000   1.0000   1.0000   1.0000
     1.0000   1.0000   1.0000   1.0000   1.0000   1.0000   1.0000   1.0000
     1.0000   1.0000   1.0000   1.0000   1.0000   1.0000   1.0000   1.0000
     1.0000   1.0000   1.0000   1.0000   1.0000   1.0000   1.0000   1.0000
     1.0000   1.0000   1.0000   1.0000   1.0000   1.0000   1.0000   1.0000
     1.0000   1.0000   1.0000   1.0000   1.0000   1.0000   1.0000   1.0000
     1.0000   1.0000   1.0000   1.0000   1.0000   1.0000   1.0000   1.0000
     1.0000   1.0000   1.0000   1.0000   1.0000   1.0000   1.0000   1.0000
     1.0000   1.0000   1.0000   1.0000   1.0000   1.0000   1.0000   1.0000
     1.0000   1.0000   1.0000   1.0000   1.0000   1.0000   1.0000   1.0000
     1.0000   1.0000   1.0000   1.0000   1.0000   1.0000   1.0000   1.0000
     1.0000   1.0000   1.0000   1.0000   1.0000   1.0000   1.0000   1.0000
     1.0000   1.0000   1.0000   1.0000   1.0000   1.0000   1.0000   1.0000
     1.0000   1.0000   1.0000   1.0000   1.0000   1.0000   1.0000   1.0000
     1.0000   1.0000   1.0000   1.0000   1.0000   1.0000   1.0000   1.0000
     1.0000   1.0000   1.0000   1.0000   1.0000   1.0000   1.0000   1.0000
     1.0000   1.0000   1.0000   1.0000   1.0000   1.0000   1.0000   1.0000
     1.0000   1.0000   1.0000   1.0000   1.0000   1.0000   1.0000   1.0000
     1.0000   1.0000   1.0000   1.0000   1.0000   1.0000   1.0000   1.0000
     1.0000   1.0000   1.0000   1.0000   1.0000   1.0000   1.0000   1.0000
     1.0000   1.0000   1.0000   1.0000   1.0000   1.0000   1.0000   1.0000
     1.0000   1.0000   1.0000   1.0000   1.0000   1.0000   1.0000   1.0000
     1.0000   1.0000   1.0000   1.0000   1.0000   1.0000   1.0000   1.0000
     1.0000   1.0000   1.0000   1.0000   1.0000   1.0000   1.0000   1.0000
     1.0000   1.0000   1.0000   1.0000   1.0000   1.0000   1.0000   1.0000
     1.0000   1.0000   1.0000   1.0000   1.0000   1.0000   1.0000   1.0000
     1.0000   1.0000   1.0000   1.0000   1.0000   1.0000   1.0000   1.0000
     1.0000   1.0000   1.0000   1.0000   1.0000   1.0000   1.0000   1.0000
     1.0000   1.0000   1.0000   1.0000   1.0000   1.0000   1.0000   1.0000
     1.0000   1.0000   1.0000   1.0000   1.0000   1.0000   1.0000   1.0000
     1.0000   1.0000   1.0000   1.0000   1.0000   1.0000   1.0000   1.0000
     1.0000   1.0000   1.0000   1.0000   1.0000   1.0000   1.0000   1.0000
     1.0000   1.0000   1.0000   1.0000   1.0000   1.0000   1.0000   1.0000
     1.0000   1.0000   1.0000   1.0000   1.0000   1.0000   1.0000   1.0000
     1.0000   1.0000   1.0000   1.0000   1.0000   1.0000   1.0000   1.0000
     1.0000   1.0000   1.0000   1.0000   1.0000   1.0000   1.0000   1.0000
     1.0000   1.0000   1.0000   1.0000   1.0000   1.0000   1.0000   1.0000
     1.0000   1.0000   1.0000   1.0000   1.0000   1.0000   1.0000   1.0000
     1.0000   1.0000   1.0000   1.0000   1.0000   1.0000   1.0000   1.0000
     1.0000   1.0000   1.0000   1.0000   1.0000   1.0000   1.0000   1.0000
     1.0000   1.0000   1.0000   1.0000   1.0000   1.0000   1.0000   1.0000
     1.0000   1.0000   1.0000   1.0000   1.0000   1.0000   1.0000   1.0000
     1.0000   1.0000   1.0000   1.0000   1.0000   1.0000   1.0000   1.0000
     1.0000   1.0000   1.0000   1.0000   1.0000   1.0000   1.0000   1.0000
     1.0000   1.0000   1.0000   1.0000   1.0000   1.0000   1.0000   1.0000
     1.0000   1.0000   1.0000   1.0000   1.0000   1.0000   1.0000   1.0000
     1.0000   1.0000   1.0000   1.0000   1.0000   1.0000   1.0000   1.0000
     1.0000   1.0000   1.0000   1.0000   1.0000   1.0000   1.0000   1.0000
     1.0000   1.0000   1.0000   1.0000   1.0000   1.0000   1.0000   1.0000
     1.0000   1.0000   1.0000   1.0000   1.0000   1.0000   1.0000   1.0000
     1.0000   1.0000   1.0000   1.0000   1.0000   1.0000   1.0000   1.0000
     1.0000   1.0000   1.0000   1.0000   1.0000   1.0000   1.0000   1.0000
     1.0000   1.0000   1.0000   1.0000   1.0000   1.0000   1.0000   1.0000
     1.0000   1.0000   1.0000   1.0000   1.0000   1.0000   1.0000   1.0000
     1.0000   1.0000   1.0000   1.0000   1.0000   1.0000   1.0000   1.0000
     1.0000   1.0052   1.0052   1.0159   1.0686   1.0686   1.0778   0.4452
     0.4451   0.0003   0.0003   0.0000   0.0000   0.0000   0.0000   0.0000
     0.0000   0.0000   0.0000   0.0000   0.0000   0.0000   0.0000   0.0000
     0.0000   0.0000   0.0000   0.0000   0.0000   0.0000   0.0000   0.0000
     0.0000   0.0000   0.0000   0.0000   0.0000   0.0000   0.0000   0.0000
     0.0000   0.0000   0.0000   0.0000   0.0000   0.0000   0.0000   0.0000
     0.0000   0.0000   0.0000   0.0000   0.0000   0.0000   0.0000   0.0000
     0.0000   0.0000   0.0000   0.0000   0.0000   0.0000   0.0000   0.0000
     0.0000   0.0000   0.0000   0.0000   0.0000   0.0000   0.0000   0.0000
     0.0000   0.0000   0.0000   0.0000   0.0000   0.0000   0.0000   0.0000
     0.0000   0.0000   0.0000   0.0000   0.0000   0.0000   0.0000   0.0000
     0.0000   0.0000   0.0000   0.0000   0.0000   0.0000   0.0000   0.0000
     0.0000   0.0000   0.0000   0.0000   0.0000   0.0000   0.0000   0.0000

          k = 0.2500-0.4330 0.0000 ( 64876 PWs)   bands (ev):

  -125.0656-125.0652-125.0651-125.0640-125.0640-125.0634-125.0633-125.0632
  -125.0629-125.0628-125.0627-125.0627-125.0624-125.0623-125.0622-125.0621
  -124.8614-124.8614-124.8610-124.8609-124.8609-124.8609-124.8598-124.8598
  -124.8598-124.8597-124.8592-124.8592-124.8591-124.8590-124.8590-124.8590
  -124.8587-124.8587-124.8586-124.8586-124.8585-124.8585-124.8585-124.8585
  -124.8582-124.8582-124.8581-124.8580-124.8580-124.8580-124.8579-124.8578
   -79.2309 -79.2293 -79.2293 -79.2287 -79.2287 -79.2266 -79.2265 -79.2246
   -79.2245 -79.2241 -79.2205 -79.2197 -79.2161 -79.2160 -79.2139 -79.2134
   -79.2133 -79.2126 -79.2125 -79.2120 -79.2120 -79.2114 -79.2112 -79.2111
   -79.2108 -79.2107 -79.2106 -79.2106 -79.2102 -79.2101 -79.2100 -79.2099
   -79.2092 -79.2074 -79.2073 -79.2060 -79.2059 -79.2059 -79.2053 -79.2053
   -79.2046 -79.2045 -79.2031 -79.2031 -79.2005 -79.1990 -79.1990 -79.1976
   -79.0233 -79.0233 -79.0217 -79.0217 -79.0217 -79.0217 -79.0212 -79.0211
   -79.0211 -79.0211 -79.0191 -79.0190 -79.0190 -79.0190 -79.0180 -79.0178
   -79.0175 -79.0174 -79.0174 -79.0173 -79.0170 -79.0169 -79.0169 -79.0169
   -79.0165 -79.0165 -79.0162 -79.0162 -79.0161 -79.0161 -79.0156 -79.0155
   -79.0154 -79.0153 -79.0153 -79.0153 -79.0150 -79.0149 -79.0149 -79.0149
   -79.0148 -79.0148 -79.0148 -79.0148 -79.0145 -79.0144 -79.0144 -79.0143
   -79.0143 -79.0142 -79.0141 -79.0141 -79.0130 -79.0130 -79.0122 -79.0122
   -79.0085 -79.0085 -79.0085 -79.0085 -79.0050 -79.0050 -79.0050 -79.0050
   -79.0017 -79.0016 -78.9999 -78.9999 -78.9998 -78.9998 -78.9985 -78.9984
   -78.9984 -78.9984 -78.9984 -78.9984 -78.9978 -78.9977 -78.9977 -78.9977
   -78.9971 -78.9970 -78.9970 -78.9970 -78.9956 -78.9956 -78.9955 -78.9955
   -78.9930 -78.9930 -78.9915 -78.9915 -78.9914 -78.9914 -78.9901 -78.9901
    -8.2698  -7.8230  -7.8229  -7.1112  -6.9134  -6.8390  -6.8390  -6.8032
    -6.8032  -6.7962  -6.7962  -6.7921  -6.7921  -6.7678  -6.7267  -6.7266
    -6.6975  -6.6974  -6.6541  -6.6541  -6.6222  -6.6082  -6.6082  -6.6035
    -6.6035  -6.5871  -6.5870  -6.5669  -6.5669  -6.5589  -6.5588  -6.5428
    -6.5332  -6.5331  -6.4909  -6.4908  -6.4709  -6.4709  -6.4683  -6.4608
    -6.4608  -6.4392  -6.4388  -6.4165  -6.4114  -6.4114  -6.4109  -6.4109
    -6.4019  -6.4019  -6.3912  -6.3687  -6.3687  -6.3114  -6.3008  -6.3008
    -6.2960  -6.2960  -6.2910  -6.2910  -6.2906  -6.2773  -6.2661  -6.2620
    -6.2620  -6.2536  -6.2479  -6.2478  -6.2426  -6.2426  -6.2406  -6.2211
    -6.2211  -6.2008  -6.2008  -6.1764  -6.1764  -6.1647  -6.1463  -6.1444
    -6.1402  -6.1402  -6.1168  -6.1168  -6.1069  -6.1069  -6.0934  -6.0878
    -6.0549  -6.0549  -6.0454  -6.0453  -6.0408  -6.0320  -6.0188  -6.0188
    -5.9962  -5.9905  -5.9905  -5.9879  -5.9790  -5.9790  -5.9714  -5.9714
    -5.9690  -5.9690  -5.9559  -5.9476  -5.9409  -5.9144  -5.9144  -5.9063
    -5.9062  -5.9053  -5.8977  -5.8899  -5.8899  -5.8848  -5.8848  -5.8762
    -5.8761  -5.8521  -5.8521  -5.8452  -5.8451  -5.8324  -5.8323  -5.8319
    -5.8312  -5.8275  -5.8275  -5.8073  -5.7955  -5.7955  -5.7925  -5.7713
[...]
     1.0000   1.0000   1.0000   1.0000   1.0000   1.0000   1.0000   1.0000
     1.0000   1.0000   1.0000   1.0000   1.0000   1.0000   1.0000   1.0000
     1.0000   1.0000   1.0000   1.0000   1.0000   1.0000   1.0000   1.0000
     1.0000   1.0000   1.0000   1.0000   1.0000   1.0000   1.0000   1.0000
     1.0000   1.0000   1.0000   1.0000   1.0000   1.0000   1.0000   1.0000
     1.0000   1.0000   1.0000   1.0000   1.0000   1.0000   1.0000   1.0000
     1.0000   1.0000   1.0000   1.0000   1.0000   1.0000   1.0000   1.0000
     1.0000   1.0000   1.0000   1.0000   1.0000   1.0000   1.0000   1.0000
     1.0000   1.0000   1.0000   1.0000   1.0000   1.0000   1.0000   1.0000
     1.0000   1.0000   1.0000   1.0000   1.0000   1.0000   1.0000   1.0000
     1.0000   1.0000   1.0000   1.0000   1.0000   1.0000   1.0000   1.0000
     1.0000   1.0000   1.0000   1.0000   1.0000   1.0000   1.0000   1.0000
     1.0000   1.0000   1.0000   1.0000   1.0000   1.0000   1.0000   1.0000
     1.0000   1.0000   1.0000   1.0000   1.0000   1.0000   1.0000   1.0000
     1.0000   1.0000   1.0000   1.0000   1.0000   1.0000   1.0000   1.0000
     1.0000   1.0000   1.0000   1.0000   1.0000   1.0000   1.0000   1.0000
     1.0000   1.0000   1.0000   1.0000   1.0000   1.0000   1.0000   1.0000
     1.0000   1.0000   1.0000   1.0000   1.0000   1.0000   1.0000   1.0000
     1.0000   1.0000   1.0000   1.0000   1.0000   1.0000   1.0000   1.0000
     1.0000   1.0000   1.0000   1.0000   1.0000   1.0000   1.0000   1.0000
     1.0000   1.0000   1.0000   1.0000   1.0000   1.0000   1.0000   1.0000
     1.0000   1.0000   1.0000   1.0000   1.0000   1.0000   1.0000   1.0000
     1.0000   1.0000   1.0000   1.0000   1.0000   1.0000   1.0000   1.0000
     1.0000   1.0000   1.0000   1.0000   1.0000   1.0000   1.0000   1.0000
     1.0000   1.0000   1.0000   1.0000   1.0000   1.0000   1.0000   1.0000
     1.0000   1.0000   1.0000   1.0000   1.0000   1.0000   1.0000   1.0000
     1.0000   1.0000   1.0000   1.0000   1.0000   1.0000   1.0000   1.0000
     1.0000   1.0000   1.0000   1.0000   1.0000   1.0000   1.0000   1.0000
     1.0000   1.0000   1.0000   1.0000   1.0000   1.0000   1.0000   1.0000
     1.0000   1.0000   1.0000   1.0000   1.0000   1.0000   1.0000   1.0000
     1.0000   1.0000   1.0000   1.0000   1.0000   1.0000   1.0000   1.0000
     1.0000   1.0000   1.0000   1.0000   1.0000   1.0000   1.0000   1.0000
     1.0000   1.0000   1.0000   1.0000   1.0000   1.0000   1.0000   1.0000
     1.0000   1.0000   1.0000   1.0000   1.0000   1.0000   1.0000   1.0000
     1.0000   1.0000   1.0000   1.0000   1.0000   1.0000   1.0000   1.0000
     1.0000   1.0000   1.0000   1.0000   1.0000   1.0000   1.0000   1.0000
     1.0000   1.0000   1.0000   1.0000   1.0000   1.0000   1.0000   1.0000
     1.0000   1.0000   1.0000   1.0000   1.0000   1.0000   1.0000   1.0000
     1.0000   1.0000   1.0000   1.0000   1.0000   1.0000   1.0000   1.0000
     1.0000   1.0000   1.0000   1.0000   1.0000   1.0000   1.0000   1.0000
     1.0000   1.0000   1.0000   1.0000   1.0000   1.0000   1.0000   1.0000
     1.0000   1.0000   1.0000   1.0000   1.0000   1.0000   1.0000   1.0000
     1.0000   1.0000   1.0000   1.0000   1.0000   1.0000   1.0000   1.0000
     1.0000   1.0000   1.0000   1.0000   1.0000   1.0000   1.0000   1.0000
     1.0000   1.0000   1.0000   1.0000   1.0000   1.0000   1.0000   1.0000
     1.0000   1.0000   1.0000   1.0000   1.0000   1.0000   1.0000   1.0000
     1.0000   1.0000   1.0000   1.0000   1.0000   1.0000   1.0000   1.0000
     1.0000   1.0000   1.0000   1.0000   1.0000   1.0000   1.0000   1.0000
     1.0000   1.0000   1.0000   1.0000   1.0000   1.0000   1.0000   1.0000
     1.0000   1.0000   1.0000   1.0000   1.0000   1.0000   1.0000   1.0000
     1.0000   1.0000   1.0000   1.0000   1.0000   1.0000   1.0000   1.0000
     1.0000   1.0000   1.0000   1.0000   1.0000   1.0000   1.0000   1.0000
     1.0000   1.0052   1.0052   1.0159   1.0686   1.0686   1.0778   0.4453
     0.4451   0.0003   0.0003   0.0000   0.0000   0.0000   0.0000   0.0000
     0.0000   0.0000   0.0000   0.0000   0.0000   0.0000   0.0000   0.0000
     0.0000   0.0000   0.0000   0.0000   0.0000   0.0000   0.0000   0.0000
     0.0000   0.0000   0.0000   0.0000   0.0000   0.0000   0.0000   0.0000
     0.0000   0.0000   0.0000   0.0000   0.0000   0.0000   0.0000   0.0000
     0.0000   0.0000   0.0000   0.0000   0.0000   0.0000   0.0000   0.0000
     0.0000   0.0000   0.0000   0.0000   0.0000   0.0000   0.0000   0.0000
     0.0000   0.0000   0.0000   0.0000   0.0000   0.0000   0.0000   0.0000
     0.0000   0.0000   0.0000   0.0000   0.0000   0.0000   0.0000   0.0000
     0.0000   0.0000   0.0000   0.0000   0.0000   0.0000   0.0000   0.0000
     0.0000   0.0000   0.0000   0.0000   0.0000   0.0000   0.0000   0.0000
     0.0000   0.0000   0.0000   0.0000   0.0000   0.0000   0.0000   0.0000

          k =-0.5000-0.8660 0.0000 ( 64842 PWs)   bands (ev):

  -125.0655-125.0654-125.0646-125.0646-125.0634-125.0634-125.0634-125.0634
  -125.0630-125.0630-125.0626-125.0625-125.0625-125.0624-125.0621-125.0621
  -124.8613-124.8613-124.8612-124.8612-124.8604-124.8604-124.8604-124.8604
  -124.8592-124.8592-124.8592-124.8592-124.8591-124.8591-124.8591-124.8591
  -124.8588-124.8588-124.8588-124.8587-124.8583-124.8583-124.8583-124.8583
  -124.8583-124.8582-124.8582-124.8582-124.8579-124.8579-124.8579-124.8579
   -79.2298 -79.2298 -79.2298 -79.2297 -79.2274 -79.2273 -79.2263 -79.2263
   -79.2218 -79.2218 -79.2218 -79.2218 -79.2169 -79.2169 -79.2138 -79.2137
   -79.2127 -79.2127 -79.2114 -79.2114 -79.2113 -79.2113 -79.2110 -79.2109
   -79.2104 -79.2104 -79.2103 -79.2103 -79.2103 -79.2103 -79.2099 -79.2099
   -79.2088 -79.2087 -79.2087 -79.2087 -79.2054 -79.2054 -79.2054 -79.2054
   -79.2046 -79.2045 -79.2018 -79.2018 -79.2008 -79.2008 -79.1979 -79.1978
   -79.0223 -79.0223 -79.0222 -79.0222 -79.0222 -79.0222 -79.0222 -79.0222
   -79.0198 -79.0198 -79.0197 -79.0197 -79.0187 -79.0187 -79.0187 -79.0187
   -79.0179 -79.0178 -79.0177 -79.0177 -79.0169 -79.0169 -79.0168 -79.0168
   -79.0155 -79.0155 -79.0155 -79.0155 -79.0155 -79.0155 -79.0155 -79.0155
   -79.0152 -79.0151 -79.0151 -79.0151 -79.0146 -79.0146 -79.0146 -79.0145
   -79.0145 -79.0145 -79.0145 -79.0145 -79.0142 -79.0142 -79.0142 -79.0142
   -79.0142 -79.0142 -79.0142 -79.0142 -79.0142 -79.0142 -79.0141 -79.0141
   -79.0093 -79.0093 -79.0093 -79.0093 -79.0027 -79.0027 -79.0027 -79.0027
   -79.0012 -79.0012 -79.0012 -79.0012 -79.0012 -79.0012 -79.0012 -79.0012
   -78.9979 -78.9979 -78.9979 -78.9979 -78.9979 -78.9979 -78.9979 -78.9979
   -78.9971 -78.9970 -78.9970 -78.9970 -78.9943 -78.9943 -78.9942 -78.9942
   -78.9933 -78.9933 -78.9933 -78.9933 -78.9904 -78.9904 -78.9904 -78.9903
    -8.1557  -8.1556  -7.3167  -7.3167  -7.0251  -7.0251  -6.8630  -6.8629
    -6.8589  -6.8588  -6.7488  -6.7488  -6.7487  -6.7487  -6.6527  -6.6526
    -6.6462  -6.6462  -6.6462  -6.6462  -6.6236  -6.6236  -6.6060  -6.6060
    -6.6060  -6.6059  -6.5524  -6.5524  -6.5278  -6.5278  -6.5278  -6.5278
    -6.5052  -6.5052  -6.4865  -6.4865  -6.4865  -6.4865  -6.4621  -6.4621
    -6.4621  -6.4621  -6.4597  -6.4596  -6.4486  -6.4486  -6.4252  -6.4252
    -6.4207  -6.4207  -6.4207  -6.4207  -6.3091  -6.3091  -6.3004  -6.3004
    -6.2919  -6.2919  -6.2919  -6.2919  -6.2905  -6.2904  -6.2696  -6.2696
    -6.2695  -6.2695  -6.2350  -6.2349  -6.2201  -6.2201  -6.2201  -6.2201
    -6.2048  -6.2048  -6.1997  -6.1997  -6.1691  -6.1690  -6.1407  -6.1407
    -6.1107  -6.1107  -6.1023  -6.1023  -6.0814  -6.0814  -6.0813  -6.0813
    -6.0605  -6.0605  -6.0605  -6.0605  -6.0408  -6.0408  -6.0312  -6.0312
    -6.0247  -6.0247  -6.0211  -6.0210  -6.0081  -6.0081  -5.9887  -5.9887
    -5.9887  -5.9887  -5.9456  -5.9456  -5.9446  -5.9446  -5.9141  -5.9141
    -5.9042  -5.9042  -5.8707  -5.8706  -5.8706  -5.8706  -5.8138  -5.8137
    -5.8080  -5.8080  -5.8073  -5.8073  -5.8073  -5.8073  -5.8039  -5.8038
    -5.7861  -5.7861  -5.7837  -5.7837  -5.7745  -5.7745  -5.7745  -5.7744
    -5.7665  -5.7665  -5.7661  -5.7661  -5.7661  -5.7661  -5.7547  -5.7547
    -5.7526  -5.7526  -5.7526  -5.7526  -5.6741  -5.6741  -5.6727  -5.6727
    -5.6658  -5.6658  -5.6443  -5.6443  -5.6443  -5.6443  -5.6298  -5.6297
    -5.6225  -5.6225  -5.6033  -5.6033  -5.6033  -5.6033  -5.5931  -5.5931
    -5.5691  -5.5690  -5.5420  -5.5420  -5.5276  -5.5276  -5.5275  -5.5275
    -5.5251  -5.5251  -5.5251  -5.5251  -5.5219  -5.5219  -5.5197  -5.5196
    -5.4977  -5.4977  -5.4977  -5.4977  -5.4877  -5.4877  -5.4869  -5.4868
    -5.4853  -5.4853  -5.4779  -5.4779  -5.4627  -5.4627  -5.4627  -5.4627
    -5.4498  -5.4498  -5.4498  -5.4498  -5.4385  -5.4385  -5.4214  -5.4214
    -5.4143  -5.4143  -5.4143  -5.4142  -5.4111  -5.4111  -5.4102  -5.4102
    -5.4036  -5.4036  -5.4013  -5.4013  -5.3990  -5.3990  -5.3692  -5.3691
    -5.3615  -5.3615  -5.3615  -5.3615  -5.3229  -5.3229  -5.3229  -5.3229
    -5.2530  -5.2530  -5.2529  -5.2529  -5.2342  -5.2342  -5.2330  -5.2330
    -5.2330  -5.2330  -5.2002  -5.2002  -5.1975  -5.1975  -4.7014  -4.7014
    -4.4178  -4.4178  -4.4178  -4.4178  -3.7280  -3.7280  -3.1101  -3.1100
    -3.0612  -3.0612  -3.0612  -3.0612  -2.3910  -2.3910  -2.2395  -2.2395
    -1.7576  -1.7576  -1.7576  -1.7576  -0.7550  -0.7550  -0.7550  -0.7550
    -0.3252  -0.3252  -0.3251  -0.3251  -0.0901  -0.0901   0.0133   0.0133
     1.0215   1.0215   1.0495   1.0495   1.3384   1.3384   1.3702   1.3702
     1.3702   1.3702   2.2239   2.2239   2.9004   2.9004   2.9004   2.9004
     3.1020   3.1020   3.1020   3.1020   3.3226   3.3226   3.5553   3.5553
     3.8670   3.8670   3.8670   3.8670   3.9986   3.9986   4.2583   4.2583
     4.4473   4.4473   4.7462   4.7462   4.8583   4.8583   5.4828   5.4828
     5.5261   5.5262   5.7263   5.7263   5.8014   5.8014   5.9299   5.9299
     5.9300   5.9300   5.9835   5.9835   5.9835   5.9835   6.1541   6.1541
     6.1541   6.1541   6.4276   6.4276   6.5601   6.5601   6.6448   6.6448
     6.6637   6.6637   6.8487   6.8487   6.8668   6.8668   7.0141   7.0141
     7.0141   7.0141   7.5863   7.5863   7.7462   7.7462   8.0648   8.0648
     8.0909   8.0909   8.0909   8.0909   8.2791   8.2792   8.4780   8.4780
     8.4780   8.4780   8.6272   8.6272   8.6272   8.6272   8.6689   8.6689
     8.7369   8.7369   8.8119   8.8119   8.9996   8.9997   8.9997   8.9997

     occupation numbers 
     1.0000   1.0000   1.0000   1.0000   1.0000   1.0000   1.0000   1.0000
     1.0000   1.0000   1.0000   1.0000   1.0000   1.0000   1.0000   1.0000
     1.0000   1.0000   1.0000   1.0000   1.0000   1.0000   1.0000   1.0000
     1.0000   1.0000   1.0000   1.0000   1.0000   1.0000   1.0000   1.0000
     1.0000   1.0000   1.0000   1.0000   1.0000   1.0000   1.0000   1.0000
     1.0000   1.0000   1.0000   1.0000   1.0000   1.0000   1.0000   1.0000
     1.0000   1.0000   1.0000   1.0000   1.0000   1.0000   1.0000   1.0000
     1.0000   1.0000   1.0000   1.0000   1.0000   1.0000   1.0000   1.0000
     1.0000   1.0000   1.0000   1.0000   1.0000   1.0000   1.0000   1.0000
     1.0000   1.0000   1.0000   1.0000   1.0000   1.0000   1.0000   1.0000
     1.0000   1.0000   1.0000   1.0000   1.0000   1.0000   1.0000   1.0000
     1.0000   1.0000   1.0000   1.0000   1.0000   1.0000   1.0000   1.0000
     1.0000   1.0000   1.0000   1.0000   1.0000   1.0000   1.0000   1.0000
     1.0000   1.0000   1.0000   1.0000   1.0000   1.0000   1.0000   1.0000
     1.0000   1.0000   1.0000   1.0000   1.0000   1.0000   1.0000   1.0000
     1.0000   1.0000   1.0000   1.0000   1.0000   1.0000   1.0000   1.0000
     1.0000   1.0000   1.0000   1.0000   1.0000   1.0000   1.0000   1.0000
     1.0000   1.0000   1.0000   1.0000   1.0000   1.0000   1.0000   1.0000
     1.0000   1.0000   1.0000   1.0000   1.0000   1.0000   1.0000   1.0000
     1.0000   1.0000   1.0000   1.0000   1.0000   1.0000   1.0000   1.0000
     1.0000   1.0000   1.0000   1.0000   1.0000   1.0000   1.0000   1.0000
     1.0000   1.0000   1.0000   1.0000   1.0000   1.0000   1.0000   1.0000
     1.0000   1.0000   1.0000   1.0000   1.0000   1.0000   1.0000   1.0000
     1.0000   1.0000   1.0000   1.0000   1.0000   1.0000   1.0000   1.0000
     1.0000   1.0000   1.0000   1.0000   1.0000   1.0000   1.0000   1.0000
     1.0000   1.0000   1.0000   1.0000   1.0000   1.0000   1.0000   1.0000
     1.0000   1.0000   1.0000   1.0000   1.0000   1.0000   1.0000   1.0000
     1.0000   1.0000   1.0000   1.0000   1.0000   1.0000   1.0000   1.0000
     1.0000   1.0000   1.0000   1.0000   1.0000   1.0000   1.0000   1.0000
     1.0000   1.0000   1.0000   1.0000   1.0000   1.0000   1.0000   1.0000
     1.0000   1.0000   1.0000   1.0000   1.0000   1.0000   1.0000   1.0000
     1.0000   1.0000   1.0000   1.0000   1.0000   1.0000   1.0000   1.0000
     1.0000   1.0000   1.0000   1.0000   1.0000   1.0000   1.0000   1.0000
     1.0000   1.0000   1.0000   1.0000   1.0000   1.0000   1.0000   1.0000
     1.0000   1.0000   1.0000   1.0000   1.0000   1.0000   1.0000   1.0000
     1.0000   1.0000   1.0000   1.0000   1.0000   1.0000   1.0000   1.0000
     1.0000   1.0000   1.0000   1.0000   1.0000   1.0000   1.0000   1.0000
     1.0000   1.0000   1.0000   1.0000   1.0000   1.0000   1.0000   1.0000
     1.0000   1.0000   1.0000   1.0000   1.0000   1.0000   1.0000   1.0000
     1.0000   1.0000   1.0000   1.0000   1.0000   1.0000   1.0000   1.0000
     1.0000   1.0000   1.0000   1.0000   1.0000   1.0000   1.0000   1.0000
     1.0000   1.0000   1.0000   1.0000   1.0000   1.0000   1.0000   1.0000
     1.0000   1.0000   1.0000   1.0000   1.0000   1.0000   1.0000   1.0000
     1.0000   1.0000   1.0000   1.0000   1.0000   1.0000   1.0000   1.0000
     1.0000   1.0000   1.0000   1.0000   1.0000   1.0000   1.0000   1.0000
     1.0000   1.0000   1.0000   1.0000   1.0000   1.0000   1.0000   1.0000
     1.0000   1.0000   1.0000   1.0000   1.0000   1.0000   1.0000   1.0000
     1.0000   1.0000   1.0000   1.0000   1.0000   1.0000   1.0000   1.0000
     1.0000   1.0000   1.0000   1.0000   1.0000   1.0000   1.0000   1.0000
     1.0000   1.0000   1.0000   1.0000   1.0000   1.0000   1.0000   1.0000
     1.0000   1.0000   1.0000   1.0000   1.0000   1.0000   1.0000   1.0000
     1.0000   1.0000   1.0000   1.0000   1.0000   1.0000   1.0000   1.0000
     1.0000   1.0000   1.0000   1.0000   1.0000   1.0000   1.0000   1.0000
     1.0000   1.0000   1.0000   1.0000   1.0000   1.0000   1.0000   1.0000
     1.0000   1.0000   1.0000   1.0000   1.0000   1.0000   1.0000   1.0000
     1.0000   1.0000   1.0000   1.0000   1.0000   1.0000   1.0000   1.0000
     1.0000   1.0000   1.0000   1.0000   1.0000   1.0000   1.0000   1.0000
     1.0000   1.0000   1.0000   1.0000   1.0000   1.0000   1.0000   1.0000
     1.0000   1.0000   1.0000   1.0000   1.0000   1.0000   1.0000   1.0000
     1.0812   1.0812   1.0833   1.0833   0.6568   0.6568   0.5691   0.5690
     0.5690   0.5690   0.0000   0.0000   0.0000   0.0000   0.0000   0.0000
     0.0000   0.0000   0.0000   0.0000   0.0000   0.0000   0.0000   0.0000
     0.0000   0.0000   0.0000   0.0000   0.0000   0.0000   0.0000   0.0000
     0.0000   0.0000   0.0000   0.0000   0.0000   0.0000   0.0000   0.0000
     0.0000   0.0000   0.0000   0.0000   0.0000   0.0000   0.0000   0.0000
     0.0000   0.0000   0.0000   0.0000   0.0000   0.0000   0.0000   0.0000
     0.0000   0.0000   0.0000   0.0000   0.0000   0.0000   0.0000   0.0000
     0.0000   0.0000   0.0000   0.0000   0.0000   0.0000   0.0000   0.0000
     0.0000   0.0000   0.0000   0.0000   0.0000   0.0000   0.0000   0.0000
     0.0000   0.0000   0.0000   0.0000   0.0000   0.0000   0.0000   0.0000
     0.0000   0.0000   0.0000   0.0000   0.0000   0.0000   0.0000   0.0000
     0.0000   0.0000   0.0000   0.0000   0.0000   0.0000   0.0000   0.0000

     the Fermi energy is     1.4333 ev

!    total energy              =  -22154.25533485 Ry
     estimated scf accuracy    <       0.00000083 Ry
     smearing contrib. (-TS)   =       0.00133651 Ry
     internal energy E=F+TS    =  -22154.25667135 Ry

     The total energy is F=E-TS. E is the sum of the following terms:
     one-electron contribution = -144865.23129314 Ry
     hartree contribution      =   72365.86084078 Ry
     xc contribution           =   -2024.13416270 Ry
     ewald contribution        =   52369.24794370 Ry

     convergence has been achieved in  10 iterations

     Writing all to output data dir ./tmp/Zn002.save/ :
     XML data file, charge density, pseudopotentials, collected wavefunctions

     init_run     :    116.25s CPU    117.04s WALL (       1 calls)
     electrons    :   7993.12s CPU   8058.02s WALL (       1 calls)

     Called by init_run:
     wfcinit      :    114.95s CPU    115.69s WALL (       1 calls)
     wfcinit:atom :      0.06s CPU      0.11s WALL (      10 calls)
     wfcinit:wfcr :    113.82s CPU    114.41s WALL (      10 calls)
     potinit      :      0.08s CPU      0.09s WALL (       1 calls)
     hinit0       :      0.03s CPU      0.03s WALL (       1 calls)

     Called by electrons:
     c_bands      :   7653.32s CPU   7713.98s WALL (      11 calls)
     sum_band     :    313.89s CPU    316.93s WALL (      11 calls)
     v_of_rho     :      0.76s CPU      0.79s WALL (      11 calls)
     v_h          :      0.05s CPU      0.05s WALL (      11 calls)
     v_xc         :      0.71s CPU      0.74s WALL (      11 calls)
     newd         :     25.88s CPU     27.01s WALL (      11 calls)
     mix_rho      :      0.09s CPU      0.10s WALL (      11 calls)

     Called by c_bands:
     init_us_2    :      4.23s CPU      4.26s WALL (     230 calls)
     cegterg      :   7644.32s CPU   7704.77s WALL (     110 calls)

     Called by sum_band:
     sum_band:wei :      0.05s CPU      0.05s WALL (      11 calls)
     sum_band:loo :    299.74s CPU    301.27s WALL (      11 calls)
     sum_band:buf :      0.92s CPU      0.96s WALL (     110 calls)
     sum_band:ini :      2.04s CPU      2.05s WALL (     110 calls)
     sum_band:cal :    255.13s CPU    256.28s WALL (     110 calls)
     sum_band:bec :      2.25s CPU      2.25s WALL (     110 calls)
     addusdens    :     12.44s CPU     13.91s WALL (      11 calls)
                                        0.00s GPU  (      11 calls)
     addusd:skk   :      0.09s CPU      0.20s WALL (      11 calls)
                                        0.00s GPU  (      11 calls)

     Called by *egterg:
     cdiaghg      :    303.96s CPU    314.77s WALL (     676 calls)
     cegterg:over :   1853.70s CPU   1861.22s WALL (     576 calls)
     cegterg:upda :    529.56s CPU    534.08s WALL (     576 calls)
     cegterg:last :   2837.04s CPU   2854.29s WALL (     210 calls)
     cdiaghg:chol :     18.69s CPU     18.74s WALL (     676 calls)
     cdiaghg:inve :      2.91s CPU      2.92s WALL (     676 calls)
     cdiaghg:para :     77.40s CPU     78.88s WALL (    1352 calls)
     h_psi        :   1362.28s CPU   1371.91s WALL (     696 calls)
     s_psi        :    564.73s CPU    566.14s WALL (     696 calls)
     g_psi        :      0.76s CPU      0.80s WALL (     576 calls)

     Called by h_psi:
     h_psi:calbec :    613.84s CPU    616.81s WALL (     696 calls)
     vloc_psi     :    178.05s CPU    179.43s WALL (     696 calls)
     add_vuspsi   :    568.55s CPU    570.10s WALL (     696 calls)

     General routines
     calbec       :    868.97s CPU    873.09s WALL (     806 calls)
     fft          :      2.00s CPU      2.06s WALL (     141 calls)
     ffts         :      0.02s CPU      0.03s WALL (      22 calls)
     fftw         :    189.04s CPU    190.45s WALL (  370798 calls)
     interpolate  :      0.05s CPU      0.05s WALL (      11 calls)

     Parallel routines

     PWSCF        :      2h15m CPU      2h16m WALL


   This run was terminated on:   0:43:25  27Mar2025            

=------------------------------------------------------------------------------=
   JOB DONE.
=------------------------------------------------------------------------------=
