--------------------------------------------------------------------------
By default, for Open MPI 4.0 and later, infiniband ports on a device
are not used by default.  The intent is to use UCX for these devices.
You can override this policy by setting the btl_openib_allow_ib MCA parameter
to true.

  Local host:              psid03
  Local adapter:           mlx5_0
  Local port:              1

--------------------------------------------------------------------------
--------------------------------------------------------------------------
WARNING: There was an error initializing an OpenFabrics device.

  Local host:   psid03
  Local device: mlx5_0
--------------------------------------------------------------------------

     Program PWSCF v.7.3.1 starts on 17Mar2025 at 11: 0:49 

     This program is part of the open-source Quantum ESPRESSO suite
     for quantum simulation of materials; please cite
         "P. Giannozzi et al., J. Phys.:Condens. Matter 21 395502 (2009);
         "P. Giannozzi et al., J. Phys.:Condens. Matter 29 465901 (2017);
         "P. Giannozzi et al., J. Chem. Phys. 152 154105 (2020);
          URL http://www.quantum-espresso.org", 
     in publications or presentations arising from this work. More details at
     http://www.quantum-espresso.org/quote

     Parallel version (MPI), running on    30 processors

     MPI processes distributed on     1 nodes
     115175 MiB available memory on the printing compute node when the environment starts

     Waiting for input...
     Reading input from standard input

     Current dimensions of program PWSCF are:
     Max number of different atomic species (ntypx) = 10
     Max number of k-points (npk) =  40000
     Max angular momentum in pseudopotentials (lmaxx) =  4
     file O.pbe-n-kjpaw_psl.0.1.UPF: wavefunction(s)  2P renormalized

     R & G space division:  proc/nbgrp/npool/nimage =      30
     Subspace diagonalization in iterative solution of the eigenvalue problem:
     one sub-group per band group will be used
     custom distributed-memory algorithm (size of sub-group:  4*  4 procs)


     Parallelization info
     --------------------
     sticks:   dense  smooth     PW     G-vecs:    dense   smooth      PW
     Min          96      96     26                12619    12619    1765
     Max          97      97     27                12634    12634    1778
     Sum        2903    2903    785               378759   378759   53071

     Using Slab Decomposition



     bravais-lattice index     =            0
     lattice parameter (alat)  =      18.4179  a.u.
     unit-cell volume          =    7929.1084 (a.u.)^3
     number of atoms/cell      =           35
     number of atomic types    =            3
     number of electrons       =       648.00
     number of Kohn-Sham states=          389
     kinetic-energy cutoff     =      50.0000  Ry
     charge density cutoff     =     200.0000  Ry
     scf convergence threshold =      7.3E-07
     mixing beta               =       0.7000
     number of iterations used =            8  plain     mixing
     Exchange-correlation= SLA  PW   PBX  PBC
                           (   1   4   3   4   0   0   0)

     celldm(1)=  18.417879  celldm(2)=   0.000000  celldm(3)=   0.000000
     celldm(4)=   0.000000  celldm(5)=   0.000000  celldm(6)=   0.000000

     crystal axes: (cart. coord. in units of alat)
               a(1) = (   1.000000   0.000000   0.000000 )  
               a(2) = (   0.000000   0.536481   0.000000 )  
               a(3) = (   0.000000  -1.365810   2.365652 )  

     reciprocal axes: (cart. coord. in units 2 pi/alat)
               b(1) = (  1.000000  0.000000 -0.000000 )  
               b(2) = ( -0.000000  1.863998  1.076180 )  
               b(3) = (  0.000000  0.000000  0.422716 )  


     PseudoPot. # 1 for Zn read from file:
     /home/ys/qepseudo/SSSP_1.3.0_PBE_efficiency/Zn_pbe_v1.uspp.F.UPF
     MD5 check sum: df62231357ef9e81f77b2b3087fa5675
     Pseudo is Ultrasoft, Zval = 20.0
     Generated by new atomic code, or converted to UPF format
     Using radial grid of  943 points,  6 beta functions with: 
                l(1) =   0
                l(2) =   0
                l(3) =   1
                l(4) =   1
                l(5) =   2
                l(6) =   2
     Q(r) pseudized with  8 coefficients,  rinner =    1.100   1.100   1.100
                                                       1.100   1.100

     PseudoPot. # 2 for H  read from file:
     /home/ys/qepseudo/SSSP_1.3.0_PBE_efficiency/H.pbe-rrkjus_psl.1.0.0.UPF
     MD5 check sum: f52b6d4d1c606e5624b1dc7b2218f220
     Pseudo is Ultrasoft, Zval =  1.0
     Generated using "atomic" code by A. Dal Corso  v.5.1
     Using radial grid of  929 points,  2 beta functions with: 
                l(1) =   0
                l(2) =   0
     Q(r) pseudized with 0 coefficients 


     PseudoPot. # 3 for O  read from file:
     /home/ys/qepseudo/SSSP_1.3.0_PBE_efficiency/O.pbe-n-kjpaw_psl.0.1.UPF
     MD5 check sum: 0234752ac141de4415c5fc33072bef88
     Pseudo is Projector augmented-wave + core cor, Zval =  6.0
     Generated using "atomic" code by A. Dal Corso  v.5.0.99 svn rev. 10869
     Shape of augmentation charge: BESSEL
     Using radial grid of 1095 points,  4 beta functions with: 
                l(1) =   0
                l(2) =   0
                l(3) =   1
                l(4) =   1
     Q(r) pseudized with 0 coefficients 


     atomic species   valence    mass     pseudopotential
     Zn               20.00    65.38000     Zn( 1.00)
     H                 1.00     1.00800     H ( 1.00)
     O                 6.00    16.00000     O ( 1.00)

     No symmetry found


                                    s                        frac. trans.

      isym =  1     identity                                     

 cryst.   s( 1) = (     1          0          0      )
                  (     0          1          0      )
                  (     0          0          1      )

 cart.    s( 1) = (  1.0000000  0.0000000  0.0000000 )
                  (  0.0000000  1.0000000 -0.0000000 )
                  (  0.0000000  0.0000000  1.0000000 )


   Cartesian axes

     site n.     atom                  positions (alat units)
         1        Zn     tau(   1) = (   0.1250000   0.1341203   0.0774344  )
         2        Zn     tau(   2) = (   0.1250000   0.0000000   0.3097376  )
         3        Zn     tau(   3) = (   0.1343397  -0.1345274   0.5805468  )
         4        Zn     tau(   4) = (   0.1291554  -0.2692580   0.8497966  )
         5        Zn     tau(   5) = (   0.1250000   0.4023610   0.0774344  )
         6        Zn     tau(   6) = (   0.1250000   0.2682407   0.3097376  )
         7        Zn     tau(   7) = (   0.1337327   0.1336999   0.5790179  )
         8        Zn     tau(   8) = (   0.1290862  -0.0009922   0.8508350  )
         9        Zn     tau(   9) = (   0.6250000   0.1341203   0.0774344  )
        10        Zn     tau(  10) = (   0.6250000   0.0000000   0.3097376  )
        11        Zn     tau(  11) = (   0.6323747  -0.1346284   0.5791868  )
        12        Zn     tau(  12) = (   0.6290067  -0.2695517   0.8455785  )
        13        Zn     tau(  13) = (   0.6250000   0.4023610   0.0774344  )
        14        Zn     tau(  14) = (   0.6250000   0.2682407   0.3097376  )
        15        Zn     tau(  15) = (   0.6327184   0.1334884   0.5777516  )
        16        Zn     tau(  16) = (   0.6289059  -0.0012852   0.8476740  )
        17        Zn     tau(  17) = (   0.3750000  -0.0000000   0.1548688  )
        18        Zn     tau(  18) = (   0.3750000  -0.1341203   0.3871721  )
        19        Zn     tau(  19) = (   0.3846949  -0.2697706   0.6247793  )
        20        Zn     tau(  20) = (   0.3776198  -0.4045250   0.8823751  )
        21        Zn     tau(  21) = (   0.3750000   0.2682407   0.1548688  )
        22        Zn     tau(  22) = (   0.3750000   0.1341203   0.3871721  )
        23        Zn     tau(  23) = (   0.3846771  -0.0000287   0.6245737  )
        24        Zn     tau(  24) = (   0.3781620  -0.1356147   0.8652827  )
        25        Zn     tau(  25) = (   0.8750000  -0.0000000   0.1548688  )
        26        Zn     tau(  26) = (   0.8750000  -0.1341203   0.3871721  )
        27        Zn     tau(  27) = (   0.8849150  -0.2686372   0.6228177  )
        28        Zn     tau(  28) = (   0.8789953  -0.4032605   0.8685287  )
        29        Zn     tau(  29) = (   0.8750000   0.2682407   0.1548688  )
        30        Zn     tau(  30) = (   0.8750000   0.1341203   0.3871721  )
        31        Zn     tau(  31) = (   0.8853156  -0.0002946   0.6226100  )
        32        Zn     tau(  32) = (   0.8787841  -0.1349676   0.8683252  )
        33        O      tau(  33) = (   0.4015615  -0.3953522   1.1446179  )
        34        H      tau(  34) = (   0.4878306  -0.3430624   1.1444687  )
        35        H      tau(  35) = (   0.3323600  -0.3277962   1.1730610  )

   Crystallographic axes

     site n.     atom                  positions (cryst. coord.)
         1        Zn     tau(   1) = (  0.1250000  0.3333333  0.0327328  )
         2        Zn     tau(   2) = (  0.1250000  0.3333333  0.1309312  )
         3        Zn     tau(   3) = (  0.1343397  0.3740138  0.2454066  )
         4        Zn     tau(   4) = (  0.1291554  0.4126376  0.3592230  )
         5        Zn     tau(   5) = (  0.1250000  0.8333333  0.0327328  )
         6        Zn     tau(   6) = (  0.1250000  0.8333333  0.1309312  )
         7        Zn     tau(   7) = (  0.1337327  0.8723435  0.2447604  )
         8        Zn     tau(   8) = (  0.1290862  0.9138018  0.3596619  )
         9        Zn     tau(   9) = (  0.6250000  0.3333333  0.0327328  )
        10        Zn     tau(  10) = (  0.6250000  0.3333333  0.1309312  )
        11        Zn     tau(  11) = (  0.6323747  0.3723621  0.2448318  )
        12        Zn     tau(  12) = (  0.6290067  0.4075506  0.3574399  )
        13        Zn     tau(  13) = (  0.6250000  0.8333333  0.0327328  )
        14        Zn     tau(  14) = (  0.6250000  0.8333333  0.1309312  )
        15        Zn     tau(  15) = (  0.6327184  0.8705864  0.2442251  )
        16        Zn     tau(  16) = (  0.6289059  0.9098539  0.3583257  )
        17        Zn     tau(  17) = (  0.3750000  0.1666667  0.0654656  )
        18        Zn     tau(  18) = (  0.3750000  0.1666667  0.1636640  )
        19        Zn     tau(  19) = (  0.3846949  0.1695230  0.2641044  )
        20        Zn     tau(  20) = (  0.3776198  0.1955604  0.3729944  )
        21        Zn     tau(  21) = (  0.3750000  0.6666667  0.0654656  )
        22        Zn     tau(  22) = (  0.3750000  0.6666667  0.1636640  )
        23        Zn     tau(  23) = (  0.3846771  0.6721001  0.2640176  )
        24        Zn     tau(  24) = (  0.3781620  0.6784142  0.3657692  )
        25        Zn     tau(  25) = (  0.8750000  0.1666667  0.0654656  )
        26        Zn     tau(  26) = (  0.8750000  0.1666667  0.1636640  )
        27        Zn     tau(  27) = (  0.8849150  0.1695245  0.2632752  )
        28        Zn     tau(  28) = (  0.8789953  0.1830161  0.3671413  )
        29        Zn     tau(  29) = (  0.8750000  0.6666667  0.0654656  )
        30        Zn     tau(  30) = (  0.8750000  0.6666667  0.1636640  )
        31        Zn     tau(  31) = (  0.8853156  0.6694910  0.2631874  )
        32        Zn     tau(  32) = (  0.8787841  0.6828946  0.3670553  )
        33        O      tau(  33) = (  0.4015615  0.4948788  0.4838487  )
        34        H      tau(  34) = (  0.4878306  0.5921863  0.4837857  )
        35        H      tau(  35) = (  0.3323600  0.6514130  0.4958721  )

     number of k points=     5  Marzari-Vanderbilt smearing, width (Ry)=  0.0200
                       cart. coord. in units 2pi/alat
        k(    1) = (   0.0000000   0.0000000   0.0000000), wk =   0.2222222
        k(    2) = (   0.0000000   0.6213326   0.3587265), wk =   0.4444444
        k(    3) = (   0.3333333   0.0000000   0.0000000), wk =   0.4444444
        k(    4) = (   0.3333333   0.6213326   0.3587265), wk =   0.4444444
        k(    5) = (   0.3333333  -0.6213326  -0.3587265), wk =   0.4444444

                       cryst. coord.
        k(    1) = (   0.0000000   0.0000000   0.0000000), wk =   0.2222222
        k(    2) = (   0.0000000   0.3333333   0.0000000), wk =   0.4444444
        k(    3) = (   0.3333333   0.0000000   0.0000000), wk =   0.4444444
        k(    4) = (   0.3333333   0.3333333   0.0000000), wk =   0.4444444
        k(    5) = (   0.3333333  -0.3333333   0.0000000), wk =   0.4444444

     Dense  grid:   378759 G-vectors     FFT dimensions: (  90,  45, 240)

     Dynamical RAM for                 wfc:       9.37 MB

     Dynamical RAM for     wfc (w. buffer):      56.20 MB

     Dynamical RAM for           str. fact:       0.58 MB

     Dynamical RAM for           local pot:       0.00 MB

     Dynamical RAM for          nlocal pot:      14.16 MB

     Dynamical RAM for                qrad:       3.41 MB

     Dynamical RAM for          rho,v,vnew:       1.32 MB

     Dynamical RAM for               rhoin:       0.44 MB

     Dynamical RAM for            rho*nmix:       3.08 MB

     Dynamical RAM for           G-vectors:       0.82 MB

     Dynamical RAM for          h,s,v(r/c):       1.72 MB

     Dynamical RAM for          <psi|beta>:       3.49 MB

     Dynamical RAM for                 psi:      18.73 MB

     Dynamical RAM for                hpsi:      18.73 MB

     Dynamical RAM for                spsi:      18.73 MB

     Dynamical RAM for      wfcinit/wfcrot:      24.40 MB

     Dynamical RAM for           addusdens:      42.00 MB

     Dynamical RAM for          addusforce:      54.16 MB

     Dynamical RAM for         addusstress:      38.72 MB

     Estimated static dynamical RAM per process >      78.93 MB

     Estimated max dynamical RAM per process >     143.42 MB

     Estimated total dynamical RAM >       4.20 GB

     Check: negative core charge=   -0.000002

     Initial potential from superposition of free atoms

     starting charge     647.9955, renormalised to     648.0000

     negative rho (up, down):  4.135E-03 0.000E+00
     Starting wfcs are  422 randomized atomic wfcs
[psid03:78782] 29 more processes have sent help message help-mpi-btl-openib.txt / ib port not selected
[psid03:78782] Set MCA parameter "orte_base_help_aggregate" to 0 to see all help / error messages
[psid03:78782] 29 more processes have sent help message help-mpi-btl-openib.txt / error in device init
     Checking if some PAW data can be deallocated... 
       PAW data deallocated on   29 nodes for type:  3

     total cpu time spent up to now is       19.6 secs

     Self-consistent Calculation

     iteration #  1     ecut=    50.00 Ry     beta= 0.70
     Davidson diagonalization with overlap

---- Real-time Memory Report at c_bands before calling an iterative solver
           127 MiB given to the printing process from OS
             0 MiB allocation reported by mallinfo(arena+hblkhd)
        112479 MiB available memory on the node where the printing process lives
------------------
     ethr =  1.00E-02,  avg # of iterations =  7.4

     Threshold (ethr) on eigenvalues was too large:
     Diagonalizing with lowered threshold

     Davidson diagonalization with overlap

---- Real-time Memory Report at c_bands before calling an iterative solver
           175 MiB given to the printing process from OS
             0 MiB allocation reported by mallinfo(arena+hblkhd)
        111769 MiB available memory on the node where the printing process lives
------------------
     ethr =  2.02E-04,  avg # of iterations =  4.6

     negative rho (up, down):  3.893E-03 0.000E+00

     total cpu time spent up to now is      162.0 secs

     total energy              =  -14812.87948937 Ry
     estimated scf accuracy    <       1.32285280 Ry

     iteration #  2     ecut=    50.00 Ry     beta= 0.70
     Davidson diagonalization with overlap

---- Real-time Memory Report at c_bands before calling an iterative solver
           175 MiB given to the printing process from OS
             0 MiB allocation reported by mallinfo(arena+hblkhd)
        111771 MiB available memory on the node where the printing process lives
------------------
     ethr =  2.04E-04,  avg # of iterations =  7.4

     negative rho (up, down):  3.730E-03 0.000E+00

     total cpu time spent up to now is      261.9 secs

     total energy              =  -14812.20686868 Ry
     estimated scf accuracy    <       5.69009132 Ry

     iteration #  3     ecut=    50.00 Ry     beta= 0.70
     Davidson diagonalization with overlap

---- Real-time Memory Report at c_bands before calling an iterative solver
           176 MiB given to the printing process from OS
             0 MiB allocation reported by mallinfo(arena+hblkhd)
        111749 MiB available memory on the node where the printing process lives
------------------
     ethr =  2.04E-04,  avg # of iterations =  9.6

     negative rho (up, down):  3.523E-03 0.000E+00

     total cpu time spent up to now is      358.6 secs

     total energy              =  -14810.99281863 Ry
     estimated scf accuracy    <      61.70168400 Ry

     iteration #  4     ecut=    50.00 Ry     beta= 0.70
     Davidson diagonalization with overlap

---- Real-time Memory Report at c_bands before calling an iterative solver
           177 MiB given to the printing process from OS
             0 MiB allocation reported by mallinfo(arena+hblkhd)
        111731 MiB available memory on the node where the printing process lives
------------------
     ethr =  2.04E-04,  avg # of iterations =  8.2

     negative rho (up, down):  3.523E-03 0.000E+00

     total cpu time spent up to now is      435.4 secs

     total energy              =  -14813.48086070 Ry
     estimated scf accuracy    <       0.07159312 Ry

     iteration #  5     ecut=    50.00 Ry     beta= 0.70
     Davidson diagonalization with overlap

---- Real-time Memory Report at c_bands before calling an iterative solver
           177 MiB given to the printing process from OS
             0 MiB allocation reported by mallinfo(arena+hblkhd)
        111714 MiB available memory on the node where the printing process lives
------------------
     c_bands:  1 eigenvalues not converged
     ethr =  1.10E-05,  avg # of iterations = 15.0

     negative rho (up, down):  3.562E-03 0.000E+00

     total cpu time spent up to now is      534.6 secs

     total energy              =  -14813.46696530 Ry
     estimated scf accuracy    <       0.23264088 Ry

     iteration #  6     ecut=    50.00 Ry     beta= 0.70
     Davidson diagonalization with overlap

---- Real-time Memory Report at c_bands before calling an iterative solver
           178 MiB given to the printing process from OS
             0 MiB allocation reported by mallinfo(arena+hblkhd)
        111700 MiB available memory on the node where the printing process lives
------------------
     ethr =  1.10E-05,  avg # of iterations = 14.4

     negative rho (up, down):  3.575E-03 0.000E+00

     total cpu time spent up to now is      612.3 secs

     total energy              =  -14813.49042345 Ry
     estimated scf accuracy    <       0.09501129 Ry

     iteration #  7     ecut=    50.00 Ry     beta= 0.70
     Davidson diagonalization with overlap

---- Real-time Memory Report at c_bands before calling an iterative solver
           178 MiB given to the printing process from OS
             0 MiB allocation reported by mallinfo(arena+hblkhd)
        111684 MiB available memory on the node where the printing process lives
------------------
     ethr =  1.10E-05,  avg # of iterations =  3.0

     negative rho (up, down):  3.597E-03 0.000E+00

     total cpu time spent up to now is      676.4 secs

     total energy              =  -14813.49954644 Ry
     estimated scf accuracy    <       0.00935755 Ry

     iteration #  8     ecut=    50.00 Ry     beta= 0.70
     Davidson diagonalization with overlap

---- Real-time Memory Report at c_bands before calling an iterative solver
           179 MiB given to the printing process from OS
             0 MiB allocation reported by mallinfo(arena+hblkhd)
        111670 MiB available memory on the node where the printing process lives
------------------
     ethr =  1.44E-06,  avg # of iterations =  5.2

     negative rho (up, down):  3.618E-03 0.000E+00

     total cpu time spent up to now is      742.1 secs

     total energy              =  -14813.50090877 Ry
     estimated scf accuracy    <       0.00186246 Ry

     iteration #  9     ecut=    50.00 Ry     beta= 0.70
     Davidson diagonalization with overlap

---- Real-time Memory Report at c_bands before calling an iterative solver
           179 MiB given to the printing process from OS
             0 MiB allocation reported by mallinfo(arena+hblkhd)
        111656 MiB available memory on the node where the printing process lives
------------------
     ethr =  2.87E-07,  avg # of iterations =  2.2

     negative rho (up, down):  3.630E-03 0.000E+00

     total cpu time spent up to now is      803.2 secs

     total energy              =  -14813.50114551 Ry
     estimated scf accuracy    <       0.00096533 Ry

     iteration # 10     ecut=    50.00 Ry     beta= 0.70
     Davidson diagonalization with overlap

---- Real-time Memory Report at c_bands before calling an iterative solver
           180 MiB given to the printing process from OS
             0 MiB allocation reported by mallinfo(arena+hblkhd)
        111640 MiB available memory on the node where the printing process lives
------------------
     ethr =  1.49E-07,  avg # of iterations =  2.0

     negative rho (up, down):  3.637E-03 0.000E+00

     total cpu time spent up to now is      863.9 secs

     total energy              =  -14813.50127229 Ry
     estimated scf accuracy    <       0.00006975 Ry

     iteration # 11     ecut=    50.00 Ry     beta= 0.70
     Davidson diagonalization with overlap

---- Real-time Memory Report at c_bands before calling an iterative solver
           180 MiB given to the printing process from OS
             0 MiB allocation reported by mallinfo(arena+hblkhd)
        111625 MiB available memory on the node where the printing process lives
------------------
     ethr =  1.08E-08,  avg # of iterations =  2.0

     negative rho (up, down):  3.641E-03 0.000E+00

     total cpu time spent up to now is      930.1 secs

     total energy              =  -14813.50128647 Ry
     estimated scf accuracy    <       0.00003218 Ry

     iteration # 12     ecut=    50.00 Ry     beta= 0.70
     Davidson diagonalization with overlap

---- Real-time Memory Report at c_bands before calling an iterative solver
           180 MiB given to the printing process from OS
             0 MiB allocation reported by mallinfo(arena+hblkhd)
        111626 MiB available memory on the node where the printing process lives
------------------
     ethr =  4.97E-09,  avg # of iterations =  2.0

     negative rho (up, down):  3.643E-03 0.000E+00

     total cpu time spent up to now is      991.0 secs

     total energy              =  -14813.50129111 Ry
     estimated scf accuracy    <       0.00000320 Ry

     iteration # 13     ecut=    50.00 Ry     beta= 0.70
     Davidson diagonalization with overlap

---- Real-time Memory Report at c_bands before calling an iterative solver
           180 MiB given to the printing process from OS
             0 MiB allocation reported by mallinfo(arena+hblkhd)
        111626 MiB available memory on the node where the printing process lives
------------------
     ethr =  4.94E-10,  avg # of iterations =  2.0

     negative rho (up, down):  3.643E-03 0.000E+00

     total cpu time spent up to now is     1063.8 secs

     total energy              =  -14813.50129129 Ry
     estimated scf accuracy    <       0.00000651 Ry

     iteration # 14     ecut=    50.00 Ry     beta= 0.70
     Davidson diagonalization with overlap

---- Real-time Memory Report at c_bands before calling an iterative solver
           180 MiB given to the printing process from OS
             0 MiB allocation reported by mallinfo(arena+hblkhd)
        111625 MiB available memory on the node where the printing process lives
------------------
     ethr =  4.94E-10,  avg # of iterations =  1.0

     negative rho (up, down):  3.644E-03 0.000E+00

     total cpu time spent up to now is     1114.2 secs

     total energy              =  -14813.50129177 Ry
     estimated scf accuracy    <       0.00000437 Ry

     iteration # 15     ecut=    50.00 Ry     beta= 0.70
     Davidson diagonalization with overlap

---- Real-time Memory Report at c_bands before calling an iterative solver
           180 MiB given to the printing process from OS
             0 MiB allocation reported by mallinfo(arena+hblkhd)
        111623 MiB available memory on the node where the printing process lives
------------------
     ethr =  4.94E-10,  avg # of iterations =  1.0

     negative rho (up, down):  3.644E-03 0.000E+00

     total cpu time spent up to now is     1164.6 secs

     End of self-consistent calculation

          k = 0.0000 0.0000 0.0000 ( 47357 PWs)   bands (ev):

  -123.2309-123.2274-123.2202-123.2097-123.1731-123.1705-123.1577-123.1562
  -123.1558-123.1546-123.1544-123.1528-122.9991-122.9970-122.9926-122.9907
  -122.9744-122.9727-122.9726-122.9708-122.9555-122.9538-122.9459-122.9439
  -122.8892-122.8711-122.8667-122.8147-122.7726-122.7679-122.7614-122.7583
   -77.3963 -77.3858 -77.3829 -77.3823 -77.3749 -77.3734 -77.3713 -77.3699
   -77.3643 -77.3636 -77.3561 -77.3528 -77.3392 -77.3242 -77.3235 -77.3224
   -77.3219 -77.3194 -77.3174 -77.3152 -77.3145 -77.3104 -77.3081 -77.3080
   -77.3075 -77.3069 -77.3062 -77.3054 -77.3054 -77.3050 -77.3032 -77.3016
   -77.2995 -77.2993 -77.2979 -77.2949 -77.1619 -77.1566 -77.1554 -77.1547
   -77.1503 -77.1485 -77.1449 -77.1423 -77.1384 -77.1376 -77.1362 -77.1354
   -77.1336 -77.1318 -77.1312 -77.1301 -77.1272 -77.1269 -77.1255 -77.1253
   -77.1252 -77.1250 -77.1235 -77.1233 -77.1208 -77.1187 -77.1111 -77.1092
   -77.1079 -77.1059 -77.0943 -77.0928 -77.0852 -77.0834 -77.0824 -77.0803
   -77.0591 -77.0402 -77.0375 -77.0356 -77.0281 -77.0257 -77.0111 -77.0061
   -77.0034 -76.9737 -76.9687 -76.9666 -76.9344 -76.9297 -76.9246 -76.9231
   -76.9214 -76.9204 -76.9200 -76.9192 -76.9142 -76.9110 -76.8945 -76.8937
   -18.7025  -6.5534  -6.4290  -5.6048  -5.4653  -5.1864  -5.0089  -4.9398
    -4.9051  -4.8654  -4.8296  -4.8288  -4.8259  -4.8154  -4.8070  -4.8020
    -4.7977  -4.7571  -4.7567  -4.6723  -4.6626  -4.6543  -4.6538  -4.6488
    -4.6199  -4.6151  -4.6077  -4.6056  -4.5640  -4.5530  -4.5443  -4.5135
    -4.5017  -4.4803  -4.4668  -4.4665  -4.4592  -4.4203  -4.3813  -4.3785
    -4.3613  -4.3597  -4.3374  -4.3263  -4.3195  -4.3161  -4.3021  -4.2843
    -4.2799  -4.2582  -4.2515  -4.2450  -4.2432  -4.2351  -4.2004  -4.1995
    -4.1900  -4.1335  -4.1238  -4.1091  -4.1047  -4.1005  -4.0972  -4.0927
    -4.0836  -4.0818  -4.0597  -4.0548  -4.0492  -4.0360  -4.0157  -4.0055
    -3.9992  -3.9921  -3.9724  -3.9671  -3.9635  -3.9619  -3.9429  -3.9319
    -3.9283  -3.9217  -3.9200  -3.9121  -3.9058  -3.9042  -3.8978  -3.8882
    -3.8694  -3.8399  -3.8321  -3.8256  -3.8190  -3.7954  -3.7890  -3.7814
    -3.7768  -3.7645  -3.7582  -3.7515  -3.7394  -3.7371  -3.7280  -3.7264
    -3.7121  -3.7104  -3.7045  -3.7010  -3.6973  -3.6886  -3.6872  -3.6792
    -3.6712  -3.6395  -3.6373  -3.6352  -3.6268  -3.6254  -3.6170  -3.6158
    -3.6133  -3.6089  -3.6015  -3.5954  -3.5942  -3.5926  -3.5736  -3.5613
    -3.5605  -3.5588  -3.5480  -3.5443  -3.5358  -3.5238  -3.5185  -3.5158
    -3.5126  -3.4935  -3.4840  -3.4758  -3.4709  -3.4635  -3.4556  -3.4523
    -3.4517  -3.4484  -3.4437  -3.4352  -3.4233  -3.4049  -3.4042  -3.3982
    -3.3975  -3.3860  -3.3779  -3.3701  -3.3563  -3.3376  -3.3338  -3.3317
    -3.3269  -3.3196  -3.2614  -3.1672  -3.1652  -3.1531  -3.1001  -3.0985
    -3.0594  -2.8332  -1.8197  -1.6484  -1.1905  -0.7065  -0.1626  -0.1592
     0.4298   0.4604   0.6221   0.6650   0.9083   0.9960   1.0270   1.1371
     1.2568   1.3499   1.4612   1.6298   1.7938   1.9234   2.0288   2.0905
     2.1035   2.3621   2.5447   2.9339   2.9957   3.2142   3.2365   3.9722
     4.0287   4.3406   4.3988   4.4345   4.5421   4.5788   5.0842   5.3535
     5.5065   5.7440   5.7948   5.9672   6.0299   6.0491   6.2470   6.3063
     6.3625   6.6290   6.6841   6.8558   6.9147   6.9588   7.1991   7.2692
     7.3569   7.4287   7.4944   7.5914   7.7302   8.3990   8.4024   8.4750
     8.5218   8.5728   8.6244   8.6780   8.7448   8.7967   8.8652   8.9229
     8.9471   9.0086   9.0753   9.1201   9.1362   9.5733   9.6761   9.7511
     9.7774   9.8331   9.8754  10.1273  10.3117  10.4236  10.4862  10.5271
    10.7338  10.7854  10.8361  11.0144  11.1322

     occupation numbers 
     1.0000   1.0000   1.0000   1.0000   1.0000   1.0000   1.0000   1.0000
     1.0000   1.0000   1.0000   1.0000   1.0000   1.0000   1.0000   1.0000
     1.0000   1.0000   1.0000   1.0000   1.0000   1.0000   1.0000   1.0000
     1.0000   1.0000   1.0000   1.0000   1.0000   1.0000   1.0000   1.0000
     1.0000   1.0000   1.0000   1.0000   1.0000   1.0000   1.0000   1.0000
     1.0000   1.0000   1.0000   1.0000   1.0000   1.0000   1.0000   1.0000
     1.0000   1.0000   1.0000   1.0000   1.0000   1.0000   1.0000   1.0000
     1.0000   1.0000   1.0000   1.0000   1.0000   1.0000   1.0000   1.0000
     1.0000   1.0000   1.0000   1.0000   1.0000   1.0000   1.0000   1.0000
     1.0000   1.0000   1.0000   1.0000   1.0000   1.0000   1.0000   1.0000
     1.0000   1.0000   1.0000   1.0000   1.0000   1.0000   1.0000   1.0000
     1.0000   1.0000   1.0000   1.0000   1.0000   1.0000   1.0000   1.0000
     1.0000   1.0000   1.0000   1.0000   1.0000   1.0000   1.0000   1.0000
     1.0000   1.0000   1.0000   1.0000   1.0000   1.0000   1.0000   1.0000
     1.0000   1.0000   1.0000   1.0000   1.0000   1.0000   1.0000   1.0000
     1.0000   1.0000   1.0000   1.0000   1.0000   1.0000   1.0000   1.0000
     1.0000   1.0000   1.0000   1.0000   1.0000   1.0000   1.0000   1.0000
     1.0000   1.0000   1.0000   1.0000   1.0000   1.0000   1.0000   1.0000
     1.0000   1.0000   1.0000   1.0000   1.0000   1.0000   1.0000   1.0000
     1.0000   1.0000   1.0000   1.0000   1.0000   1.0000   1.0000   1.0000
     1.0000   1.0000   1.0000   1.0000   1.0000   1.0000   1.0000   1.0000
     1.0000   1.0000   1.0000   1.0000   1.0000   1.0000   1.0000   1.0000
     1.0000   1.0000   1.0000   1.0000   1.0000   1.0000   1.0000   1.0000
     1.0000   1.0000   1.0000   1.0000   1.0000   1.0000   1.0000   1.0000
     1.0000   1.0000   1.0000   1.0000   1.0000   1.0000   1.0000   1.0000
     1.0000   1.0000   1.0000   1.0000   1.0000   1.0000   1.0000   1.0000
     1.0000   1.0000   1.0000   1.0000   1.0000   1.0000   1.0000   1.0000
     1.0000   1.0000   1.0000   1.0000   1.0000   1.0000   1.0000   1.0000
     1.0000   1.0000   1.0000   1.0000   1.0000   1.0000   1.0000   1.0000
     1.0000   1.0000   1.0000   1.0000   1.0000   1.0000   1.0000   1.0000
     1.0000   1.0000   1.0000   1.0000   1.0000   1.0000   1.0000   1.0000
     1.0000   1.0000   1.0000   1.0000   1.0000   1.0000   1.0000   1.0000
     1.0000   1.0000   1.0000   1.0000   1.0000   1.0000   1.0000   1.0000
     1.0000   1.0000   1.0000   1.0000   1.0000   1.0000   1.0000   1.0000
     1.0000   1.0000   1.0000   1.0000   1.0000   1.0000   1.0000   1.0000
     1.0000   1.0000   1.0000   1.0000   1.0000   1.0000   1.0000   1.0000
     1.0000   1.0000   1.0000   1.0000   1.0000   1.0000   1.0000   1.0000
     1.0000   1.0000   1.0000   1.0000   1.0000   1.0000   1.0000   1.0000
     1.0000   1.0000   1.0000   1.0000   1.0000   1.0000   1.0000   1.0000
     1.0000   1.0000   1.0000   1.0000   1.0000   1.0000   1.0000   1.0000
     1.0000   1.0000   1.0000   1.0092   1.0189   1.0814   1.0833   0.0102
     0.0042   0.0000   0.0000   0.0000   0.0000   0.0000   0.0000   0.0000
     0.0000   0.0000   0.0000   0.0000   0.0000   0.0000   0.0000   0.0000
     0.0000   0.0000   0.0000   0.0000   0.0000   0.0000   0.0000   0.0000
     0.0000   0.0000   0.0000   0.0000   0.0000   0.0000   0.0000   0.0000
     0.0000   0.0000   0.0000   0.0000   0.0000   0.0000   0.0000   0.0000
     0.0000   0.0000   0.0000   0.0000   0.0000   0.0000   0.0000   0.0000
     0.0000   0.0000   0.0000   0.0000   0.0000   0.0000   0.0000   0.0000
     0.0000   0.0000   0.0000   0.0000   0.0000

          k = 0.0000 0.6213 0.3587 ( 47360 PWs)   bands (ev):

  -123.2307-123.2276-123.2202-123.2097-123.1728-123.1708-123.1573-123.1562
  -123.1558-123.1549-123.1542-123.1533-122.9988-122.9973-122.9922-122.9911
  -122.9740-122.9730-122.9723-122.9713-122.9554-122.9537-122.9460-122.9439
  -122.8892-122.8709-122.8669-122.8147-122.7726-122.7678-122.7615-122.7583
   -77.3902 -77.3853 -77.3827 -77.3776 -77.3774 -77.3747 -77.3732 -77.3701
   -77.3643 -77.3635 -77.3615 -77.3528 -77.3334 -77.3240 -77.3221 -77.3211
   -77.3176 -77.3170 -77.3164 -77.3149 -77.3133 -77.3098 -77.3085 -77.3077
   -77.3070 -77.3066 -77.3065 -77.3061 -77.3059 -77.3049 -77.3045 -77.3041
   -77.3037 -77.3010 -77.3010 -77.3000 -77.1561 -77.1559 -77.1551 -77.1499
   -77.1494 -77.1490 -77.1446 -77.1437 -77.1426 -77.1380 -77.1373 -77.1365
   -77.1318 -77.1302 -77.1293 -77.1275 -77.1267 -77.1264 -77.1257 -77.1255
   -77.1250 -77.1247 -77.1240 -77.1238 -77.1208 -77.1187 -77.1172 -77.1153
   -77.1027 -77.1007 -77.0942 -77.0927 -77.0878 -77.0857 -77.0853 -77.0834
   -77.0591 -77.0401 -77.0360 -77.0358 -77.0257 -77.0221 -77.0109 -77.0094
   -77.0063 -76.9737 -76.9702 -76.9666 -76.9344 -76.9296 -76.9245 -76.9232
   -76.9201 -76.9201 -76.9167 -76.9143 -76.9136 -76.9110 -76.9002 -76.8985
   -18.7020  -6.4271  -5.9345  -5.0496  -5.0041  -4.8243  -4.7765  -4.7529
    -4.7446  -4.7434  -4.7078  -4.6894  -4.6871  -4.6759  -4.6582  -4.6314
    -4.6033  -4.5809  -4.5790  -4.5703  -4.5529  -4.5394  -4.5292  -4.5258
    -4.5115  -4.4921  -4.4774  -4.4720  -4.4570  -4.4477  -4.4348  -4.4256
    -4.4146  -4.4068  -4.3906  -4.3641  -4.3546  -4.3402  -4.3190  -4.3135
    -4.3096  -4.3012  -4.2875  -4.2823  -4.2718  -4.2626  -4.2562  -4.2506
    -4.2483  -4.2426  -4.2083  -4.2001  -4.1794  -4.1773  -4.1740  -4.1704
    -4.1668  -4.1620  -4.1364  -4.1189  -4.1031  -4.0995  -4.0982  -4.0833
    -4.0814  -4.0751  -4.0665  -4.0621  -4.0588  -4.0576  -4.0500  -4.0474
    -4.0241  -4.0192  -4.0163  -4.0104  -4.0035  -4.0015  -3.9900  -3.9876
    -3.9802  -3.9711  -3.9623  -3.9573  -3.9423  -3.9363  -3.9290  -3.9201
    -3.9171  -3.9055  -3.8999  -3.8925  -3.8724  -3.8663  -3.8511  -3.8458
    -3.8392  -3.8257  -3.8181  -3.8150  -3.8102  -3.8089  -3.7993  -3.7937
    -3.7929  -3.7921  -3.7807  -3.7773  -3.7665  -3.7600  -3.7430  -3.7305
    -3.7139  -3.7101  -3.7059  -3.6996  -3.6987  -3.6891  -3.6794  -3.6672
    -3.6593  -3.6586  -3.6485  -3.6455  -3.6398  -3.6350  -3.6253  -3.6079
    -3.5995  -3.5960  -3.5916  -3.5879  -3.5777  -3.5714  -3.5662  -3.5625
    -3.5579  -3.5528  -3.5502  -3.5413  -3.5399  -3.5267  -3.5176  -3.5128
    -3.5112  -3.5022  -3.4995  -3.4976  -3.4952  -3.4913  -3.4889  -3.4870
    -3.4811  -3.4744  -3.4629  -3.4548  -3.4358  -3.4286  -3.4173  -3.4116
    -3.4067  -3.3700  -3.3209  -3.2893  -3.2031  -3.1470  -3.1331  -2.9343
    -2.5669  -2.5035  -2.4784  -2.3757  -1.9157  -1.6860  -1.3517  -1.0123
    -0.9600  -0.8694  -0.7884  -0.6718  -0.3140   0.7584   0.7856   1.0026
     1.2222   1.2781   1.3680   1.3952   1.9857   2.2690   2.4690   2.6694
     2.8008   2.9284   3.6316   3.6675   3.6845   3.7351   3.7745   4.0233
     4.0337   4.3608   4.6281   4.6602   4.9869   5.6672   5.7896   5.8315
     5.8367   5.9516   6.0089   6.1161   6.1510   6.1955   6.3069   6.6219
     6.8765   6.9984   7.0135   7.0956   7.3897   7.6150   7.7396   7.7943
     7.9267   8.0133   8.1129   8.2605   8.4534   8.5144   8.6823   8.7606
     8.8219   8.9490   9.0457   9.1331   9.2156   9.3382   9.3933   9.4144
     9.5597   9.6326   9.6907   9.8324   9.8655   9.9820  10.2167  10.2824
    10.3323  10.3709  10.4286  10.4452  10.6018  10.6371  10.6605  10.7648
    10.7831  10.8396  10.8770  10.9141  11.0353

     occupation numbers 
     1.0000   1.0000   1.0000   1.0000   1.0000   1.0000   1.0000   1.0000
     1.0000   1.0000   1.0000   1.0000   1.0000   1.0000   1.0000   1.0000
     1.0000   1.0000   1.0000   1.0000   1.0000   1.0000   1.0000   1.0000
     1.0000   1.0000   1.0000   1.0000   1.0000   1.0000   1.0000   1.0000
     1.0000   1.0000   1.0000   1.0000   1.0000   1.0000   1.0000   1.0000
     1.0000   1.0000   1.0000   1.0000   1.0000   1.0000   1.0000   1.0000
     1.0000   1.0000   1.0000   1.0000   1.0000   1.0000   1.0000   1.0000
     1.0000   1.0000   1.0000   1.0000   1.0000   1.0000   1.0000   1.0000
     1.0000   1.0000   1.0000   1.0000   1.0000   1.0000   1.0000   1.0000
     1.0000   1.0000   1.0000   1.0000   1.0000   1.0000   1.0000   1.0000
     1.0000   1.0000   1.0000   1.0000   1.0000   1.0000   1.0000   1.0000
     1.0000   1.0000   1.0000   1.0000   1.0000   1.0000   1.0000   1.0000
     1.0000   1.0000   1.0000   1.0000   1.0000   1.0000   1.0000   1.0000
     1.0000   1.0000   1.0000   1.0000   1.0000   1.0000   1.0000   1.0000
     1.0000   1.0000   1.0000   1.0000   1.0000   1.0000   1.0000   1.0000
     1.0000   1.0000   1.0000   1.0000   1.0000   1.0000   1.0000   1.0000
     1.0000   1.0000   1.0000   1.0000   1.0000   1.0000   1.0000   1.0000
     1.0000   1.0000   1.0000   1.0000   1.0000   1.0000   1.0000   1.0000
     1.0000   1.0000   1.0000   1.0000   1.0000   1.0000   1.0000   1.0000
     1.0000   1.0000   1.0000   1.0000   1.0000   1.0000   1.0000   1.0000
     1.0000   1.0000   1.0000   1.0000   1.0000   1.0000   1.0000   1.0000
     1.0000   1.0000   1.0000   1.0000   1.0000   1.0000   1.0000   1.0000
     1.0000   1.0000   1.0000   1.0000   1.0000   1.0000   1.0000   1.0000
     1.0000   1.0000   1.0000   1.0000   1.0000   1.0000   1.0000   1.0000
     1.0000   1.0000   1.0000   1.0000   1.0000   1.0000   1.0000   1.0000
     1.0000   1.0000   1.0000   1.0000   1.0000   1.0000   1.0000   1.0000
     1.0000   1.0000   1.0000   1.0000   1.0000   1.0000   1.0000   1.0000
     1.0000   1.0000   1.0000   1.0000   1.0000   1.0000   1.0000   1.0000
     1.0000   1.0000   1.0000   1.0000   1.0000   1.0000   1.0000   1.0000
     1.0000   1.0000   1.0000   1.0000   1.0000   1.0000   1.0000   1.0000
     1.0000   1.0000   1.0000   1.0000   1.0000   1.0000   1.0000   1.0000
     1.0000   1.0000   1.0000   1.0000   1.0000   1.0000   1.0000   1.0000
     1.0000   1.0000   1.0000   1.0000   1.0000   1.0000   1.0000   1.0000
     1.0000   1.0000   1.0000   1.0000   1.0000   1.0000   1.0000   1.0000
     1.0000   1.0000   1.0000   1.0000   1.0000   1.0000   1.0000   1.0000
     1.0000   1.0000   1.0000   1.0000   1.0000   1.0000   1.0000   1.0000
     1.0000   1.0000   1.0000   1.0000   1.0000   1.0000   1.0000   1.0000
     1.0000   1.0000   1.0000   1.0000   1.0000   1.0000   1.0000   1.0000
     1.0000   1.0000   1.0000   1.0000   1.0000   1.0000   1.0000   1.0000
     1.0000   1.0000   1.0000   1.0000   1.0000   1.0000   1.0000   1.0001
     1.0013   1.0086   0.3820   0.2984   0.2627   0.1725   0.1190   0.0046
     0.0039   0.0000   0.0000   0.0000   0.0000   0.0000   0.0000   0.0000
     0.0000   0.0000   0.0000   0.0000   0.0000   0.0000   0.0000   0.0000
     0.0000   0.0000   0.0000   0.0000   0.0000   0.0000   0.0000   0.0000
     0.0000   0.0000   0.0000   0.0000   0.0000   0.0000   0.0000   0.0000
     0.0000   0.0000   0.0000   0.0000   0.0000   0.0000   0.0000   0.0000
     0.0000   0.0000   0.0000   0.0000   0.0000   0.0000   0.0000   0.0000
     0.0000   0.0000   0.0000   0.0000   0.0000   0.0000   0.0000   0.0000
     0.0000   0.0000   0.0000   0.0000   0.0000

          k = 0.3333 0.0000 0.0000 ( 47282 PWs)   bands (ev):

  -123.2309-123.2274-123.2202-123.2097-123.1731-123.1705-123.1577-123.1562
  -123.1558-123.1546-123.1544-123.1528-122.9991-122.9970-122.9926-122.9907
  -122.9744-122.9727-122.9726-122.9708-122.9555-122.9538-122.9459-122.9439
  -122.8892-122.8711-122.8667-122.8147-122.7726-122.7679-122.7614-122.7583
   -77.3963 -77.3858 -77.3829 -77.3823 -77.3749 -77.3734 -77.3713 -77.3698
   -77.3643 -77.3636 -77.3561 -77.3527 -77.3392 -77.3242 -77.3235 -77.3224
   -77.3219 -77.3194 -77.3173 -77.3152 -77.3145 -77.3103 -77.3081 -77.3080
   -77.3075 -77.3069 -77.3062 -77.3054 -77.3053 -77.3050 -77.3032 -77.3016
   -77.2995 -77.2992 -77.2979 -77.2949 -77.1619 -77.1565 -77.1554 -77.1547
   -77.1503 -77.1485 -77.1449 -77.1423 -77.1384 -77.1376 -77.1362 -77.1354
   -77.1336 -77.1318 -77.1312 -77.1301 -77.1271 -77.1269 -77.1255 -77.1253
   -77.1252 -77.1250 -77.1236 -77.1233 -77.1208 -77.1187 -77.1111 -77.1092
   -77.1079 -77.1059 -77.0943 -77.0928 -77.0852 -77.0834 -77.0824 -77.0803
   -77.0591 -77.0402 -77.0375 -77.0356 -77.0281 -77.0257 -77.0111 -77.0061
   -77.0034 -76.9737 -76.9686 -76.9666 -76.9344 -76.9297 -76.9245 -76.9231
   -76.9214 -76.9204 -76.9200 -76.9192 -76.9142 -76.9110 -76.8945 -76.8937
   -18.7025  -6.4305  -6.3843  -5.9208  -5.4621  -5.1480  -5.0034  -4.9873
    -4.8902  -4.8671  -4.8662  -4.8461  -4.8332  -4.8220  -4.8122  -4.8058
    -4.7628  -4.7418  -4.7304  -4.7241  -4.6802  -4.6795  -4.6712  -4.6382
    -4.6338  -4.5935  -4.5813  -4.5780  -4.5588  -4.5524  -4.5349  -4.5249
    -4.5140  -4.4864  -4.4611  -4.4174  -4.4115  -4.3899  -4.3782  -4.3697
    -4.3685  -4.3577  -4.3410  -4.3274  -4.3212  -4.3138  -4.2973  -4.2822
    -4.2701  -4.2690  -4.2592  -4.2513  -4.2391  -4.2365  -4.2353  -4.2292
    -4.2210  -4.2103  -4.1921  -4.1548  -4.1519  -4.1446  -4.1092  -4.0898
    -4.0851  -4.0784  -4.0682  -4.0644  -4.0474  -4.0247  -4.0208  -4.0129
    -4.0049  -4.0022  -3.9825  -3.9628  -3.9599  -3.9553  -3.9490  -3.9402
    -3.9365  -3.9175  -3.9097  -3.9055  -3.9000  -3.8976  -3.8939  -3.8748
    -3.8449  -3.8388  -3.8312  -3.8302  -3.7893  -3.7835  -3.7802  -3.7687
    -3.7610  -3.7565  -3.7494  -3.7472  -3.7417  -3.7270  -3.7248  -3.7199
    -3.7103  -3.7048  -3.6960  -3.6954  -3.6899  -3.6877  -3.6685  -3.6593
    -3.6483  -3.6441  -3.6413  -3.6339  -3.6306  -3.6224  -3.6210  -3.6190
    -3.6132  -3.6088  -3.6069  -3.5908  -3.5868  -3.5842  -3.5825  -3.5603
    -3.5564  -3.5530  -3.5495  -3.5451  -3.5343  -3.5282  -3.5220  -3.5174
    -3.5064  -3.5027  -3.4923  -3.4856  -3.4758  -3.4686  -3.4651  -3.4581
    -3.4487  -3.4468  -3.4439  -3.4318  -3.4188  -3.4162  -3.4103  -3.3941
    -3.3929  -3.3821  -3.3798  -3.3611  -3.3395  -3.3378  -3.3368  -3.3298
    -3.3103  -3.2847  -3.2356  -3.2175  -3.1984  -3.1518  -2.9987  -2.8732
    -2.8243  -2.4981  -1.9630  -1.3467  -1.1820  -0.7681  -0.4910  -0.2339
    -0.1162  -0.0190  -0.0032   0.4276   0.4729   0.8096   1.0265   1.1039
     1.2401   1.3918   1.6118   1.6939   2.1024   2.1555   2.1806   2.6143
     2.6177   2.6455   2.8004   3.0763   3.2455   3.6861   3.8950   3.9886
     4.0490   4.1890   4.2528   4.4287   4.9682   5.1171   5.1899   5.2448
     5.2487   5.3114   5.4855   5.5565   5.5631   5.5901   5.8436   5.9220
     6.5034   6.5561   6.7193   6.8486   6.8859   7.0498   7.1283   7.1901
     7.2571   7.3509   7.4363   7.5712   7.6707   7.6969   7.8471   8.1860
     8.3368   8.3537   8.7120   8.7451   8.7608   8.8685   8.9454   9.0155
     9.1227   9.3035   9.5133   9.5533   9.5990   9.6629   9.7046   9.7830
     9.8683   9.9643  10.0398  10.0829  10.2144  10.4008  10.4912  10.7393
    10.9981  11.0289  11.1090  11.1870  11.3068

     occupation numbers 
     1.0000   1.0000   1.0000   1.0000   1.0000   1.0000   1.0000   1.0000
     1.0000   1.0000   1.0000   1.0000   1.0000   1.0000   1.0000   1.0000
     1.0000   1.0000   1.0000   1.0000   1.0000   1.0000   1.0000   1.0000
     1.0000   1.0000   1.0000   1.0000   1.0000   1.0000   1.0000   1.0000
     1.0000   1.0000   1.0000   1.0000   1.0000   1.0000   1.0000   1.0000
     1.0000   1.0000   1.0000   1.0000   1.0000   1.0000   1.0000   1.0000
     1.0000   1.0000   1.0000   1.0000   1.0000   1.0000   1.0000   1.0000
     1.0000   1.0000   1.0000   1.0000   1.0000   1.0000   1.0000   1.0000
     1.0000   1.0000   1.0000   1.0000   1.0000   1.0000   1.0000   1.0000
     1.0000   1.0000   1.0000   1.0000   1.0000   1.0000   1.0000   1.0000
     1.0000   1.0000   1.0000   1.0000   1.0000   1.0000   1.0000   1.0000
     1.0000   1.0000   1.0000   1.0000   1.0000   1.0000   1.0000   1.0000
     1.0000   1.0000   1.0000   1.0000   1.0000   1.0000   1.0000   1.0000
     1.0000   1.0000   1.0000   1.0000   1.0000   1.0000   1.0000   1.0000
     1.0000   1.0000   1.0000   1.0000   1.0000   1.0000   1.0000   1.0000
     1.0000   1.0000   1.0000   1.0000   1.0000   1.0000   1.0000   1.0000
     1.0000   1.0000   1.0000   1.0000   1.0000   1.0000   1.0000   1.0000
     1.0000   1.0000   1.0000   1.0000   1.0000   1.0000   1.0000   1.0000
     1.0000   1.0000   1.0000   1.0000   1.0000   1.0000   1.0000   1.0000
     1.0000   1.0000   1.0000   1.0000   1.0000   1.0000   1.0000   1.0000
     1.0000   1.0000   1.0000   1.0000   1.0000   1.0000   1.0000   1.0000
     1.0000   1.0000   1.0000   1.0000   1.0000   1.0000   1.0000   1.0000
     1.0000   1.0000   1.0000   1.0000   1.0000   1.0000   1.0000   1.0000
     1.0000   1.0000   1.0000   1.0000   1.0000   1.0000   1.0000   1.0000
     1.0000   1.0000   1.0000   1.0000   1.0000   1.0000   1.0000   1.0000
     1.0000   1.0000   1.0000   1.0000   1.0000   1.0000   1.0000   1.0000
     1.0000   1.0000   1.0000   1.0000   1.0000   1.0000   1.0000   1.0000
     1.0000   1.0000   1.0000   1.0000   1.0000   1.0000   1.0000   1.0000
     1.0000   1.0000   1.0000   1.0000   1.0000   1.0000   1.0000   1.0000
     1.0000   1.0000   1.0000   1.0000   1.0000   1.0000   1.0000   1.0000
     1.0000   1.0000   1.0000   1.0000   1.0000   1.0000   1.0000   1.0000
     1.0000   1.0000   1.0000   1.0000   1.0000   1.0000   1.0000   1.0000
     1.0000   1.0000   1.0000   1.0000   1.0000   1.0000   1.0000   1.0000
     1.0000   1.0000   1.0000   1.0000   1.0000   1.0000   1.0000   1.0000
     1.0000   1.0000   1.0000   1.0000   1.0000   1.0000   1.0000   1.0000
     1.0000   1.0000   1.0000   1.0000   1.0000   1.0000   1.0000   1.0000
     1.0000   1.0000   1.0000   1.0000   1.0000   1.0000   1.0000   1.0000
     1.0000   1.0000   1.0000   1.0000   1.0000   1.0000   1.0000   1.0000
     1.0000   1.0000   1.0000   1.0000   1.0000   1.0000   1.0000   1.0000
     1.0000   1.0000   1.0000   1.0000   1.0000   1.0000   1.0000   1.0000
     1.0000   1.0001   1.0013   1.0401   1.0832   0.2594   0.0300   0.0080
     0.0030   0.0002   0.0001   0.0000   0.0000   0.0000   0.0000   0.0000
     0.0000   0.0000   0.0000   0.0000   0.0000   0.0000   0.0000   0.0000
     0.0000   0.0000   0.0000   0.0000   0.0000   0.0000   0.0000   0.0000
     0.0000   0.0000   0.0000   0.0000   0.0000   0.0000   0.0000   0.0000
     0.0000   0.0000   0.0000   0.0000   0.0000   0.0000   0.0000   0.0000
     0.0000   0.0000   0.0000   0.0000   0.0000   0.0000   0.0000   0.0000
     0.0000   0.0000   0.0000   0.0000   0.0000   0.0000   0.0000   0.0000
     0.0000   0.0000   0.0000   0.0000   0.0000

          k = 0.3333 0.6213 0.3587 ( 47356 PWs)   bands (ev):

  -123.2307-123.2276-123.2202-123.2097-123.1728-123.1708-123.1573-123.1562
  -123.1558-123.1549-123.1542-123.1533-122.9988-122.9973-122.9922-122.9911
  -122.9740-122.9730-122.9723-122.9713-122.9554-122.9537-122.9460-122.9439
  -122.8892-122.8709-122.8669-122.8147-122.7726-122.7678-122.7615-122.7583
   -77.3902 -77.3853 -77.3826 -77.3776 -77.3774 -77.3747 -77.3732 -77.3701
   -77.3643 -77.3635 -77.3615 -77.3528 -77.3334 -77.3240 -77.3221 -77.3211
   -77.3176 -77.3170 -77.3164 -77.3149 -77.3133 -77.3098 -77.3085 -77.3077
   -77.3070 -77.3066 -77.3065 -77.3061 -77.3059 -77.3049 -77.3046 -77.3041
   -77.3037 -77.3010 -77.3010 -77.3000 -77.1561 -77.1559 -77.1551 -77.1499
   -77.1494 -77.1490 -77.1446 -77.1437 -77.1426 -77.1380 -77.1373 -77.1365
   -77.1318 -77.1302 -77.1293 -77.1275 -77.1267 -77.1264 -77.1257 -77.1254
   -77.1250 -77.1247 -77.1240 -77.1238 -77.1208 -77.1188 -77.1172 -77.1153
   -77.1026 -77.1007 -77.0942 -77.0927 -77.0878 -77.0857 -77.0853 -77.0834
   -77.0591 -77.0401 -77.0360 -77.0358 -77.0257 -77.0221 -77.0109 -77.0094
   -77.0063 -76.9737 -76.9702 -76.9666 -76.9344 -76.9296 -76.9245 -76.9232
   -76.9201 -76.9200 -76.9167 -76.9143 -76.9136 -76.9110 -76.9002 -76.8985
   -18.7020  -6.4272  -5.7784  -5.3618  -4.9438  -4.8212  -4.7920  -4.7612
    -4.7475  -4.7334  -4.7311  -4.7052  -4.6684  -4.6477  -4.6339  -4.6284
    -4.6253  -4.6222  -4.6131  -4.6001  -4.5230  -4.5130  -4.4996  -4.4934
    -4.4902  -4.4817  -4.4781  -4.4736  -4.4457  -4.4361  -4.4282  -4.4228
    -4.4081  -4.4041  -4.3822  -4.3698  -4.3679  -4.3500  -4.3410  -4.3299
    -4.3149  -4.3062  -4.2997  -4.2908  -4.2867  -4.2594  -4.2537  -4.2476
    -4.2375  -4.2320  -4.2283  -4.2125  -4.2035  -4.1980  -4.1822  -4.1674
    -4.1643  -4.1618  -4.1596  -4.1467  -4.1310  -4.1272  -4.1190  -4.1061
    -4.0884  -4.0794  -4.0789  -4.0665  -4.0604  -4.0503  -4.0483  -4.0438
    -4.0425  -4.0375  -4.0262  -4.0179  -3.9986  -3.9922  -3.9737  -3.9660
    -3.9607  -3.9594  -3.9458  -3.9419  -3.9357  -3.9304  -3.9099  -3.9056
    -3.8868  -3.8825  -3.8693  -3.8651  -3.8630  -3.8489  -3.8412  -3.8271
    -3.8179  -3.8136  -3.8097  -3.7973  -3.7951  -3.7909  -3.7857  -3.7812
    -3.7762  -3.7604  -3.7578  -3.7558  -3.7438  -3.7413  -3.7267  -3.7235
    -3.7159  -3.7128  -3.7061  -3.6955  -3.6791  -3.6748  -3.6699  -3.6650
    -3.6623  -3.6538  -3.6520  -3.6420  -3.6396  -3.6340  -3.6284  -3.6228
    -3.6202  -3.6143  -3.6118  -3.6048  -3.5943  -3.5819  -3.5778  -3.5682
    -3.5647  -3.5597  -3.5570  -3.5458  -3.5443  -3.5413  -3.5338  -3.5301
    -3.5262  -3.5198  -3.5193  -3.5064  -3.5006  -3.4979  -3.4916  -3.4844
    -3.4811  -3.4769  -3.4718  -3.4644  -3.4420  -3.4333  -3.4261  -3.4039
    -3.3984  -3.3756  -3.3571  -3.3516  -3.3199  -3.2234  -3.0626  -2.9160
    -2.6698  -2.3625  -2.2546  -2.2370  -1.9040  -1.7809  -1.3072  -1.1067
    -0.6467  -0.5956  -0.5339  -0.2334  -0.0742   0.1049   0.3963   0.4588
     0.4836   1.1248   1.4418   1.7822   1.8082   2.1709   2.1879   2.2899
     2.3752   2.8627   3.5619   3.7153   3.8484   3.8934   4.2762   4.4648
     4.6378   4.6900   4.8476   4.9437   5.3841   5.5771   5.6869   5.7968
     5.9307   5.9636   6.1730   6.4178   6.4572   6.5314   6.6754   6.7965
     7.1026   7.1844   7.1970   7.2165   7.3115   7.5958   7.6425   7.7288
     7.8230   7.8924   7.9357   8.0292   8.1522   8.1870   8.3765   8.4240
     8.6006   8.7688   8.9464   9.0140   9.0773   9.1212   9.1771   9.2795
     9.3144   9.4623   9.5598   9.6272   9.6779   9.7046   9.8543   9.9067
     9.9425   9.9899  10.0551  10.1323  10.2526  10.3127  10.4871  10.5664
    10.5978  10.6931  10.7982  10.8763  10.9066

     occupation numbers 
     1.0000   1.0000   1.0000   1.0000   1.0000   1.0000   1.0000   1.0000
     1.0000   1.0000   1.0000   1.0000   1.0000   1.0000   1.0000   1.0000
     1.0000   1.0000   1.0000   1.0000   1.0000   1.0000   1.0000   1.0000
     1.0000   1.0000   1.0000   1.0000   1.0000   1.0000   1.0000   1.0000
     1.0000   1.0000   1.0000   1.0000   1.0000   1.0000   1.0000   1.0000
     1.0000   1.0000   1.0000   1.0000   1.0000   1.0000   1.0000   1.0000
     1.0000   1.0000   1.0000   1.0000   1.0000   1.0000   1.0000   1.0000
     1.0000   1.0000   1.0000   1.0000   1.0000   1.0000   1.0000   1.0000
     1.0000   1.0000   1.0000   1.0000   1.0000   1.0000   1.0000   1.0000
     1.0000   1.0000   1.0000   1.0000   1.0000   1.0000   1.0000   1.0000
     1.0000   1.0000   1.0000   1.0000   1.0000   1.0000   1.0000   1.0000
     1.0000   1.0000   1.0000   1.0000   1.0000   1.0000   1.0000   1.0000
     1.0000   1.0000   1.0000   1.0000   1.0000   1.0000   1.0000   1.0000
     1.0000   1.0000   1.0000   1.0000   1.0000   1.0000   1.0000   1.0000
     1.0000   1.0000   1.0000   1.0000   1.0000   1.0000   1.0000   1.0000
     1.0000   1.0000   1.0000   1.0000   1.0000   1.0000   1.0000   1.0000
     1.0000   1.0000   1.0000   1.0000   1.0000   1.0000   1.0000   1.0000
     1.0000   1.0000   1.0000   1.0000   1.0000   1.0000   1.0000   1.0000
     1.0000   1.0000   1.0000   1.0000   1.0000   1.0000   1.0000   1.0000
     1.0000   1.0000   1.0000   1.0000   1.0000   1.0000   1.0000   1.0000
     1.0000   1.0000   1.0000   1.0000   1.0000   1.0000   1.0000   1.0000
     1.0000   1.0000   1.0000   1.0000   1.0000   1.0000   1.0000   1.0000
     1.0000   1.0000   1.0000   1.0000   1.0000   1.0000   1.0000   1.0000
     1.0000   1.0000   1.0000   1.0000   1.0000   1.0000   1.0000   1.0000
     1.0000   1.0000   1.0000   1.0000   1.0000   1.0000   1.0000   1.0000
     1.0000   1.0000   1.0000   1.0000   1.0000   1.0000   1.0000   1.0000
     1.0000   1.0000   1.0000   1.0000   1.0000   1.0000   1.0000   1.0000
     1.0000   1.0000   1.0000   1.0000   1.0000   1.0000   1.0000   1.0000
     1.0000   1.0000   1.0000   1.0000   1.0000   1.0000   1.0000   1.0000
     1.0000   1.0000   1.0000   1.0000   1.0000   1.0000   1.0000   1.0000
     1.0000   1.0000   1.0000   1.0000   1.0000   1.0000   1.0000   1.0000
     1.0000   1.0000   1.0000   1.0000   1.0000   1.0000   1.0000   1.0000
     1.0000   1.0000   1.0000   1.0000   1.0000   1.0000   1.0000   1.0000
     1.0000   1.0000   1.0000   1.0000   1.0000   1.0000   1.0000   1.0000
     1.0000   1.0000   1.0000   1.0000   1.0000   1.0000   1.0000   1.0000
     1.0000   1.0000   1.0000   1.0000   1.0000   1.0000   1.0000   1.0000
     1.0000   1.0000   1.0000   1.0000   1.0000   1.0000   1.0000   1.0000
     1.0000   1.0000   1.0000   1.0000   1.0000   1.0000   1.0000   1.0000
     1.0000   1.0000   1.0000   1.0000   1.0000   1.0000   1.0000   1.0000
     1.0000   1.0000   1.0000   1.0000   1.0000   1.0000   1.0000   1.0000
     1.0000   1.0035   0.5666   0.2048   0.0534   0.0306   0.0000   0.0000
     0.0000   0.0000   0.0000   0.0000   0.0000   0.0000   0.0000   0.0000
     0.0000   0.0000   0.0000   0.0000   0.0000   0.0000   0.0000   0.0000
     0.0000   0.0000   0.0000   0.0000   0.0000   0.0000   0.0000   0.0000
     0.0000   0.0000   0.0000   0.0000   0.0000   0.0000   0.0000   0.0000
     0.0000   0.0000   0.0000   0.0000   0.0000   0.0000   0.0000   0.0000
     0.0000   0.0000   0.0000   0.0000   0.0000   0.0000   0.0000   0.0000
     0.0000   0.0000   0.0000   0.0000   0.0000   0.0000   0.0000   0.0000
     0.0000   0.0000   0.0000   0.0000   0.0000

          k = 0.3333-0.6213-0.3587 ( 47356 PWs)   bands (ev):

  -123.2307-123.2276-123.2202-123.2097-123.1728-123.1708-123.1573-123.1562
  -123.1558-123.1549-123.1542-123.1533-122.9988-122.9973-122.9922-122.9911
  -122.9740-122.9730-122.9723-122.9713-122.9554-122.9537-122.9460-122.9439
  -122.8892-122.8709-122.8669-122.8147-122.7726-122.7678-122.7615-122.7583
   -77.3902 -77.3853 -77.3826 -77.3776 -77.3774 -77.3747 -77.3732 -77.3701
   -77.3643 -77.3635 -77.3615 -77.3528 -77.3334 -77.3240 -77.3221 -77.3211
   -77.3176 -77.3170 -77.3164 -77.3149 -77.3133 -77.3098 -77.3085 -77.3077
   -77.3070 -77.3066 -77.3065 -77.3061 -77.3059 -77.3049 -77.3046 -77.3041
   -77.3037 -77.3010 -77.3010 -77.3000 -77.1561 -77.1559 -77.1551 -77.1499
   -77.1494 -77.1490 -77.1446 -77.1437 -77.1426 -77.1380 -77.1373 -77.1365
   -77.1318 -77.1302 -77.1293 -77.1275 -77.1267 -77.1264 -77.1257 -77.1254
   -77.1250 -77.1247 -77.1240 -77.1238 -77.1208 -77.1188 -77.1172 -77.1153
   -77.1026 -77.1007 -77.0942 -77.0927 -77.0878 -77.0857 -77.0853 -77.0834
   -77.0591 -77.0401 -77.0360 -77.0358 -77.0257 -77.0221 -77.0109 -77.0094
   -77.0063 -76.9737 -76.9702 -76.9666 -76.9344 -76.9296 -76.9245 -76.9232
   -76.9201 -76.9200 -76.9167 -76.9143 -76.9136 -76.9110 -76.9002 -76.8985
   -18.7020  -6.4272  -5.7784  -5.3618  -4.9437  -4.8211  -4.7920  -4.7614
    -4.7475  -4.7334  -4.7311  -4.7051  -4.6683  -4.6477  -4.6339  -4.6284
    -4.6252  -4.6222  -4.6130  -4.6002  -4.5231  -4.5129  -4.4997  -4.4933
    -4.4902  -4.4818  -4.4781  -4.4736  -4.4458  -4.4358  -4.4281  -4.4231
    -4.4084  -4.4038  -4.3821  -4.3699  -4.3682  -4.3499  -4.3409  -4.3298
    -4.3148  -4.3062  -4.2996  -4.2909  -4.2869  -4.2591  -4.2537  -4.2475
    -4.2369  -4.2325  -4.2289  -4.2123  -4.2033  -4.1982  -4.1823  -4.1674
    -4.1641  -4.1622  -4.1595  -4.1466  -4.1311  -4.1269  -4.1190  -4.1062
    -4.0885  -4.0795  -4.0784  -4.0668  -4.0608  -4.0496  -4.0484  -4.0442
    -4.0427  -4.0375  -4.0261  -4.0176  -3.9989  -3.9924  -3.9738  -3.9670
    -3.9603  -3.9581  -3.9458  -3.9420  -3.9358  -3.9303  -3.9102  -3.9056
    -3.8867  -3.8822  -3.8698  -3.8651  -3.8624  -3.8499  -3.8408  -3.8273
    -3.8176  -3.8140  -3.8097  -3.7967  -3.7947  -3.7913  -3.7857  -3.7816
    -3.7759  -3.7603  -3.7578  -3.7560  -3.7439  -3.7412  -3.7266  -3.7238
    -3.7160  -3.7127  -3.7054  -3.6954  -3.6787  -3.6746  -3.6702  -3.6651
    -3.6621  -3.6543  -3.6516  -3.6421  -3.6396  -3.6336  -3.6283  -3.6234
    -3.6198  -3.6140  -3.6113  -3.6061  -3.5944  -3.5817  -3.5773  -3.5681
    -3.5645  -3.5599  -3.5578  -3.5461  -3.5437  -3.5418  -3.5337  -3.5302
    -3.5263  -3.5200  -3.5187  -3.5062  -3.5006  -3.4978  -3.4914  -3.4853
    -3.4811  -3.4775  -3.4708  -3.4644  -3.4421  -3.4322  -3.4260  -3.4041
    -3.3986  -3.3756  -3.3587  -3.3503  -3.3199  -3.2251  -3.0626  -2.9142
    -2.6698  -2.3649  -2.2536  -2.2369  -1.9015  -1.7817  -1.3072  -1.1075
    -0.6469  -0.5957  -0.5338  -0.2331  -0.0753   0.1050   0.3966   0.4587
     0.4840   1.1248   1.4419   1.7820   1.8088   2.1706   2.1880   2.2902
     2.3744   2.8634   3.5619   3.7153   3.8493   3.8924   4.2760   4.4651
     4.6381   4.6915   4.8515   4.9374   5.3840   5.5769   5.6861   5.7965
     5.9304   5.9642   6.1728   6.4201   6.4578   6.5326   6.6747   6.7989
     7.1031   7.1843   7.1974   7.2154   7.3105   7.5782   7.6621   7.7079
     7.8378   7.8961   7.9142   8.0290   8.1604   8.2233   8.3771   8.4362
     8.5487   8.7916   8.9518   9.0127   9.0705   9.1249   9.1426   9.2572
     9.3279   9.5005   9.5710   9.6200   9.6707   9.7015   9.8523   9.9021
     9.9425   9.9763  10.0554  10.1456  10.2418  10.3169  10.5262  10.5661
    10.6060  10.6883  10.8010  10.8493  10.8890

     occupation numbers 
     1.0000   1.0000   1.0000   1.0000   1.0000   1.0000   1.0000   1.0000
     1.0000   1.0000   1.0000   1.0000   1.0000   1.0000   1.0000   1.0000
     1.0000   1.0000   1.0000   1.0000   1.0000   1.0000   1.0000   1.0000
     1.0000   1.0000   1.0000   1.0000   1.0000   1.0000   1.0000   1.0000
     1.0000   1.0000   1.0000   1.0000   1.0000   1.0000   1.0000   1.0000
     1.0000   1.0000   1.0000   1.0000   1.0000   1.0000   1.0000   1.0000
     1.0000   1.0000   1.0000   1.0000   1.0000   1.0000   1.0000   1.0000
     1.0000   1.0000   1.0000   1.0000   1.0000   1.0000   1.0000   1.0000
     1.0000   1.0000   1.0000   1.0000   1.0000   1.0000   1.0000   1.0000
     1.0000   1.0000   1.0000   1.0000   1.0000   1.0000   1.0000   1.0000
     1.0000   1.0000   1.0000   1.0000   1.0000   1.0000   1.0000   1.0000
     1.0000   1.0000   1.0000   1.0000   1.0000   1.0000   1.0000   1.0000
     1.0000   1.0000   1.0000   1.0000   1.0000   1.0000   1.0000   1.0000
     1.0000   1.0000   1.0000   1.0000   1.0000   1.0000   1.0000   1.0000
     1.0000   1.0000   1.0000   1.0000   1.0000   1.0000   1.0000   1.0000
     1.0000   1.0000   1.0000   1.0000   1.0000   1.0000   1.0000   1.0000
     1.0000   1.0000   1.0000   1.0000   1.0000   1.0000   1.0000   1.0000
     1.0000   1.0000   1.0000   1.0000   1.0000   1.0000   1.0000   1.0000
     1.0000   1.0000   1.0000   1.0000   1.0000   1.0000   1.0000   1.0000
     1.0000   1.0000   1.0000   1.0000   1.0000   1.0000   1.0000   1.0000
     1.0000   1.0000   1.0000   1.0000   1.0000   1.0000   1.0000   1.0000
     1.0000   1.0000   1.0000   1.0000   1.0000   1.0000   1.0000   1.0000
     1.0000   1.0000   1.0000   1.0000   1.0000   1.0000   1.0000   1.0000
     1.0000   1.0000   1.0000   1.0000   1.0000   1.0000   1.0000   1.0000
     1.0000   1.0000   1.0000   1.0000   1.0000   1.0000   1.0000   1.0000
     1.0000   1.0000   1.0000   1.0000   1.0000   1.0000   1.0000   1.0000
     1.0000   1.0000   1.0000   1.0000   1.0000   1.0000   1.0000   1.0000
     1.0000   1.0000   1.0000   1.0000   1.0000   1.0000   1.0000   1.0000
     1.0000   1.0000   1.0000   1.0000   1.0000   1.0000   1.0000   1.0000
     1.0000   1.0000   1.0000   1.0000   1.0000   1.0000   1.0000   1.0000
     1.0000   1.0000   1.0000   1.0000   1.0000   1.0000   1.0000   1.0000
     1.0000   1.0000   1.0000   1.0000   1.0000   1.0000   1.0000   1.0000
     1.0000   1.0000   1.0000   1.0000   1.0000   1.0000   1.0000   1.0000
     1.0000   1.0000   1.0000   1.0000   1.0000   1.0000   1.0000   1.0000
     1.0000   1.0000   1.0000   1.0000   1.0000   1.0000   1.0000   1.0000
     1.0000   1.0000   1.0000   1.0000   1.0000   1.0000   1.0000   1.0000
     1.0000   1.0000   1.0000   1.0000   1.0000   1.0000   1.0000   1.0000
     1.0000   1.0000   1.0000   1.0000   1.0000   1.0000   1.0000   1.0000
     1.0000   1.0000   1.0000   1.0000   1.0000   1.0000   1.0000   1.0000
     1.0000   1.0000   1.0000   1.0000   1.0000   1.0000   1.0000   1.0000
     1.0000   1.0035   0.5666   0.2049   0.0529   0.0310   0.0000   0.0000
     0.0000   0.0000   0.0000   0.0000   0.0000   0.0000   0.0000   0.0000
     0.0000   0.0000   0.0000   0.0000   0.0000   0.0000   0.0000   0.0000
     0.0000   0.0000   0.0000   0.0000   0.0000   0.0000   0.0000   0.0000
     0.0000   0.0000   0.0000   0.0000   0.0000   0.0000   0.0000   0.0000
     0.0000   0.0000   0.0000   0.0000   0.0000   0.0000   0.0000   0.0000
     0.0000   0.0000   0.0000   0.0000   0.0000   0.0000   0.0000   0.0000
     0.0000   0.0000   0.0000   0.0000   0.0000   0.0000   0.0000   0.0000
     0.0000   0.0000   0.0000   0.0000   0.0000

     the Fermi energy is     3.6241 ev

!    total energy              =  -14813.50129190 Ry
     estimated scf accuracy    <       0.00000011 Ry
     smearing contrib. (-TS)   =      -0.01074084 Ry
     internal energy E=F+TS    =  -14813.49055106 Ry

     The total energy is F=E-TS. E is the sum of the following terms:
     one-electron contribution =  -82334.14721608 Ry
     hartree contribution      =   41171.03641535 Ry
     xc contribution           =   -1357.77837174 Ry
     ewald contribution        =   27716.91035456 Ry
     one-center paw contrib.   =      -9.51173314 Ry
      -> PAW hartree energy AE =       0.00000000 Ry
      -> PAW hartree energy PS =       0.00000000 Ry
      -> PAW xc energy AE      =       0.00000000 Ry
      -> PAW xc energy PS      =       0.00000000 Ry
      -> total E_H with PAW    =   41171.03641535 Ry
      -> total E_XC with PAW   =   -1357.77837174 Ry

     convergence has been achieved in  15 iterations

     negative rho (up, down):  3.644E-03 0.000E+00

     Forces acting on atoms (cartesian axes, Ry/au):

     atom    1 type  1   force =    -0.00026000   -0.00002007   -0.00825023
     atom    2 type  1   force =     0.00029601   -0.00047019    0.03201826
     atom    3 type  1   force =     0.00025100   -0.00008035   -0.00004092
     atom    4 type  1   force =    -0.00022611   -0.00036304    0.00008384
     atom    5 type  1   force =    -0.00028302   -0.00000463   -0.00764726
     atom    6 type  1   force =     0.00027953    0.00037409    0.03202058
     atom    7 type  1   force =     0.00032359   -0.00001177   -0.00026440
     atom    8 type  1   force =    -0.00024685    0.00037592    0.00014876
     atom    9 type  1   force =    -0.00005338    0.00005717   -0.00807395
     atom   10 type  1   force =    -0.00029794   -0.00050074    0.03173261
     atom   11 type  1   force =     0.00011869   -0.00001608   -0.00005263
     atom   12 type  1   force =     0.00009560   -0.00010536    0.00015766
     atom   13 type  1   force =     0.00004266   -0.00007693   -0.00751691
     atom   14 type  1   force =    -0.00030081    0.00038479    0.03180773
     atom   15 type  1   force =     0.00003964    0.00001996   -0.00015134
     atom   16 type  1   force =    -0.00000194    0.00048547    0.00029827
     atom   17 type  1   force =     0.00042733   -0.00008377   -0.03010393
     atom   18 type  1   force =    -0.00004008   -0.00034143    0.00589998
     atom   19 type  1   force =    -0.00023371    0.00017345   -0.00039943
     atom   20 type  1   force =     0.00015619    0.00010670   -0.00034398
     atom   21 type  1   force =     0.00044034    0.00006768   -0.03016012
     atom   22 type  1   force =    -0.00000790   -0.00011360    0.00751058
     atom   23 type  1   force =    -0.00017709    0.00002720   -0.00026089
     atom   24 type  1   force =     0.00007092    0.00029853   -0.00012102
     atom   25 type  1   force =     0.00021114    0.00008234   -0.03024923
     atom   26 type  1   force =    -0.00006046   -0.00016405    0.00508898
     atom   27 type  1   force =    -0.00000617   -0.00001756    0.00003312
     atom   28 type  1   force =    -0.00026301   -0.00000693    0.00020421
     atom   29 type  1   force =     0.00020867   -0.00011032   -0.03016925
     atom   30 type  1   force =     0.00001607   -0.00013027    0.00560969
     atom   31 type  1   force =    -0.00011217   -0.00016917    0.00005080
     atom   32 type  1   force =    -0.00013542    0.00007828    0.00025666
     atom   33 type  3   force =     0.00213787    0.01813783    0.00522531
     atom   34 type  2   force =    -0.01250213   -0.00798334    0.00020108
     atom   35 type  2   force =     0.01009295   -0.00989979   -0.00454263
     The non-local contrib.  to forces
     atom    1 type  1   force =     0.00293006    0.00022462   -0.15220251
     atom    2 type  1   force =     0.00041377    0.00388836    0.07365061
     atom    3 type  1   force =     0.01719647   -0.00247021   -0.05209363
     atom    4 type  1   force =    -0.01925203    0.00460450   -0.09108294
     atom    5 type  1   force =     0.00227743   -0.00070345   -0.14165361
     atom    6 type  1   force =     0.00061033   -0.00563273    0.07369933
     atom    7 type  1   force =     0.00436502   -0.00003257   -0.06407797
     atom    8 type  1   force =    -0.01869466   -0.00444475   -0.08278127
     atom    9 type  1   force =     0.00287842   -0.00049433   -0.15555810
     atom   10 type  1   force =     0.00067101    0.00350845    0.07103126
     atom   11 type  1   force =     0.01430673   -0.00357755   -0.05434778
     atom   12 type  1   force =     0.00042360    0.00767959   -0.09984694
     atom   13 type  1   force =     0.00278457    0.00008209   -0.14479597
     atom   14 type  1   force =     0.00075021   -0.00567081    0.07172536
     atom   15 type  1   force =     0.02607452    0.00187276   -0.06435492
     atom   16 type  1   force =    -0.00090390   -0.00316799   -0.08217636
     atom   17 type  1   force =     0.00237653    0.00074408    0.01692765
     atom   18 type  1   force =    -0.00752958   -0.00227771   -0.00363432
     atom   19 type  1   force =     0.00204858   -0.00253408    0.01526302
     atom   20 type  1   force =     0.02091488    0.01835037    0.25313729
     atom   21 type  1   force =     0.00227083   -0.00142579    0.01506882
     atom   22 type  1   force =    -0.00748878   -0.00007393    0.01490857
     atom   23 type  1   force =     0.00151344    0.00635628    0.02143642
     atom   24 type  1   force =     0.00075470   -0.00233108    0.06201608
     atom   25 type  1   force =     0.00240532   -0.00038475    0.02018972
     atom   26 type  1   force =    -0.01032998   -0.00193449   -0.00173628
     atom   27 type  1   force =    -0.00394044   -0.00013006    0.00097761
     atom   28 type  1   force =    -0.00890257    0.00097999    0.08741022
     atom   29 type  1   force =     0.00278300   -0.00036411    0.01934585
     atom   30 type  1   force =    -0.00923391    0.00079967   -0.00226834
     atom   31 type  1   force =    -0.00458115   -0.00019939    0.00055794
     atom   32 type  1   force =    -0.00440253   -0.00103101    0.07831781
     atom   33 type  3   force =     0.29134581    2.27876730    0.44864262
     atom   34 type  2   force =    -0.09171158   -0.05164866    0.00120297
     atom   35 type  2   force =     0.07479765   -0.06821767   -0.02955766
     The ionic contribution  to forces
     atom    1 type  1   force =    -0.02050730    0.00056455 -417.70037227
     atom    2 type  1   force =    -0.32249554   -0.13697083 -164.42125609
     atom    3 type  1   force =    -0.88825987    0.01311192  100.60166980
     atom    4 type  1   force =    -3.31035132    0.21016709  360.64999387
     atom    5 type  1   force =    -0.02067728   -0.00052993 -417.68598952
     atom    6 type  1   force =    -0.32630123    0.12447787 -164.40802357
     atom    7 type  1   force =    -0.54774752   -0.03662732   99.68648091
     atom    8 type  1   force =    -3.29766847   -0.24295011  361.56947564
     atom    9 type  1   force =    -0.00720952    0.00044123 -417.79643281
     atom   10 type  1   force =    -0.26981644   -0.13403536 -164.86251170
     atom   11 type  1   force =     0.77139832    0.12792102   99.20116850
     atom   12 type  1   force =     3.56924429    0.24858341  357.65512017
     atom   13 type  1   force =    -0.00696442   -0.00038864 -417.78253106
     atom   14 type  1   force =    -0.27318289    0.11578768 -164.85174063
     atom   15 type  1   force =     0.54012191   -0.14058076   98.34892350
     atom   16 type  1   force =     3.60690103   -0.25317043  359.44360494
     atom   17 type  1   force =    -0.04430267   -0.01271843 -354.25827114
     atom   18 type  1   force =     0.07459450   -0.04919976  -90.81380696
     atom   19 type  1   force =    -0.22186351   -0.99689666  148.10032535
     atom   20 type  1   force =    -0.39395024   -0.14089811  381.33800181
     atom   21 type  1   force =    -0.04428977    0.01276969 -354.25547194
     atom   22 type  1   force =     0.06806168    0.00112960  -91.03331509
     atom   23 type  1   force =    -0.17274536    1.02575250  148.00653318
     atom   24 type  1   force =    -0.10828994    0.08621043  375.85182595
     atom   25 type  1   force =     0.11220916   -0.01332533 -354.26941848
     atom   26 type  1   force =     0.57552889   -0.03131746  -90.97867483
     atom   27 type  1   force =     0.31632341    0.07272977  147.48119717
     atom   28 type  1   force =    -0.46686155    0.00566154  384.56374874
     atom   29 type  1   force =     0.11277167    0.01327646 -354.26673052
     atom   30 type  1   force =     0.57762083    0.01481041  -91.12035754
     atom   31 type  1   force =     0.20455666   -0.08342181  147.42435922
     atom   32 type  1   force =    -0.44539149   -0.00475537  384.58943714
     atom   33 type  3   force =    -0.06007189   -3.89938608  117.04976041
     atom   34 type  2   force =     3.38791158    1.77420276   19.41781218
     atom   35 type  2   force =    -2.66829571    2.32957445   19.52546566
     The local contribution  to forces
     atom    1 type  1   force =     0.01757955   -0.00080699  417.84403952
     atom    2 type  1   force =     0.32225565    0.13263088  164.38022314
     atom    3 type  1   force =     0.87095521   -0.01071463 -100.54904867
     atom    4 type  1   force =     3.32966687   -0.21506441 -360.55934700
     atom    5 type  1   force =     0.01839293    0.00122830  417.81970396
     atom    6 type  1   force =     0.32584561   -0.11848747  164.36693824
     atom    7 type  1   force =     0.54330450    0.03664253  -99.62213014
     atom    8 type  1   force =     3.31637861    0.24770289 -361.48706795
     atom    9 type  1   force =     0.00400180    0.00011230  417.94357796
     atom   10 type  1   force =     0.26895948    0.13004410  164.82385640
     atom   11 type  1   force =    -0.78521901   -0.12435226  -99.14628885
     atom   12 type  1   force =    -3.56983974   -0.25630898 -357.55559203
     atom   13 type  1   force =     0.00393047    0.00022965  417.91946296
     atom   14 type  1   force =     0.27224605   -0.10974772  164.81246072
     atom   15 type  1   force =    -0.56574599    0.13872225  -98.28415797
     atom   16 type  1   force =    -3.60624561    0.25676686 -359.36160770
     atom   17 type  1   force =     0.04229136    0.01191363  354.21086313
     atom   18 type  1   force =    -0.06715793    0.05113583   90.82398771
     atom   19 type  1   force =     0.21956763    0.99967151 -148.11539611
     atom   20 type  1   force =     0.37320310    0.12270268 -381.59170359
     atom   21 type  1   force =     0.04239780   -0.01129714  354.20987087
     atom   22 type  1   force =    -0.06063380   -0.00116703   91.02653566
     atom   23 type  1   force =     0.17104067   -1.03214534 -148.02768117
     atom   24 type  1   force =     0.10761135   -0.08363636 -375.91409285
     atom   25 type  1   force =    -0.11432905    0.01383397  354.21908383
     atom   26 type  1   force =    -0.56519534    0.03308226   90.98667855
     atom   27 type  1   force =    -0.31239029   -0.07263931 -147.48203642
     atom   28 type  1   force =     0.47548261   -0.00664017 -384.65184787
     atom   29 type  1   force =    -0.11527159   -0.01306220  354.21732656
     atom   30 type  1   force =    -0.56830738   -0.01573230   91.12941132
     atom   31 type  1   force =    -0.20008913    0.08347605 -147.42476137
     atom   32 type  1   force =     0.44964668    0.00585818 -384.66837034
     atom   33 type  3   force =    -0.22624574    1.66148147 -117.48847755
     atom   34 type  2   force =    -3.30869582   -1.73052954  -19.41891952
     atom   35 type  2   force =     2.60358493   -2.27124671  -19.50055176
     The core correction contribution to forces
     atom    1 type  1   force =     0.00000000    0.00000000    0.00000000
     atom    2 type  1   force =     0.00000000    0.00000000    0.00000000
     atom    3 type  1   force =     0.00000000    0.00000000    0.00000000
     atom    4 type  1   force =     0.00000000    0.00000000    0.00000000
     atom    5 type  1   force =     0.00000000    0.00000000    0.00000000
     atom    6 type  1   force =     0.00000000    0.00000000    0.00000000
     atom    7 type  1   force =     0.00000000    0.00000000    0.00000000
     atom    8 type  1   force =     0.00000000    0.00000000    0.00000000
     atom    9 type  1   force =     0.00000000    0.00000000    0.00000000
     atom   10 type  1   force =     0.00000000    0.00000000    0.00000000
     atom   11 type  1   force =     0.00000000    0.00000000    0.00000000
     atom   12 type  1   force =     0.00000000    0.00000000    0.00000000
     atom   13 type  1   force =     0.00000000    0.00000000    0.00000000
     atom   14 type  1   force =     0.00000000    0.00000000    0.00000000
     atom   15 type  1   force =     0.00000000    0.00000000    0.00000000
     atom   16 type  1   force =     0.00000000    0.00000000    0.00000000
     atom   17 type  1   force =     0.00000000    0.00000000    0.00000000
     atom   18 type  1   force =     0.00000000    0.00000000    0.00000000
     atom   19 type  1   force =     0.00000000    0.00000000    0.00000000
     atom   20 type  1   force =     0.00000000    0.00000000    0.00000000
     atom   21 type  1   force =     0.00000000    0.00000000    0.00000000
     atom   22 type  1   force =     0.00000000    0.00000000    0.00000000
     atom   23 type  1   force =     0.00000000    0.00000000    0.00000000
     atom   24 type  1   force =     0.00000000    0.00000000    0.00000000
     atom   25 type  1   force =     0.00000000    0.00000000    0.00000000
     atom   26 type  1   force =     0.00000000    0.00000000    0.00000000
     atom   27 type  1   force =     0.00000000    0.00000000    0.00000000
     atom   28 type  1   force =     0.00000000    0.00000000    0.00000000
     atom   29 type  1   force =     0.00000000    0.00000000    0.00000000
     atom   30 type  1   force =     0.00000000    0.00000000    0.00000000
     atom   31 type  1   force =     0.00000000    0.00000000    0.00000000
     atom   32 type  1   force =     0.00000000    0.00000000    0.00000000
     atom   33 type  3   force =    -0.00289195   -0.02272101   -0.00490392
     atom   34 type  2   force =     0.00000000    0.00000000    0.00000000
     atom   35 type  2   force =     0.00000000    0.00000000    0.00000000
     The Hubbard contrib.    to forces
     atom    1 type  1   force =     0.00000000    0.00000000    0.00000000
     atom    2 type  1   force =     0.00000000    0.00000000    0.00000000
     atom    3 type  1   force =     0.00000000    0.00000000    0.00000000
     atom    4 type  1   force =     0.00000000    0.00000000    0.00000000
     atom    5 type  1   force =     0.00000000    0.00000000    0.00000000
     atom    6 type  1   force =     0.00000000    0.00000000    0.00000000
     atom    7 type  1   force =     0.00000000    0.00000000    0.00000000
     atom    8 type  1   force =     0.00000000    0.00000000    0.00000000
     atom    9 type  1   force =     0.00000000    0.00000000    0.00000000
     atom   10 type  1   force =     0.00000000    0.00000000    0.00000000
     atom   11 type  1   force =     0.00000000    0.00000000    0.00000000
     atom   12 type  1   force =     0.00000000    0.00000000    0.00000000
     atom   13 type  1   force =     0.00000000    0.00000000    0.00000000
     atom   14 type  1   force =     0.00000000    0.00000000    0.00000000
     atom   15 type  1   force =     0.00000000    0.00000000    0.00000000
     atom   16 type  1   force =     0.00000000    0.00000000    0.00000000
     atom   17 type  1   force =     0.00000000    0.00000000    0.00000000
     atom   18 type  1   force =     0.00000000    0.00000000    0.00000000
     atom   19 type  1   force =     0.00000000    0.00000000    0.00000000
     atom   20 type  1   force =     0.00000000    0.00000000    0.00000000
     atom   21 type  1   force =     0.00000000    0.00000000    0.00000000
     atom   22 type  1   force =     0.00000000    0.00000000    0.00000000
     atom   23 type  1   force =     0.00000000    0.00000000    0.00000000
     atom   24 type  1   force =     0.00000000    0.00000000    0.00000000
     atom   25 type  1   force =     0.00000000    0.00000000    0.00000000
     atom   26 type  1   force =     0.00000000    0.00000000    0.00000000
     atom   27 type  1   force =     0.00000000    0.00000000    0.00000000
     atom   28 type  1   force =     0.00000000    0.00000000    0.00000000
     atom   29 type  1   force =     0.00000000    0.00000000    0.00000000
     atom   30 type  1   force =     0.00000000    0.00000000    0.00000000
     atom   31 type  1   force =     0.00000000    0.00000000    0.00000000
     atom   32 type  1   force =     0.00000000    0.00000000    0.00000000
     atom   33 type  3   force =     0.00000000    0.00000000    0.00000000
     atom   34 type  2   force =     0.00000000    0.00000000    0.00000000
     atom   35 type  2   force =     0.00000000    0.00000000    0.00000000
     The SCF correction term to forces
     atom    1 type  1   force =    -0.00000000   -0.00000000    0.00000000
     atom    2 type  1   force =     0.00000000   -0.00000000   -0.00000000
     atom    3 type  1   force =     0.00035939   -0.00000635   -0.00065704
     atom    4 type  1   force =    -0.00028942   -0.00006915    0.00043127
     atom    5 type  1   force =    -0.00000000    0.00000000    0.00000000
     atom    6 type  1   force =     0.00000000    0.00000000   -0.00000000
     atom    7 type  1   force =     0.00040179    0.00000667   -0.00062582
     atom    8 type  1   force =    -0.00026211    0.00006897    0.00043372
     atom    9 type  1   force =     0.00000000   -0.00000000    0.00000000
     atom   10 type  1   force =    -0.00000000   -0.00000000   -0.00000000
     atom   11 type  1   force =    -0.00036715   -0.00000620   -0.00067312
     atom   12 type  1   force =     0.00026765   -0.00005831    0.00038784
     atom   13 type  1   force =     0.00000000    0.00000000    0.00000000
     atom   14 type  1   force =    -0.00000000    0.00000000   -0.00000000
     atom   15 type  1   force =    -0.00041060    0.00000678   -0.00065056
     atom   16 type  1   force =     0.00024674    0.00005811    0.00038876
     atom   17 type  1   force =     0.00000000   -0.00000000    0.00000000
     atom   18 type  1   force =     0.00000000    0.00000000   -0.00000000
     atom   19 type  1   force =     0.00001379   -0.00006625   -0.00068032
     atom   20 type  1   force =    -0.00001135   -0.00004717    0.00013188
     atom   21 type  1   force =     0.00000000    0.00000000    0.00000000
     atom   22 type  1   force =     0.00000000   -0.00000000   -0.00000000
     atom   23 type  1   force =     0.00001437    0.00006485   -0.00063796
     atom   24 type  1   force =    -0.00000499    0.00005662    0.00004117
     atom   25 type  1   force =    -0.00000000   -0.00000000   -0.00000000
     atom   26 type  1   force =    -0.00000000    0.00000000   -0.00000000
     atom   27 type  1   force =     0.00000137    0.00002312   -0.00019387
     atom   28 type  1   force =     0.00001871   -0.00000721    0.00080450
     atom   29 type  1   force =    -0.00000000    0.00000000   -0.00000000
     atom   30 type  1   force =    -0.00000000   -0.00000000   -0.00000000
     atom   31 type  1   force =     0.00000166   -0.00002295   -0.00019362
     atom   32 type  1   force =     0.00001212    0.00000756    0.00078342
     atom   33 type  3   force =     0.00000185   -0.00000277    0.00011512
     atom   34 type  2   force =    -0.00000611   -0.00000683    0.00001682
     atom   35 type  2   force =     0.00000630   -0.00000878    0.00001251

     Total force =     0.028344     Total SCF correction =     0.002351


     Computing stress (Cartesian axis) and pressure


     negative rho (up, down):  3.644E-03 0.000E+00
          total   stress  (Ry/bohr**3)                   (kbar)     P=      -10.14
  -0.00009802   0.00000009  -0.00000059          -14.42        0.01       -0.09
   0.00000009  -0.00015010   0.00000076            0.01      -22.08        0.11
  -0.00000059   0.00000076   0.00004142           -0.09        0.11        6.09

     kinetic stress (kbar)  16150.20      0.94      7.51
                                0.94  16108.64     -8.19
                                7.51     -8.19  16209.02

     local   stress (kbar)**********     -0.04    -59.23
                               -0.04**********    -80.37
                              -59.23    -80.371313272.73

     nonloc. stress (kbar)  -1668.05     -0.07      0.40
                               -0.07  -1639.39     -0.48
                                0.40     -0.48  -1679.53

     hartree stress (kbar) 684569.06      0.52     32.56
                                0.52 691957.32     29.43
                               32.56     29.43-612699.20

     exc-cor stress (kbar)  -8061.13     -0.01     -0.09
                               -0.01  -8057.08      0.11
                               -0.09      0.11  -8064.76

     corecor stress (kbar)     -7.85     -0.00     -0.02
                               -0.00     -7.90      0.02
                               -0.02      0.02     -7.95

     ewald   stress (kbar) 605743.67     -1.32     18.77
                               -1.32 615499.57     59.60
                               18.77     59.60-707024.23

     hubbard stress (kbar)      0.00      0.00      0.00
                                0.00      0.00      0.00
                                0.00      0.00      0.00

     DFT-D   stress (kbar)      0.00      0.00      0.00
                                0.00      0.00      0.00
                                0.00      0.00      0.00

     XDM     stress (kbar)      0.00      0.00      0.00
                                0.00      0.00      0.00
                                0.00      0.00      0.00

     dft-nl  stress (kbar)      0.00      0.00      0.00
                                0.00      0.00      0.00
                                0.00      0.00      0.00

     TS-vdW  stress (kbar)      0.00      0.00      0.00
                                0.00      0.00      0.00
                                0.00      0.00      0.00

     MDB     stress (kbar)      0.00      0.00      0.00
                                0.00      0.00      0.00
                                0.00      0.00      0.00

     3D-RISM stress (kbar)      0.00      0.00      0.00
                                0.00      0.00      0.00
                                0.00      0.00      0.00


     Writing all to output data dir ./tmp/Zn100_2x2x4_scf_H2O.save/ :
     XML data file, charge density, pseudopotentials, collected wavefunctions

     init_run     :     18.94s CPU     19.12s WALL (       1 calls)
     electrons    :   1136.22s CPU   1145.06s WALL (       1 calls)
     forces       :     16.37s CPU     16.47s WALL (       1 calls)
     stress       :     48.02s CPU     48.24s WALL (       1 calls)

     Called by init_run:
     wfcinit      :     18.55s CPU     18.71s WALL (       1 calls)
     wfcinit:atom :      0.02s CPU      0.03s WALL (       5 calls)
     wfcinit:wfcr :     18.26s CPU     18.37s WALL (       5 calls)
     potinit      :      0.06s CPU      0.06s WALL (       1 calls)
     hinit0       :      0.04s CPU      0.05s WALL (       1 calls)

     Called by electrons:
     c_bands      :   1052.88s CPU   1060.88s WALL (      16 calls)
     sum_band     :     79.15s CPU     79.79s WALL (      16 calls)
     v_of_rho     :      0.34s CPU      0.37s WALL (      16 calls)
     v_h          :      0.02s CPU      0.02s WALL (      16 calls)
     v_xc         :      0.37s CPU      0.39s WALL (      18 calls)
     newd         :      3.48s CPU      3.64s WALL (      16 calls)
     PAW_pot      :      0.54s CPU      0.54s WALL (      16 calls)
     mix_rho      :      0.07s CPU      0.07s WALL (      16 calls)

     Called by c_bands:
     init_us_2    :      1.58s CPU      1.59s WALL (     175 calls)
     cegterg      :   1049.48s CPU   1057.44s WALL (      80 calls)

     Called by sum_band:
     sum_band:wei :      0.03s CPU      0.03s WALL (      16 calls)
     sum_band:loo :     76.37s CPU     76.87s WALL (      16 calls)
     sum_band:buf :      0.31s CPU      0.31s WALL (      80 calls)
     sum_band:ini :      0.72s CPU      0.73s WALL (      80 calls)
     sum_band:cal :     61.52s CPU     61.88s WALL (      80 calls)
     sum_band:bec :      0.72s CPU      0.72s WALL (      80 calls)
     addusdens    :      2.65s CPU      2.80s WALL (      16 calls)
                                        0.00s GPU  (      16 calls)
     addusd:skk   :      0.02s CPU      0.03s WALL (      48 calls)
                                        0.00s GPU  (      48 calls)

     Called by *egterg:
     cdiaghg      :    124.91s CPU    127.82s WALL (     510 calls)
     cegterg:over :    164.28s CPU    164.97s WALL (     435 calls)
     cegterg:upda :     65.45s CPU     65.74s WALL (     435 calls)
     cegterg:last :    199.98s CPU    200.90s WALL (     150 calls)
     cdiaghg:chol :      7.40s CPU      7.42s WALL (     510 calls)
     cdiaghg:inve :      1.74s CPU      1.75s WALL (     510 calls)
     cdiaghg:para :     33.73s CPU     34.64s WALL (    1020 calls)
     h_psi        :    342.19s CPU    344.44s WALL (     520 calls)
     s_psi        :    129.68s CPU    130.02s WALL (     520 calls)
     g_psi        :      0.24s CPU      0.25s WALL (     435 calls)

     Called by h_psi:
     h_psi:calbec :    147.17s CPU    148.09s WALL (     520 calls)
     vloc_psi     :     61.80s CPU     62.30s WALL (     520 calls)
     add_vuspsi   :    132.70s CPU    133.14s WALL (     520 calls)

     General routines
     calbec       :    228.13s CPU    229.53s WALL (     625 calls)
     fft          :      0.26s CPU      0.29s WALL (     202 calls)
     ffts         :      0.01s CPU      0.02s WALL (      16 calls)
     fftw         :     69.87s CPU     70.46s WALL (  179636 calls)

     Parallel routines

     PAW routines
     PAW_pot      :      0.54s CPU      0.54s WALL (      16 calls)

     PWSCF        :  20m20.29s CPU  20m31.86s WALL


   This run was terminated on:  11:21:21  17Mar2025            

=------------------------------------------------------------------------------=
   JOB DONE.
=------------------------------------------------------------------------------=
Note: The following floating-point exceptions are signalling: IEEE_DENORMAL
Note: The following floating-point exceptions are signalling: IEEE_DENORMAL
Note: The following floating-point exceptions are signalling: IEEE_DENORMAL
Note: The following floating-point exceptions are signalling: IEEE_DENORMAL
Note: The following floating-point exceptions are signalling: IEEE_DENORMAL
Note: The following floating-point exceptions are signalling: IEEE_DENORMAL
Note: The following floating-point exceptions are signalling: IEEE_DENORMAL
