--------------------------------------------------------------------------
By default, for Open MPI 4.0 and later, infiniband ports on a device
are not used by default.  The intent is to use UCX for these devices.
You can override this policy by setting the btl_openib_allow_ib MCA parameter
to true.

  Local host:              psid01
  Local adapter:           mlx5_0
  Local port:              1

--------------------------------------------------------------------------
--------------------------------------------------------------------------
WARNING: There was an error initializing an OpenFabrics device.

  Local host:   psid01
  Local device: mlx5_0
--------------------------------------------------------------------------

     Program PWSCF v.7.3.1 starts on 17Mar2025 at 10:41: 0 

     This program is part of the open-source Quantum ESPRESSO suite
     for quantum simulation of materials; please cite
         "P. Giannozzi et al., J. Phys.:Condens. Matter 21 395502 (2009);
         "P. Giannozzi et al., J. Phys.:Condens. Matter 29 465901 (2017);
         "P. Giannozzi et al., J. Chem. Phys. 152 154105 (2020);
          URL http://www.quantum-espresso.org", 
     in publications or presentations arising from this work. More details at
     http://www.quantum-espresso.org/quote

     Parallel version (MPI), running on    30 processors

     MPI processes distributed on     1 nodes
     66840 MiB available memory on the printing compute node when the environment starts

     Waiting for input...
     Reading input from standard input
Warning: card &CELL ignored
Warning: card   CELL_DOFREE = 'ALL' ignored
Warning: card / ignored

     Current dimensions of program PWSCF are:
     Max number of different atomic species (ntypx) = 10
     Max number of k-points (npk) =  40000
     Max angular momentum in pseudopotentials (lmaxx) =  4
     Message from routine input:
     WARNING: "startingwfc" set to atomic+random may spoil restart
     Message from routine input:
     WARNING: "startingpot" set to atomic may spoil restart
     file C.pbe-n-kjpaw_psl.1.0.0.UPF: wavefunction(s)  2S 2P renormalized

     R & G space division:  proc/nbgrp/npool/nimage =      30
     Subspace diagonalization in iterative solution of the eigenvalue problem:
     one sub-group per band group will be used
     custom distributed-memory algorithm (size of sub-group:  4*  4 procs)


     Parallelization info
     --------------------
     sticks:   dense  smooth     PW     G-vecs:    dense   smooth      PW
     Min          53      53     15                 5607     5607     829
     Max          54      54     16                 5626     5626     841
     Sum        1617    1617    453               168549   168549   25031

     Using Slab Decomposition



     bravais-lattice index     =            0
     lattice parameter (alat)  =       9.8808  a.u.
     unit-cell volume          =    7588.2966 (a.u.)^3
     number of atoms/cell      =           47
     number of atomic types    =            4
     number of electrons       =       684.00
     number of Kohn-Sham states=          410
     kinetic-energy cutoff     =      30.0000  Ry
     charge density cutoff     =     120.0000  Ry
     scf convergence threshold =      7.3E-07
     mixing beta               =       0.7000
     number of iterations used =            8  plain     mixing
     energy convergence thresh.=      1.0E-05
     force convergence thresh. =      5.0E-04
     Exchange-correlation= PBE
                           (   1   4   3   4   0   0   0)
     nstep                     =          100


     celldm(1)=   9.880848  celldm(2)=   0.000000  celldm(3)=   0.000000
     celldm(4)=   0.000000  celldm(5)=   0.000000  celldm(6)=   0.000000

     crystal axes: (cart. coord. in units of alat)
               a(1) = (   1.000000   0.000000   0.000000 )  
               a(2) = (  -1.000000   1.732051   0.000000 )  
               a(3) = (   0.000000   0.000000   4.541517 )  

     reciprocal axes: (cart. coord. in units 2 pi/alat)
               b(1) = (  1.000000  0.577350 -0.000000 )  
               b(2) = (  0.000000  0.577350  0.000000 )  
               b(3) = (  0.000000 -0.000000  0.220191 )  


     PseudoPot. # 1 for Zn read from file:
     /home/ys/qepseudo/SSSP_1.3.0_PBE_efficiency/Zn_pbe_v1.uspp.F.UPF
     MD5 check sum: df62231357ef9e81f77b2b3087fa5675
     Pseudo is Ultrasoft, Zval = 20.0
     Generated by new atomic code, or converted to UPF format
     Using radial grid of  943 points,  6 beta functions with: 
                l(1) =   0
                l(2) =   0
                l(3) =   1
                l(4) =   1
                l(5) =   2
                l(6) =   2
     Q(r) pseudized with  8 coefficients,  rinner =    1.100   1.100   1.100
                                                       1.100   1.100

     PseudoPot. # 2 for C  read from file:
     /home/ys/qepseudo/SSSP_1.3.0_PBE_efficiency/C.pbe-n-kjpaw_psl.1.0.0.UPF
     MD5 check sum: 5d2aebdfa2cae82b50a7e79e9516da0f
     Pseudo is Projector augmented-wave + core cor, Zval =  4.0
     Generated using "atomic" code by A. Dal Corso  v.5.1
     Shape of augmentation charge: PSQ
     Using radial grid of 1073 points,  4 beta functions with: 
                l(1) =   0
                l(2) =   0
                l(3) =   1
                l(4) =   1
     Q(r) pseudized with 0 coefficients 


     PseudoPot. # 3 for N  read from file:
     /home/ys/qepseudo/SSSP_1.3.0_PBE_efficiency/N.pbe-n-radius_5.UPF
     MD5 check sum: 16739722b17309cd8fe442a2ace49922
     Pseudo is Ultrasoft + core correction, Zval =  5.0
     Generated using "atomic" code by A. Dal Corso  v.5.1
     Using radial grid of 1085 points,  4 beta functions with: 
                l(1) =   0
                l(2) =   0
                l(3) =   1
                l(4) =   1
     Q(r) pseudized with 0 coefficients 


     PseudoPot. # 4 for H  read from file:
     /home/ys/qepseudo/SSSP_1.3.0_PBE_efficiency/H.pbe-rrkjus_psl.1.0.0.UPF
     MD5 check sum: f52b6d4d1c606e5624b1dc7b2218f220
     Pseudo is Ultrasoft, Zval =  1.0
     Generated using "atomic" code by A. Dal Corso  v.5.1
     Using radial grid of  929 points,  2 beta functions with: 
                l(1) =   0
                l(2) =   0
     Q(r) pseudized with 0 coefficients 


     atomic species   valence    mass     pseudopotential
     Zn               20.00    65.38000     Zn( 1.00)
     C                 4.00    12.01070     C ( 1.00)
     N                 5.00    14.00670     N ( 1.00)
     H                 1.00     1.00800     H ( 1.00)

     No symmetry found


                                    s                        frac. trans.

      isym =  1     identity                                     

 cryst.   s( 1) = (     1          0          0      )
                  (     0          1          0      )
                  (     0          0          1      )

 cart.    s( 1) = (  1.0000000  0.0000000  0.0000000 )
                  (  0.0000000  1.0000000  0.0000000 )
                  (  0.0000000  0.0000000  1.0000000 )


   Cartesian axes

     site n.     atom                  positions (alat units)
         1        Zn     tau(   1) = (  -0.0000000   0.2886751   0.2329997  )
         2        Zn     tau(   2) = (  -0.0015956   0.2883274   1.1945650  )
         3        Zn     tau(   3) = (  -0.2500000   0.7216878   0.2329997  )
         4        Zn     tau(   4) = (  -0.2515812   0.7210546   1.1944703  )
         5        Zn     tau(   5) = (  -0.5000000   1.1547005   0.2329997  )
         6        Zn     tau(   6) = (  -0.5013201   1.1545453   1.1938771  )
         7        Zn     tau(   7) = (  -0.7500000   1.5877132   0.2329997  )
         8        Zn     tau(   8) = (  -0.7515572   1.5876848   1.1947155  )
         9        Zn     tau(   9) = (   0.5000000   0.2886751   0.2329997  )
        10        Zn     tau(  10) = (   0.4984486   0.2882905   1.1953127  )
        11        Zn     tau(  11) = (   0.2500000   0.7216878   0.2329997  )
        12        Zn     tau(  12) = (   0.2483912   0.7208958   1.1945420  )
        13        Zn     tau(  13) = (  -0.0000000   1.1547005   0.2329997  )
        14        Zn     tau(  14) = (  -0.0018542   1.1545267   1.1929962  )
        15        Zn     tau(  15) = (  -0.2500000   1.5877132   0.2329997  )
        16        Zn     tau(  16) = (  -0.2516238   1.5875761   1.1943214  )
        17        Zn     tau(  17) = (   0.2500000   0.1443376   0.6989991  )
        18        Zn     tau(  18) = (   0.2477781   0.1418880   1.6907569  )
        19        Zn     tau(  19) = (   0.0000000   0.5773503   0.6989991  )
        20        Zn     tau(  20) = (  -0.0022117   0.5747981   1.6912572  )
        21        Zn     tau(  21) = (  -0.2500000   1.0103630   0.6989991  )
        22        Zn     tau(  22) = (  -0.2523956   1.0080559   1.6901197  )
        23        Zn     tau(  23) = (  -0.5000000   1.4433757   0.6989991  )
        24        Zn     tau(  24) = (  -0.5023423   1.4408620   1.6897502  )
        25        Zn     tau(  25) = (   0.7500000   0.1443376   0.6989991  )
        26        Zn     tau(  26) = (   0.7476007   0.1418093   1.6886404  )
        27        Zn     tau(  27) = (   0.5000000   0.5773503   0.6989991  )
        28        Zn     tau(  28) = (   0.4978454   0.5745953   1.6880972  )
        29        Zn     tau(  29) = (   0.2500000   1.0103630   0.6989991  )
        30        Zn     tau(  30) = (   0.2475240   1.0079744   1.6784327  )
        31        Zn     tau(  31) = (   0.0000000   1.4433757   0.6989991  )
        32        Zn     tau(  32) = (  -0.0024341   1.4411790   1.6878057  )
        33        C      tau(  33) = (   0.2399568   0.8444078   3.4525702  )
        34        C      tau(  34) = (   0.2630131   0.8850722   3.1840829  )
        35        C      tau(  35) = (   0.4196057   0.7248134   3.0335672  )
        36        C      tau(  36) = (   0.1243007   1.0818288   3.0622350  )
        37        C      tau(  37) = (   0.1431885   1.1183810   2.7999938  )
        38        C      tau(  38) = (   0.4397472   0.7624359   2.7716382  )
        39        C      tau(  39) = (   0.3024229   0.9603392   2.6500097  )
        40        N      tau(  40) = (   0.2206571   0.8103455   3.6736596  )
        41        N      tau(  41) = (   0.3312732   1.0041781   2.3911770  )
        42        H      tau(  42) = (   0.1951439   1.1111849   2.3012935  )
        43        H      tau(  43) = (   0.4013544   0.8591529   2.2810323  )
        44        H      tau(  44) = (   0.5274808   0.5711421   3.1257394  )
        45        H      tau(  45) = (   0.0323501   1.2705899   2.7080448  )
        46        H      tau(  46) = (   0.5642588   0.6378932   2.6579862  )
        47        H      tau(  47) = (  -0.0016305   1.2040791   3.1760216  )

   Crystallographic axes

     site n.     atom                  positions (cryst. coord.)
         1        Zn     tau(   1) = (  0.1666667  0.1666667  0.0513044  )
         2        Zn     tau(   2) = (  0.1648703  0.1664659  0.2630321  )
         3        Zn     tau(   3) = (  0.1666667  0.4166667  0.0513044  )
         4        Zn     tau(   4) = (  0.1647199  0.4163011  0.2630113  )
         5        Zn     tau(   5) = (  0.1666667  0.6666667  0.0513044  )
         6        Zn     tau(   6) = (  0.1652570  0.6665771  0.2628807  )
         7        Zn     tau(   7) = (  0.1666667  0.9166667  0.0513044  )
         8        Zn     tau(   8) = (  0.1650931  0.9166503  0.2630653  )
         9        Zn     tau(   9) = (  0.6666667  0.1666667  0.0513044  )
        10        Zn     tau(  10) = (  0.6648931  0.1664446  0.2631968  )
        11        Zn     tau(  11) = (  0.6666667  0.4166667  0.0513044  )
        12        Zn     tau(  12) = (  0.6646006  0.4162094  0.2630271  )
        13        Zn     tau(  13) = (  0.6666667  0.6666667  0.0513044  )
        14        Zn     tau(  14) = (  0.6647121  0.6665663  0.2626867  )
        15        Zn     tau(  15) = (  0.6666667  0.9166667  0.0513044  )
        16        Zn     tau(  16) = (  0.6649637  0.9165875  0.2629785  )
        17        Zn     tau(  17) = (  0.3333333  0.0833333  0.1539131  )
        18        Zn     tau(  18) = (  0.3296972  0.0819191  0.3722890  )
        19        Zn     tau(  19) = (  0.3333333  0.3333333  0.1539131  )
        20        Zn     tau(  20) = (  0.3296481  0.3318599  0.3723991  )
        21        Zn     tau(  21) = (  0.3333333  0.5833333  0.1539131  )
        22        Zn     tau(  22) = (  0.3296058  0.5820014  0.3721487  )
        23        Zn     tau(  23) = (  0.3333333  0.8333333  0.1539131  )
        24        Zn     tau(  24) = (  0.3295397  0.8318821  0.3720673  )
        25        Zn     tau(  25) = (  0.8333333  0.0833333  0.1539131  )
        26        Zn     tau(  26) = (  0.8294744  0.0818737  0.3718230  )
        27        Zn     tau(  27) = (  0.8333333  0.3333333  0.1539131  )
        28        Zn     tau(  28) = (  0.8295882  0.3317427  0.3717033  )
        29        Zn     tau(  29) = (  0.8333333  0.5833333  0.1539131  )
        30        Zn     tau(  30) = (  0.8294783  0.5819543  0.3695753  )
        31        Zn     tau(  31) = (  0.8333333  0.8333333  0.1539131  )
        32        Zn     tau(  32) = (  0.8296310  0.8320651  0.3716392  )
        33        C      tau(  33) = (  0.7274758  0.4875191  0.7602239  )
        34        C      tau(  34) = (  0.7740097  0.5109967  0.7011055  )
        35        C      tau(  35) = (  0.8380769  0.4184712  0.6679634  )
        36        C      tau(  36) = (  0.7488949  0.6245942  0.6742757  )
        37        C      tau(  37) = (  0.7888860  0.6456975  0.6165326  )
        38        C      tau(  38) = (  0.8799397  0.4401925  0.6102890  )
        39        C      tau(  39) = (  0.8568750  0.5544521  0.5835075  )
        40        N      tau(  40) = (  0.6885103  0.4678532  0.8089058  )
        41        N      tau(  41) = (  0.9110357  0.5797625  0.5265150  )
        42        H      tau(  42) = (  0.8366867  0.6415429  0.5067235  )
        43        H      tau(  43) = (  0.8973866  0.4960321  0.5022622  )
        44        H      tau(  44) = (  0.8572298  0.3297490  0.6882588  )
        45        H      tau(  45) = (  0.7659256  0.7335754  0.5962863  )
        46        H      tau(  46) = (  0.9325466  0.3682878  0.5852639  )
        47        H      tau(  47) = (  0.6935449  0.6951754  0.6993305  )

     number of k points=     5  Marzari-Vanderbilt smearing, width (Ry)=  0.0200
                       cart. coord. in units 2pi/alat
        k(    1) = (   0.0000000   0.0000000   0.0000000), wk =   0.2222222
        k(    2) = (   0.0000000   0.1924501   0.0000000), wk =   0.4444444
        k(    3) = (   0.3333333   0.1924501   0.0000000), wk =   0.4444444
        k(    4) = (   0.3333333   0.3849002   0.0000000), wk =   0.4444444
        k(    5) = (   0.3333333  -0.0000000   0.0000000), wk =   0.4444444

                       cryst. coord.
        k(    1) = (   0.0000000   0.0000000   0.0000000), wk =   0.2222222
        k(    2) = (   0.0000000   0.3333333   0.0000000), wk =   0.4444444
        k(    3) = (   0.3333333   0.0000000   0.0000000), wk =   0.4444444
        k(    4) = (   0.3333333   0.3333333   0.0000000), wk =   0.4444444
        k(    5) = (   0.3333333  -0.3333333   0.0000000), wk =   0.4444444

     Dense  grid:   168549 G-vectors     FFT dimensions: (  36,  72, 160)

     Dynamical RAM for                 wfc:       4.39 MB

     Dynamical RAM for     wfc (w. buffer):      26.31 MB

     Dynamical RAM for           str. fact:       0.34 MB

     Dynamical RAM for           local pot:       0.00 MB

     Dynamical RAM for          nlocal pot:       7.06 MB

     Dynamical RAM for                qrad:       3.52 MB

     Dynamical RAM for          rho,v,vnew:       0.61 MB

     Dynamical RAM for               rhoin:       0.20 MB

     Dynamical RAM for            rho*nmix:       1.37 MB

     Dynamical RAM for           G-vectors:       0.36 MB

     Dynamical RAM for          h,s,v(r/c):       1.92 MB

     Dynamical RAM for          <psi|beta>:       4.13 MB

     Dynamical RAM for                 psi:       8.77 MB

     Dynamical RAM for                hpsi:       8.77 MB

     Dynamical RAM for                spsi:       8.77 MB

     Dynamical RAM for      wfcinit/wfcrot:      14.60 MB

     Dynamical RAM for           addusdens:      18.71 MB

     Dynamical RAM for          addusforce:      24.20 MB

     Dynamical RAM for         addusstress:      17.25 MB

     Estimated static dynamical RAM per process >      39.44 MB

     Estimated max dynamical RAM per process >      73.18 MB

     Estimated total dynamical RAM >       2.14 GB

     Atomic positions and unit cell read from directory:
     ./tmp/Zn002_2x2x4_relax_ecutrho250_ecutwfc25_ABN.save/


     Check: negative core charge=   -0.000085

     The initial density is read from file :
     ./tmp/Zn002_2x2x4_relax_ecutrho250_ecutwfc25_ABN.save/charge-density


     negative rho (up, down):  1.224E-02 0.000E+00
     Starting wfcs are  458 randomized atomic wfcs
[psid01:21150] 29 more processes have sent help message help-mpi-btl-openib.txt / ib port not selected
[psid01:21150] Set MCA parameter "orte_base_help_aggregate" to 0 to see all help / error messages
[psid01:21150] 29 more processes have sent help message help-mpi-btl-openib.txt / error in device init
     Checking if some PAW data can be deallocated... 
       PAW data deallocated on   24 nodes for type:  2

     total cpu time spent up to now is       10.5 secs

     Self-consistent Calculation

     iteration #  1     ecut=    30.00 Ry     beta= 0.70
     Davidson diagonalization with overlap

---- Real-time Memory Report at c_bands before calling an iterative solver
            86 MiB given to the printing process from OS
             0 MiB allocation reported by mallinfo(arena+hblkhd)
         64868 MiB available memory on the node where the printing process lives
------------------
     ethr =  1.00E-05,  avg # of iterations = 11.8

     Threshold (ethr) on eigenvalues was too large:
     Diagonalizing with lowered threshold

     Davidson diagonalization with overlap

---- Real-time Memory Report at c_bands before calling an iterative solver
           108 MiB given to the printing process from OS
             0 MiB allocation reported by mallinfo(arena+hblkhd)
         64684 MiB available memory on the node where the printing process lives
------------------
     ethr =  1.33E-09,  avg # of iterations =  5.0

     negative rho (up, down):  1.225E-02 0.000E+00

     total cpu time spent up to now is      169.5 secs

     total energy              =  -14944.18278327 Ry
     estimated scf accuracy    <       0.00000764 Ry

     iteration #  2     ecut=    30.00 Ry     beta= 0.70
     Davidson diagonalization with overlap

---- Real-time Memory Report at c_bands before calling an iterative solver
           108 MiB given to the printing process from OS
             0 MiB allocation reported by mallinfo(arena+hblkhd)
         64634 MiB available memory on the node where the printing process lives
------------------
     ethr =  1.12E-09,  avg # of iterations =  3.0

     negative rho (up, down):  1.225E-02 0.000E+00

     total cpu time spent up to now is      202.7 secs

     total energy              =  -14944.18277832 Ry
     estimated scf accuracy    <       0.00002318 Ry

     iteration #  3     ecut=    30.00 Ry     beta= 0.70
     Davidson diagonalization with overlap

---- Real-time Memory Report at c_bands before calling an iterative solver
           109 MiB given to the printing process from OS
             0 MiB allocation reported by mallinfo(arena+hblkhd)
         64617 MiB available memory on the node where the printing process lives
------------------
     ethr =  1.12E-09,  avg # of iterations =  2.0

     negative rho (up, down):  1.225E-02 0.000E+00

     total cpu time spent up to now is      234.9 secs

     total energy              =  -14944.18277743 Ry
     estimated scf accuracy    <       0.00011314 Ry

     iteration #  4     ecut=    30.00 Ry     beta= 0.70
     Davidson diagonalization with overlap

---- Real-time Memory Report at c_bands before calling an iterative solver
           110 MiB given to the printing process from OS
             0 MiB allocation reported by mallinfo(arena+hblkhd)
         64612 MiB available memory on the node where the printing process lives
------------------
     ethr =  1.12E-09,  avg # of iterations =  2.0

     negative rho (up, down):  1.225E-02 0.000E+00

     total cpu time spent up to now is      266.3 secs

     total energy              =  -14944.18278373 Ry
     estimated scf accuracy    <       0.00000637 Ry

     iteration #  5     ecut=    30.00 Ry     beta= 0.70
     Davidson diagonalization with overlap

---- Real-time Memory Report at c_bands before calling an iterative solver
           110 MiB given to the printing process from OS
             0 MiB allocation reported by mallinfo(arena+hblkhd)
         64602 MiB available memory on the node where the printing process lives
------------------
     ethr =  9.31E-10,  avg # of iterations =  2.0

     negative rho (up, down):  1.225E-02 0.000E+00

     total cpu time spent up to now is      296.7 secs

     End of self-consistent calculation

          k = 0.0000 0.0000 0.0000 ( 21087 PWs)   bands (ev):

  -122.6400-122.6365-122.6363-122.6360-122.6356-122.6354-122.6346-122.6342
  -122.5604-122.5578-122.5568-122.5543-122.5529-122.5520-122.5517-122.5508
  -122.4221-122.4193-122.4187-122.4182-122.4172-122.4161-122.4153-122.4141
  -122.4001-122.3832-122.3771-122.3748-122.3719-122.3701-122.3687-122.3681
   -76.7488 -76.7484 -76.7444 -76.7407 -76.7400 -76.7288 -76.7262 -76.7255
   -76.7253 -76.7249 -76.7248 -76.7242 -76.7236 -76.7132 -76.7123 -76.7119
   -76.7103 -76.7094 -76.7093 -76.7090 -76.7088 -76.7076 -76.7055 -76.7053
   -76.6682 -76.6667 -76.6628 -76.6585 -76.6582 -76.6489 -76.6469 -76.6460
   -76.6432 -76.6418 -76.6411 -76.6410 -76.6400 -76.6331 -76.6321 -76.6304
   -76.6295 -76.6286 -76.6267 -76.6261 -76.6256 -76.6249 -76.6230 -76.6225
   -76.5273 -76.5272 -76.5227 -76.5187 -76.5184 -76.5181 -76.5164 -76.5161
   -76.5154 -76.5139 -76.5132 -76.5125 -76.5111 -76.4983 -76.4945 -76.4918
   -76.4905 -76.4899 -76.4895 -76.4880 -76.4874 -76.4874 -76.4872 -76.4861
   -76.4851 -76.4833 -76.4827 -76.4818 -76.4809 -76.4757 -76.4751 -76.4738
   -76.4736 -76.4708 -76.4686 -76.4678 -76.4674 -76.4598 -76.4540 -76.4499
   -76.4467 -76.4431 -76.4421 -76.4414 -76.4400 -76.4388 -76.4370 -76.4358
   -15.1382 -13.6727 -12.8903 -10.5013 -10.4337  -7.4764  -7.2058  -5.9929
    -5.3092  -5.2447  -4.7131  -4.6815  -4.5788  -4.5005  -4.4385  -4.4367
    -4.3474  -4.3459  -4.3457  -4.2562  -4.2546  -4.2541  -4.1418  -4.1411
    -4.1408  -4.1364  -4.1339  -4.0559  -4.0534  -4.0509  -4.0096  -4.0091
    -3.9826  -3.9822  -3.9818  -3.9208  -3.9208  -3.9056  -3.9012  -3.8864
    -3.8846  -3.8825  -3.8796  -3.8792  -3.8112  -3.8110  -3.7796  -3.7371
    -3.7367  -3.7314  -3.7292  -3.6880  -3.6877  -3.6800  -3.6778  -3.6762
    -3.6749  -3.6735  -3.6264  -3.6239  -3.5913  -3.5911  -3.5895  -3.5878
    -3.5518  -3.5503  -3.5495  -3.5479  -3.5443  -3.5385  -3.5367  -3.5235
    -3.5032  -3.5032  -3.4772  -3.4764  -3.4727  -3.4723  -3.4239  -3.4205
    -3.3882  -3.3869  -3.3687  -3.3685  -3.3328  -3.3323  -3.3169  -3.3168
    -3.2959  -3.2936  -3.2933  -3.2821  -3.2807  -3.2589  -3.2576  -3.2323
    -3.2320  -3.2309  -3.2251  -3.2141  -3.2134  -3.2131  -3.2113  -3.2099
    -3.2006  -3.1954  -3.1931  -3.1925  -3.1853  -3.1836  -3.1342  -3.1339
    -3.1313  -3.1301  -3.1288  -3.1031  -3.1022  -3.0938  -3.0905  -3.0667
    -3.0661  -3.0542  -3.0524  -3.0505  -3.0498  -3.0454  -3.0432  -2.9978
    -2.9957  -2.9921  -2.9822  -2.9796  -2.9509  -2.9509  -2.9473  -2.9442
    -2.9440  -2.9275  -2.9255  -2.9229  -2.9148  -2.9143  -2.9136  -2.9105
    -2.9091  -2.9086  -2.9073  -2.8798  -2.8791  -2.8570  -2.8564  -2.8549
    -2.8544  -2.8528  -2.8361  -2.8326  -2.8054  -2.8014  -2.7836  -2.7835
    -2.7620  -2.7611  -2.7603  -2.7601  -2.7599  -2.6792  -2.6784  -2.6780
    -2.6680  -2.5946  -2.5780  -2.5378  -2.5376  -2.5373  -2.4977  -2.4955
    -2.4919  -2.4712  -2.4697  -2.1614  -1.6263  -1.3488  -1.0656  -1.0598
    -0.6911  -0.4324  -0.2884   0.3918   0.4572   0.4575   0.7248   0.7270
     0.8125   1.0245   1.2672   1.2679   1.5404   1.5443   1.7608   1.7641
     1.7657   2.3139   2.3245   2.3304   2.6236   2.6268   2.6298   2.6700
     2.6716   2.8942   2.9033   2.9071   3.0444   3.8258   3.8267   4.2661
     4.2706   4.3378   4.9256   4.9387   4.9499   5.2284   5.2315   5.2477
     5.9673   5.9717   5.9761   6.2002   6.2318   6.4563   6.6130   6.6541
     6.8951   6.8994   6.9028   7.1289   7.4859   7.6743   7.6754   8.0225
     8.0244   8.1562   8.1854   8.1878   8.3833   8.4974   8.8036   8.8500
     8.8676   8.8760   8.8763   8.8905   8.9337   8.9394   9.0382   9.0904
     9.2621   9.3118   9.4867   9.5465   9.8052   9.8424  10.3389  10.3516
    10.3722  10.3983  10.4200  10.4246  10.4411  10.4974  10.6238  10.7819
    10.8598  11.0261  11.2882  11.3922  11.4053  11.4378  11.5379  11.5736
    11.6314  11.7741

     occupation numbers 
     1.0000   1.0000   1.0000   1.0000   1.0000   1.0000   1.0000   1.0000
     1.0000   1.0000   1.0000   1.0000   1.0000   1.0000   1.0000   1.0000
     1.0000   1.0000   1.0000   1.0000   1.0000   1.0000   1.0000   1.0000
     1.0000   1.0000   1.0000   1.0000   1.0000   1.0000   1.0000   1.0000
     1.0000   1.0000   1.0000   1.0000   1.0000   1.0000   1.0000   1.0000
     1.0000   1.0000   1.0000   1.0000   1.0000   1.0000   1.0000   1.0000
     1.0000   1.0000   1.0000   1.0000   1.0000   1.0000   1.0000   1.0000
     1.0000   1.0000   1.0000   1.0000   1.0000   1.0000   1.0000   1.0000
     1.0000   1.0000   1.0000   1.0000   1.0000   1.0000   1.0000   1.0000
     1.0000   1.0000   1.0000   1.0000   1.0000   1.0000   1.0000   1.0000
     1.0000   1.0000   1.0000   1.0000   1.0000   1.0000   1.0000   1.0000
     1.0000   1.0000   1.0000   1.0000   1.0000   1.0000   1.0000   1.0000
     1.0000   1.0000   1.0000   1.0000   1.0000   1.0000   1.0000   1.0000
     1.0000   1.0000   1.0000   1.0000   1.0000   1.0000   1.0000   1.0000
     1.0000   1.0000   1.0000   1.0000   1.0000   1.0000   1.0000   1.0000
     1.0000   1.0000   1.0000   1.0000   1.0000   1.0000   1.0000   1.0000
     1.0000   1.0000   1.0000   1.0000   1.0000   1.0000   1.0000   1.0000
     1.0000   1.0000   1.0000   1.0000   1.0000   1.0000   1.0000   1.0000
     1.0000   1.0000   1.0000   1.0000   1.0000   1.0000   1.0000   1.0000
     1.0000   1.0000   1.0000   1.0000   1.0000   1.0000   1.0000   1.0000
     1.0000   1.0000   1.0000   1.0000   1.0000   1.0000   1.0000   1.0000
     1.0000   1.0000   1.0000   1.0000   1.0000   1.0000   1.0000   1.0000
     1.0000   1.0000   1.0000   1.0000   1.0000   1.0000   1.0000   1.0000
     1.0000   1.0000   1.0000   1.0000   1.0000   1.0000   1.0000   1.0000
     1.0000   1.0000   1.0000   1.0000   1.0000   1.0000   1.0000   1.0000
     1.0000   1.0000   1.0000   1.0000   1.0000   1.0000   1.0000   1.0000
     1.0000   1.0000   1.0000   1.0000   1.0000   1.0000   1.0000   1.0000
     1.0000   1.0000   1.0000   1.0000   1.0000   1.0000   1.0000   1.0000
     1.0000   1.0000   1.0000   1.0000   1.0000   1.0000   1.0000   1.0000
     1.0000   1.0000   1.0000   1.0000   1.0000   1.0000   1.0000   1.0000
     1.0000   1.0000   1.0000   1.0000   1.0000   1.0000   1.0000   1.0000
     1.0000   1.0000   1.0000   1.0000   1.0000   1.0000   1.0000   1.0000
     1.0000   1.0000   1.0000   1.0000   1.0000   1.0000   1.0000   1.0000
     1.0000   1.0000   1.0000   1.0000   1.0000   1.0000   1.0000   1.0000
     1.0000   1.0000   1.0000   1.0000   1.0000   1.0000   1.0000   1.0000
     1.0000   1.0000   1.0000   1.0000   1.0000   1.0000   1.0000   1.0000
     1.0000   1.0000   1.0000   1.0000   1.0000   1.0000   1.0000   1.0000
     1.0000   1.0000   1.0000   1.0000   1.0000   1.0000   1.0000   1.0000
     1.0000   1.0000   1.0000   1.0000   1.0000   1.0000   1.0000   1.0000
     1.0000   1.0000   1.0000   1.0000   1.0000   1.0000   1.0000   1.0000
     1.0000   1.0000   1.0000   1.0000   1.0000   1.0000   1.0000   1.0000
     1.0000   1.0000   1.0000   1.0000   1.0000   1.0000   1.0000   1.0000
     1.0000   1.0000   1.0000   1.0000   1.0000   1.0298   1.0301   0.7823
     0.7708   0.5891   0.0006   0.0004   0.0003   0.0000   0.0000   0.0000
     0.0000   0.0000   0.0000   0.0000   0.0000   0.0000   0.0000   0.0000
     0.0000   0.0000   0.0000   0.0000   0.0000   0.0000   0.0000   0.0000
     0.0000   0.0000   0.0000   0.0000   0.0000   0.0000   0.0000   0.0000
     0.0000   0.0000   0.0000   0.0000   0.0000   0.0000   0.0000   0.0000
     0.0000   0.0000   0.0000   0.0000   0.0000   0.0000   0.0000   0.0000
     0.0000   0.0000   0.0000   0.0000   0.0000   0.0000   0.0000   0.0000
     0.0000   0.0000   0.0000   0.0000   0.0000   0.0000   0.0000   0.0000
     0.0000   0.0000

          k = 0.0000 0.1925 0.0000 ( 21094 PWs)   bands (ev):

  -122.6387-122.6367-122.6367-122.6360-122.6358-122.6356-122.6349-122.6344
  -122.5598-122.5578-122.5570-122.5542-122.5529-122.5523-122.5520-122.5511
  -122.4209-122.4194-122.4191-122.4185-122.4171-122.4162-122.4156-122.4144
  -122.4000-122.3831-122.3771-122.3749-122.3718-122.3700-122.3690-122.3683
   -76.7478 -76.7473 -76.7420 -76.7415 -76.7397 -76.7281 -76.7270 -76.7262
   -76.7252 -76.7247 -76.7246 -76.7237 -76.7226 -76.7223 -76.7157 -76.7153
   -76.7110 -76.7108 -76.7099 -76.7085 -76.7074 -76.7056 -76.7033 -76.7005
   -76.6673 -76.6656 -76.6596 -76.6596 -76.6581 -76.6490 -76.6467 -76.6454
   -76.6436 -76.6430 -76.6421 -76.6409 -76.6400 -76.6389 -76.6352 -76.6331
   -76.6302 -76.6286 -76.6284 -76.6263 -76.6246 -76.6225 -76.6221 -76.6176
   -76.5263 -76.5262 -76.5201 -76.5197 -76.5182 -76.5179 -76.5173 -76.5148
   -76.5147 -76.5143 -76.5136 -76.5114 -76.5102 -76.5028 -76.4980 -76.4946
   -76.4939 -76.4935 -76.4888 -76.4887 -76.4884 -76.4873 -76.4870 -76.4851
   -76.4832 -76.4831 -76.4806 -76.4792 -76.4783 -76.4758 -76.4752 -76.4741
   -76.4735 -76.4703 -76.4689 -76.4676 -76.4662 -76.4636 -76.4561 -76.4525
   -76.4487 -76.4446 -76.4444 -76.4419 -76.4396 -76.4376 -76.4361 -76.4321
   -15.1383 -13.6727 -12.8903 -10.5014 -10.4338  -7.4763  -7.2058  -5.7807
    -5.3088  -5.1761  -5.0477  -4.7135  -4.6800  -4.5224  -4.4495  -4.3803
    -4.3165  -4.2765  -4.2762  -4.2609  -4.2224  -4.1847  -4.1839  -4.1712
    -4.1516  -4.1106  -4.0867  -4.0862  -4.0845  -4.0745  -4.0743  -4.0377
    -4.0219  -4.0028  -4.0021  -3.9872  -3.9859  -3.9517  -3.9470  -3.9460
    -3.9443  -3.9359  -3.9354  -3.8638  -3.8551  -3.8529  -3.8515  -3.8314
    -3.8309  -3.7882  -3.7873  -3.7742  -3.7517  -3.7339  -3.7328  -3.7018
    -3.6618  -3.6609  -3.6563  -3.6488  -3.6307  -3.6289  -3.6134  -3.6110
    -3.5981  -3.5490  -3.5392  -3.5361  -3.5315  -3.5300  -3.5220  -3.5212
    -3.4907  -3.4903  -3.4529  -3.4499  -3.4387  -3.3899  -3.3882  -3.3870
    -3.3861  -3.3852  -3.3518  -3.3437  -3.3429  -3.3367  -3.3252  -3.3248
    -3.3158  -3.3017  -3.2946  -3.2848  -3.2636  -3.2524  -3.2414  -3.2395
    -3.2361  -3.2150  -3.2141  -3.1951  -3.1743  -3.1642  -3.1631  -3.1454
    -3.1440  -3.1330  -3.1301  -3.1253  -3.1233  -3.1134  -3.1117  -3.1033
    -3.1022  -3.1014  -3.0985  -3.0641  -3.0418  -3.0409  -3.0294  -3.0269
    -3.0248  -3.0182  -3.0107  -3.0092  -3.0069  -3.0061  -3.0030  -3.0027
    -2.9889  -2.9804  -2.9791  -2.9780  -2.9735  -2.9725  -2.9714  -2.9560
    -2.9556  -2.9408  -2.9350  -2.9342  -2.9115  -2.9066  -2.8971  -2.8965
    -2.8956  -2.8947  -2.8906  -2.8746  -2.8741  -2.8715  -2.8633  -2.8566
    -2.8528  -2.8398  -2.8304  -2.8300  -2.8297  -2.8148  -2.8090  -2.7643
    -2.7640  -2.7633  -2.7633  -2.7460  -2.7356  -2.7347  -2.7338  -2.7042
    -2.6669  -2.6328  -2.6327  -2.5941  -2.5925  -2.5905  -2.5843  -2.5513
    -2.3652  -2.1634  -2.0264  -1.8911  -1.6256  -1.3454  -1.2148  -0.5433
    -0.4325  -0.2903  -0.1730  -0.0893   0.2655   0.3922   0.6109   0.6112
     0.6355   0.8119   1.0220   1.1106   1.1114   1.4183   1.4190   1.5449
     1.8238   1.8829   1.8845   1.9813   2.0221   2.6155   2.7973   2.7999
     3.0260   3.0597   3.0752   3.4648   3.5062   3.5085   4.2691   4.2732
     4.5523   5.1729   5.1766   5.1923   5.3785   5.5052   5.5132   5.5593
     6.0491   6.0493   6.1881   6.2885   6.2912   6.5443   6.6179   6.7259
     6.7489   6.7511   7.0223   7.2070   7.4626   7.5893   7.6756   7.6884
     7.7029   7.7662   7.8615   7.8684   8.1183   8.3194   8.3311   8.3709
     8.4163   8.4740   8.4834   8.5101   8.8369   9.0753   9.1822   9.2853
     9.4078   9.4758   9.5059   9.6263   9.7612   9.8323   9.9572  10.1374
    10.3362  10.3889  10.5251  10.6303  10.6637  10.6871  10.6925  10.7594
    10.9927  11.2073  11.3137  11.3929  11.4566  11.5001  11.5501  11.5612
    11.6209  11.7639

     occupation numbers 
     1.0000   1.0000   1.0000   1.0000   1.0000   1.0000   1.0000   1.0000
     1.0000   1.0000   1.0000   1.0000   1.0000   1.0000   1.0000   1.0000
     1.0000   1.0000   1.0000   1.0000   1.0000   1.0000   1.0000   1.0000
     1.0000   1.0000   1.0000   1.0000   1.0000   1.0000   1.0000   1.0000
     1.0000   1.0000   1.0000   1.0000   1.0000   1.0000   1.0000   1.0000
     1.0000   1.0000   1.0000   1.0000   1.0000   1.0000   1.0000   1.0000
     1.0000   1.0000   1.0000   1.0000   1.0000   1.0000   1.0000   1.0000
     1.0000   1.0000   1.0000   1.0000   1.0000   1.0000   1.0000   1.0000
     1.0000   1.0000   1.0000   1.0000   1.0000   1.0000   1.0000   1.0000
     1.0000   1.0000   1.0000   1.0000   1.0000   1.0000   1.0000   1.0000
     1.0000   1.0000   1.0000   1.0000   1.0000   1.0000   1.0000   1.0000
     1.0000   1.0000   1.0000   1.0000   1.0000   1.0000   1.0000   1.0000
     1.0000   1.0000   1.0000   1.0000   1.0000   1.0000   1.0000   1.0000
     1.0000   1.0000   1.0000   1.0000   1.0000   1.0000   1.0000   1.0000
     1.0000   1.0000   1.0000   1.0000   1.0000   1.0000   1.0000   1.0000
     1.0000   1.0000   1.0000   1.0000   1.0000   1.0000   1.0000   1.0000
     1.0000   1.0000   1.0000   1.0000   1.0000   1.0000   1.0000   1.0000
     1.0000   1.0000   1.0000   1.0000   1.0000   1.0000   1.0000   1.0000
     1.0000   1.0000   1.0000   1.0000   1.0000   1.0000   1.0000   1.0000
     1.0000   1.0000   1.0000   1.0000   1.0000   1.0000   1.0000   1.0000
     1.0000   1.0000   1.0000   1.0000   1.0000   1.0000   1.0000   1.0000
     1.0000   1.0000   1.0000   1.0000   1.0000   1.0000   1.0000   1.0000
     1.0000   1.0000   1.0000   1.0000   1.0000   1.0000   1.0000   1.0000
     1.0000   1.0000   1.0000   1.0000   1.0000   1.0000   1.0000   1.0000
     1.0000   1.0000   1.0000   1.0000   1.0000   1.0000   1.0000   1.0000
     1.0000   1.0000   1.0000   1.0000   1.0000   1.0000   1.0000   1.0000
     1.0000   1.0000   1.0000   1.0000   1.0000   1.0000   1.0000   1.0000
     1.0000   1.0000   1.0000   1.0000   1.0000   1.0000   1.0000   1.0000
     1.0000   1.0000   1.0000   1.0000   1.0000   1.0000   1.0000   1.0000
     1.0000   1.0000   1.0000   1.0000   1.0000   1.0000   1.0000   1.0000
     1.0000   1.0000   1.0000   1.0000   1.0000   1.0000   1.0000   1.0000
     1.0000   1.0000   1.0000   1.0000   1.0000   1.0000   1.0000   1.0000
     1.0000   1.0000   1.0000   1.0000   1.0000   1.0000   1.0000   1.0000
     1.0000   1.0000   1.0000   1.0000   1.0000   1.0000   1.0000   1.0000
     1.0000   1.0000   1.0000   1.0000   1.0000   1.0000   1.0000   1.0000
     1.0000   1.0000   1.0000   1.0000   1.0000   1.0000   1.0000   1.0000
     1.0000   1.0000   1.0000   1.0000   1.0000   1.0000   1.0000   1.0000
     1.0000   1.0000   1.0000   1.0000   1.0000   1.0000   1.0000   1.0000
     1.0000   1.0000   1.0000   1.0000   1.0000   1.0000   1.0000   1.0000
     1.0000   1.0000   1.0000   1.0000   1.0000   1.0000   1.0000   1.0000
     1.0000   1.0000   1.0000   1.0000   1.0000   1.0000   1.0000   1.0000
     1.0000   1.0000   1.0000   1.0000   1.0000   1.0000   1.0000   1.0000
     1.0000   1.0000   1.0000   1.0001   1.0003   1.0003   0.7747   0.7640
     0.1265   0.0000   0.0000   0.0000   0.0000   0.0000   0.0000   0.0000
     0.0000   0.0000   0.0000   0.0000   0.0000   0.0000   0.0000   0.0000
     0.0000   0.0000   0.0000   0.0000   0.0000   0.0000   0.0000   0.0000
     0.0000   0.0000   0.0000   0.0000   0.0000   0.0000   0.0000   0.0000
     0.0000   0.0000   0.0000   0.0000   0.0000   0.0000   0.0000   0.0000
     0.0000   0.0000   0.0000   0.0000   0.0000   0.0000   0.0000   0.0000
     0.0000   0.0000   0.0000   0.0000   0.0000   0.0000   0.0000   0.0000
     0.0000   0.0000   0.0000   0.0000   0.0000   0.0000   0.0000   0.0000
     0.0000   0.0000

          k = 0.3333 0.1925 0.0000 ( 21057 PWs)   bands (ev):

  -122.6371-122.6366-122.6363-122.6359-122.6357-122.6356-122.6348-122.6343
  -122.5592-122.5573-122.5569-122.5537-122.5525-122.5521-122.5519-122.5509
  -122.4197-122.4194-122.4190-122.4183-122.4168-122.4161-122.4154-122.4142
  -122.3997-122.3827-122.3767-122.3746-122.3715-122.3697-122.3688-122.3682
   -76.7402 -76.7389 -76.7373 -76.7306 -76.7289 -76.7280 -76.7265 -76.7259
   -76.7250 -76.7249 -76.7245 -76.7238 -76.7236 -76.7234 -76.7232 -76.7201
   -76.7171 -76.7155 -76.7112 -76.7058 -76.7046 -76.7040 -76.7025 -76.7004
   -76.6592 -76.6572 -76.6554 -76.6489 -76.6488 -76.6473 -76.6468 -76.6459
   -76.6432 -76.6421 -76.6418 -76.6414 -76.6412 -76.6407 -76.6397 -76.6387
   -76.6350 -76.6331 -76.6293 -76.6239 -76.6233 -76.6216 -76.6205 -76.6173
   -76.5187 -76.5180 -76.5173 -76.5165 -76.5161 -76.5155 -76.5153 -76.5142
   -76.5130 -76.5124 -76.5109 -76.5086 -76.5073 -76.5019 -76.5016 -76.4986
   -76.4981 -76.4953 -76.4934 -76.4894 -76.4861 -76.4841 -76.4835 -76.4831
   -76.4822 -76.4814 -76.4807 -76.4779 -76.4754 -76.4738 -76.4716 -76.4708
   -76.4687 -76.4682 -76.4677 -76.4672 -76.4650 -76.4609 -76.4595 -76.4558
   -76.4508 -76.4483 -76.4450 -76.4423 -76.4391 -76.4376 -76.4347 -76.4314
   -15.1351 -13.6697 -12.8822 -10.5199 -10.4279  -7.4730  -7.2199  -5.3039
    -5.1758  -4.7203  -4.6778  -4.6410  -4.5218  -4.2593  -4.1751  -4.1696
    -4.1522  -4.1498  -4.0836  -4.0759  -4.0744  -4.0405  -4.0366  -4.0026
    -4.0011  -3.9936  -3.9863  -3.9464  -3.9456  -3.9453  -3.9433  -3.9328
    -3.8985  -3.8772  -3.8720  -3.8699  -3.8641  -3.8399  -3.8314  -3.8303
    -3.7969  -3.7962  -3.7926  -3.7872  -3.7862  -3.7755  -3.7366  -3.7322
    -3.7252  -3.7172  -3.7141  -3.7077  -3.7012  -3.6718  -3.6655  -3.6576
    -3.6495  -3.6430  -3.6322  -3.6265  -3.6190  -3.6157  -3.6124  -3.5996
    -3.5974  -3.5912  -3.5489  -3.5450  -3.5271  -3.5245  -3.5237  -3.4936
    -3.4892  -3.4806  -3.4652  -3.4526  -3.4412  -3.4392  -3.4360  -3.4134
    -3.4110  -3.4006  -3.3904  -3.3873  -3.3872  -3.3865  -3.3680  -3.3522
    -3.3457  -3.3441  -3.3427  -3.3121  -3.3072  -3.3017  -3.2978  -3.2742
    -3.2514  -3.2497  -3.2442  -3.2427  -3.2230  -3.2199  -3.2164  -3.2137
    -3.2094  -3.1946  -3.1939  -3.1896  -3.1821  -3.1712  -3.1659  -3.1631
    -3.1498  -3.1373  -3.1336  -3.1314  -3.1256  -3.1239  -3.1226  -3.1123
    -3.1101  -3.1049  -3.1027  -3.1016  -3.0984  -3.0963  -3.0774  -3.0669
    -3.0459  -3.0438  -3.0419  -3.0281  -3.0223  -3.0111  -3.0101  -3.0084
    -3.0076  -3.0067  -3.0056  -3.0042  -2.9901  -2.9839  -2.9821  -2.9796
    -2.9774  -2.9746  -2.9430  -2.9399  -2.9207  -2.9086  -2.8957  -2.8949
    -2.8935  -2.8922  -2.8901  -2.8853  -2.8705  -2.8665  -2.8636  -2.8606
    -2.8574  -2.8538  -2.8393  -2.8258  -2.8203  -2.7839  -2.7616  -2.7603
    -2.7462  -2.7461  -2.7348  -2.7296  -2.7040  -2.6742  -2.6401  -2.5777
    -2.4146  -2.1668  -2.0276  -1.8923  -1.7355  -1.7241  -1.4055  -1.3490
    -1.2187  -1.2154  -0.4833  -0.4506  -0.3024  -0.2815  -0.0900   0.2649
     0.3905   0.4051   0.6115   0.6121   0.7973   0.9433   0.9776   1.4184
     1.4202   1.4521   1.7648   1.9802   2.5562   2.6103   2.6360   2.7990
     2.8006   2.9830   3.3517   3.3731   4.2668   4.2756   4.6527   4.7338
     4.9910   5.1891   5.3767   5.8170   6.0375   6.0496   6.0509   6.1836
     6.5412   6.5833   6.7462   6.7519   6.8686   7.0449   7.2114   7.4464
     7.5711   7.6501   7.6557   7.6911   7.7066   8.0409   8.2072   8.2532
     8.3289   8.3371   8.4166   8.4429   8.5355   8.5720   8.8685   8.9635
     8.9690   9.0735   9.1234   9.3047   9.4481   9.4919   9.5752   9.6125
     9.6517   9.7568   9.8077   9.8807  10.0096  10.0368  10.2166  10.2466
    10.3198  10.3412  10.4441  10.5080  10.5607  10.6621  10.6889  10.7053
    10.8535  10.9688  11.0720  11.1338  11.3192  11.3337  11.4011  11.4597
    11.4987  11.5483

     occupation numbers 
     1.0000   1.0000   1.0000   1.0000   1.0000   1.0000   1.0000   1.0000
     1.0000   1.0000   1.0000   1.0000   1.0000   1.0000   1.0000   1.0000
     1.0000   1.0000   1.0000   1.0000   1.0000   1.0000   1.0000   1.0000
     1.0000   1.0000   1.0000   1.0000   1.0000   1.0000   1.0000   1.0000
     1.0000   1.0000   1.0000   1.0000   1.0000   1.0000   1.0000   1.0000
     1.0000   1.0000   1.0000   1.0000   1.0000   1.0000   1.0000   1.0000
     1.0000   1.0000   1.0000   1.0000   1.0000   1.0000   1.0000   1.0000
     1.0000   1.0000   1.0000   1.0000   1.0000   1.0000   1.0000   1.0000
     1.0000   1.0000   1.0000   1.0000   1.0000   1.0000   1.0000   1.0000
     1.0000   1.0000   1.0000   1.0000   1.0000   1.0000   1.0000   1.0000
     1.0000   1.0000   1.0000   1.0000   1.0000   1.0000   1.0000   1.0000
     1.0000   1.0000   1.0000   1.0000   1.0000   1.0000   1.0000   1.0000
     1.0000   1.0000   1.0000   1.0000   1.0000   1.0000   1.0000   1.0000
     1.0000   1.0000   1.0000   1.0000   1.0000   1.0000   1.0000   1.0000
     1.0000   1.0000   1.0000   1.0000   1.0000   1.0000   1.0000   1.0000
     1.0000   1.0000   1.0000   1.0000   1.0000   1.0000   1.0000   1.0000
     1.0000   1.0000   1.0000   1.0000   1.0000   1.0000   1.0000   1.0000
     1.0000   1.0000   1.0000   1.0000   1.0000   1.0000   1.0000   1.0000
     1.0000   1.0000   1.0000   1.0000   1.0000   1.0000   1.0000   1.0000
     1.0000   1.0000   1.0000   1.0000   1.0000   1.0000   1.0000   1.0000
     1.0000   1.0000   1.0000   1.0000   1.0000   1.0000   1.0000   1.0000
     1.0000   1.0000   1.0000   1.0000   1.0000   1.0000   1.0000   1.0000
     1.0000   1.0000   1.0000   1.0000   1.0000   1.0000   1.0000   1.0000
     1.0000   1.0000   1.0000   1.0000   1.0000   1.0000   1.0000   1.0000
     1.0000   1.0000   1.0000   1.0000   1.0000   1.0000   1.0000   1.0000
     1.0000   1.0000   1.0000   1.0000   1.0000   1.0000   1.0000   1.0000
     1.0000   1.0000   1.0000   1.0000   1.0000   1.0000   1.0000   1.0000
     1.0000   1.0000   1.0000   1.0000   1.0000   1.0000   1.0000   1.0000
     1.0000   1.0000   1.0000   1.0000   1.0000   1.0000   1.0000   1.0000
     1.0000   1.0000   1.0000   1.0000   1.0000   1.0000   1.0000   1.0000
     1.0000   1.0000   1.0000   1.0000   1.0000   1.0000   1.0000   1.0000
     1.0000   1.0000   1.0000   1.0000   1.0000   1.0000   1.0000   1.0000
     1.0000   1.0000   1.0000   1.0000   1.0000   1.0000   1.0000   1.0000
     1.0000   1.0000   1.0000   1.0000   1.0000   1.0000   1.0000   1.0000
     1.0000   1.0000   1.0000   1.0000   1.0000   1.0000   1.0000   1.0000
     1.0000   1.0000   1.0000   1.0000   1.0000   1.0000   1.0000   1.0000
     1.0000   1.0000   1.0000   1.0000   1.0000   1.0000   1.0000   1.0000
     1.0000   1.0000   1.0000   1.0000   1.0000   1.0000   1.0000   1.0000
     1.0000   1.0000   1.0000   1.0000   1.0000   1.0000   1.0000   1.0000
     1.0000   1.0000   1.0000   1.0000   1.0000   1.0000   1.0000   1.0000
     1.0000   1.0000   1.0000   1.0000   1.0000   1.0000   1.0000   1.0000
     1.0000   1.0000   1.0000   1.0000   1.0000   1.0000   1.0000   1.0000
     1.0000   1.0000   1.0000   1.0000   0.7805   0.7578   0.0419   0.0142
     0.0001   0.0000   0.0000   0.0000   0.0000   0.0000   0.0000   0.0000
     0.0000   0.0000   0.0000   0.0000   0.0000   0.0000   0.0000   0.0000
     0.0000   0.0000   0.0000   0.0000   0.0000   0.0000   0.0000   0.0000
     0.0000   0.0000   0.0000   0.0000   0.0000   0.0000   0.0000   0.0000
     0.0000   0.0000   0.0000   0.0000   0.0000   0.0000   0.0000   0.0000
     0.0000   0.0000   0.0000   0.0000   0.0000   0.0000   0.0000   0.0000
     0.0000   0.0000   0.0000   0.0000   0.0000   0.0000   0.0000   0.0000
     0.0000   0.0000   0.0000   0.0000   0.0000   0.0000   0.0000   0.0000
     0.0000   0.0000

          k = 0.3333 0.3849 0.0000 ( 21057 PWs)   bands (ev):

  -122.6371-122.6366-122.6363-122.6359-122.6358-122.6356-122.6347-122.6344
  -122.5592-122.5572-122.5570-122.5537-122.5524-122.5522-122.5520-122.5509
  -122.4197-122.4194-122.4189-122.4183-122.4168-122.4161-122.4154-122.4142
  -122.3997-122.3827-122.3767-122.3746-122.3715-122.3697-122.3688-122.3682
   -76.7401 -76.7389 -76.7372 -76.7307 -76.7289 -76.7280 -76.7266 -76.7259
   -76.7251 -76.7248 -76.7242 -76.7240 -76.7238 -76.7233 -76.7231 -76.7201
   -76.7172 -76.7154 -76.7112 -76.7058 -76.7046 -76.7040 -76.7025 -76.7004
   -76.6590 -76.6573 -76.6557 -76.6488 -76.6486 -76.6474 -76.6467 -76.6460
   -76.6432 -76.6420 -76.6417 -76.6415 -76.6412 -76.6405 -76.6398 -76.6384
   -76.6353 -76.6331 -76.6293 -76.6241 -76.6232 -76.6216 -76.6203 -76.6174
   -76.5187 -76.5180 -76.5173 -76.5166 -76.5160 -76.5155 -76.5154 -76.5141
   -76.5133 -76.5122 -76.5110 -76.5086 -76.5072 -76.5020 -76.5016 -76.4985
   -76.4981 -76.4953 -76.4935 -76.4895 -76.4857 -76.4840 -76.4837 -76.4832
   -76.4821 -76.4816 -76.4804 -76.4780 -76.4754 -76.4739 -76.4737 -76.4708
   -76.4687 -76.4679 -76.4676 -76.4672 -76.4641 -76.4594 -76.4584 -76.4551
   -76.4535 -76.4487 -76.4452 -76.4429 -76.4380 -76.4375 -76.4343 -76.4318
   -15.1352 -13.6697 -12.8822 -10.5199 -10.4280  -7.4730  -7.2199  -5.3037
    -5.1759  -4.7200  -4.6778  -4.6409  -4.5217  -4.2595  -4.1748  -4.1696
    -4.1522  -4.1498  -4.0832  -4.0758  -4.0743  -4.0400  -4.0366  -4.0021
    -4.0013  -3.9938  -3.9865  -3.9466  -3.9459  -3.9455  -3.9432  -3.9332
    -3.8986  -3.8782  -3.8711  -3.8698  -3.8640  -3.8394  -3.8318  -3.8310
    -3.7966  -3.7954  -3.7927  -3.7878  -3.7865  -3.7745  -3.7350  -3.7335
    -3.7253  -3.7172  -3.7133  -3.7078  -3.7010  -3.6719  -3.6665  -3.6581
    -3.6494  -3.6433  -3.6302  -3.6284  -3.6203  -3.6149  -3.6121  -3.5996
    -3.5980  -3.5912  -3.5491  -3.5449  -3.5272  -3.5253  -3.5224  -3.4914
    -3.4902  -3.4807  -3.4647  -3.4533  -3.4414  -3.4401  -3.4363  -3.4137
    -3.4108  -3.4015  -3.3905  -3.3875  -3.3871  -3.3862  -3.3674  -3.3525
    -3.3455  -3.3440  -3.3428  -3.3133  -3.3064  -3.3016  -3.2976  -3.2729
    -3.2511  -3.2500  -3.2446  -3.2427  -3.2233  -3.2199  -3.2165  -3.2147
    -3.2096  -3.1944  -3.1938  -3.1908  -3.1804  -3.1715  -3.1660  -3.1633
    -3.1488  -3.1364  -3.1344  -3.1318  -3.1265  -3.1241  -3.1211  -3.1115
    -3.1098  -3.1049  -3.1027  -3.1015  -3.0991  -3.0962  -3.0775  -3.0668
    -3.0458  -3.0433  -3.0427  -3.0285  -3.0206  -3.0126  -3.0099  -3.0088
    -3.0074  -3.0069  -3.0048  -3.0034  -2.9898  -2.9841  -2.9824  -2.9798
    -2.9784  -2.9743  -2.9434  -2.9389  -2.9204  -2.9087  -2.8954  -2.8950
    -2.8936  -2.8924  -2.8902  -2.8853  -2.8705  -2.8660  -2.8629  -2.8605
    -2.8572  -2.8538  -2.8403  -2.8262  -2.8201  -2.7838  -2.7614  -2.7606
    -2.7466  -2.7461  -2.7325  -2.7314  -2.7039  -2.6686  -2.6462  -2.5777
    -2.4147  -2.1672  -2.0275  -1.8915  -1.7376  -1.7231  -1.4070  -1.3466
    -1.2187  -1.2152  -0.4816  -0.4522  -0.2969  -0.2876  -0.0891   0.2653
     0.3894   0.4051   0.6115   0.6119   0.7977   0.9528   0.9678   1.4190
     1.4195   1.4520   1.7649   1.9808   2.5562   2.6147   2.6370   2.7949
     2.8002   2.9765   3.3584   3.3721   4.2686   4.2743   4.6520   4.7345
     4.9907   5.1904   5.3764   5.8114   6.0385   6.0490   6.0508   6.1863
     6.5655   6.5690   6.7490   6.7507   6.8664   7.0456   7.1947   7.4441
     7.5457   7.6555   7.6870   7.6943   7.7651   8.0453   8.2037   8.2877
     8.3277   8.3339   8.4146   8.4709   8.5349   8.6156   8.7125   8.8867
     8.9698   9.0786   9.1973   9.2979   9.4509   9.4806   9.5917   9.6079
     9.6776   9.7902   9.8290   9.9275   9.9933  10.0324  10.0643  10.2225
    10.2705  10.3319  10.3961  10.4221  10.5578  10.6632  10.6900  10.7035
    10.8283  10.9959  11.0671  11.1485  11.3319  11.3477  11.4640  11.4822
    11.5204  11.5416

     occupation numbers 
     1.0000   1.0000   1.0000   1.0000   1.0000   1.0000   1.0000   1.0000
     1.0000   1.0000   1.0000   1.0000   1.0000   1.0000   1.0000   1.0000
     1.0000   1.0000   1.0000   1.0000   1.0000   1.0000   1.0000   1.0000
     1.0000   1.0000   1.0000   1.0000   1.0000   1.0000   1.0000   1.0000
     1.0000   1.0000   1.0000   1.0000   1.0000   1.0000   1.0000   1.0000
     1.0000   1.0000   1.0000   1.0000   1.0000   1.0000   1.0000   1.0000
     1.0000   1.0000   1.0000   1.0000   1.0000   1.0000   1.0000   1.0000
     1.0000   1.0000   1.0000   1.0000   1.0000   1.0000   1.0000   1.0000
     1.0000   1.0000   1.0000   1.0000   1.0000   1.0000   1.0000   1.0000
     1.0000   1.0000   1.0000   1.0000   1.0000   1.0000   1.0000   1.0000
     1.0000   1.0000   1.0000   1.0000   1.0000   1.0000   1.0000   1.0000
     1.0000   1.0000   1.0000   1.0000   1.0000   1.0000   1.0000   1.0000
     1.0000   1.0000   1.0000   1.0000   1.0000   1.0000   1.0000   1.0000
     1.0000   1.0000   1.0000   1.0000   1.0000   1.0000   1.0000   1.0000
     1.0000   1.0000   1.0000   1.0000   1.0000   1.0000   1.0000   1.0000
     1.0000   1.0000   1.0000   1.0000   1.0000   1.0000   1.0000   1.0000
     1.0000   1.0000   1.0000   1.0000   1.0000   1.0000   1.0000   1.0000
     1.0000   1.0000   1.0000   1.0000   1.0000   1.0000   1.0000   1.0000
     1.0000   1.0000   1.0000   1.0000   1.0000   1.0000   1.0000   1.0000
     1.0000   1.0000   1.0000   1.0000   1.0000   1.0000   1.0000   1.0000
     1.0000   1.0000   1.0000   1.0000   1.0000   1.0000   1.0000   1.0000
     1.0000   1.0000   1.0000   1.0000   1.0000   1.0000   1.0000   1.0000
     1.0000   1.0000   1.0000   1.0000   1.0000   1.0000   1.0000   1.0000
     1.0000   1.0000   1.0000   1.0000   1.0000   1.0000   1.0000   1.0000
     1.0000   1.0000   1.0000   1.0000   1.0000   1.0000   1.0000   1.0000
     1.0000   1.0000   1.0000   1.0000   1.0000   1.0000   1.0000   1.0000
     1.0000   1.0000   1.0000   1.0000   1.0000   1.0000   1.0000   1.0000
     1.0000   1.0000   1.0000   1.0000   1.0000   1.0000   1.0000   1.0000
     1.0000   1.0000   1.0000   1.0000   1.0000   1.0000   1.0000   1.0000
     1.0000   1.0000   1.0000   1.0000   1.0000   1.0000   1.0000   1.0000
     1.0000   1.0000   1.0000   1.0000   1.0000   1.0000   1.0000   1.0000
     1.0000   1.0000   1.0000   1.0000   1.0000   1.0000   1.0000   1.0000
     1.0000   1.0000   1.0000   1.0000   1.0000   1.0000   1.0000   1.0000
     1.0000   1.0000   1.0000   1.0000   1.0000   1.0000   1.0000   1.0000
     1.0000   1.0000   1.0000   1.0000   1.0000   1.0000   1.0000   1.0000
     1.0000   1.0000   1.0000   1.0000   1.0000   1.0000   1.0000   1.0000
     1.0000   1.0000   1.0000   1.0000   1.0000   1.0000   1.0000   1.0000
     1.0000   1.0000   1.0000   1.0000   1.0000   1.0000   1.0000   1.0000
     1.0000   1.0000   1.0000   1.0000   1.0000   1.0000   1.0000   1.0000
     1.0000   1.0000   1.0000   1.0000   1.0000   1.0000   1.0000   1.0000
     1.0000   1.0000   1.0000   1.0000   1.0000   1.0000   1.0000   1.0000
     1.0000   1.0000   1.0000   1.0000   1.0000   1.0000   1.0000   1.0000
     1.0000   1.0000   1.0000   1.0000   0.7759   0.7612   0.0422   0.0140
     0.0001   0.0000   0.0000   0.0000   0.0000   0.0000   0.0000   0.0000
     0.0000   0.0000   0.0000   0.0000   0.0000   0.0000   0.0000   0.0000
     0.0000   0.0000   0.0000   0.0000   0.0000   0.0000   0.0000   0.0000
     0.0000   0.0000   0.0000   0.0000   0.0000   0.0000   0.0000   0.0000
     0.0000   0.0000   0.0000   0.0000   0.0000   0.0000   0.0000   0.0000
     0.0000   0.0000   0.0000   0.0000   0.0000   0.0000   0.0000   0.0000
     0.0000   0.0000   0.0000   0.0000   0.0000   0.0000   0.0000   0.0000
     0.0000   0.0000   0.0000   0.0000   0.0000   0.0000   0.0000   0.0000
     0.0000   0.0000

          k = 0.3333-0.0000 0.0000 ( 21053 PWs)   bands (ev):

  -122.6375-122.6366-122.6365-122.6360-122.6357-122.6355-122.6347-122.6340
  -122.5594-122.5574-122.5569-122.5539-122.5526-122.5522-122.5519-122.5507
  -122.4200-122.4196-122.4189-122.4181-122.4170-122.4162-122.4153-122.4141
  -122.3998-122.3828-122.3767-122.3746-122.3715-122.3699-122.3688-122.3680
   -76.7403 -76.7364 -76.7360 -76.7316 -76.7286 -76.7277 -76.7274 -76.7270
   -76.7263 -76.7257 -76.7245 -76.7240 -76.7230 -76.7215 -76.7202 -76.7177
   -76.7173 -76.7122 -76.7120 -76.7095 -76.7070 -76.7069 -76.7045 -76.7017
   -76.6586 -76.6556 -76.6545 -76.6497 -76.6490 -76.6478 -76.6462 -76.6445
   -76.6443 -76.6442 -76.6424 -76.6416 -76.6399 -76.6386 -76.6382 -76.6355
   -76.6351 -76.6307 -76.6301 -76.6278 -76.6250 -76.6241 -76.6219 -76.6196
   -76.5189 -76.5184 -76.5179 -76.5172 -76.5155 -76.5149 -76.5147 -76.5144
   -76.5130 -76.5118 -76.5097 -76.5096 -76.5044 -76.5043 -76.4988 -76.4981
   -76.4956 -76.4954 -76.4903 -76.4900 -76.4879 -76.4853 -76.4850 -76.4845
   -76.4832 -76.4825 -76.4819 -76.4798 -76.4763 -76.4743 -76.4723 -76.4713
   -76.4696 -76.4674 -76.4659 -76.4657 -76.4639 -76.4617 -76.4561 -76.4549
   -76.4508 -76.4481 -76.4463 -76.4423 -76.4417 -76.4385 -76.4361 -76.4341
   -15.1351 -13.6697 -12.8822 -10.5199 -10.4279  -7.4731  -7.2199  -5.3689
    -5.3036  -4.7210  -4.6949  -4.6571  -4.2407  -4.2137  -4.2133  -4.1648
    -4.1200  -4.1189  -4.1128  -4.0324  -4.0239  -4.0236  -4.0181  -4.0178
    -4.0168  -3.9731  -3.9248  -3.9239  -3.8801  -3.8796  -3.8602  -3.8596
    -3.8588  -3.8563  -3.8544  -3.8530  -3.8526  -3.8122  -3.8114  -3.8105
    -3.8103  -3.8088  -3.8008  -3.7991  -3.7630  -3.7345  -3.7266  -3.7240
    -3.7215  -3.7172  -3.7060  -3.6998  -3.6994  -3.6989  -3.6735  -3.6607
    -3.6590  -3.6570  -3.6543  -3.6485  -3.6367  -3.6328  -3.6310  -3.5835
    -3.5777  -3.5653  -3.5610  -3.5514  -3.5509  -3.5506  -3.5305  -3.5297
    -3.5283  -3.5083  -3.5064  -3.5033  -3.5014  -3.4822  -3.4806  -3.4675
    -3.4661  -3.4629  -3.4621  -3.4409  -3.4198  -3.4163  -3.4099  -3.3873
    -3.3723  -3.3470  -3.3438  -3.3387  -3.3362  -3.3316  -3.3200  -3.3104
    -3.3100  -3.3044  -3.3028  -3.2826  -3.2822  -3.2679  -3.2664  -3.2460
    -3.2457  -3.2446  -3.2197  -3.2004  -3.1803  -3.1546  -3.1407  -3.1397
    -3.1385  -3.1368  -3.1343  -3.1342  -3.1289  -3.1265  -3.1256  -3.1242
    -3.1189  -3.1187  -3.1150  -3.0907  -3.0889  -3.0750  -3.0736  -3.0250
    -3.0036  -2.9982  -2.9968  -2.9948  -2.9942  -2.9884  -2.9863  -2.9850
    -2.9753  -2.9689  -2.9684  -2.9644  -2.9629  -2.9452  -2.9443  -2.9426
    -2.9258  -2.9247  -2.9174  -2.9167  -2.9088  -2.9081  -2.9061  -2.9037
    -2.8955  -2.8888  -2.8863  -2.8857  -2.8837  -2.8659  -2.8541  -2.8511
    -2.8477  -2.8450  -2.8432  -2.8397  -2.8392  -2.8261  -2.8117  -2.7769
    -2.7137  -2.7135  -2.6750  -2.6717  -2.6648  -2.5783  -2.4414  -2.4399
    -2.4396  -2.1664  -2.0423  -1.8528  -1.8471  -1.8456  -1.7248  -1.3569
    -0.9382  -0.9357  -0.4927  -0.4619  -0.4554  -0.4474  -0.2910  -0.2414
    -0.1345  -0.1300   0.4001   0.7978   0.9528   1.2844   1.2882   1.2886
     1.3006   1.3025   1.7617   2.3588   2.6528   2.9205   2.9351   2.9919
     3.0660   3.4582   3.7052   4.5064   4.5172   4.5278   4.7844   4.8916
     4.9289   4.9803   5.4763   5.5560   5.6891   5.7101   5.8035   6.3958
     6.4079   6.5639   6.6364   6.7830   6.8221   6.8766   6.9311   6.9760
     6.9789   7.0952   7.1475   7.4020   7.4233   7.4372   7.7116   7.7220
     7.7486   8.0891   8.3289   8.4162   8.4569   8.5993   8.6468   8.7587
     8.8908   9.0795   9.0967   9.1830   9.2014   9.2792   9.3707   9.4153
     9.5392   9.5752   9.6798   9.7546   9.8994  10.0897  10.3283  10.4350
    10.4449  10.5522  10.7849  10.9133  10.9362  10.9811  11.1170  11.2260
    11.2987  11.3653  11.4290  11.4931  11.5010  11.5507  11.5579  11.6734
    11.8105  12.0050

     occupation numbers 
     1.0000   1.0000   1.0000   1.0000   1.0000   1.0000   1.0000   1.0000
     1.0000   1.0000   1.0000   1.0000   1.0000   1.0000   1.0000   1.0000
     1.0000   1.0000   1.0000   1.0000   1.0000   1.0000   1.0000   1.0000
     1.0000   1.0000   1.0000   1.0000   1.0000   1.0000   1.0000   1.0000
     1.0000   1.0000   1.0000   1.0000   1.0000   1.0000   1.0000   1.0000
     1.0000   1.0000   1.0000   1.0000   1.0000   1.0000   1.0000   1.0000
     1.0000   1.0000   1.0000   1.0000   1.0000   1.0000   1.0000   1.0000
     1.0000   1.0000   1.0000   1.0000   1.0000   1.0000   1.0000   1.0000
     1.0000   1.0000   1.0000   1.0000   1.0000   1.0000   1.0000   1.0000
     1.0000   1.0000   1.0000   1.0000   1.0000   1.0000   1.0000   1.0000
     1.0000   1.0000   1.0000   1.0000   1.0000   1.0000   1.0000   1.0000
     1.0000   1.0000   1.0000   1.0000   1.0000   1.0000   1.0000   1.0000
     1.0000   1.0000   1.0000   1.0000   1.0000   1.0000   1.0000   1.0000
     1.0000   1.0000   1.0000   1.0000   1.0000   1.0000   1.0000   1.0000
     1.0000   1.0000   1.0000   1.0000   1.0000   1.0000   1.0000   1.0000
     1.0000   1.0000   1.0000   1.0000   1.0000   1.0000   1.0000   1.0000
     1.0000   1.0000   1.0000   1.0000   1.0000   1.0000   1.0000   1.0000
     1.0000   1.0000   1.0000   1.0000   1.0000   1.0000   1.0000   1.0000
     1.0000   1.0000   1.0000   1.0000   1.0000   1.0000   1.0000   1.0000
     1.0000   1.0000   1.0000   1.0000   1.0000   1.0000   1.0000   1.0000
     1.0000   1.0000   1.0000   1.0000   1.0000   1.0000   1.0000   1.0000
     1.0000   1.0000   1.0000   1.0000   1.0000   1.0000   1.0000   1.0000
     1.0000   1.0000   1.0000   1.0000   1.0000   1.0000   1.0000   1.0000
     1.0000   1.0000   1.0000   1.0000   1.0000   1.0000   1.0000   1.0000
     1.0000   1.0000   1.0000   1.0000   1.0000   1.0000   1.0000   1.0000
     1.0000   1.0000   1.0000   1.0000   1.0000   1.0000   1.0000   1.0000
     1.0000   1.0000   1.0000   1.0000   1.0000   1.0000   1.0000   1.0000
     1.0000   1.0000   1.0000   1.0000   1.0000   1.0000   1.0000   1.0000
     1.0000   1.0000   1.0000   1.0000   1.0000   1.0000   1.0000   1.0000
     1.0000   1.0000   1.0000   1.0000   1.0000   1.0000   1.0000   1.0000
     1.0000   1.0000   1.0000   1.0000   1.0000   1.0000   1.0000   1.0000
     1.0000   1.0000   1.0000   1.0000   1.0000   1.0000   1.0000   1.0000
     1.0000   1.0000   1.0000   1.0000   1.0000   1.0000   1.0000   1.0000
     1.0000   1.0000   1.0000   1.0000   1.0000   1.0000   1.0000   1.0000
     1.0000   1.0000   1.0000   1.0000   1.0000   1.0000   1.0000   1.0000
     1.0000   1.0000   1.0000   1.0000   1.0000   1.0000   1.0000   1.0000
     1.0000   1.0000   1.0000   1.0000   1.0000   1.0000   1.0000   1.0000
     1.0000   1.0000   1.0000   1.0000   1.0000   1.0000   1.0000   1.0000
     1.0000   1.0000   1.0000   1.0000   1.0000   1.0000   1.0000   1.0000
     1.0000   1.0000   1.0000   1.0000   1.0000   1.0000   1.0000   1.0000
     1.0000   1.0000   1.0000   1.0000   1.0000   1.0000   1.0000   1.0000
     1.0000   1.0000   1.0000   1.0000   1.0000   1.0000   1.0000   1.0000
     1.0000   1.0001   1.0078   0.1929   0.1755   0.1594   0.0066   0.0011
     0.0005   0.0002   0.0000   0.0000   0.0000   0.0000   0.0000   0.0000
     0.0000   0.0000   0.0000   0.0000   0.0000   0.0000   0.0000   0.0000
     0.0000   0.0000   0.0000   0.0000   0.0000   0.0000   0.0000   0.0000
     0.0000   0.0000   0.0000   0.0000   0.0000   0.0000   0.0000   0.0000
     0.0000   0.0000   0.0000   0.0000   0.0000   0.0000   0.0000   0.0000
     0.0000   0.0000   0.0000   0.0000   0.0000   0.0000   0.0000   0.0000
     0.0000   0.0000   0.0000   0.0000   0.0000   0.0000   0.0000   0.0000
     0.0000   0.0000   0.0000   0.0000   0.0000   0.0000   0.0000   0.0000
     0.0000   0.0000

     the Fermi energy is     4.4081 ev

!    total energy              =  -14944.18278432 Ry
     estimated scf accuracy    <       0.00000047 Ry
     smearing contrib. (-TS)   =      -0.01036331 Ry
     internal energy E=F+TS    =  -14944.17242101 Ry

     The total energy is F=E-TS. E is the sum of the following terms:
     one-electron contribution =  -79002.31103860 Ry
     hartree contribution      =   39534.30467339 Ry
     xc contribution           =   -1395.75795242 Ry
     ewald contribution        =   25962.77561710 Ry
     one-center paw contrib.   =     -43.18372048 Ry
      -> PAW hartree energy AE =       0.00000000 Ry
      -> PAW hartree energy PS =       0.00000000 Ry
      -> PAW xc energy AE      =       0.00000000 Ry
      -> PAW xc energy PS      =       0.00000000 Ry
      -> total E_H with PAW    =   39534.30467339 Ry
      -> total E_XC with PAW   =   -1395.75795242 Ry

     convergence has been achieved in   5 iterations

     negative rho (up, down):  1.225E-02 0.000E+00

     Forces acting on atoms (cartesian axes, Ry/au):

     atom    1 type  1   force =    -0.00008851    0.00034968   -0.00954605
     atom    2 type  1   force =     0.00007968    0.00069518    0.00030276
     atom    3 type  1   force =    -0.00005169    0.00044694   -0.00930859
     atom    4 type  1   force =     0.00005306    0.00086503    0.00025733
     atom    5 type  1   force =    -0.00009813   -0.00039652   -0.00927715
     atom    6 type  1   force =    -0.00008479   -0.00091366    0.00027322
     atom    7 type  1   force =    -0.00014474   -0.00048092   -0.00939563
     atom    8 type  1   force =     0.00001717   -0.00097031    0.00009123
     atom    9 type  1   force =     0.00002662    0.00048993   -0.00944013
     atom   10 type  1   force =    -0.00000147    0.00072525    0.00023581
     atom   11 type  1   force =     0.00002339    0.00050504   -0.00944791
     atom   12 type  1   force =     0.00003336    0.00078471    0.00011720
     atom   13 type  1   force =     0.00005834   -0.00034519   -0.00929848
     atom   14 type  1   force =     0.00014361   -0.00091482    0.00042881
     atom   15 type  1   force =     0.00010302   -0.00035275   -0.00952681
     atom   16 type  1   force =     0.00007674   -0.00085580    0.00037776
     atom   17 type  1   force =    -0.00004017    0.00011600    0.00876435
     atom   18 type  1   force =    -0.00012056    0.00008142    0.00040911
     atom   19 type  1   force =    -0.00011754    0.00076473    0.00909314
     atom   20 type  1   force =    -0.00006281    0.00048804   -0.00009332
     atom   21 type  1   force =    -0.00012314   -0.00044989    0.00916922
     atom   22 type  1   force =     0.00012878   -0.00034829   -0.00058304
     atom   23 type  1   force =    -0.00015049   -0.00091479    0.00881618
     atom   24 type  1   force =     0.00010244   -0.00066713    0.00019054
     atom   25 type  1   force =    -0.00015796    0.00015225    0.00883163
     atom   26 type  1   force =     0.00023187    0.00010358    0.00061942
     atom   27 type  1   force =    -0.00008242    0.00071385    0.00924624
     atom   28 type  1   force =     0.00007787    0.00061771   -0.00007752
     atom   29 type  1   force =    -0.00005851   -0.00040855    0.00925971
     atom   30 type  1   force =    -0.00001462   -0.00031876   -0.00031604
     atom   31 type  1   force =    -0.00002580   -0.00089298    0.00893429
     atom   32 type  1   force =    -0.00007385   -0.00076868    0.00010566
     atom   33 type  2   force =    -0.00014698   -0.00016084    0.00011523
     atom   34 type  2   force =    -0.00037399    0.00034176   -0.00013980
     atom   35 type  2   force =     0.00040185    0.00015498    0.00019401
     atom   36 type  2   force =    -0.00064884   -0.00026762   -0.00082100
     atom   37 type  2   force =     0.00078156    0.00065120   -0.00018873
     atom   38 type  2   force =    -0.00000299    0.00001886    0.00087756
     atom   39 type  2   force =     0.00025100   -0.00013283   -0.00000234
     atom   40 type  3   force =    -0.00010337    0.00007529    0.00016096
     atom   41 type  3   force =    -0.00033614    0.00060181   -0.00084550
     atom   42 type  4   force =     0.00005976    0.00012152    0.00007600
     atom   43 type  4   force =    -0.00002639    0.00017594    0.00030814
     atom   44 type  4   force =     0.00008649   -0.00035911    0.00025527
     atom   45 type  4   force =     0.00034403    0.00001825    0.00025231
     atom   46 type  4   force =    -0.00010274    0.00040324    0.00041532
     atom   47 type  4   force =     0.00015798    0.00045725    0.00012962
     The non-local contrib.  to forces
     atom    1 type  1   force =    -0.00002349    0.00924505    0.08285988
     atom    2 type  1   force =    -0.00002917    0.00561469   -0.07930035
     atom    3 type  1   force =    -0.00020348    0.00940004    0.08194665
     atom    4 type  1   force =    -0.00086133    0.00898423   -0.07664777
     atom    5 type  1   force =     0.00019340    0.01062138    0.08327175
     atom    6 type  1   force =    -0.00439119    0.00083373   -0.07983735
     atom    7 type  1   force =     0.00042120    0.01024030    0.08665515
     atom    8 type  1   force =    -0.00160895    0.00135118   -0.07945248
     atom    9 type  1   force =    -0.00050164    0.00882175    0.08387414
     atom   10 type  1   force =     0.00120906    0.00819858   -0.08070252
     atom   11 type  1   force =    -0.00049812    0.00928302    0.08104644
     atom   12 type  1   force =     0.00214944    0.01304140   -0.08035904
     atom   13 type  1   force =    -0.00068788    0.01023014    0.08387901
     atom   14 type  1   force =     0.00576651    0.00275109   -0.08269861
     atom   15 type  1   force =    -0.00110303    0.00969302    0.08592105
     atom   16 type  1   force =     0.00276879    0.00384972   -0.08242099
     atom   17 type  1   force =    -0.00151963   -0.00573437    0.06934911
     atom   18 type  1   force =     0.00057000   -0.00857464   -0.07716368
     atom   19 type  1   force =    -0.00098498   -0.00509183    0.07134740
     atom   20 type  1   force =     0.00136500   -0.00240406   -0.07545287
     atom   21 type  1   force =    -0.00027370   -0.00588165    0.07141874
     atom   22 type  1   force =     0.00226418   -0.01249190   -0.07848183
     atom   23 type  1   force =    -0.00055167   -0.00713972    0.07034504
     atom   24 type  1   force =    -0.00105164   -0.01223001   -0.07430604
     atom   25 type  1   force =    -0.00054491   -0.00610999    0.07205969
     atom   26 type  1   force =     0.00098958   -0.00727044   -0.08128724
     atom   27 type  1   force =    -0.00092467   -0.00468218    0.07110705
     atom   28 type  1   force =    -0.00026628   -0.00337363   -0.09653730
     atom   29 type  1   force =    -0.00181486   -0.00578437    0.07050892
     atom   30 type  1   force =     0.00015831   -0.01334739   -0.10934662
     atom   31 type  1   force =    -0.00130232   -0.00811522    0.07114783
     atom   32 type  1   force =     0.00244944   -0.01510929   -0.08914391
     atom   33 type  2   force =     0.02077660    0.03669968   -0.23820447
     atom   34 type  2   force =    -0.02441979   -0.04159323    0.25431397
     atom   35 type  2   force =    -0.02790969    0.02895241    0.01913204
     atom   36 type  2   force =     0.02854892   -0.03293738    0.01324275
     atom   37 type  2   force =     0.02785846   -0.01887054   -0.04974971
     atom   38 type  2   force =    -0.02120714    0.02668138   -0.04693624
     atom   39 type  2   force =     0.05212734    0.06557960   -0.30859020
     atom   40 type  3   force =     0.16047350    0.28568375   -1.85389594
     atom   41 type  3   force =    -0.65587815   -0.53861200    0.07482801
     atom   42 type  4   force =     0.06805187   -0.05562868    0.04656892
     atom   43 type  4   force =    -0.03692682    0.07263101    0.05690074
     atom   44 type  4   force =    -0.04109878    0.05830996   -0.03520329
     atom   45 type  4   force =     0.04152195   -0.05662337    0.03305733
     atom   46 type  4   force =    -0.04647648    0.04642479    0.04099138
     atom   47 type  4   force =     0.04794198   -0.04638723   -0.04341480
     The ionic contribution  to forces
     atom    1 type  1   force =    -0.01399356   -0.43433741 -397.65588389
     atom    2 type  1   force =     0.04736236   -0.29960357  123.17441732
     atom    3 type  1   force =    -0.00562224   -0.23103974 -397.09665881
     atom    4 type  1   force =     0.11261589   -0.44944983  122.50933264
     atom    5 type  1   force =     0.02069942    0.43992493 -397.33347156
     atom    6 type  1   force =     0.27905568    0.46236371  121.77882797
     atom    7 type  1   force =     0.00267593    0.22765398 -397.89225410
     atom    8 type  1   force =     0.04125996    0.52954236  123.10508196
     atom    9 type  1   force =     0.01401573   -0.43275281 -397.65713894
     atom   10 type  1   force =    -0.04386162   -0.39794792  123.33241102
     atom   11 type  1   force =     0.00567492   -0.23574494 -397.03626097
     atom   12 type  1   force =    -0.10125599   -0.75752151  122.01739106
     atom   13 type  1   force =    -0.02068235    0.44177596 -397.32987268
     atom   14 type  1   force =    -0.27211736    0.39352744  121.37212670
     atom   15 type  1   force =    -0.00264581    0.22452212 -397.90975781
     atom   16 type  1   force =    -0.03466701    0.45503752  122.91731317
     atom   17 type  1   force =     0.02050029   -0.02029703 -131.49492556
     atom   18 type  1   force =    -0.11530863   -0.40209628  379.71948717
     atom   19 type  1   force =    -0.00884570   -0.23560326 -131.53327239
     atom   20 type  1   force =    -0.25863846   -2.44968533  377.71139757
     atom   21 type  1   force =    -0.04018124   -0.02872401 -131.72662522
     atom   22 type  1   force =     0.30173572    0.38431588  375.49443011
     atom   23 type  1   force =    -0.02707941    0.26123746 -131.67020611
     atom   24 type  1   force =     0.21992884    2.57331574  377.69106785
     atom   25 type  1   force =    -0.03232647   -0.00615852 -131.51547226
     atom   26 type  1   force =     0.12369300   -0.38037573  378.92049390
     atom   27 type  1   force =    -0.00367128   -0.25079165 -131.50531269
     atom   28 type  1   force =     0.25140600   -2.49136481  376.10425109
     atom   29 type  1   force =     0.02766537   -0.01532244 -131.70913045
     atom   30 type  1   force =    -0.27831897    0.40594429  369.63131861
     atom   31 type  1   force =     0.01499511    0.28513130 -131.70765228
     atom   32 type  1   force =    -0.21144793    2.39983373  376.98676136
     atom   33 type  2   force =     0.13790470   -0.10665430  -14.48254206
     atom   34 type  2   force =    -0.01889270   -0.34616687    8.45078798
     atom   35 type  2   force =     2.75468951   -5.87839456   18.71397271
     atom   36 type  2   force =    -3.03330548    5.19014846   17.56258021
     atom   37 type  2   force =    -2.89387109    5.89566884   32.26435291
     atom   38 type  2   force =     3.09505021   -5.23410434   33.41466673
     atom   39 type  2   force =    -0.05494125    0.28894218   43.27332443
     atom   40 type  3   force =    -0.82973329   -1.92622531  -28.89591123
     atom   41 type  3   force =     1.75983737    2.45860086   73.23024095
     atom   42 type  4   force =    -2.02446751    2.01876824   15.64453558
     atom   43 type  4   force =     1.14585294   -2.28639198   15.69875116
     atom   44 type  4   force =     1.42512471   -2.74532006    3.61866766
     atom   45 type  4   force =    -1.47288535    2.73133143    9.09222914
     atom   46 type  4   force =     1.61730921   -2.37214633    9.59968654
     atom   47 type  4   force =    -1.62029218    2.34663408    3.12244354
     The local contribution  to forces
     atom    1 type  1   force =     0.01394723    0.42464831  397.56378588
     atom    2 type  1   force =    -0.04717516    0.29321451 -123.09499553
     atom    3 type  1   force =     0.00577416    0.22130845  397.00497477
     atom    4 type  1   force =    -0.11165052    0.43977435 -122.43252303
     atom    5 type  1   force =    -0.02099912   -0.45000221  397.24049455
     atom    6 type  1   force =    -0.27476093   -0.46248589 -121.69894158
     atom    7 type  1   force =    -0.00323045   -0.23749548  397.79651273
     atom    8 type  1   force =    -0.03963572   -0.53013082 -123.02583227
     atom    9 type  1   force =    -0.01349557    0.42362571  397.56413485
     atom   10 type  1   force =     0.04258326    0.38899222 -123.25166254
     atom   11 type  1   force =    -0.00514276    0.22618543  396.94536256
     atom   12 type  1   force =     0.09909971    0.74370614 -121.93699600
     atom   13 type  1   force =     0.02144737   -0.45141125  397.23626756
     atom   14 type  1   force =     0.26651974   -0.39559280 -121.28920826
     atom   15 type  1   force =     0.00385045   -0.23368614  397.81460116
     atom   16 type  1   force =     0.03198816   -0.45805753 -122.83483749
     atom   17 type  1   force =    -0.01900907    0.02565549  131.43484541
     atom   18 type  1   force =     0.11461980    0.41052362 -379.64246757
     atom   19 type  1   force =     0.00977261    0.23965385  131.47110951
     atom   20 type  1   force =     0.25724292    2.45123773 -377.63582271
     atom   21 type  1   force =     0.04034215    0.03476421  131.66424040
     atom   22 type  1   force =    -0.30383080   -0.37176907 -375.41571849
     atom   23 type  1   force =     0.02744642   -0.25306544  131.60894850
     atom   24 type  1   force =    -0.21879600   -2.56026692 -377.61655174
     atom   25 type  1   force =     0.03271177    0.01191631  131.45272046
     atom   26 type  1   force =    -0.12444405    0.38752353 -378.83912125
     atom   27 type  1   force =     0.00446421    0.25437325  131.44352761
     atom   28 type  1   force =    -0.25107266    2.49395737 -376.00754662
     atom   29 type  1   force =    -0.02590853    0.02130466  131.64775813
     atom   30 type  1   force =     0.27809067   -0.39251777 -369.52141312
     atom   31 type  1   force =    -0.01367362   -0.27596776  131.64571409
     atom   32 type  1   force =     0.20896560   -2.38398581 -376.89749535
     atom   33 type  2   force =    -0.15686761    0.07215953   14.71037588
     atom   34 type  2   force =     0.04088254    0.38515868   -8.70625769
     atom   35 type  2   force =    -2.72539585    5.85154092  -18.72966283
     atom   36 type  2   force =     3.00440261   -5.15844769  -17.57404913
     atom   37 type  2   force =     2.86615343   -5.87625301  -32.21420630
     atom   38 type  2   force =    -3.07363463    5.20664585  -33.36685098
     atom   39 type  2   force =     0.00338928   -0.35410667  -42.96988401
     atom   40 type  3   force =     0.67019097    1.64248755   30.73818416
     atom   41 type  3   force =    -1.10952742   -1.92350891  -73.30537360
     atom   42 type  4   force =     1.95647207   -1.96293368  -15.69109972
     atom   43 type  4   force =    -1.10894227    2.21399468  -15.75542599
     atom   44 type  4   force =    -1.38393532    2.68671690   -3.58329473
     atom   45 type  4   force =     1.43173256   -2.67463052   -9.12509737
     atom   46 type  4   force =    -1.57091695    2.32617483   -9.64034574
     atom   47 type  4   force =     1.57252681   -2.29972002   -3.07899842
     The core correction contribution to forces
     atom    1 type  1   force =     0.00000000    0.00000000    0.00000000
     atom    2 type  1   force =     0.00000000    0.00000000    0.00000000
     atom    3 type  1   force =     0.00000000    0.00000000    0.00000000
     atom    4 type  1   force =     0.00000000    0.00000000    0.00000000
     atom    5 type  1   force =     0.00000000    0.00000000    0.00000000
     atom    6 type  1   force =     0.00000000    0.00000000    0.00000000
     atom    7 type  1   force =     0.00000000    0.00000000    0.00000000
     atom    8 type  1   force =     0.00000000    0.00000000    0.00000000
     atom    9 type  1   force =     0.00000000    0.00000000    0.00000000
     atom   10 type  1   force =     0.00000000    0.00000000    0.00000000
     atom   11 type  1   force =     0.00000000    0.00000000    0.00000000
     atom   12 type  1   force =     0.00000000    0.00000000    0.00000000
     atom   13 type  1   force =     0.00000000    0.00000000    0.00000000
     atom   14 type  1   force =     0.00000000    0.00000000    0.00000000
     atom   15 type  1   force =     0.00000000    0.00000000    0.00000000
     atom   16 type  1   force =     0.00000000    0.00000000    0.00000000
     atom   17 type  1   force =     0.00000000    0.00000000    0.00000000
     atom   18 type  1   force =     0.00000000    0.00000000    0.00000000
     atom   19 type  1   force =     0.00000000    0.00000000    0.00000000
     atom   20 type  1   force =     0.00000000    0.00000000    0.00000000
     atom   21 type  1   force =     0.00000000    0.00000000    0.00000000
     atom   22 type  1   force =     0.00000000    0.00000000    0.00000000
     atom   23 type  1   force =     0.00000000    0.00000000    0.00000000
     atom   24 type  1   force =     0.00000000    0.00000000    0.00000000
     atom   25 type  1   force =     0.00000000    0.00000000    0.00000000
     atom   26 type  1   force =     0.00000000    0.00000000    0.00000000
     atom   27 type  1   force =     0.00000000    0.00000000    0.00000000
     atom   28 type  1   force =     0.00000000    0.00000000    0.00000000
     atom   29 type  1   force =     0.00000000    0.00000000    0.00000000
     atom   30 type  1   force =     0.00000000    0.00000000    0.00000000
     atom   31 type  1   force =     0.00000000    0.00000000    0.00000000
     atom   32 type  1   force =     0.00000000    0.00000000    0.00000000
     atom   33 type  2   force =    -0.00193292   -0.00224090    0.01025493
     atom   34 type  2   force =     0.00208633    0.00307583    0.00093679
     atom   35 type  2   force =    -0.00091595   -0.00190688   -0.00333742
     atom   36 type  2   force =    -0.00028144    0.00119521   -0.00277329
     atom   37 type  2   force =     0.00067729    0.00028801   -0.00062985
     atom   38 type  2   force =    -0.00018105    0.00087819   -0.00003512
     atom   39 type  2   force =    -0.00035157   -0.00033465    0.00513249
     atom   40 type  3   force =    -0.00101059   -0.00173936    0.01148381
     atom   41 type  3   force =     0.00523934    0.00430152   -0.00061801
     atom   42 type  4   force =     0.00000000    0.00000000    0.00000000
     atom   43 type  4   force =     0.00000000    0.00000000    0.00000000
     atom   44 type  4   force =     0.00000000    0.00000000    0.00000000
     atom   45 type  4   force =     0.00000000    0.00000000    0.00000000
     atom   46 type  4   force =     0.00000000    0.00000000    0.00000000
     atom   47 type  4   force =     0.00000000    0.00000000    0.00000000
     The Hubbard contrib.    to forces
     atom    1 type  1   force =     0.00000000    0.00000000    0.00000000
     atom    2 type  1   force =     0.00000000    0.00000000    0.00000000
     atom    3 type  1   force =     0.00000000    0.00000000    0.00000000
     atom    4 type  1   force =     0.00000000    0.00000000    0.00000000
     atom    5 type  1   force =     0.00000000    0.00000000    0.00000000
     atom    6 type  1   force =     0.00000000    0.00000000    0.00000000
     atom    7 type  1   force =     0.00000000    0.00000000    0.00000000
[...]
     atom   28 type  1   force =     0.00000000    0.00000000    0.00000000
     atom   29 type  1   force =     0.00000000    0.00000000    0.00000000
     atom   30 type  1   force =     0.00000000    0.00000000    0.00000000
     atom   31 type  1   force =     0.00000000    0.00000000    0.00000000
     atom   32 type  1   force =     0.00000000    0.00000000    0.00000000
     atom   33 type  2   force =    -0.00184947   -0.00207164    0.01051261
     atom   34 type  2   force =     0.00215276    0.00319456    0.00070999
     atom   35 type  2   force =    -0.00094676   -0.00186958   -0.00354399
     atom   36 type  2   force =    -0.00037976    0.00111694   -0.00295315
     atom   37 type  2   force =     0.00068898    0.00066245   -0.00040604
     atom   38 type  2   force =    -0.00028054    0.00084949    0.00019428
     atom   39 type  2   force =    -0.00043262   -0.00041125    0.00522728
     atom   40 type  3   force =    -0.00103486   -0.00174970    0.01148498
     atom   41 type  3   force =     0.00528220    0.00433675   -0.00063714
     atom   42 type  4   force =     0.00000000    0.00000000    0.00000000
     atom   43 type  4   force =     0.00000000    0.00000000    0.00000000
     atom   44 type  4   force =     0.00000000    0.00000000    0.00000000
     atom   45 type  4   force =     0.00000000    0.00000000    0.00000000
     atom   46 type  4   force =     0.00000000    0.00000000    0.00000000
     atom   47 type  4   force =     0.00000000    0.00000000    0.00000000
     The Hubbard contrib.    to forces
     atom    1 type  1   force =     0.00000000    0.00000000    0.00000000
     atom    2 type  1   force =     0.00000000    0.00000000    0.00000000
     atom    3 type  1   force =     0.00000000    0.00000000    0.00000000
     atom    4 type  1   force =     0.00000000    0.00000000    0.00000000
     atom    5 type  1   force =     0.00000000    0.00000000    0.00000000
     atom    6 type  1   force =     0.00000000    0.00000000    0.00000000
     atom    7 type  1   force =     0.00000000    0.00000000    0.00000000
     atom    8 type  1   force =     0.00000000    0.00000000    0.00000000
     atom    9 type  1   force =     0.00000000    0.00000000    0.00000000
     atom   10 type  1   force =     0.00000000    0.00000000    0.00000000
     atom   11 type  1   force =     0.00000000    0.00000000    0.00000000
     atom   12 type  1   force =     0.00000000    0.00000000    0.00000000
     atom   13 type  1   force =     0.00000000    0.00000000    0.00000000
     atom   14 type  1   force =     0.00000000    0.00000000    0.00000000
     atom   15 type  1   force =     0.00000000    0.00000000    0.00000000
     atom   16 type  1   force =     0.00000000    0.00000000    0.00000000
     atom   17 type  1   force =     0.00000000    0.00000000    0.00000000
     atom   18 type  1   force =     0.00000000    0.00000000    0.00000000
     atom   19 type  1   force =     0.00000000    0.00000000    0.00000000
     atom   20 type  1   force =     0.00000000    0.00000000    0.00000000
     atom   21 type  1   force =     0.00000000    0.00000000    0.00000000
     atom   22 type  1   force =     0.00000000    0.00000000    0.00000000
     atom   23 type  1   force =     0.00000000    0.00000000    0.00000000
     atom   24 type  1   force =     0.00000000    0.00000000    0.00000000
     atom   25 type  1   force =     0.00000000    0.00000000    0.00000000
     atom   26 type  1   force =     0.00000000    0.00000000    0.00000000
     atom   27 type  1   force =     0.00000000    0.00000000    0.00000000
     atom   28 type  1   force =     0.00000000    0.00000000    0.00000000
     atom   29 type  1   force =     0.00000000    0.00000000    0.00000000
     atom   30 type  1   force =     0.00000000    0.00000000    0.00000000
     atom   31 type  1   force =     0.00000000    0.00000000    0.00000000
     atom   32 type  1   force =     0.00000000    0.00000000    0.00000000
     atom   33 type  2   force =     0.00000000    0.00000000    0.00000000
     atom   34 type  2   force =     0.00000000    0.00000000    0.00000000
     atom   35 type  2   force =     0.00000000    0.00000000    0.00000000
     atom   36 type  2   force =     0.00000000    0.00000000    0.00000000
     atom   37 type  2   force =     0.00000000    0.00000000    0.00000000
     atom   38 type  2   force =     0.00000000    0.00000000    0.00000000
     atom   39 type  2   force =     0.00000000    0.00000000    0.00000000
     atom   40 type  3   force =     0.00000000    0.00000000    0.00000000
     atom   41 type  3   force =     0.00000000    0.00000000    0.00000000
     atom   42 type  4   force =     0.00000000    0.00000000    0.00000000
     atom   43 type  4   force =     0.00000000    0.00000000    0.00000000
     atom   44 type  4   force =     0.00000000    0.00000000    0.00000000
     atom   45 type  4   force =     0.00000000    0.00000000    0.00000000
     atom   46 type  4   force =     0.00000000    0.00000000    0.00000000
     atom   47 type  4   force =     0.00000000    0.00000000    0.00000000
     The SCF correction term to forces
     atom    1 type  1   force =    -0.00000000   -0.00000000   -0.00000000
     atom    2 type  1   force =     0.00000367    0.00000561   -0.00004382
     atom    3 type  1   force =    -0.00000000   -0.00000000   -0.00000000
     atom    4 type  1   force =     0.00000795    0.00007169    0.00004084
     atom    5 type  1   force =     0.00000000    0.00000000   -0.00000000
     atom    6 type  1   force =    -0.00001039   -0.00000212    0.00008264
     atom    7 type  1   force =     0.00000000    0.00000000   -0.00000000
     atom    8 type  1   force =    -0.00001121   -0.00008040   -0.00000087
     atom    9 type  1   force =     0.00000000   -0.00000000   -0.00000000
     atom   10 type  1   force =    -0.00000457    0.00000794   -0.00004833
     atom   11 type  1   force =     0.00000000   -0.00000000   -0.00000000
     atom   12 type  1   force =    -0.00000841    0.00007701    0.00003614
     atom   13 type  1   force =    -0.00000000    0.00000000   -0.00000000
     atom   14 type  1   force =     0.00001016   -0.00000077    0.00008295
     atom   15 type  1   force =    -0.00000000    0.00000000   -0.00000000
     atom   16 type  1   force =     0.00001040   -0.00007738   -0.00000326
     atom   17 type  1   force =    -0.00000000    0.00000000   -0.00000000
     atom   18 type  1   force =    -0.00000914   -0.00005833    0.00007225
     atom   19 type  1   force =     0.00000000   -0.00000000   -0.00000000
     atom   20 type  1   force =    -0.00000891    0.00010415    0.00002448
     atom   21 type  1   force =     0.00000000   -0.00000000   -0.00000000
     atom   22 type  1   force =    -0.00000235    0.00005680    0.00004014
     atom   23 type  1   force =    -0.00000000    0.00000000   -0.00000000
     atom   24 type  1   force =    -0.00000269   -0.00010255    0.00006829
     atom   25 type  1   force =     0.00000000    0.00000000   -0.00000000
     atom   26 type  1   force =     0.00000721   -0.00005318    0.00007650
     atom   27 type  1   force =    -0.00000000   -0.00000000   -0.00000000
     atom   28 type  1   force =     0.00000838    0.00010947    0.00002872
     atom   29 type  1   force =    -0.00000000   -0.00000000    0.00000000
     atom   30 type  1   force =     0.00000205    0.00006209    0.00002940
     atom   31 type  1   force =     0.00000000    0.00000000   -0.00000000
     atom   32 type  1   force =     0.00000153   -0.00010213    0.00006698
     atom   33 type  2   force =     0.00000235   -0.00000262   -0.00000178
     atom   34 type  2   force =     0.00000153   -0.00000490    0.00001422
     atom   35 type  2   force =     0.00000270   -0.00000516    0.00001044
     atom   36 type  2   force =    -0.00000400    0.00000422    0.00000474
     atom   37 type  2   force =    -0.00000993    0.00001175    0.00000569
     atom   38 type  2   force =     0.00000868   -0.00001023    0.00000960
     atom   39 type  2   force =    -0.00000423    0.00000424    0.00000359
     atom   40 type  3   force =     0.00000347   -0.00000376   -0.00001133
     atom   41 type  3   force =    -0.00000612    0.00000669   -0.00001895
     atom   42 type  4   force =    -0.00000192    0.00000205   -0.00000312
     atom   43 type  4   force =     0.00000065   -0.00000038   -0.00000334
     atom   44 type  4   force =     0.00000014   -0.00000022    0.00000138
     atom   45 type  4   force =    -0.00000021    0.00000067    0.00000091
     atom   46 type  4   force =     0.00000126   -0.00000120    0.00000104
     atom   47 type  4   force =    -0.00000055    0.00000067    0.00000084

     Total force =     0.001763     Total SCF correction =     0.000358
     SCF correction compared to forces is large: reduce conv_thr to get better values


     Computing stress (Cartesian axis) and pressure


     negative rho (up, down):  1.224E-02 0.000E+00
          total   stress  (Ry/bohr**3)                   (kbar)     P=     -310.17
  -0.00217914   0.00000201   0.00000153         -320.56        0.30        0.23
   0.00000201  -0.00206848  -0.00000086            0.30     -304.28       -0.13
   0.00000153  -0.00000086  -0.00207785            0.23       -0.13     -305.66

     kinetic stress (kbar)  17775.92     62.04     13.26
                               62.04  17769.10     13.51
                               13.26     13.51  17766.44

     local   stress (kbar)**********   1121.80    394.45
                             1121.80**********    781.52
                              394.45    781.521318507.07

     nonloc. stress (kbar)  -1759.29     -4.03     -1.85
                               -4.03  -1751.08     -2.38
                               -1.85     -2.38  -1815.78

     hartree stress (kbar) 690479.93   -369.37   -136.25
                             -369.37 688589.34   -316.87
                             -136.25   -316.87-612918.86

     exc-cor stress (kbar)  -8460.64     -2.99     -0.86
                               -2.99  -8459.20     -0.92
                               -0.86     -0.92  -8465.76

     corecor stress (kbar)   -160.73      1.56      0.49
                                1.56   -161.88      0.46
                                0.49      0.46   -163.68

     ewald   stress (kbar) 609068.56   -808.72   -269.03
                             -808.72 607201.44   -475.46
                             -269.03   -475.46-713215.09

     hubbard stress (kbar)      0.00      0.00      0.00
                                0.00      0.00      0.00
                                0.00      0.00      0.00

     DFT-D   stress (kbar)      0.00      0.00      0.00
                                0.00      0.00      0.00
                                0.00      0.00      0.00

     XDM     stress (kbar)      0.00      0.00      0.00
                                0.00      0.00      0.00
                                0.00      0.00      0.00

     dft-nl  stress (kbar)      0.00      0.00      0.00
                                0.00      0.00      0.00
                                0.00      0.00      0.00

     TS-vdW  stress (kbar)      0.00      0.00      0.00
                                0.00      0.00      0.00
                                0.00      0.00      0.00

     MDB     stress (kbar)      0.00      0.00      0.00
                                0.00      0.00      0.00
                                0.00      0.00      0.00

     3D-RISM stress (kbar)      0.00      0.00      0.00
                                0.00      0.00      0.00
                                0.00      0.00      0.00

     Energy error            =      9.6E-06 Ry
     Gradient error          =      4.7E-04 Ry/Bohr

     bfgs converged in 104 scf cycles and 102 bfgs steps
     (criteria: energy <  1.0E-05 Ry, force <  5.0E-04 Ry/Bohr)

     End of BFGS Geometry Optimization

     Final energy             =  -14944.1828073074 Ry

     File ./tmp/Zn002_2x2x4_relax_ecutrho250_ecutwfc25_ABN.bfgs deleted, as requested
Begin final coordinates

ATOMIC_POSITIONS (angstrom)
Zn              -0.0000000130        1.5094013740        1.2182902100    0   0   0
Zn              -0.0078988975        1.5082455562        6.2460992097
Zn              -1.3071799410        3.7735034240        1.2182902100    0   0   0
Zn              -1.3153569995        3.7706156763        6.2478015182
Zn              -2.6143598690        6.0376054730        1.2182902100    0   0   0
Zn              -2.6218732117        6.0354659652        6.2444889898
Zn              -3.9215397970        8.3017075230        1.2182902100    0   0   0
Zn              -3.9296329560        8.3004899911        6.2447283012
Zn               2.6143598430        1.5094013740        1.2182902100    0   0   0
Zn               2.6058994814        1.5080043417        6.2495873401
Zn               1.3071799150        3.7735034240        1.2182902100    0   0   0
Zn               1.2987820549        3.7689331576        6.2467959652
Zn              -0.0000000130        6.0376054730        1.2182902100    0   0   0
Zn              -0.0091762665        6.0354527292        6.2410389862
Zn              -1.3071799410        8.3017075230        1.2182902100    0   0   0
Zn              -1.3155579858        8.3007153407        6.2452802627
Zn               1.3071799410        0.7547006760        3.6548706290    0   0   0
Zn               1.2954183921        0.7419553144        8.8412344647
Zn               0.0000000130        3.0188027250        3.6548706290    0   0   0
Zn              -0.0120213743        3.0049686779        8.8445842423
Zn              -1.3071799150        5.2829047750        3.6548706290    0   0   0
Zn              -1.3189277100        5.2693303335        8.8390191217
Zn              -2.6143598430        7.5470068250        3.6548706290    0   0   0
Zn              -2.6263193236        7.5335398534        8.8384815472
Zn               3.9215397970        0.7547006760        3.6548706290    0   0   0
Zn               3.9099373675        0.7416799321        8.8314148752
Zn               2.6143598690        3.0188027250        3.6548706290    0   0   0
Zn               2.6031632454        3.0044690022        8.8282075427
Zn               1.3071799410        5.2829047750        3.6548706290    0   0   0
Zn               1.2940145130        5.2693249750        8.7797658303
Zn               0.0000000130        7.5470068250        3.6548706290    0   0   0
Zn              -0.0132294592        7.5338311496        8.8276288183
C                1.2532968655        4.4134510526       18.0509704009
C                1.3749558345        4.6277806466       16.6471123998
C                2.1944543567        3.7899886397       15.8604272279
C                0.6506129003        5.6571873973       16.0098200790
C                0.7524378799        5.8505420717       14.6392757734
C                2.2999056533        3.9869486536       14.4909999020
C                1.5833511678        5.0228196403       13.8547081762
N                1.1508818700        4.2345245964       19.2068209028
N                1.7347289146        5.2535907222       12.5009598729
H                1.0213654809        5.8115358493       12.0314019705
H                2.0983877619        4.4938344940       11.9252242773
H                2.7587545686        2.9865132370       16.3425341038
H                0.1742629312        6.6473752172       14.1590008019
H                2.9511920320        3.3362053102       13.8966664813
H               -0.0060359818        6.2982810662       16.6049392579
End final coordinates



     Writing all to output data dir ./tmp/Zn002_2x2x4_relax_ecutrho250_ecutwfc25_ABN.save/ :
     XML data file, charge density, pseudopotentials, collected wavefunctions

     init_run     :     10.14s CPU     10.25s WALL (       1 calls)
     electrons    :   1178.15s CPU   1189.90s WALL (       4 calls)
     update_pot   :      0.24s CPU      0.25s WALL (       3 calls)
     forces       :     35.46s CPU     35.82s WALL (       4 calls)
     stress       :    103.11s CPU    103.43s WALL (       4 calls)

     Called by init_run:
     wfcinit      :      9.70s CPU      9.78s WALL (       1 calls)
     wfcinit:atom :      0.01s CPU      0.02s WALL (       5 calls)
     wfcinit:wfcr :      9.53s CPU      9.62s WALL (       5 calls)
     potinit      :      0.08s CPU      0.09s WALL (       1 calls)
     hinit0       :      0.23s CPU      0.24s WALL (       1 calls)

     Called by electrons:
     c_bands      :   1086.14s CPU   1096.91s WALL (      34 calls)
     sum_band     :     86.51s CPU     87.35s WALL (      34 calls)
     v_of_rho     :      0.32s CPU      0.34s WALL (      34 calls)
     v_h          :      0.01s CPU      0.02s WALL (      34 calls)
     v_xc         :      0.37s CPU      0.40s WALL (      42 calls)
     newd         :      3.54s CPU      3.57s WALL (      34 calls)
     PAW_pot      :      2.42s CPU      2.43s WALL (      37 calls)
     mix_rho      :      0.06s CPU      0.06s WALL (      34 calls)

     Called by c_bands:
     init_us_2    :      1.88s CPU      1.89s WALL (     400 calls)
     cegterg      :   1082.45s CPU   1092.71s WALL (     170 calls)

     Called by sum_band:
     sum_band:wei :      0.06s CPU      0.06s WALL (      34 calls)
     sum_band:loo :     84.43s CPU     85.23s WALL (      34 calls)
     sum_band:buf :      0.28s CPU      0.28s WALL (     170 calls)
     sum_band:ini :      0.82s CPU      0.82s WALL (     170 calls)
     sum_band:cal :     75.10s CPU     75.80s WALL (     185 calls)
     sum_band:bec :      1.86s CPU      1.86s WALL (     185 calls)
     addusdens    :      1.75s CPU      1.78s WALL (      34 calls)
                                        0.00s GPU  (      34 calls)
     addusd:skk   :      0.03s CPU      0.03s WALL (     136 calls)
                                        0.00s GPU  (     136 calls)

     Called by *egterg:
     cdiaghg      :    166.11s CPU    170.08s WALL (     621 calls)
     cegterg:over :    139.13s CPU    140.11s WALL (     486 calls)
     cegterg:upda :     56.95s CPU     57.26s WALL (     486 calls)
     cegterg:last :    199.65s CPU    201.14s WALL (     370 calls)
     cdiaghg:chol :     11.86s CPU     11.89s WALL (     621 calls)
     cdiaghg:inve :      2.43s CPU      2.43s WALL (     621 calls)
     cdiaghg:para :     46.11s CPU     47.20s WALL (    1242 calls)
     h_psi        :    356.47s CPU    359.23s WALL (     661 calls)
     s_psi        :    128.68s CPU    129.00s WALL (     661 calls)
     g_psi        :      0.28s CPU      0.28s WALL (     486 calls)

     Called by h_psi:
     h_psi:calbec :    163.05s CPU    164.64s WALL (     661 calls)
     vloc_psi     :     58.61s CPU     59.31s WALL (     661 calls)
     add_vuspsi   :    134.15s CPU    134.53s WALL (     661 calls)

     General routines
     calbec       :    281.92s CPU    284.63s WALL (     946 calls)
     fft          :      0.37s CPU      0.41s WALL (     481 calls)
     ffts         :      0.02s CPU      0.02s WALL (      34 calls)
     fftw         :     66.20s CPU     67.00s WALL (  397914 calls)

     Parallel routines

     PAW routines
     PAW_pot      :      2.42s CPU      2.43s WALL (      37 calls)

     PWSCF        :  22m14.63s CPU  22m28.51s WALL


   This run was terminated on:  11: 3:28  17Mar2025            

=------------------------------------------------------------------------------=
   JOB DONE.
=------------------------------------------------------------------------------=
Note: The following floating-point exceptions are signalling: IEEE_DENORMAL
Note: The following floating-point exceptions are signalling: IEEE_DENORMAL
Note: The following floating-point exceptions are signalling: IEEE_DENORMAL
Note: The following floating-point exceptions are signalling: IEEE_DENORMAL
