--------------------------------------------------------------------------
By default, for Open MPI 4.0 and later, infiniband ports on a device
are not used by default.  The intent is to use UCX for these devices.
You can override this policy by setting the btl_openib_allow_ib MCA parameter
to true.

  Local host:              psid00
  Local adapter:           mlx5_0
  Local port:              1

--------------------------------------------------------------------------
--------------------------------------------------------------------------
WARNING: There was an error initializing an OpenFabrics device.

  Local host:   psid00
  Local device: mlx5_0
--------------------------------------------------------------------------

     Program PWSCF v.7.3.1 starts on 25Jan1998 at  0:46: 6 

     This program is part of the open-source Quantum ESPRESSO suite
     for quantum simulation of materials; please cite
         "P. Giannozzi et al., J. Phys.:Condens. Matter 21 395502 (2009);
         "P. Giannozzi et al., J. Phys.:Condens. Matter 29 465901 (2017);
         "P. Giannozzi et al., J. Chem. Phys. 152 154105 (2020);
          URL http://www.quantum-espresso.org", 
     in publications or presentations arising from this work. More details at
     http://www.quantum-espresso.org/quote

     Parallel version (MPI), running on    32 processors

     MPI processes distributed on     1 nodes
     136604 MiB available memory on the printing compute node when the environment starts

     Waiting for input...
     Reading input from standard input
Warning: card &CELL ignored
Warning: card   CELL_DOFREE = 'ALL' ignored
Warning: card / ignored

     Current dimensions of program PWSCF are:
     Max number of different atomic species (ntypx) = 10
     Max number of k-points (npk) =  40000
     Max angular momentum in pseudopotentials (lmaxx) =  4
     file C.pbe-n-kjpaw_psl.1.0.0.UPF: wavefunction(s)  2S 2P renormalized

     R & G space division:  proc/nbgrp/npool/nimage =      32
     Subspace diagonalization in iterative solution of the eigenvalue problem:
     one sub-group per band group will be used
     custom distributed-memory algorithm (size of sub-group:  4*  4 procs)


     Parallelization info
     --------------------
     sticks:   dense  smooth     PW     G-vecs:    dense   smooth      PW
     Min          59      59     17                 5831     5831     910
     Max          60      60     18                 5849     5849     923
     Sum        1919    1919    563               187003   187003   29267

     Using Slab Decomposition



     bravais-lattice index     =            0
     lattice parameter (alat)  =      20.9009  a.u.
     unit-cell volume          =    8423.3755 (a.u.)^3
     number of atoms/cell      =           47
     number of atomic types    =            4
     number of electrons       =       684.00
     number of Kohn-Sham states=          410
     kinetic-energy cutoff     =      30.0000  Ry
     charge density cutoff     =     120.0000  Ry
     scf convergence threshold =      7.3E-07
     mixing beta               =       0.7000
     number of iterations used =            8  plain     mixing
     energy convergence thresh.=      1.0E-05
     force convergence thresh. =      5.0E-04
     Exchange-correlation= PBE
                           (   1   4   3   4   0   0   0)
     nstep                     =          100


     celldm(1)=  20.900943  celldm(2)=   0.000000  celldm(3)=   0.000000
     celldm(4)=   0.000000  celldm(5)=   0.000000  celldm(6)=   0.000000

     crystal axes: (cart. coord. in units of alat)
               a(1) = (   1.000000   0.000000   0.000000 )  
               a(2) = (  -0.111745   0.459350   0.000000 )  
               a(3) = (  -4.200249  -1.021781   2.008375 )  

     reciprocal axes: (cart. coord. in units 2 pi/alat)
               b(1) = (  1.000000  0.243267  2.215131 )  
               b(2) = ( -0.000000  2.176989  1.107566 )  
               b(3) = (  0.000000 -0.000000  0.497915 )  


     PseudoPot. # 1 for Zn read from file:
     /home/ys/qepseudo/SSSP_1.3.0_PBE_efficiency/Zn_pbe_v1.uspp.F.UPF
     MD5 check sum: df62231357ef9e81f77b2b3087fa5675
     Pseudo is Ultrasoft, Zval = 20.0
     Generated by new atomic code, or converted to UPF format
     Using radial grid of  943 points,  6 beta functions with: 
                l(1) =   0
                l(2) =   0
                l(3) =   1
                l(4) =   1
                l(5) =   2
                l(6) =   2
     Q(r) pseudized with  8 coefficients,  rinner =    1.100   1.100   1.100
                                                       1.100   1.100

     PseudoPot. # 2 for C  read from file:
     /home/ys/qepseudo/SSSP_1.3.0_PBE_efficiency/C.pbe-n-kjpaw_psl.1.0.0.UPF
     MD5 check sum: 5d2aebdfa2cae82b50a7e79e9516da0f
     Pseudo is Projector augmented-wave + core cor, Zval =  4.0
     Generated using "atomic" code by A. Dal Corso  v.5.1
     Shape of augmentation charge: PSQ
     Using radial grid of 1073 points,  4 beta functions with: 
                l(1) =   0
                l(2) =   0
                l(3) =   1
                l(4) =   1
     Q(r) pseudized with 0 coefficients 


     PseudoPot. # 3 for N  read from file:
     /home/ys/qepseudo/SSSP_1.3.0_PBE_efficiency/N.pbe-n-radius_5.UPF
     MD5 check sum: 16739722b17309cd8fe442a2ace49922
     Pseudo is Ultrasoft + core correction, Zval =  5.0
     Generated using "atomic" code by A. Dal Corso  v.5.1
     Using radial grid of 1085 points,  4 beta functions with: 
                l(1) =   0
                l(2) =   0
                l(3) =   1
                l(4) =   1
     Q(r) pseudized with 0 coefficients 


     PseudoPot. # 4 for H  read from file:
     /home/ys/qepseudo/SSSP_1.3.0_PBE_efficiency/H.pbe-rrkjus_psl.1.0.0.UPF
     MD5 check sum: f52b6d4d1c606e5624b1dc7b2218f220
     Pseudo is Ultrasoft, Zval =  1.0
     Generated using "atomic" code by A. Dal Corso  v.5.1
     Using radial grid of  929 points,  2 beta functions with: 
                l(1) =   0
                l(2) =   0
     Q(r) pseudized with 0 coefficients 


     atomic species   valence    mass     pseudopotential
     Zn               20.00    65.38000     Zn( 1.00)
     C                 4.00    12.01070     C ( 1.00)
     N                 5.00    14.00670     N ( 1.00)
     H                 1.00     1.00800     H ( 1.00)

     No symmetry found


                                    s                        frac. trans.

      isym =  1     identity                                     

 cryst.   s( 1) = (     1          0          0      )
                  (     0          1          0      )
                  (     0          0          1      )

 cart.    s( 1) = (  1.0000000  0.0000000  0.0000000 )
                  (  0.0000000  1.0000000  0.0000000 )
                  (  0.0000000  0.0000000  1.0000000 )


   Cartesian axes

     site n.     atom                  positions (alat units)
         1        Zn     tau(   1) = (  -0.0970639   0.0980210   0.1082939  )
         2        Zn     tau(   2) = (  -0.4853192   0.0035714   0.2939406  )
         3        Zn     tau(   3) = (  -0.8769917  -0.0917049   0.5109583  )
         4        Zn     tau(   4) = (  -1.2393182  -0.1798545   0.7015996  )
         5        Zn     tau(   5) = (  -0.1529362   0.3276960   0.1082939  )
         6        Zn     tau(   6) = (  -0.5411916   0.2332464   0.2939406  )
         7        Zn     tau(   7) = (  -0.9328639   0.1379701   0.5109582  )
         8        Zn     tau(   8) = (  -1.2951904   0.0498206   0.7015996  )
         9        Zn     tau(   9) = (   0.4029361   0.0980210   0.1082939  )
        10        Zn     tau(  10) = (   0.0146808   0.0035714   0.2939406  )
        11        Zn     tau(  11) = (  -0.3769696  -0.0917006   0.5109946  )
        12        Zn     tau(  12) = (  -0.7392709  -0.1798442   0.7014624  )
        13        Zn     tau(  13) = (   0.3470638   0.3276960   0.1082939  )
        14        Zn     tau(  14) = (  -0.0411916   0.2332464   0.2939406  )
        15        Zn     tau(  15) = (  -0.4328420   0.1379744   0.5109946  )
        16        Zn     tau(  16) = (  -0.7951433   0.0498308   0.7014623  )
        17        Zn     tau(  17) = (   0.1529362   0.0372043   0.0773528  )
        18        Zn     tau(  18) = (  -0.2353192  -0.0572454   0.2629995  )
        19        Zn     tau(  19) = (  -0.6308270  -0.1534546   0.4612477  )
        20        Zn     tau(  20) = (  -1.0069581  -0.2449548   0.6661801  )
        21        Zn     tau(  21) = (   0.0970639   0.2668793   0.0773528  )
        22        Zn     tau(  22) = (  -0.2911915   0.1724296   0.2629995  )
        23        Zn     tau(  23) = (  -0.6866993   0.0762204   0.4612476  )
        24        Zn     tau(  24) = (  -1.0628305  -0.0152798   0.6661801  )
        25        Zn     tau(  25) = (   0.6529362   0.0372043   0.0773528  )
        26        Zn     tau(  26) = (   0.2646808  -0.0572454   0.2629995  )
        27        Zn     tau(  27) = (  -0.1308842  -0.1534678   0.4614336  )
        28        Zn     tau(  28) = (  -0.5069835  -0.2449613   0.6658686  )
        29        Zn     tau(  29) = (   0.5970639   0.2668793   0.0773528  )
        30        Zn     tau(  30) = (   0.2088085   0.1724296   0.2629995  )
        31        Zn     tau(  31) = (  -0.1867564   0.0762073   0.4614335  )
        32        Zn     tau(  32) = (  -0.5628557  -0.0152862   0.6658686  )
        33        C      tau(  33) = (  -0.7635365  -0.2057775   1.4908086  )
        34        C      tau(  34) = (  -0.7673565  -0.2030015   1.3643984  )
        35        C      tau(  35) = (  -0.8604848  -0.2623287   1.3004532  )
        36        C      tau(  36) = (  -0.6783912  -0.1407118   1.2977292  )
        37        C      tau(  37) = (  -0.6821110  -0.1379459   1.1722837  )
        38        C      tau(  38) = (  -0.8643135  -0.2594991   1.1751474  )
        39        C      tau(  39) = (  -0.7752653  -0.1973587   1.1094952  )
        40        N      tau(  40) = (  -0.7602329  -0.2082326   1.6008512  )
        41        N      tau(  41) = (  -0.7791398  -0.1946248   0.9864834  )
        42        H      tau(  42) = (  -0.7147077  -0.1494470   0.9365720  )
        43        H      tau(  43) = (  -0.8464643  -0.2369526   0.9384860  )
        44        H      tau(  44) = (  -0.9302553  -0.3109789   1.3508049  )
        45        H      tau(  45) = (  -0.6055894  -0.0942494   1.3457495  )
        46        H      tau(  46) = (  -0.6119877  -0.0890121   1.1223593  )
        47        H      tau(  47) = (  -0.9374639  -0.3062664   1.1274269  )

   Crystallographic axes

     site n.     atom                  positions (cryst. coord.)
         1        Zn     tau(   1) = (  0.1666667  0.3333333  0.0539212  )
         2        Zn     tau(   2) = (  0.1666667  0.3333333  0.1463574  )
         3        Zn     tau(   3) = (  0.2325393  0.3662792  0.2544138  )
         4        Zn     tau(   4) = (  0.2710645  0.3855263  0.3493370  )
         5        Zn     tau(   5) = (  0.1666667  0.8333333  0.0539212  )
         6        Zn     tau(   6) = (  0.1666667  0.8333333  0.1463574  )
         7        Zn     tau(   7) = (  0.2325392  0.8662792  0.2544138  )
         8        Zn     tau(   8) = (  0.2710644  0.8855263  0.3493369  )
         9        Zn     tau(   9) = (  0.6666667  0.3333333  0.0539212  )
        10        Zn     tau(  10) = (  0.6666667  0.3333333  0.1463574  )
        11        Zn     tau(  11) = (  0.7326429  0.3663288  0.2544319  )
        12        Zn     tau(  12) = (  0.7708103  0.3853967  0.3492686  )
        13        Zn     tau(  13) = (  0.6666667  0.8333333  0.0539212  )
        14        Zn     tau(  14) = (  0.6666667  0.8333333  0.1463574  )
        15        Zn     tau(  15) = (  0.7326428  0.8663287  0.2544319  )
        16        Zn     tau(  16) = (  0.7708101  0.8853967  0.3492686  )
        17        Zn     tau(  17) = (  0.3333333  0.1666667  0.0385151  )
        18        Zn     tau(  18) = (  0.3333333  0.1666667  0.1309514  )
        19        Zn     tau(  19) = (  0.3535668  0.1767931  0.2296621  )
        20        Zn     tau(  20) = (  0.4091289  0.2045741  0.3317010  )
        21        Zn     tau(  21) = (  0.3333333  0.6666667  0.0385151  )
        22        Zn     tau(  22) = (  0.3333333  0.6666667  0.1309514  )
        23        Zn     tau(  23) = (  0.3535667  0.6767931  0.2296621  )
        24        Zn     tau(  24) = (  0.4091288  0.7045741  0.3317010  )
        25        Zn     tau(  25) = (  0.8333333  0.1666667  0.0385151  )
        26        Zn     tau(  26) = (  0.8333333  0.1666667  0.1309514  )
        27        Zn     tau(  27) = (  0.8539182  0.1769702  0.2297547  )
        28        Zn     tau(  28) = (  0.9084121  0.2042151  0.3315460  )
        29        Zn     tau(  29) = (  0.8333333  0.6666667  0.0385151  )
        30        Zn     tau(  30) = (  0.8333333  0.6666667  0.1309514  )
        31        Zn     tau(  31) = (  0.8539181  0.6769702  0.2297547  )
        32        Zn     tau(  32) = (  0.9084121  0.7042152  0.3315460  )
        33        C      tau(  33) = (  2.4887415  1.2031929  0.7422960  )
        34        C      tau(  34) = (  2.2055816  1.0692286  0.6793544  )
        35        C      tau(  35) = (  1.9563740  0.8692505  0.6475151  )
        36        C      tau(  36) = (  2.1620188  1.1309922  0.6461588  )
        37        C      tau(  37) = (  1.8810938  0.9980743  0.5836976  )
        38        C      tau(  38) = (  1.6756649  0.7366261  0.5851235  )
        39        C      tau(  39) = (  1.6344015  0.7991909  0.5524343  )
        40        N      tau(  40) = (  2.7352067  1.3197275  0.7970878  )
        41        N      tau(  41) = (  1.3587047  0.6688991  0.4911849  )
        42        H      tau(  42) = (  1.3235667  0.7119704  0.4663332  )
        43        H      tau(  43) = (  1.1747627  0.5235915  0.4672862  )
        44        H      tau(  44) = (  1.9863041  0.8191073  0.6725860  )
        45        H      tau(  45) = (  2.3524948  1.2853259  0.6700688  )
        46        H      tau(  46) = (  1.8525319  1.0493082  0.5588395  )
        47        H      tau(  47) = (  1.4854302  0.5819605  0.5613627  )

     number of k points=     5  Marzari-Vanderbilt smearing, width (Ry)=  0.0200
                       cart. coord. in units 2pi/alat
        k(    1) = (   0.0000000   0.0000000   0.0000000), wk =   0.2222222
        k(    2) = (   0.0000000   0.7256631   0.3691885), wk =   0.4444444
        k(    3) = (   0.3333333   0.0810890   0.7383771), wk =   0.4444444
        k(    4) = (   0.3333333   0.8067520   1.1075656), wk =   0.4444444
        k(    5) = (   0.3333333  -0.6445741   0.3691886), wk =   0.4444444

                       cryst. coord.
        k(    1) = (   0.0000000   0.0000000   0.0000000), wk =   0.2222222
        k(    2) = (   0.0000000   0.3333333  -0.0000000), wk =   0.4444444
        k(    3) = (   0.3333333   0.0000000   0.0000000), wk =   0.4444444
        k(    4) = (   0.3333333   0.3333333   0.0000000), wk =   0.4444444
        k(    5) = (   0.3333333  -0.3333333   0.0000000), wk =   0.4444444

     Dense  grid:   187003 G-vectors     FFT dimensions: (  75,  36, 360)

     Dynamical RAM for                 wfc:       4.57 MB

     Dynamical RAM for     wfc (w. buffer):      27.40 MB

     Dynamical RAM for           str. fact:       0.36 MB

     Dynamical RAM for           local pot:       0.00 MB

     Dynamical RAM for          nlocal pot:       7.35 MB

     Dynamical RAM for                qrad:       3.52 MB

     Dynamical RAM for          rho,v,vnew:       1.01 MB

     Dynamical RAM for               rhoin:       0.34 MB

     Dynamical RAM for            rho*nmix:       1.43 MB

     Dynamical RAM for           G-vectors:       0.38 MB

     Dynamical RAM for          h,s,v(r/c):       1.92 MB

     Dynamical RAM for          <psi|beta>:       4.13 MB

     Dynamical RAM for                 psi:       9.13 MB

     Dynamical RAM for                hpsi:       9.13 MB

     Dynamical RAM for                spsi:       9.13 MB

     Dynamical RAM for      wfcinit/wfcrot:      15.01 MB

     Dynamical RAM for           addusdens:      19.45 MB

     Dynamical RAM for          addusforce:      25.15 MB

     Dynamical RAM for         addusstress:      17.93 MB

     Estimated static dynamical RAM per process >      42.04 MB

     Estimated max dynamical RAM per process >      76.92 MB

     Estimated total dynamical RAM >       2.40 GB

     Check: negative core charge=   -0.000080

     Initial potential from superposition of free atoms

     starting charge     683.9951, renormalised to     684.0000

     negative rho (up, down):  2.241E-03 0.000E+00
     Starting wfcs are  458 randomized atomic wfcs
[psid00:112724] 31 more processes have sent help message help-mpi-btl-openib.txt / ib port not selected
[psid00:112724] Set MCA parameter "orte_base_help_aggregate" to 0 to see all help / error messages
[psid00:112724] 31 more processes have sent help message help-mpi-btl-openib.txt / error in device init
     Checking if some PAW data can be deallocated... 
       PAW data deallocated on   25 nodes for type:  2

     total cpu time spent up to now is       12.1 secs

     Self-consistent Calculation

     iteration #  1     ecut=    30.00 Ry     beta= 0.70
     Davidson diagonalization with overlap

---- Real-time Memory Report at c_bands before calling an iterative solver
            90 MiB given to the printing process from OS
             0 MiB allocation reported by mallinfo(arena+hblkhd)
        134385 MiB available memory on the node where the printing process lives
------------------
     ethr =  1.00E-02,  avg # of iterations =  7.0

     negative rho (up, down):  1.349E-02 0.000E+00

     total cpu time spent up to now is       58.0 secs

     total energy              =  -14934.06119932 Ry
     estimated scf accuracy    <      13.01019381 Ry

     iteration #  2     ecut=    30.00 Ry     beta= 0.70
     Davidson diagonalization with overlap

---- Real-time Memory Report at c_bands before calling an iterative solver
           113 MiB given to the printing process from OS
             0 MiB allocation reported by mallinfo(arena+hblkhd)
        134179 MiB available memory on the node where the printing process lives
------------------
     ethr =  1.90E-03,  avg # of iterations = 11.4

     negative rho (up, down):  1.267E-02 0.000E+00

     total cpu time spent up to now is      124.9 secs

     total energy              =  -14896.70540567 Ry
     estimated scf accuracy    <    1132.98751232 Ry

     iteration #  3     ecut=    30.00 Ry     beta= 0.70
     Davidson diagonalization with overlap

---- Real-time Memory Report at c_bands before calling an iterative solver
           114 MiB given to the printing process from OS
             0 MiB allocation reported by mallinfo(arena+hblkhd)
        134174 MiB available memory on the node where the printing process lives
------------------
     ethr =  1.90E-03,  avg # of iterations =  9.2

     negative rho (up, down):  1.081E-02 0.000E+00

     total cpu time spent up to now is      225.4 secs

     total energy              =  -14937.32000706 Ry
     estimated scf accuracy    <      77.73712458 Ry

     iteration #  4     ecut=    30.00 Ry     beta= 0.70
     Davidson diagonalization with overlap

---- Real-time Memory Report at c_bands before calling an iterative solver
           115 MiB given to the printing process from OS
             0 MiB allocation reported by mallinfo(arena+hblkhd)
        134184 MiB available memory on the node where the printing process lives
------------------
     ethr =  1.90E-03,  avg # of iterations =  6.4

     negative rho (up, down):  7.475E-03 0.000E+00

     total cpu time spent up to now is      269.4 secs

     total energy              =  -14940.33689509 Ry
     estimated scf accuracy    <      68.32273417 Ry

     iteration #  5     ecut=    30.00 Ry     beta= 0.70
     Davidson diagonalization with overlap

---- Real-time Memory Report at c_bands before calling an iterative solver
           115 MiB given to the printing process from OS
             0 MiB allocation reported by mallinfo(arena+hblkhd)
        134171 MiB available memory on the node where the printing process lives
------------------
     ethr =  1.90E-03,  avg # of iterations =  3.6

     negative rho (up, down):  8.060E-03 0.000E+00

     total cpu time spent up to now is      307.1 secs

     total energy              =  -14943.67996169 Ry
     estimated scf accuracy    <       2.12489593 Ry

     iteration #  6     ecut=    30.00 Ry     beta= 0.70
     Davidson diagonalization with overlap

---- Real-time Memory Report at c_bands before calling an iterative solver
           115 MiB given to the printing process from OS
             0 MiB allocation reported by mallinfo(arena+hblkhd)
        134158 MiB available memory on the node where the printing process lives
------------------
     ethr =  3.11E-04,  avg # of iterations =  7.0

     negative rho (up, down):  1.107E-02 0.000E+00

     total cpu time spent up to now is      346.9 secs

     total energy              =  -14943.89668897 Ry
     estimated scf accuracy    <       0.12024981 Ry

     iteration #  7     ecut=    30.00 Ry     beta= 0.70
     Davidson diagonalization with overlap

---- Real-time Memory Report at c_bands before calling an iterative solver
           116 MiB given to the printing process from OS
             0 MiB allocation reported by mallinfo(arena+hblkhd)
        134156 MiB available memory on the node where the printing process lives
------------------
     ethr =  1.76E-05,  avg # of iterations = 11.4

     negative rho (up, down):  1.248E-02 0.000E+00

     total cpu time spent up to now is      399.2 secs

     total energy              =  -14943.86536498 Ry
     estimated scf accuracy    <       0.29039918 Ry

     iteration #  8     ecut=    30.00 Ry     beta= 0.70
     Davidson diagonalization with overlap

---- Real-time Memory Report at c_bands before calling an iterative solver
           116 MiB given to the printing process from OS
             0 MiB allocation reported by mallinfo(arena+hblkhd)
        134136 MiB available memory on the node where the printing process lives
------------------
     ethr =  1.76E-05,  avg # of iterations =  4.8

     negative rho (up, down):  1.401E-02 0.000E+00

     total cpu time spent up to now is      438.2 secs

     total energy              =  -14943.89667295 Ry
     estimated scf accuracy    <       0.16781428 Ry

     iteration #  9     ecut=    30.00 Ry     beta= 0.70
     Davidson diagonalization with overlap

---- Real-time Memory Report at c_bands before calling an iterative solver
           116 MiB given to the printing process from OS
             0 MiB allocation reported by mallinfo(arena+hblkhd)
        134136 MiB available memory on the node where the printing process lives
------------------
     ethr =  1.76E-05,  avg # of iterations =  4.2

     negative rho (up, down):  1.457E-02 0.000E+00

     total cpu time spent up to now is      476.0 secs

     total energy              =  -14943.90994083 Ry
     estimated scf accuracy    <       0.04689107 Ry

     iteration # 10     ecut=    30.00 Ry     beta= 0.70
     Davidson diagonalization with overlap

---- Real-time Memory Report at c_bands before calling an iterative solver
           117 MiB given to the printing process from OS
             0 MiB allocation reported by mallinfo(arena+hblkhd)
        134126 MiB available memory on the node where the printing process lives
------------------
     c_bands:  1 eigenvalues not converged
     ethr =  6.86E-06,  avg # of iterations = 11.2

     negative rho (up, down):  1.463E-02 0.000E+00

     total cpu time spent up to now is      517.9 secs

     total energy              =  -14943.91381949 Ry
     estimated scf accuracy    <       0.01966886 Ry

     iteration # 11     ecut=    30.00 Ry     beta= 0.70
     Davidson diagonalization with overlap

---- Real-time Memory Report at c_bands before calling an iterative solver
           117 MiB given to the printing process from OS
             0 MiB allocation reported by mallinfo(arena+hblkhd)
        134124 MiB available memory on the node where the printing process lives
------------------
     ethr =  2.88E-06,  avg # of iterations =  5.0

     negative rho (up, down):  1.535E-02 0.000E+00

     total cpu time spent up to now is      554.8 secs

     total energy              =  -14943.90769906 Ry
     estimated scf accuracy    <       0.01230010 Ry

     iteration # 12     ecut=    30.00 Ry     beta= 0.70
     Davidson diagonalization with overlap

---- Real-time Memory Report at c_bands before calling an iterative solver
           117 MiB given to the printing process from OS
             0 MiB allocation reported by mallinfo(arena+hblkhd)
        134124 MiB available memory on the node where the printing process lives
------------------
     ethr =  1.80E-06,  avg # of iterations = 17.8

     negative rho (up, down):  1.512E-02 0.000E+00

     total cpu time spent up to now is      613.8 secs

     total energy              =  -14943.90821189 Ry
     estimated scf accuracy    <       0.01075959 Ry

     iteration # 13     ecut=    30.00 Ry     beta= 0.70
     Davidson diagonalization with overlap

---- Real-time Memory Report at c_bands before calling an iterative solver
           117 MiB given to the printing process from OS
             0 MiB allocation reported by mallinfo(arena+hblkhd)
        134120 MiB available memory on the node where the printing process lives
------------------
     ethr =  1.57E-06,  avg # of iterations = 17.4

     negative rho (up, down):  1.504E-02 0.000E+00

     total cpu time spent up to now is      664.6 secs

     total energy              =  -14943.90823653 Ry
     estimated scf accuracy    <       0.00603826 Ry

     iteration # 14     ecut=    30.00 Ry     beta= 0.70
     Davidson diagonalization with overlap

---- Real-time Memory Report at c_bands before calling an iterative solver
           117 MiB given to the printing process from OS
             0 MiB allocation reported by mallinfo(arena+hblkhd)
        134114 MiB available memory on the node where the printing process lives
------------------
     ethr =  8.83E-07,  avg # of iterations =  8.6

     negative rho (up, down):  1.499E-02 0.000E+00

     total cpu time spent up to now is      706.5 secs

     total energy              =  -14943.90711346 Ry
     estimated scf accuracy    <       0.02670617 Ry

     iteration # 15     ecut=    30.00 Ry     beta= 0.70
     Davidson diagonalization with overlap

---- Real-time Memory Report at c_bands before calling an iterative solver
           117 MiB given to the printing process from OS
             0 MiB allocation reported by mallinfo(arena+hblkhd)
        134116 MiB available memory on the node where the printing process lives
------------------
     ethr =  8.83E-07,  avg # of iterations =  9.2

     negative rho (up, down):  1.486E-02 0.000E+00

     total cpu time spent up to now is      747.2 secs

     total energy              =  -14943.90755115 Ry
     estimated scf accuracy    <       0.02310789 Ry

     iteration # 16     ecut=    30.00 Ry     beta= 0.70
     Davidson diagonalization with overlap

---- Real-time Memory Report at c_bands before calling an iterative solver
           117 MiB given to the printing process from OS
             0 MiB allocation reported by mallinfo(arena+hblkhd)
        134106 MiB available memory on the node where the printing process lives
------------------
     c_bands:  1 eigenvalues not converged
     ethr =  8.83E-07,  avg # of iterations = 13.2

     negative rho (up, down):  1.486E-02 0.000E+00

     total cpu time spent up to now is      791.1 secs

     total energy              =  -14943.90988057 Ry
     estimated scf accuracy    <       0.00223901 Ry

     iteration # 17     ecut=    30.00 Ry     beta= 0.70
     Davidson diagonalization with overlap

---- Real-time Memory Report at c_bands before calling an iterative solver
           117 MiB given to the printing process from OS
             0 MiB allocation reported by mallinfo(arena+hblkhd)
        134113 MiB available memory on the node where the printing process lives
------------------
     ethr =  3.27E-07,  avg # of iterations =  5.4

     negative rho (up, down):  1.487E-02 0.000E+00

     total cpu time spent up to now is      827.6 secs

     total energy              =  -14943.90960696 Ry
     estimated scf accuracy    <       0.00133988 Ry

     iteration # 18     ecut=    30.00 Ry     beta= 0.70
     Davidson diagonalization with overlap

---- Real-time Memory Report at c_bands before calling an iterative solver
           117 MiB given to the printing process from OS
             0 MiB allocation reported by mallinfo(arena+hblkhd)
        134107 MiB available memory on the node where the printing process lives
------------------
     ethr =  1.96E-07,  avg # of iterations =  9.2

     negative rho (up, down):  1.484E-02 0.000E+00

     total cpu time spent up to now is      866.2 secs

     total energy              =  -14943.90972702 Ry
     estimated scf accuracy    <       0.00013599 Ry

     iteration # 19     ecut=    30.00 Ry     beta= 0.70
     Davidson diagonalization with overlap

---- Real-time Memory Report at c_bands before calling an iterative solver
           117 MiB given to the printing process from OS
             0 MiB allocation reported by mallinfo(arena+hblkhd)
        134098 MiB available memory on the node where the printing process lives
------------------
     ethr =  1.99E-08,  avg # of iterations =  2.0

     negative rho (up, down):  1.484E-02 0.000E+00

     total cpu time spent up to now is      900.6 secs

     total energy              =  -14943.90973224 Ry
     estimated scf accuracy    <       0.00021604 Ry

     iteration # 20     ecut=    30.00 Ry     beta= 0.70
     Davidson diagonalization with overlap

---- Real-time Memory Report at c_bands before calling an iterative solver
           117 MiB given to the printing process from OS
             0 MiB allocation reported by mallinfo(arena+hblkhd)
        134104 MiB available memory on the node where the printing process lives
------------------
     ethr =  1.99E-08,  avg # of iterations =  2.2

     negative rho (up, down):  1.483E-02 0.000E+00

     total cpu time spent up to now is      934.9 secs

     total energy              =  -14943.90975231 Ry
     estimated scf accuracy    <       0.00003946 Ry

     iteration # 21     ecut=    30.00 Ry     beta= 0.70
     Davidson diagonalization with overlap

---- Real-time Memory Report at c_bands before calling an iterative solver
           117 MiB given to the printing process from OS
             0 MiB allocation reported by mallinfo(arena+hblkhd)
        134098 MiB available memory on the node where the printing process lives
------------------
     ethr =  5.77E-09,  avg # of iterations =  1.6

     negative rho (up, down):  1.483E-02 0.000E+00

     total cpu time spent up to now is      967.2 secs

     total energy              =  -14943.90975447 Ry
     estimated scf accuracy    <       0.00000654 Ry

     iteration # 22     ecut=    30.00 Ry     beta= 0.70
     Davidson diagonalization with overlap

---- Real-time Memory Report at c_bands before calling an iterative solver
           117 MiB given to the printing process from OS
             0 MiB allocation reported by mallinfo(arena+hblkhd)
        134093 MiB available memory on the node where the printing process lives
------------------
     ethr =  9.56E-10,  avg # of iterations =  2.0

     negative rho (up, down):  1.483E-02 0.000E+00

     total cpu time spent up to now is     1001.4 secs

     total energy              =  -14943.90975466 Ry
     estimated scf accuracy    <       0.00000505 Ry

     iteration # 23     ecut=    30.00 Ry     beta= 0.70
     Davidson diagonalization with overlap

---- Real-time Memory Report at c_bands before calling an iterative solver
           117 MiB given to the printing process from OS
             0 MiB allocation reported by mallinfo(arena+hblkhd)
        134097 MiB available memory on the node where the printing process lives
------------------
     ethr =  7.39E-10,  avg # of iterations =  2.0

     negative rho (up, down):  1.483E-02 0.000E+00

     total cpu time spent up to now is     1035.7 secs

     total energy              =  -14943.90975533 Ry
     estimated scf accuracy    <       0.00000146 Ry

     iteration # 24     ecut=    30.00 Ry     beta= 0.70
     Davidson diagonalization with overlap

---- Real-time Memory Report at c_bands before calling an iterative solver
           117 MiB given to the printing process from OS
             0 MiB allocation reported by mallinfo(arena+hblkhd)
        134097 MiB available memory on the node where the printing process lives
------------------
     ethr =  2.14E-10,  avg # of iterations =  1.6

     negative rho (up, down):  1.483E-02 0.000E+00

     total cpu time spent up to now is     1068.0 secs

     End of self-consistent calculation

          k = 0.0000 0.0000 0.0000 ( 23429 PWs)   bands (ev):

  -123.7415-123.7406-123.7404-123.7397-123.6766-123.6743-123.6737-123.6732
  -123.5668-123.5658-123.5647-123.5631-123.5385-123.5373-123.5353-123.5336
  -123.5235-123.5226-123.5216-123.5202-123.3785-123.3765-123.3716-123.3692
  -123.3576-123.3531-123.3494-123.3469-123.2666-123.2326-123.2153-123.2135
   -77.8533 -77.8527 -77.8311 -77.8244 -77.8243 -77.8236 -77.8220 -77.8218
   -77.8216 -77.8212 -77.8209 -77.8206 -77.7880 -77.7864 -77.7706 -77.7645
   -77.7628 -77.7623 -77.7577 -77.7557 -77.7551 -77.7545 -77.7542 -77.7536
   -77.6761 -77.6736 -77.6593 -77.6537 -77.6527 -77.6515 -77.6510 -77.6499
   -77.6496 -77.6483 -77.6442 -77.6415 -77.6407 -77.6376 -77.6369 -77.6352
   -77.6335 -77.6331 -77.6314 -77.6309 -77.6237 -77.6200 -77.6181 -77.6167
   -77.6152 -77.6095 -77.6086 -77.6076 -77.6065 -77.6064 -77.6046 -77.6043
   -77.6030 -77.6019 -77.6005 -77.5980 -77.4821 -77.4752 -77.4733 -77.4709
   -77.4677 -77.4647 -77.4629 -77.4619 -77.4583 -77.4553 -77.4546 -77.4520
   -77.4508 -77.4506 -77.4494 -77.4478 -77.4461 -77.4439 -77.4428 -77.4425
   -77.4382 -77.4359 -77.4183 -77.4115 -77.3758 -77.3539 -77.3460 -77.3383
   -77.3232 -77.3201 -77.3190 -77.3056 -77.3034 -77.3022 -77.3011 -77.2734
   -15.6919 -13.8389 -13.1422 -10.9600 -10.9119  -8.0629  -7.7182  -6.7834
    -5.8056  -5.7972  -5.7760  -5.6655  -5.3629  -5.3469  -5.3193  -5.2982
    -5.2487  -5.2373  -5.2238  -5.2226  -5.2059  -5.1947  -5.1527  -5.1517
    -5.1078  -5.1062  -5.0549  -5.0545  -5.0419  -5.0402  -5.0381  -5.0372
    -5.0347  -5.0248  -4.9538  -4.9473  -4.9420  -4.9412  -4.9090  -4.9089
    -4.8993  -4.8543  -4.8529  -4.8527  -4.8293  -4.8085  -4.8075  -4.7585
    -4.7581  -4.7464  -4.7413  -4.7376  -4.7332  -4.6869  -4.6853  -4.6844
    -4.6739  -4.6510  -4.6438  -4.6224  -4.6198  -4.6188  -4.6188  -4.5865
    -4.5804  -4.5744  -4.5677  -4.5379  -4.5189  -4.5080  -4.4891  -4.4889
    -4.4842  -4.4672  -4.4608  -4.4500  -4.4460  -4.4417  -4.4348  -4.4284
    -4.4284  -4.3914  -4.3860  -4.3853  -4.3802  -4.3592  -4.3409  -4.3318
    -4.3224  -4.3222  -4.3157  -4.2615  -4.2609  -4.2525  -4.2504  -4.2392
    -4.2381  -4.2343  -4.2215  -4.2187  -4.2040  -4.2013  -4.1869  -4.1819
    -4.1628  -4.1610  -4.1497  -4.1347  -4.1240  -4.1232  -4.1132  -4.1091
    -4.1089  -4.0952  -4.0948  -4.0924  -4.0894  -4.0870  -4.0856  -4.0842
    -4.0726  -4.0484  -4.0414  -4.0410  -4.0398  -4.0283  -4.0193  -4.0150
    -4.0138  -4.0050  -4.0035  -4.0018  -3.9988  -3.9854  -3.9831  -3.9809
    -3.9538  -3.9531  -3.9427  -3.9316  -3.9265  -3.9256  -3.9210  -3.9165
    -3.9040  -3.8988  -3.8966  -3.8814  -3.8702  -3.8657  -3.8622  -3.8587
    -3.8346  -3.8304  -3.8235  -3.8214  -3.8209  -3.8169  -3.8085  -3.7986
    -3.7969  -3.7897  -3.7641  -3.7568  -3.7094  -3.6937  -3.6910  -3.6782
    -3.6773  -3.6735  -3.6374  -3.6111  -3.5937  -3.5769  -3.5509  -3.4189
    -3.1675  -3.0518  -2.9413  -2.6210  -2.0838  -1.8912  -1.7993  -1.4292
    -0.8408  -0.8163  -0.7703  -0.7207  -0.3317  -0.2071  -0.2048  -0.1042
    -0.0752  -0.0712   0.2452   0.3782   0.6366   0.7193   0.7576   0.8100
     0.8156   0.9162   0.9178   1.0334   1.2762   1.8172   1.8857   1.8858
     2.2732   2.5230   2.5243   2.6055   2.6785   2.7423   2.7634   3.0781
     3.0851   3.2112   3.6322   3.8529   3.8617   4.2062   4.2065   4.3702
     5.1921   5.2130   5.2610   5.2941   5.3642   5.3730   5.4643   5.4785
     5.8033   5.9048   5.9900   6.1461   6.1587   6.1971   6.2291   6.4051
     6.5618   6.7538   6.9758   7.0623   7.2899   7.2968   7.3662   7.5182
     7.6570   7.7478   7.7640   7.8885   7.9002   7.9400   7.9623   7.9856
     8.0077   8.0356   8.2592   8.3278   8.4076   8.4099   8.6456   8.6948
     8.8071   8.9439   9.1687   9.1853   9.2053   9.2948   9.3247   9.4293
     9.5068   9.7110   9.8211   9.9426   9.9591  10.0803  10.1449  10.3610
    10.4402  10.4933

     occupation numbers 
     1.0000   1.0000   1.0000   1.0000   1.0000   1.0000   1.0000   1.0000
     1.0000   1.0000   1.0000   1.0000   1.0000   1.0000   1.0000   1.0000
     1.0000   1.0000   1.0000   1.0000   1.0000   1.0000   1.0000   1.0000
     1.0000   1.0000   1.0000   1.0000   1.0000   1.0000   1.0000   1.0000
     1.0000   1.0000   1.0000   1.0000   1.0000   1.0000   1.0000   1.0000
     1.0000   1.0000   1.0000   1.0000   1.0000   1.0000   1.0000   1.0000
     1.0000   1.0000   1.0000   1.0000   1.0000   1.0000   1.0000   1.0000
     1.0000   1.0000   1.0000   1.0000   1.0000   1.0000   1.0000   1.0000
     1.0000   1.0000   1.0000   1.0000   1.0000   1.0000   1.0000   1.0000
     1.0000   1.0000   1.0000   1.0000   1.0000   1.0000   1.0000   1.0000
     1.0000   1.0000   1.0000   1.0000   1.0000   1.0000   1.0000   1.0000
     1.0000   1.0000   1.0000   1.0000   1.0000   1.0000   1.0000   1.0000
     1.0000   1.0000   1.0000   1.0000   1.0000   1.0000   1.0000   1.0000
     1.0000   1.0000   1.0000   1.0000   1.0000   1.0000   1.0000   1.0000
     1.0000   1.0000   1.0000   1.0000   1.0000   1.0000   1.0000   1.0000
     1.0000   1.0000   1.0000   1.0000   1.0000   1.0000   1.0000   1.0000
     1.0000   1.0000   1.0000   1.0000   1.0000   1.0000   1.0000   1.0000
     1.0000   1.0000   1.0000   1.0000   1.0000   1.0000   1.0000   1.0000
     1.0000   1.0000   1.0000   1.0000   1.0000   1.0000   1.0000   1.0000
     1.0000   1.0000   1.0000   1.0000   1.0000   1.0000   1.0000   1.0000
     1.0000   1.0000   1.0000   1.0000   1.0000   1.0000   1.0000   1.0000
     1.0000   1.0000   1.0000   1.0000   1.0000   1.0000   1.0000   1.0000
     1.0000   1.0000   1.0000   1.0000   1.0000   1.0000   1.0000   1.0000
     1.0000   1.0000   1.0000   1.0000   1.0000   1.0000   1.0000   1.0000
     1.0000   1.0000   1.0000   1.0000   1.0000   1.0000   1.0000   1.0000
     1.0000   1.0000   1.0000   1.0000   1.0000   1.0000   1.0000   1.0000
     1.0000   1.0000   1.0000   1.0000   1.0000   1.0000   1.0000   1.0000
     1.0000   1.0000   1.0000   1.0000   1.0000   1.0000   1.0000   1.0000
     1.0000   1.0000   1.0000   1.0000   1.0000   1.0000   1.0000   1.0000
     1.0000   1.0000   1.0000   1.0000   1.0000   1.0000   1.0000   1.0000
     1.0000   1.0000   1.0000   1.0000   1.0000   1.0000   1.0000   1.0000
     1.0000   1.0000   1.0000   1.0000   1.0000   1.0000   1.0000   1.0000
     1.0000   1.0000   1.0000   1.0000   1.0000   1.0000   1.0000   1.0000
     1.0000   1.0000   1.0000   1.0000   1.0000   1.0000   1.0000   1.0000
     1.0000   1.0000   1.0000   1.0000   1.0000   1.0000   1.0000   1.0000
     1.0000   1.0000   1.0000   1.0000   1.0000   1.0000   1.0000   1.0000
     1.0000   1.0000   1.0000   1.0000   1.0000   1.0000   1.0000   1.0000
     1.0000   1.0000   1.0000   1.0000   1.0000   1.0000   1.0000   1.0000
     1.0000   1.0000   1.0000   1.0000   1.0000   1.0000   1.0000   1.0000
     1.0000   1.0000   1.0000   1.0000   1.0000   1.0000   1.0000   1.0000
     1.0000   1.0000   1.0000   1.0000   1.0000   1.0000   1.0000   1.0000
     1.0000   1.0000   1.0000   1.0000   1.0000   1.0000   1.0000   1.0000
     1.0056   1.0634   1.0639   1.0829   1.0684   1.0118   0.9822   0.2319
     0.2189   0.0635   0.0001   0.0000   0.0000   0.0000   0.0000   0.0000
     0.0000   0.0000   0.0000   0.0000   0.0000   0.0000   0.0000   0.0000
     0.0000   0.0000   0.0000   0.0000   0.0000   0.0000   0.0000   0.0000
     0.0000   0.0000   0.0000   0.0000   0.0000   0.0000   0.0000   0.0000
     0.0000   0.0000   0.0000   0.0000   0.0000   0.0000   0.0000   0.0000
     0.0000   0.0000   0.0000   0.0000   0.0000   0.0000   0.0000   0.0000
     0.0000   0.0000   0.0000   0.0000   0.0000   0.0000   0.0000   0.0000
     0.0000   0.0000   0.0000   0.0000   0.0000   0.0000   0.0000   0.0000
     0.0000   0.0000

          k = 0.0000 0.7257 0.3692 ( 23354 PWs)   bands (ev):

  -123.7408-123.7402-123.7398-123.7393-123.6761-123.6737-123.6733-123.6727
  -123.5661-123.5656-123.5640-123.5627-123.5379-123.5369-123.5347-123.5332
  -123.5229-123.5223-123.5210-123.5198-123.3779-123.3760-123.3711-123.3688
  -123.3572-123.3526-123.3489-123.3464-123.2662-123.2322-123.2147-123.2131
   -77.8406 -77.8400 -77.8293 -77.8267 -77.8256 -77.8254 -77.8236 -77.8225
   -77.8217 -77.8216 -77.8203 -77.8196 -77.7754 -77.7738 -77.7685 -77.7649
   -77.7630 -77.7619 -77.7604 -77.7593 -77.7570 -77.7545 -77.7540 -77.7528
   -77.6634 -77.6610 -77.6573 -77.6544 -77.6517 -77.6512 -77.6508 -77.6502
   -77.6492 -77.6487 -77.6477 -77.6464 -77.6358 -77.6346 -77.6322 -77.6307
   -77.6282 -77.6252 -77.6223 -77.6206 -77.6194 -77.6183 -77.6161 -77.6154
   -77.6137 -77.6129 -77.6113 -77.6099 -77.6078 -77.6070 -77.6052 -77.6048
   -77.6044 -77.6036 -77.6026 -77.6015 -77.4726 -77.4706 -77.4694 -77.4659
   -77.4643 -77.4628 -77.4622 -77.4616 -77.4572 -77.4557 -77.4544 -77.4529
   -77.4516 -77.4489 -77.4481 -77.4469 -77.4456 -77.4428 -77.4385 -77.4380
   -77.4356 -77.4312 -77.4236 -77.4169 -77.3748 -77.3534 -77.3375 -77.3369
   -77.3216 -77.3196 -77.3188 -77.3043 -77.3026 -77.3011 -77.2930 -77.2789
   -15.6902 -13.8364 -13.1400 -10.9594 -10.9093  -8.0614  -7.7174  -6.1339
    -5.7955  -5.4722  -5.3658  -5.3166  -5.2280  -5.1490  -5.1239  -5.1228
    -5.0998  -5.0966  -5.0791  -5.0616  -5.0331  -5.0298  -5.0186  -5.0143
    -5.0057  -4.9934  -4.9857  -4.9499  -4.9421  -4.9222  -4.8843  -4.8826
    -4.8684  -4.8663  -4.8620  -4.8509  -4.8470  -4.8446  -4.8028  -4.7924
    -4.7919  -4.7850  -4.7579  -4.7568  -4.7452  -4.7412  -4.7287  -4.7215
    -4.7037  -4.6935  -4.6867  -4.6780  -4.6714  -4.6631  -4.6518  -4.6428
    -4.6393  -4.6261  -4.6142  -4.6117  -4.6006  -4.5894  -4.5806  -4.5798
    -4.5515  -4.5461  -4.5398  -4.5358  -4.5263  -4.5194  -4.5112  -4.5012
    -4.4835  -4.4804  -4.4717  -4.4668  -4.4461  -4.4277  -4.4225  -4.4223
    -4.4124  -4.4097  -4.3848  -4.3802  -4.3737  -4.3728  -4.3659  -4.3624
    -4.3589  -4.3530  -4.3432  -4.3149  -4.3143  -4.3082  -4.3073  -4.2995
    -4.2912  -4.2823  -4.2748  -4.2637  -4.2619  -4.2591  -4.2546  -4.2474
    -4.2325  -4.2313  -4.2203  -4.2138  -4.2074  -4.1988  -4.1939  -4.1904
    -4.1823  -4.1658  -4.1629  -4.1472  -4.1423  -4.1417  -4.1337  -4.1300
    -4.1236  -4.1206  -4.1043  -4.0977  -4.0904  -4.0791  -4.0671  -4.0641
    -4.0532  -4.0508  -4.0478  -4.0389  -4.0280  -4.0198  -4.0139  -4.0031
    -3.9966  -3.9797  -3.9785  -3.9764  -3.9736  -3.9696  -3.9637  -3.9555
    -3.9511  -3.9503  -3.9484  -3.9409  -3.9375  -3.9282  -3.9236  -3.9147
    -3.9122  -3.8905  -3.8824  -3.8731  -3.8688  -3.8657  -3.8621  -3.8536
    -3.8433  -3.8363  -3.8262  -3.8229  -3.8123  -3.8061  -3.7895  -3.7824
    -3.7761  -3.7704  -3.7515  -3.7429  -3.7236  -3.4075  -3.3754  -3.2556
    -3.1689  -3.0495  -3.0372  -2.6183  -2.5177  -2.4593  -2.2927  -2.1732
    -2.0222  -1.8576  -1.4288  -1.3115  -0.9594  -0.9034  -0.7694  -0.4938
    -0.4184  -0.2638  -0.0983   0.0268   0.0409   0.0947   0.2984   0.6390
     0.6990   0.8325   1.0866   1.1369   1.2571   1.7711   1.8398   1.9652
     2.0114   2.2306   2.5390   2.6796   2.7930   3.0250   3.6602   3.8054
     4.0290   4.0840   4.2967   4.3283   4.5382   4.6105   4.9547   5.0754
     5.2143   5.3716   5.4837   5.6644   5.7629   5.8896   6.0213   6.1312
     6.2908   6.3436   6.4340   6.4934   6.5238   6.8274   6.8471   6.9553
     7.1859   7.2806   7.3438   7.3960   7.4846   7.5634   7.5882   7.7071
     7.7186   7.7610   7.8615   7.9137   7.9976   8.1632   8.3535   8.4183
     8.4812   8.5769   8.7011   8.7917   8.8744   9.0608   9.1109   9.1527
     9.2011   9.2954   9.3178   9.4091   9.4977   9.5819   9.6091   9.6528
     9.7018   9.8049   9.8953  10.0363  10.1274  10.1987  10.2604  10.3760
    10.5443  10.5784

     occupation numbers 
     1.0000   1.0000   1.0000   1.0000   1.0000   1.0000   1.0000   1.0000
     1.0000   1.0000   1.0000   1.0000   1.0000   1.0000   1.0000   1.0000
     1.0000   1.0000   1.0000   1.0000   1.0000   1.0000   1.0000   1.0000
     1.0000   1.0000   1.0000   1.0000   1.0000   1.0000   1.0000   1.0000
     1.0000   1.0000   1.0000   1.0000   1.0000   1.0000   1.0000   1.0000
     1.0000   1.0000   1.0000   1.0000   1.0000   1.0000   1.0000   1.0000
     1.0000   1.0000   1.0000   1.0000   1.0000   1.0000   1.0000   1.0000
     1.0000   1.0000   1.0000   1.0000   1.0000   1.0000   1.0000   1.0000
     1.0000   1.0000   1.0000   1.0000   1.0000   1.0000   1.0000   1.0000
     1.0000   1.0000   1.0000   1.0000   1.0000   1.0000   1.0000   1.0000
     1.0000   1.0000   1.0000   1.0000   1.0000   1.0000   1.0000   1.0000
     1.0000   1.0000   1.0000   1.0000   1.0000   1.0000   1.0000   1.0000
     1.0000   1.0000   1.0000   1.0000   1.0000   1.0000   1.0000   1.0000
     1.0000   1.0000   1.0000   1.0000   1.0000   1.0000   1.0000   1.0000
     1.0000   1.0000   1.0000   1.0000   1.0000   1.0000   1.0000   1.0000
     1.0000   1.0000   1.0000   1.0000   1.0000   1.0000   1.0000   1.0000
     1.0000   1.0000   1.0000   1.0000   1.0000   1.0000   1.0000   1.0000
     1.0000   1.0000   1.0000   1.0000   1.0000   1.0000   1.0000   1.0000
     1.0000   1.0000   1.0000   1.0000   1.0000   1.0000   1.0000   1.0000
     1.0000   1.0000   1.0000   1.0000   1.0000   1.0000   1.0000   1.0000
     1.0000   1.0000   1.0000   1.0000   1.0000   1.0000   1.0000   1.0000
     1.0000   1.0000   1.0000   1.0000   1.0000   1.0000   1.0000   1.0000
     1.0000   1.0000   1.0000   1.0000   1.0000   1.0000   1.0000   1.0000
     1.0000   1.0000   1.0000   1.0000   1.0000   1.0000   1.0000   1.0000
     1.0000   1.0000   1.0000   1.0000   1.0000   1.0000   1.0000   1.0000
     1.0000   1.0000   1.0000   1.0000   1.0000   1.0000   1.0000   1.0000
     1.0000   1.0000   1.0000   1.0000   1.0000   1.0000   1.0000   1.0000
     1.0000   1.0000   1.0000   1.0000   1.0000   1.0000   1.0000   1.0000
     1.0000   1.0000   1.0000   1.0000   1.0000   1.0000   1.0000   1.0000
     1.0000   1.0000   1.0000   1.0000   1.0000   1.0000   1.0000   1.0000
     1.0000   1.0000   1.0000   1.0000   1.0000   1.0000   1.0000   1.0000
     1.0000   1.0000   1.0000   1.0000   1.0000   1.0000   1.0000   1.0000
     1.0000   1.0000   1.0000   1.0000   1.0000   1.0000   1.0000   1.0000
     1.0000   1.0000   1.0000   1.0000   1.0000   1.0000   1.0000   1.0000
     1.0000   1.0000   1.0000   1.0000   1.0000   1.0000   1.0000   1.0000
     1.0000   1.0000   1.0000   1.0000   1.0000   1.0000   1.0000   1.0000
     1.0000   1.0000   1.0000   1.0000   1.0000   1.0000   1.0000   1.0000
     1.0000   1.0000   1.0000   1.0000   1.0000   1.0000   1.0000   1.0000
     1.0000   1.0000   1.0000   1.0000   1.0000   1.0000   1.0000   1.0000
     1.0000   1.0000   1.0000   1.0000   1.0000   1.0000   1.0000   1.0000
     1.0000   1.0000   1.0000   1.0000   1.0000   1.0000   1.0000   1.0000
     1.0000   1.0000   1.0000   1.0000   1.0000   1.0000   1.0000   1.0000
     1.0001   1.0030   1.0687   1.0678   0.9315   0.3442   0.0000   0.0000
     0.0000   0.0000   0.0000   0.0000   0.0000   0.0000   0.0000   0.0000
     0.0000   0.0000   0.0000   0.0000   0.0000   0.0000   0.0000   0.0000
     0.0000   0.0000   0.0000   0.0000   0.0000   0.0000   0.0000   0.0000
     0.0000   0.0000   0.0000   0.0000   0.0000   0.0000   0.0000   0.0000
     0.0000   0.0000   0.0000   0.0000   0.0000   0.0000   0.0000   0.0000
     0.0000   0.0000   0.0000   0.0000   0.0000   0.0000   0.0000   0.0000
     0.0000   0.0000   0.0000   0.0000   0.0000   0.0000   0.0000   0.0000
     0.0000   0.0000   0.0000   0.0000   0.0000   0.0000   0.0000   0.0000
     0.0000   0.0000

          k = 0.3333 0.0811 0.7384 ( 23413 PWs)   bands (ev):

  -123.7414-123.7405-123.7404-123.7397-123.6766-123.6742-123.6736-123.6732
  -123.5667-123.5659-123.5645-123.5630-123.5384-123.5373-123.5351-123.5336
  -123.5234-123.5226-123.5215-123.5202-123.3784-123.3764-123.3715-123.3692
  -123.3576-123.3530-123.3493-123.3468-123.2666-123.2326-123.2152-123.2135
   -77.8538 -77.8532 -77.8292 -77.8250 -77.8243 -77.8241 -77.8224 -77.8215
   -77.8209 -77.8206 -77.8201 -77.8198 -77.7885 -77.7870 -77.7687 -77.7647
   -77.7633 -77.7620 -77.7572 -77.7555 -77.7548 -77.7540 -77.7535 -77.7532
   -77.6764 -77.6739 -77.6574 -77.6542 -77.6525 -77.6519 -77.6502 -77.6500
   -77.6482 -77.6474 -77.6445 -77.6419 -77.6415 -77.6385 -77.6370 -77.6347
   -77.6337 -77.6334 -77.6313 -77.6308 -77.6222 -77.6195 -77.6163 -77.6147
   -77.6127 -77.6097 -77.6095 -77.6077 -77.6068 -77.6066 -77.6046 -77.6041
   -77.6024 -77.6015 -77.6010 -77.5986 -77.4825 -77.4756 -77.4732 -77.4705
   -77.4669 -77.4641 -77.4627 -77.4616 -77.4573 -77.4547 -77.4530 -77.4516
   -77.4513 -77.4498 -77.4495 -77.4470 -77.4457 -77.4444 -77.4429 -77.4428
   -77.4380 -77.4349 -77.4188 -77.4119 -77.3750 -77.3535 -77.3465 -77.3375
   -77.3223 -77.3196 -77.3186 -77.3062 -77.3029 -77.3024 -77.3012 -77.2737
   -15.6919 -13.8389 -13.1422 -10.9600 -10.9118  -8.0628  -7.7180  -6.6452
    -6.2557  -5.7968  -5.6726  -5.4420  -5.4231  -5.3569  -5.3478  -5.3154
    -5.2405  -5.2328  -5.2293  -5.2284  -5.2090  -5.2046  -5.1591  -5.1588
    -5.1205  -5.1178  -5.0717  -5.0713  -5.0428  -5.0393  -5.0102  -5.0089
    -4.9851  -4.9848  -4.9564  -4.9508  -4.9315  -4.9304  -4.9084  -4.9083
    -4.8763  -4.8580  -4.8572  -4.8494  -4.8388  -4.7950  -4.7943  -4.7807
    -4.7805  -4.7802  -4.7307  -4.7293  -4.7278  -4.7253  -4.6977  -4.6976
    -4.6903  -4.6731  -4.6375  -4.6367  -4.6224  -4.6180  -4.5924  -4.5863
    -4.5806  -4.5718  -4.5671  -4.5243  -4.5206  -4.5060  -4.4808  -4.4674
    -4.4645  -4.4625  -4.4544  -4.4537  -4.4425  -4.4305  -4.4260  -4.4255
    -4.4174  -4.3913  -4.3791  -4.3640  -4.3637  -4.3621  -4.3536  -4.3370
    -4.3367  -4.3260  -4.3254  -4.3003  -4.2962  -4.2949  -4.2668  -4.2650
    -4.2637  -4.2149  -4.2131  -4.2118  -4.2061  -4.1952  -4.1929  -4.1700
    -4.1678  -4.1669  -4.1652  -4.1429  -4.1360  -4.1357  -4.1258  -4.1200
    -4.1111  -4.1056  -4.1032  -4.1022  -4.0864  -4.0847  -4.0654  -4.0624
    -4.0422  -4.0418  -4.0416  -4.0395  -4.0382  -4.0329  -4.0076  -4.0073
    -4.0011  -4.0010  -3.9996  -3.9992  -3.9939  -3.9917  -3.9860  -3.9770
    -3.9409  -3.9408  -3.9246  -3.9222  -3.9192  -3.9166  -3.9139  -3.9127
    -3.9038  -3.9004  -3.8884  -3.8769  -3.8605  -3.8534  -3.8431  -3.8368
    -3.8321  -3.8306  -3.8293  -3.8263  -3.8176  -3.8168  -3.8105  -3.8050
    -3.7875  -3.7817  -3.7640  -3.7585  -3.7095  -3.6995  -3.6965  -3.6785
    -3.6729  -3.6680  -3.6369  -3.6128  -3.5693  -3.5442  -3.5053  -3.1727
    -3.0511  -2.8137  -2.7096  -2.6209  -2.3417  -2.2941  -2.0840  -1.8601
    -1.3208  -0.8414  -0.7723  -0.6265  -0.4069  -0.4069  -0.2495  -0.1067
     0.2357   0.3722   0.3757   0.6161   0.6181   0.6375   0.7118   0.7607
     1.1972   1.1973   1.2498   1.2762   1.3814   1.3820   1.7583   1.8529
     2.1124   2.1169   2.4929   2.6305   2.6702   2.7109   2.7770   3.2534
     3.4242   3.5845   3.5904   3.9890   3.9976   4.2975   4.3842   4.7301
     4.7340   4.7402   5.0586   5.0831   5.2455   5.2528   5.2752   5.6128
     5.7969   5.8104   5.9941   6.0044   6.0660   6.1863   6.3197   6.4054
     6.5977   6.6770   6.7497   6.7685   6.8568   6.9542   6.9965   7.0028
     7.3896   7.5040   7.5355   7.6076   7.8142   7.9609   8.0023   8.0336
     8.1771   8.3360   8.3671   8.5072   8.7893   8.8854   9.0017   9.0478
     9.0999   9.1153   9.3124   9.3673   9.4417   9.5151   9.5352   9.5783
     9.6951   9.8487   9.9036   9.9207  10.0766  10.1571  10.2726  10.3670
    10.4360  10.5529

     occupation numbers 
     1.0000   1.0000   1.0000   1.0000   1.0000   1.0000   1.0000   1.0000
     1.0000   1.0000   1.0000   1.0000   1.0000   1.0000   1.0000   1.0000
     1.0000   1.0000   1.0000   1.0000   1.0000   1.0000   1.0000   1.0000
     1.0000   1.0000   1.0000   1.0000   1.0000   1.0000   1.0000   1.0000
     1.0000   1.0000   1.0000   1.0000   1.0000   1.0000   1.0000   1.0000
     1.0000   1.0000   1.0000   1.0000   1.0000   1.0000   1.0000   1.0000
     1.0000   1.0000   1.0000   1.0000   1.0000   1.0000   1.0000   1.0000
     1.0000   1.0000   1.0000   1.0000   1.0000   1.0000   1.0000   1.0000
     1.0000   1.0000   1.0000   1.0000   1.0000   1.0000   1.0000   1.0000
     1.0000   1.0000   1.0000   1.0000   1.0000   1.0000   1.0000   1.0000
     1.0000   1.0000   1.0000   1.0000   1.0000   1.0000   1.0000   1.0000
     1.0000   1.0000   1.0000   1.0000   1.0000   1.0000   1.0000   1.0000
     1.0000   1.0000   1.0000   1.0000   1.0000   1.0000   1.0000   1.0000
     1.0000   1.0000   1.0000   1.0000   1.0000   1.0000   1.0000   1.0000
     1.0000   1.0000   1.0000   1.0000   1.0000   1.0000   1.0000   1.0000
     1.0000   1.0000   1.0000   1.0000   1.0000   1.0000   1.0000   1.0000
     1.0000   1.0000   1.0000   1.0000   1.0000   1.0000   1.0000   1.0000
     1.0000   1.0000   1.0000   1.0000   1.0000   1.0000   1.0000   1.0000
     1.0000   1.0000   1.0000   1.0000   1.0000   1.0000   1.0000   1.0000
     1.0000   1.0000   1.0000   1.0000   1.0000   1.0000   1.0000   1.0000
     1.0000   1.0000   1.0000   1.0000   1.0000   1.0000   1.0000   1.0000
     1.0000   1.0000   1.0000   1.0000   1.0000   1.0000   1.0000   1.0000
     1.0000   1.0000   1.0000   1.0000   1.0000   1.0000   1.0000   1.0000
     1.0000   1.0000   1.0000   1.0000   1.0000   1.0000   1.0000   1.0000
     1.0000   1.0000   1.0000   1.0000   1.0000   1.0000   1.0000   1.0000
     1.0000   1.0000   1.0000   1.0000   1.0000   1.0000   1.0000   1.0000
     1.0000   1.0000   1.0000   1.0000   1.0000   1.0000   1.0000   1.0000
     1.0000   1.0000   1.0000   1.0000   1.0000   1.0000   1.0000   1.0000
     1.0000   1.0000   1.0000   1.0000   1.0000   1.0000   1.0000   1.0000
     1.0000   1.0000   1.0000   1.0000   1.0000   1.0000   1.0000   1.0000
     1.0000   1.0000   1.0000   1.0000   1.0000   1.0000   1.0000   1.0000
     1.0000   1.0000   1.0000   1.0000   1.0000   1.0000   1.0000   1.0000
     1.0000   1.0000   1.0000   1.0000   1.0000   1.0000   1.0000   1.0000
     1.0000   1.0000   1.0000   1.0000   1.0000   1.0000   1.0000   1.0000
     1.0000   1.0000   1.0000   1.0000   1.0000   1.0000   1.0000   1.0000
     1.0000   1.0000   1.0000   1.0000   1.0000   1.0000   1.0000   1.0000
     1.0000   1.0000   1.0000   1.0000   1.0000   1.0000   1.0000   1.0000
     1.0000   1.0000   1.0000   1.0000   1.0000   1.0000   1.0000   1.0000
     1.0000   1.0000   1.0000   1.0000   1.0000   1.0000   1.0000   1.0000
     1.0000   1.0000   1.0000   1.0000   1.0000   1.0000   1.0000   1.0000
     1.0000   1.0000   1.0000   1.0000   1.0000   1.0000   1.0000   1.0000
     1.0000   1.0000   1.0000   1.0000   1.0000   1.0000   1.0000   1.0000
     1.0004   1.0005   1.0531   1.0827   1.0724   1.0456   0.9603   0.0384
     0.0031   0.0001   0.0001   0.0000   0.0000   0.0000   0.0000   0.0000
     0.0000   0.0000   0.0000   0.0000   0.0000   0.0000   0.0000   0.0000
     0.0000   0.0000   0.0000   0.0000   0.0000   0.0000   0.0000   0.0000
     0.0000   0.0000   0.0000   0.0000   0.0000   0.0000   0.0000   0.0000
     0.0000   0.0000   0.0000   0.0000   0.0000   0.0000   0.0000   0.0000
     0.0000   0.0000   0.0000   0.0000   0.0000   0.0000   0.0000   0.0000
     0.0000   0.0000   0.0000   0.0000   0.0000   0.0000   0.0000   0.0000
     0.0000   0.0000   0.0000   0.0000   0.0000   0.0000   0.0000   0.0000
     0.0000   0.0000

          k = 0.3333 0.8068 1.1076 ( 23328 PWs)   bands (ev):

  -123.7406-123.7401-123.7399-123.7392-123.6760-123.6735-123.6732-123.6727
  -123.5660-123.5654-123.5640-123.5625-123.5378-123.5368-123.5346-123.5331
  -123.5227-123.5222-123.5210-123.5197-123.3778-123.3759-123.3710-123.3686
  -123.3570-123.3525-123.3488-123.3463-123.2660-123.2321-123.2146-123.2130
   -77.8408 -77.8383 -77.8272 -77.8272 -77.8247 -77.8237 -77.8234 -77.8232
   -77.8216 -77.8212 -77.8209 -77.8201 -77.7753 -77.7723 -77.7662 -77.7643
   -77.7633 -77.7625 -77.7594 -77.7586 -77.7567 -77.7545 -77.7541 -77.7533
   -77.6630 -77.6596 -77.6546 -77.6540 -77.6530 -77.6520 -77.6508 -77.6501
   -77.6492 -77.6481 -77.6476 -77.6459 -77.6351 -77.6339 -77.6317 -77.6301
   -77.6280 -77.6242 -77.6206 -77.6203 -77.6195 -77.6178 -77.6168 -77.6155
   -77.6131 -77.6106 -77.6103 -77.6102 -77.6093 -77.6070 -77.6047 -77.6044
   -77.6038 -77.6026 -77.6023 -77.6011 -77.4719 -77.4698 -77.4688 -77.4651
   -77.4629 -77.4629 -77.4618 -77.4614 -77.4572 -77.4563 -77.4544 -77.4524
   -77.4516 -77.4488 -77.4472 -77.4462 -77.4456 -77.4417 -77.4385 -77.4377
   -77.4358 -77.4301 -77.4227 -77.4161 -77.3749 -77.3527 -77.3375 -77.3363
   -77.3209 -77.3198 -77.3193 -77.3040 -77.3017 -77.3004 -77.2922 -77.2780
   -15.6902 -13.8363 -13.1400 -10.9593 -10.9094  -8.0614  -7.7172  -5.8850
    -5.8814  -5.7955  -5.3629  -5.3163  -5.1434  -5.1383  -5.1079  -5.1075
    -5.0997  -5.0984  -5.0900  -5.0675  -5.0425  -5.0411  -5.0398  -5.0276
    -4.9914  -4.9914  -4.9850  -4.9830  -4.9318  -4.8851  -4.8769  -4.8570
    -4.8565  -4.8415  -4.8406  -4.8403  -4.8225  -4.8089  -4.7987  -4.7985
    -4.7971  -4.7883  -4.7814  -4.7800  -4.7744  -4.7370  -4.7289  -4.7271
    -4.7134  -4.7017  -4.6935  -4.6867  -4.6848  -4.6795  -4.6620  -4.6463
    -4.6453  -4.6407  -4.6183  -4.6142  -4.5976  -4.5940  -4.5596  -4.5576
    -4.5566  -4.5503  -4.5468  -4.5250  -4.5150  -4.5134  -4.5063  -4.5016
    -4.4974  -4.4714  -4.4656  -4.4647  -4.4624  -4.4475  -4.4389  -4.4138
    -4.4099  -4.3917  -4.3824  -4.3739  -4.3680  -4.3638  -4.3592  -4.3571
    -4.3547  -4.3386  -4.3323  -4.3314  -4.3303  -4.3210  -4.3028  -4.2992
    -4.2854  -4.2828  -4.2823  -4.2757  -4.2722  -4.2691  -4.2682  -4.2550
    -4.2468  -4.2280  -4.2269  -4.2176  -4.1984  -4.1910  -4.1882  -4.1878
    -4.1864  -4.1790  -4.1751  -4.1721  -4.1495  -4.1337  -4.1281  -4.1235
    -4.1117  -4.1086  -4.1069  -4.1060  -4.1005  -4.0780  -4.0737  -4.0688
    -4.0512  -4.0411  -4.0393  -4.0385  -4.0197  -4.0138  -4.0135  -4.0093
    -4.0086  -3.9836  -3.9800  -3.9776  -3.9740  -3.9647  -3.9586  -3.9549
    -3.9502  -3.9489  -3.9482  -3.9419  -3.9342  -3.9329  -3.9177  -3.9074
    -3.9038  -3.9006  -3.8886  -3.8740  -3.8687  -3.8617  -3.8584  -3.8487
    -3.8472  -3.8375  -3.8327  -3.8289  -3.8213  -3.8101  -3.7996  -3.7955
    -3.7699  -3.7647  -3.7504  -3.6978  -3.6408  -3.6353  -3.4628  -3.1704
    -3.0493  -2.6180  -2.6032  -2.4066  -2.4012  -2.3995  -2.2918  -2.1750
    -2.0415  -2.0202  -1.8465  -1.3336  -1.3311  -1.3298  -1.1934  -0.9027
    -0.7681  -0.5554  -0.0983   0.3559   0.3702   0.5868   0.6394   0.7031
     0.8432   0.8482   0.9993   1.2579   1.5064   1.6680   1.9386   2.5917
     2.6356   2.7449   2.7651   2.9440   2.9488   2.9899   3.0356   3.3418
     3.3526   3.4918   4.0788   4.0917   4.0979   4.4136   4.9095   5.1447
     5.2010   5.5667   5.5738   5.5896   5.6747   5.8738   5.9597   6.0011
     6.1941   6.3206   6.3828   6.3984   6.4600   6.4857   6.5581   6.9018
     6.9916   7.2174   7.3301   7.5072   7.5624   7.6432   7.7284   7.8725
     8.0937   8.1698   8.2260   8.2567   8.3151   8.3999   8.4668   8.4944
     8.6124   8.6856   8.7268   8.7586   8.9843   9.0534   9.1421   9.2264
     9.4064   9.4390   9.5213   9.5648   9.5961   9.7146   9.7489   9.8176
     9.8353   9.9100   9.9534   9.9612  10.0658  10.1406  10.3505  10.4064
    10.4344  10.4941

     occupation numbers 
     1.0000   1.0000   1.0000   1.0000   1.0000   1.0000   1.0000   1.0000
     1.0000   1.0000   1.0000   1.0000   1.0000   1.0000   1.0000   1.0000
     1.0000   1.0000   1.0000   1.0000   1.0000   1.0000   1.0000   1.0000
     1.0000   1.0000   1.0000   1.0000   1.0000   1.0000   1.0000   1.0000
     1.0000   1.0000   1.0000   1.0000   1.0000   1.0000   1.0000   1.0000
     1.0000   1.0000   1.0000   1.0000   1.0000   1.0000   1.0000   1.0000
     1.0000   1.0000   1.0000   1.0000   1.0000   1.0000   1.0000   1.0000
     1.0000   1.0000   1.0000   1.0000   1.0000   1.0000   1.0000   1.0000
     1.0000   1.0000   1.0000   1.0000   1.0000   1.0000   1.0000   1.0000
     1.0000   1.0000   1.0000   1.0000   1.0000   1.0000   1.0000   1.0000
     1.0000   1.0000   1.0000   1.0000   1.0000   1.0000   1.0000   1.0000
     1.0000   1.0000   1.0000   1.0000   1.0000   1.0000   1.0000   1.0000
     1.0000   1.0000   1.0000   1.0000   1.0000   1.0000   1.0000   1.0000
     1.0000   1.0000   1.0000   1.0000   1.0000   1.0000   1.0000   1.0000
     1.0000   1.0000   1.0000   1.0000   1.0000   1.0000   1.0000   1.0000
     1.0000   1.0000   1.0000   1.0000   1.0000   1.0000   1.0000   1.0000
     1.0000   1.0000   1.0000   1.0000   1.0000   1.0000   1.0000   1.0000
     1.0000   1.0000   1.0000   1.0000   1.0000   1.0000   1.0000   1.0000
     1.0000   1.0000   1.0000   1.0000   1.0000   1.0000   1.0000   1.0000
     1.0000   1.0000   1.0000   1.0000   1.0000   1.0000   1.0000   1.0000
     1.0000   1.0000   1.0000   1.0000   1.0000   1.0000   1.0000   1.0000
     1.0000   1.0000   1.0000   1.0000   1.0000   1.0000   1.0000   1.0000
     1.0000   1.0000   1.0000   1.0000   1.0000   1.0000   1.0000   1.0000
     1.0000   1.0000   1.0000   1.0000   1.0000   1.0000   1.0000   1.0000
     1.0000   1.0000   1.0000   1.0000   1.0000   1.0000   1.0000   1.0000
     1.0000   1.0000   1.0000   1.0000   1.0000   1.0000   1.0000   1.0000
     1.0000   1.0000   1.0000   1.0000   1.0000   1.0000   1.0000   1.0000
     1.0000   1.0000   1.0000   1.0000   1.0000   1.0000   1.0000   1.0000
     1.0000   1.0000   1.0000   1.0000   1.0000   1.0000   1.0000   1.0000
     1.0000   1.0000   1.0000   1.0000   1.0000   1.0000   1.0000   1.0000
     1.0000   1.0000   1.0000   1.0000   1.0000   1.0000   1.0000   1.0000
     1.0000   1.0000   1.0000   1.0000   1.0000   1.0000   1.0000   1.0000
     1.0000   1.0000   1.0000   1.0000   1.0000   1.0000   1.0000   1.0000
     1.0000   1.0000   1.0000   1.0000   1.0000   1.0000   1.0000   1.0000
     1.0000   1.0000   1.0000   1.0000   1.0000   1.0000   1.0000   1.0000
     1.0000   1.0000   1.0000   1.0000   1.0000   1.0000   1.0000   1.0000
     1.0000   1.0000   1.0000   1.0000   1.0000   1.0000   1.0000   1.0000
     1.0000   1.0000   1.0000   1.0000   1.0000   1.0000   1.0000   1.0000
     1.0000   1.0000   1.0000   1.0000   1.0000   1.0000   1.0000   1.0000
     1.0000   1.0000   1.0000   1.0000   1.0000   1.0000   1.0000   1.0000
     1.0000   1.0000   1.0000   1.0000   1.0000   1.0000   1.0000   1.0000
     1.0000   1.0000   1.0000   1.0000   1.0000   1.0000   1.0000   1.0814
     1.0821   1.0085   0.9796   0.5546   0.5412   0.4312   0.3198   0.0115
     0.0098   0.0009   0.0000   0.0000   0.0000   0.0000   0.0000   0.0000
     0.0000   0.0000   0.0000   0.0000   0.0000   0.0000   0.0000   0.0000
     0.0000   0.0000   0.0000   0.0000   0.0000   0.0000   0.0000   0.0000
     0.0000   0.0000   0.0000   0.0000   0.0000   0.0000   0.0000   0.0000
     0.0000   0.0000   0.0000   0.0000   0.0000   0.0000   0.0000   0.0000
     0.0000   0.0000   0.0000   0.0000   0.0000   0.0000   0.0000   0.0000
     0.0000   0.0000   0.0000   0.0000   0.0000   0.0000   0.0000   0.0000
     0.0000   0.0000   0.0000   0.0000   0.0000   0.0000   0.0000   0.0000
     0.0000   0.0000

          k = 0.3333-0.6446 0.3692 ( 23354 PWs)   bands (ev):

  -123.7409-123.7402-123.7399-123.7393-123.6761-123.6738-123.6731-123.6728
  -123.5661-123.5656-123.5640-123.5627-123.5379-123.5369-123.5347-123.5332
  -123.5229-123.5223-123.5210-123.5198-123.3779-123.3760-123.3711-123.3688
  -123.3572-123.3526-123.3489-123.3464-123.2662-123.2322-123.2147-123.2131
   -77.8406 -77.8400 -77.8293 -77.8267 -77.8256 -77.8254 -77.8236 -77.8225
   -77.8217 -77.8216 -77.8202 -77.8196 -77.7754 -77.7738 -77.7684 -77.7650
   -77.7626 -77.7622 -77.7604 -77.7594 -77.7569 -77.7549 -77.7535 -77.7531
   -77.6634 -77.6610 -77.6573 -77.6544 -77.6516 -77.6512 -77.6508 -77.6502
   -77.6492 -77.6487 -77.6476 -77.6465 -77.6358 -77.6346 -77.6323 -77.6307
   -77.6282 -77.6252 -77.6223 -77.6206 -77.6193 -77.6183 -77.6162 -77.6153
   -77.6137 -77.6130 -77.6112 -77.6098 -77.6078 -77.6070 -77.6052 -77.6049
   -77.6044 -77.6036 -77.6026 -77.6015 -77.4727 -77.4706 -77.4694 -77.4659
   -77.4642 -77.4628 -77.4622 -77.4615 -77.4572 -77.4558 -77.4544 -77.4528
   -77.4517 -77.4488 -77.4481 -77.4473 -77.4453 -77.4430 -77.4385 -77.4377
   -77.4358 -77.4311 -77.4236 -77.4169 -77.3748 -77.3534 -77.3375 -77.3369
   -77.3215 -77.3201 -77.3185 -77.3044 -77.3025 -77.3011 -77.2930 -77.2789
   -15.6902 -13.8364 -13.1400 -10.9594 -10.9094  -8.0615  -7.7174  -6.1339
    -5.7956  -5.4722  -5.3660  -5.3161  -5.2282  -5.1490  -5.1239  -5.1228
    -5.0997  -5.0967  -5.0790  -5.0617  -5.0331  -5.0298  -5.0185  -5.0143
    -5.0057  -4.9934  -4.9857  -4.9499  -4.9421  -4.9222  -4.8843  -4.8827
    -4.8684  -4.8663  -4.8620  -4.8509  -4.8469  -4.8446  -4.8028  -4.7925
    -4.7919  -4.7850  -4.7579  -4.7568  -4.7452  -4.7413  -4.7287  -4.7215
    -4.7037  -4.6935  -4.6866  -4.6780  -4.6715  -4.6631  -4.6518  -4.6428
    -4.6394  -4.6260  -4.6142  -4.6117  -4.6006  -4.5894  -4.5807  -4.5797
    -4.5514  -4.5462  -4.5398  -4.5359  -4.5264  -4.5194  -4.5112  -4.5012
    -4.4835  -4.4804  -4.4717  -4.4668  -4.4461  -4.4277  -4.4225  -4.4223
    -4.4124  -4.4096  -4.3849  -4.3802  -4.3737  -4.3729  -4.3660  -4.3624
    -4.3588  -4.3530  -4.3431  -4.3149  -4.3143  -4.3083  -4.3072  -4.2995
    -4.2911  -4.2823  -4.2747  -4.2636  -4.2619  -4.2591  -4.2546  -4.2473
    -4.2325  -4.2314  -4.2203  -4.2138  -4.2075  -4.1988  -4.1939  -4.1904
    -4.1823  -4.1658  -4.1629  -4.1472  -4.1423  -4.1417  -4.1337  -4.1300
    -4.1237  -4.1206  -4.1043  -4.0977  -4.0904  -4.0791  -4.0671  -4.0641
    -4.0532  -4.0508  -4.0478  -4.0389  -4.0280  -4.0198  -4.0139  -4.0031
    -3.9965  -3.9797  -3.9785  -3.9762  -3.9738  -3.9696  -3.9637  -3.9554
    -3.9511  -3.9505  -3.9484  -3.9410  -3.9375  -3.9283  -3.9236  -3.9146
    -3.9122  -3.8906  -3.8824  -3.8732  -3.8688  -3.8656  -3.8621  -3.8535
    -3.8433  -3.8364  -3.8262  -3.8228  -3.8123  -3.8062  -3.7898  -3.7823
    -3.7760  -3.7704  -3.7513  -3.7429  -3.7236  -3.4074  -3.3752  -3.2587
    -3.1657  -3.0497  -3.0364  -2.6177  -2.5188  -2.4601  -2.2936  -2.1719
    -2.0216  -1.8575  -1.4285  -1.3115  -0.9593  -0.9048  -0.7682  -0.4945
    -0.4190  -0.2639  -0.0983   0.0268   0.0413   0.0955   0.2978   0.6391
     0.7004   0.8326   1.0860   1.1366   1.2574   1.7708   1.8395   1.9636
     2.0100   2.2332   2.5474   2.6649   2.8021   3.0233   3.6582   3.8049
     4.0296   4.0845   4.2982   4.3288   4.5369   4.6119   4.9527   5.0749
     5.2156   5.3716   5.4859   5.6628   5.7534   5.8894   6.0221   6.1401
     6.2908   6.3338   6.4300   6.4765   6.5233   6.8288   6.8351   6.9589
     7.1898   7.2694   7.3871   7.4023   7.4747   7.5223   7.5797   7.7138
     7.7232   7.7591   7.8429   7.9278   7.9974   8.1696   8.3297   8.4525
     8.5346   8.6120   8.7542   8.8233   8.8864   9.0317   9.1082   9.1478
     9.2237   9.2858   9.3126   9.4104   9.4959   9.6076   9.6304   9.6708
     9.7034   9.7490   9.9915  10.0448  10.1051  10.1219  10.2113  10.3536
    10.4242  10.5074

     occupation numbers 
     1.0000   1.0000   1.0000   1.0000   1.0000   1.0000   1.0000   1.0000
     1.0000   1.0000   1.0000   1.0000   1.0000   1.0000   1.0000   1.0000
     1.0000   1.0000   1.0000   1.0000   1.0000   1.0000   1.0000   1.0000
     1.0000   1.0000   1.0000   1.0000   1.0000   1.0000   1.0000   1.0000
     1.0000   1.0000   1.0000   1.0000   1.0000   1.0000   1.0000   1.0000
     1.0000   1.0000   1.0000   1.0000   1.0000   1.0000   1.0000   1.0000
     1.0000   1.0000   1.0000   1.0000   1.0000   1.0000   1.0000   1.0000
     1.0000   1.0000   1.0000   1.0000   1.0000   1.0000   1.0000   1.0000
     1.0000   1.0000   1.0000   1.0000   1.0000   1.0000   1.0000   1.0000
     1.0000   1.0000   1.0000   1.0000   1.0000   1.0000   1.0000   1.0000
     1.0000   1.0000   1.0000   1.0000   1.0000   1.0000   1.0000   1.0000
     1.0000   1.0000   1.0000   1.0000   1.0000   1.0000   1.0000   1.0000
     1.0000   1.0000   1.0000   1.0000   1.0000   1.0000   1.0000   1.0000
     1.0000   1.0000   1.0000   1.0000   1.0000   1.0000   1.0000   1.0000
     1.0000   1.0000   1.0000   1.0000   1.0000   1.0000   1.0000   1.0000
     1.0000   1.0000   1.0000   1.0000   1.0000   1.0000   1.0000   1.0000
     1.0000   1.0000   1.0000   1.0000   1.0000   1.0000   1.0000   1.0000
     1.0000   1.0000   1.0000   1.0000   1.0000   1.0000   1.0000   1.0000
     1.0000   1.0000   1.0000   1.0000   1.0000   1.0000   1.0000   1.0000
     1.0000   1.0000   1.0000   1.0000   1.0000   1.0000   1.0000   1.0000
     1.0000   1.0000   1.0000   1.0000   1.0000   1.0000   1.0000   1.0000
     1.0000   1.0000   1.0000   1.0000   1.0000   1.0000   1.0000   1.0000
     1.0000   1.0000   1.0000   1.0000   1.0000   1.0000   1.0000   1.0000
     1.0000   1.0000   1.0000   1.0000   1.0000   1.0000   1.0000   1.0000
     1.0000   1.0000   1.0000   1.0000   1.0000   1.0000   1.0000   1.0000
     1.0000   1.0000   1.0000   1.0000   1.0000   1.0000   1.0000   1.0000
     1.0000   1.0000   1.0000   1.0000   1.0000   1.0000   1.0000   1.0000
     1.0000   1.0000   1.0000   1.0000   1.0000   1.0000   1.0000   1.0000
     1.0000   1.0000   1.0000   1.0000   1.0000   1.0000   1.0000   1.0000
     1.0000   1.0000   1.0000   1.0000   1.0000   1.0000   1.0000   1.0000
     1.0000   1.0000   1.0000   1.0000   1.0000   1.0000   1.0000   1.0000
     1.0000   1.0000   1.0000   1.0000   1.0000   1.0000   1.0000   1.0000
     1.0000   1.0000   1.0000   1.0000   1.0000   1.0000   1.0000   1.0000
     1.0000   1.0000   1.0000   1.0000   1.0000   1.0000   1.0000   1.0000
     1.0000   1.0000   1.0000   1.0000   1.0000   1.0000   1.0000   1.0000
     1.0000   1.0000   1.0000   1.0000   1.0000   1.0000   1.0000   1.0000
     1.0000   1.0000   1.0000   1.0000   1.0000   1.0000   1.0000   1.0000
     1.0000   1.0000   1.0000   1.0000   1.0000   1.0000   1.0000   1.0000
     1.0000   1.0000   1.0000   1.0000   1.0000   1.0000   1.0000   1.0000
     1.0000   1.0000   1.0000   1.0000   1.0000   1.0000   1.0000   1.0000
     1.0000   1.0000   1.0000   1.0000   1.0000   1.0000   1.0000   1.0000
     1.0000   1.0000   1.0000   1.0000   1.0000   1.0000   1.0000   1.0000
     1.0001   1.0031   1.0712   1.0746   0.9138   0.3483   0.0000   0.0000
     0.0000   0.0000   0.0000   0.0000   0.0000   0.0000   0.0000   0.0000
     0.0000   0.0000   0.0000   0.0000   0.0000   0.0000   0.0000   0.0000
     0.0000   0.0000   0.0000   0.0000   0.0000   0.0000   0.0000   0.0000
     0.0000   0.0000   0.0000   0.0000   0.0000   0.0000   0.0000   0.0000
     0.0000   0.0000   0.0000   0.0000   0.0000   0.0000   0.0000   0.0000
     0.0000   0.0000   0.0000   0.0000   0.0000   0.0000   0.0000   0.0000
     0.0000   0.0000   0.0000   0.0000   0.0000   0.0000   0.0000   0.0000
     0.0000   0.0000   0.0000   0.0000   0.0000   0.0000   0.0000   0.0000
     0.0000   0.0000

     the Fermi energy is     3.0018 ev

!    total energy              =  -14943.90975522 Ry
     estimated scf accuracy    <       0.00000028 Ry
     smearing contrib. (-TS)   =       0.00813853 Ry
     internal energy E=F+TS    =  -14943.91789375 Ry

     The total energy is F=E-TS. E is the sum of the following terms:
     one-electron contribution =  -71620.16373013 Ry
     hartree contribution      =   35818.71679864 Ry
     xc contribution           =   -1395.19669784 Ry
     ewald contribution        =   22295.90838442 Ry
     one-center paw contrib.   =     -43.18264884 Ry
      -> PAW hartree energy AE =       0.00000000 Ry
      -> PAW hartree energy PS =       0.00000000 Ry
      -> PAW xc energy AE      =       0.00000000 Ry
      -> PAW xc energy PS      =       0.00000000 Ry
      -> total E_H with PAW    =   35818.71679864 Ry
      -> total E_XC with PAW   =   -1395.19669784 Ry

     convergence has been achieved in  24 iterations

     negative rho (up, down):  1.483E-02 0.000E+00

     Forces acting on atoms (cartesian axes, Ry/au):

     atom    1 type  1   force =     0.00357111    0.00083388   -0.02028053
     atom    2 type  1   force =     0.00979277    0.00239982    0.02922693
     atom    3 type  1   force =    -0.00064927    0.00001320    0.00032560
     atom    4 type  1   force =     0.00018403    0.00016225    0.00032412
     atom    5 type  1   force =     0.00359599    0.00090897   -0.02025673
     atom    6 type  1   force =     0.00969513    0.00236783    0.02922908
     atom    7 type  1   force =    -0.00041222   -0.00025487    0.00050227
     atom    8 type  1   force =     0.00027197   -0.00002782    0.00019599
     atom    9 type  1   force =     0.00459258    0.00109070   -0.02027191
     atom   10 type  1   force =     0.00881670    0.00206115    0.02880298
     atom   11 type  1   force =    -0.00046698   -0.00008108    0.00066863
     atom   12 type  1   force =     0.00143401    0.00024180   -0.00946092
     atom   13 type  1   force =     0.00475795    0.00118741   -0.02039082
     atom   14 type  1   force =     0.00862393    0.00220397    0.02878518
     atom   15 type  1   force =    -0.00034351   -0.00012469    0.00064797
     atom   16 type  1   force =     0.00063262   -0.00001710    0.00083427
     atom   17 type  1   force =    -0.01362434   -0.00334909   -0.01835655
     atom   18 type  1   force =     0.00006401    0.00005106    0.00967766
     atom   19 type  1   force =     0.00055454    0.00021836   -0.00008627
     atom   20 type  1   force =    -0.00059856   -0.00007176   -0.00073001
     atom   21 type  1   force =    -0.01369674   -0.00333624   -0.01851315
     atom   22 type  1   force =     0.00004554   -0.00002317    0.00973714
     atom   23 type  1   force =     0.00056281    0.00008849    0.00004633
     atom   24 type  1   force =    -0.00053999   -0.00012133   -0.00024107
     atom   25 type  1   force =    -0.01318579   -0.00340523   -0.01882337
     atom   26 type  1   force =     0.00023205    0.00010759    0.00979706
     atom   27 type  1   force =    -0.00010906   -0.00014565   -0.00037974
     atom   28 type  1   force =     0.00081595    0.00018509   -0.00044049
     atom   29 type  1   force =    -0.01321786   -0.00304941   -0.01896361
     atom   30 type  1   force =     0.00028474    0.00000521    0.00996634
     atom   31 type  1   force =    -0.00021910    0.00003764   -0.00027413
     atom   32 type  1   force =     0.00054576    0.00008103   -0.00020131
     atom   33 type  2   force =     0.00469180   -0.00540753    0.19499142
     atom   34 type  2   force =    -0.00258598   -0.00103905   -0.02895571
     atom   35 type  2   force =    -0.00265686   -0.00179676   -0.00239490
     atom   36 type  2   force =     0.00421428    0.00246392   -0.00462289
     atom   37 type  2   force =     0.00597745    0.00259356    0.01313095
     atom   38 type  2   force =    -0.00768655   -0.00571094    0.01289412
     atom   39 type  2   force =     0.00099506    0.00290301   -0.00107249
     atom   40 type  3   force =    -0.00468255    0.00372268   -0.15858936
     atom   41 type  3   force =     0.00148293    0.00301223   -0.04095718
     atom   42 type  4   force =    -0.01491474   -0.00928265    0.01399188
     atom   43 type  4   force =     0.01247076    0.00769848    0.01139117
     atom   44 type  4   force =    -0.00013822   -0.00070876    0.00052806
     atom   45 type  4   force =     0.00042748    0.00088491    0.00089318
     atom   46 type  4   force =    -0.00069224    0.00013360   -0.00135054
     atom   47 type  4   force =     0.00108662    0.00029530   -0.00097466
     The non-local contrib.  to forces
     atom    1 type  1   force =    -0.12091353   -0.02981003   -0.09697993
     atom    2 type  1   force =     0.01967908    0.00432132    0.11356219
     atom    3 type  1   force =    -0.05135559   -0.01276693   -0.01778985
     atom    4 type  1   force =    -0.12656259   -0.03287946    0.06161836
     atom    5 type  1   force =    -0.12111774   -0.02921071   -0.09684760
     atom    6 type  1   force =     0.01963699    0.00555972    0.11372685
     atom    7 type  1   force =    -0.05052305   -0.01224018   -0.01455079
     atom    8 type  1   force =    -0.12714684   -0.02883470    0.06277939
     atom    9 type  1   force =    -0.12119202   -0.02899299   -0.09276657
     atom   10 type  1   force =     0.01960550    0.00550003    0.11085226
     atom   11 type  1   force =    -0.05105081   -0.01215611   -0.01680214
     atom   12 type  1   force =    -0.12616727   -0.03483682    0.06841886
     atom   13 type  1   force =    -0.12190830   -0.03035473   -0.09655260
     atom   14 type  1   force =     0.02121428    0.00465544    0.10980656
     atom   15 type  1   force =    -0.04829233   -0.01222756   -0.01654703
     atom   16 type  1   force =    -0.12684975   -0.02895426    0.07521786
     atom   17 type  1   force =     0.04718260    0.01163046   -0.07162386
     atom   18 type  1   force =     0.06373593    0.01495081   -0.06195223
     atom   19 type  1   force =     0.03909014    0.01011848   -0.04108864
     atom   20 type  1   force =     0.13660818    0.03338341    0.06436113
     atom   21 type  1   force =     0.04730000    0.01099117   -0.07506531
     atom   22 type  1   force =     0.06245417    0.01571916   -0.06387147
     atom   23 type  1   force =     0.03943233    0.00920403   -0.03363038
     atom   24 type  1   force =     0.14355797    0.03552394    0.08191224
     atom   25 type  1   force =     0.04880431    0.01460127   -0.08420173
     atom   26 type  1   force =     0.06253266    0.01412581   -0.05981386
     atom   27 type  1   force =     0.03911426    0.00970421   -0.04251917
     atom   28 type  1   force =     0.13821097    0.03537921    0.08167086
     atom   29 type  1   force =     0.05009792    0.00945032   -0.08884813
     atom   30 type  1   force =     0.06239018    0.01633586   -0.05777803
     atom   31 type  1   force =     0.04078037    0.00933555   -0.04478534
     atom   32 type  1   force =     0.13603747    0.03290818    0.07809895
     atom   33 type  2   force =    -0.00271120    0.00092727   -0.08692009
     atom   34 type  2   force =     0.00397138   -0.00532335    0.21432462
     atom   35 type  2   force =     0.02543365    0.01782306    0.01820258
     atom   36 type  2   force =    -0.02275722   -0.01830199    0.01501810
     atom   37 type  2   force =    -0.02055625   -0.01424571   -0.04723276
     atom   38 type  2   force =     0.01416356    0.01331684   -0.04848149
     atom   39 type  2   force =    -0.00848084    0.00812088   -0.33944290
     atom   40 type  3   force =    -0.05876616    0.04391638   -1.96629567
[...]

     iteration #178     ecut=    30.00 Ry     beta= 0.70
     Davidson diagonalization with overlap

---- Real-time Memory Report at c_bands before calling an iterative solver
           120 MiB given to the printing process from OS
             0 MiB allocation reported by mallinfo(arena+hblkhd)
        132091 MiB available memory on the node where the printing process lives
------------------
     ethr =  1.01E-09,  avg # of iterations =  2.8

     negative rho (up, down):  1.494E-02 0.000E+00

     total cpu time spent up to now is    30153.6 secs

     total energy              =  -14943.92555764 Ry
     estimated scf accuracy    <       0.00015975 Ry

     iteration #179     ecut=    30.00 Ry     beta= 0.70
     Davidson diagonalization with overlap

---- Real-time Memory Report at c_bands before calling an iterative solver
           120 MiB given to the printing process from OS
             0 MiB allocation reported by mallinfo(arena+hblkhd)
        132090 MiB available memory on the node where the printing process lives
------------------
     ethr =  1.01E-09,  avg # of iterations =  1.0

     negative rho (up, down):  1.494E-02 0.000E+00

     total cpu time spent up to now is    30183.5 secs

     total energy              =  -14943.92555495 Ry
     estimated scf accuracy    <       0.00013994 Ry

     iteration #180     ecut=    30.00 Ry     beta= 0.70
     Davidson diagonalization with overlap

---- Real-time Memory Report at c_bands before calling an iterative solver
           120 MiB given to the printing process from OS
             0 MiB allocation reported by mallinfo(arena+hblkhd)
        132091 MiB available memory on the node where the printing process lives
------------------
     ethr =  1.01E-09,  avg # of iterations =  1.0

     negative rho (up, down):  1.495E-02 0.000E+00

     total cpu time spent up to now is    30213.4 secs

     total energy              =  -14943.92558294 Ry
     estimated scf accuracy    <       0.00012353 Ry

     iteration #181     ecut=    30.00 Ry     beta= 0.70
     Davidson diagonalization with overlap

---- Real-time Memory Report at c_bands before calling an iterative solver
           120 MiB given to the printing process from OS
             0 MiB allocation reported by mallinfo(arena+hblkhd)
        132091 MiB available memory on the node where the printing process lives
------------------
     ethr =  1.01E-09,  avg # of iterations =  2.2

     negative rho (up, down):  1.495E-02 0.000E+00

     total cpu time spent up to now is    30249.1 secs

     total energy              =  -14943.92561014 Ry
     estimated scf accuracy    <       0.00038675 Ry

     iteration #182     ecut=    30.00 Ry     beta= 0.70
     Davidson diagonalization with overlap

---- Real-time Memory Report at c_bands before calling an iterative solver
           120 MiB given to the printing process from OS
             0 MiB allocation reported by mallinfo(arena+hblkhd)
        132082 MiB available memory on the node where the printing process lives
------------------
     ethr =  1.01E-09,  avg # of iterations =  2.0

     negative rho (up, down):  1.494E-02 0.000E+00

     total cpu time spent up to now is    30283.9 secs

     total energy              =  -14943.92542469 Ry
     estimated scf accuracy    <       0.00058894 Ry

     iteration #183     ecut=    30.00 Ry     beta= 0.70
     Davidson diagonalization with overlap

---- Real-time Memory Report at c_bands before calling an iterative solver
           120 MiB given to the printing process from OS
             0 MiB allocation reported by mallinfo(arena+hblkhd)
        132075 MiB available memory on the node where the printing process lives
------------------
     ethr =  1.01E-09,  avg # of iterations =  4.0

     negative rho (up, down):  1.494E-02 0.000E+00

     total cpu time spent up to now is    30322.8 secs

     total energy              =  -14943.92552281 Ry
     estimated scf accuracy    <       0.00000738 Ry

     iteration #184     ecut=    30.00 Ry     beta= 0.70
     Davidson diagonalization with overlap

---- Real-time Memory Report at c_bands before calling an iterative solver
           120 MiB given to the printing process from OS
             0 MiB allocation reported by mallinfo(arena+hblkhd)
        132081 MiB available memory on the node where the printing process lives
------------------
     ethr =  1.01E-09,  avg # of iterations =  1.0

     negative rho (up, down):  1.494E-02 0.000E+00

     total cpu time spent up to now is    30352.7 secs

     total energy              =  -14943.92552192 Ry
     estimated scf accuracy    <       0.00000720 Ry

     iteration #185     ecut=    30.00 Ry     beta= 0.70
     Davidson diagonalization with overlap

---- Real-time Memory Report at c_bands before calling an iterative solver
           120 MiB given to the printing process from OS
             0 MiB allocation reported by mallinfo(arena+hblkhd)
        132081 MiB available memory on the node where the printing process lives
------------------
     ethr =  1.01E-09,  avg # of iterations =  1.0

     negative rho (up, down):  1.494E-02 0.000E+00

     total cpu time spent up to now is    30382.6 secs

     total energy              =  -14943.92552080 Ry
     estimated scf accuracy    <       0.00000704 Ry

     iteration #186     ecut=    30.00 Ry     beta= 0.70
     Davidson diagonalization with overlap

---- Real-time Memory Report at c_bands before calling an iterative solver
           120 MiB given to the printing process from OS
             0 MiB allocation reported by mallinfo(arena+hblkhd)
        132081 MiB available memory on the node where the printing process lives
------------------
     ethr =  1.01E-09,  avg # of iterations =  1.0

     negative rho (up, down):  1.494E-02 0.000E+00

     total cpu time spent up to now is    30412.5 secs

     total energy              =  -14943.92552059 Ry
     estimated scf accuracy    <       0.00000752 Ry

     iteration #187     ecut=    30.00 Ry     beta= 0.70
     Davidson diagonalization with overlap

---- Real-time Memory Report at c_bands before calling an iterative solver
           120 MiB given to the printing process from OS
             0 MiB allocation reported by mallinfo(arena+hblkhd)
        132081 MiB available memory on the node where the printing process lives
------------------
     ethr =  1.01E-09,  avg # of iterations =  1.0

     negative rho (up, down):  1.494E-02 0.000E+00

     total cpu time spent up to now is    30442.4 secs

     total energy              =  -14943.92551953 Ry
     estimated scf accuracy    <       0.00000740 Ry

     iteration #188     ecut=    30.00 Ry     beta= 0.70
     Davidson diagonalization with overlap

---- Real-time Memory Report at c_bands before calling an iterative solver
           120 MiB given to the printing process from OS
             0 MiB allocation reported by mallinfo(arena+hblkhd)
        132083 MiB available memory on the node where the printing process lives
------------------
     ethr =  1.01E-09,  avg # of iterations =  1.0

     negative rho (up, down):  1.494E-02 0.000E+00

     total cpu time spent up to now is    30472.4 secs

     total energy              =  -14943.92551883 Ry
     estimated scf accuracy    <       0.00000815 Ry

     iteration #189     ecut=    30.00 Ry     beta= 0.70
     Davidson diagonalization with overlap

---- Real-time Memory Report at c_bands before calling an iterative solver
           120 MiB given to the printing process from OS
             0 MiB allocation reported by mallinfo(arena+hblkhd)
        132083 MiB available memory on the node where the printing process lives
------------------
     ethr =  1.01E-09,  avg # of iterations =  1.0

     negative rho (up, down):  1.494E-02 0.000E+00

     total cpu time spent up to now is    30502.3 secs

     total energy              =  -14943.92551851 Ry
     estimated scf accuracy    <       0.00000855 Ry

     iteration #190     ecut=    30.00 Ry     beta= 0.70
     Davidson diagonalization with overlap

---- Real-time Memory Report at c_bands before calling an iterative solver
           120 MiB given to the printing process from OS
             0 MiB allocation reported by mallinfo(arena+hblkhd)
        132083 MiB available memory on the node where the printing process lives
------------------
     ethr =  1.01E-09,  avg # of iterations =  1.0

     negative rho (up, down):  1.494E-02 0.000E+00

     total cpu time spent up to now is    30532.2 secs

     total energy              =  -14943.92551728 Ry
     estimated scf accuracy    <       0.00000883 Ry

     iteration #191     ecut=    30.00 Ry     beta= 0.70
     Davidson diagonalization with overlap

---- Real-time Memory Report at c_bands before calling an iterative solver
           120 MiB given to the printing process from OS
             0 MiB allocation reported by mallinfo(arena+hblkhd)
        132083 MiB available memory on the node where the printing process lives
------------------
     ethr =  1.01E-09,  avg # of iterations =  1.0

     negative rho (up, down):  1.494E-02 0.000E+00

     total cpu time spent up to now is    30562.1 secs

     total energy              =  -14943.92556894 Ry
     estimated scf accuracy    <       0.00001030 Ry

     iteration #192     ecut=    30.00 Ry     beta= 0.70
     Davidson diagonalization with overlap

---- Real-time Memory Report at c_bands before calling an iterative solver
           120 MiB given to the printing process from OS
             0 MiB allocation reported by mallinfo(arena+hblkhd)
        132083 MiB available memory on the node where the printing process lives
------------------
     ethr =  1.01E-09,  avg # of iterations =  4.0

     negative rho (up, down):  1.493E-02 0.000E+00

     total cpu time spent up to now is    30600.8 secs

     total energy              =  -14943.92544256 Ry
     estimated scf accuracy    <       0.00016610 Ry

     iteration #193     ecut=    30.00 Ry     beta= 0.70
     Davidson diagonalization with overlap

---- Real-time Memory Report at c_bands before calling an iterative solver
           120 MiB given to the printing process from OS
             0 MiB allocation reported by mallinfo(arena+hblkhd)
        132082 MiB available memory on the node where the printing process lives
------------------
     c_bands:  1 eigenvalues not converged
     ethr =  1.01E-09,  avg # of iterations = 12.2

     negative rho (up, down):  1.494E-02 0.000E+00

     total cpu time spent up to now is    30660.2 secs

     total energy              =  -14943.92556437 Ry
     estimated scf accuracy    <       0.00037486 Ry

     iteration #194     ecut=    30.00 Ry     beta= 0.70
     Davidson diagonalization with overlap

---- Real-time Memory Report at c_bands before calling an iterative solver
           120 MiB given to the printing process from OS
             0 MiB allocation reported by mallinfo(arena+hblkhd)
        132081 MiB available memory on the node where the printing process lives
------------------
     ethr =  1.01E-09,  avg # of iterations =  3.6

     negative rho (up, down):  1.494E-02 0.000E+00

     total cpu time spent up to now is    30698.3 secs

     total energy              =  -14943.92550783 Ry
     estimated scf accuracy    <       0.00004759 Ry

     iteration #195     ecut=    30.00 Ry     beta= 0.70
     Davidson diagonalization with overlap

---- Real-time Memory Report at c_bands before calling an iterative solver
           120 MiB given to the printing process from OS
             0 MiB allocation reported by mallinfo(arena+hblkhd)
        132081 MiB available memory on the node where the printing process lives
------------------
     ethr =  1.01E-09,  avg # of iterations =  2.0

     negative rho (up, down):  1.494E-02 0.000E+00

     total cpu time spent up to now is    30733.1 secs

     total energy              =  -14943.92550325 Ry
     estimated scf accuracy    <       0.00003018 Ry

     iteration #196     ecut=    30.00 Ry     beta= 0.70
     Davidson diagonalization with overlap

---- Real-time Memory Report at c_bands before calling an iterative solver
           120 MiB given to the printing process from OS
             0 MiB allocation reported by mallinfo(arena+hblkhd)
        132081 MiB available memory on the node where the printing process lives
------------------
     ethr =  1.01E-09,  avg # of iterations =  1.6

     negative rho (up, down):  1.494E-02 0.000E+00

     total cpu time spent up to now is    30765.7 secs

     total energy              =  -14943.92550615 Ry
     estimated scf accuracy    <       0.00004072 Ry

     iteration #197     ecut=    30.00 Ry     beta= 0.70
     Davidson diagonalization with overlap

---- Real-time Memory Report at c_bands before calling an iterative solver
           120 MiB given to the printing process from OS
             0 MiB allocation reported by mallinfo(arena+hblkhd)
        132082 MiB available memory on the node where the printing process lives
------------------
     ethr =  1.01E-09,  avg # of iterations =  1.0

     negative rho (up, down):  1.494E-02 0.000E+00

     total cpu time spent up to now is    30795.6 secs

     total energy              =  -14943.92551140 Ry
     estimated scf accuracy    <       0.00003256 Ry

     iteration #198     ecut=    30.00 Ry     beta= 0.70
     Davidson diagonalization with overlap

---- Real-time Memory Report at c_bands before calling an iterative solver
           120 MiB given to the printing process from OS
             0 MiB allocation reported by mallinfo(arena+hblkhd)
        132081 MiB available memory on the node where the printing process lives
------------------
     ethr =  1.01E-09,  avg # of iterations =  2.0

     negative rho (up, down):  1.494E-02 0.000E+00

     total cpu time spent up to now is    30830.2 secs

     total energy              =  -14943.92551366 Ry
     estimated scf accuracy    <       0.00002139 Ry

     iteration #199     ecut=    30.00 Ry     beta= 0.70
     Davidson diagonalization with overlap

---- Real-time Memory Report at c_bands before calling an iterative solver
           120 MiB given to the printing process from OS
             0 MiB allocation reported by mallinfo(arena+hblkhd)
        132081 MiB available memory on the node where the printing process lives
------------------
     ethr =  1.01E-09,  avg # of iterations =  1.8

     negative rho (up, down):  1.494E-02 0.000E+00

     total cpu time spent up to now is    30863.7 secs

     total energy              =  -14943.92552318 Ry
     estimated scf accuracy    <       0.00001625 Ry

     iteration #200     ecut=    30.00 Ry     beta= 0.70
     Davidson diagonalization with overlap

---- Real-time Memory Report at c_bands before calling an iterative solver
           120 MiB given to the printing process from OS
             0 MiB allocation reported by mallinfo(arena+hblkhd)
        132081 MiB available memory on the node where the printing process lives
------------------
     ethr =  1.01E-09,  avg # of iterations =  2.2

     negative rho (up, down):  1.494E-02 0.000E+00

     total cpu time spent up to now is    30899.2 secs

     total energy              =  -14943.92552118 Ry
     estimated scf accuracy    <       0.00000768 Ry

     End of self-consistent calculation

     convergence NOT achieved after 200 iterations: stopping

     Writing config to output data dir ./tmp/Zn101_2x2x4_relax_ecutrho250_ecutwfc25_ABN.save/ :
     XML data file, charge density

     init_run     :     11.80s CPU     11.93s WALL (       1 calls)
     electrons    :  29034.94s CPU  29334.36s WALL (      41 calls)
     update_pot   :      2.51s CPU      2.60s WALL (      40 calls)
     forces       :    371.44s CPU    374.61s WALL (      40 calls)
     stress       :   1075.43s CPU   1078.66s WALL (      40 calls)

     Called by init_run:
     wfcinit      :     11.56s CPU     11.66s WALL (       1 calls)
     wfcinit:atom :      0.02s CPU      0.02s WALL (       5 calls)
     wfcinit:wfcr :     11.39s CPU     11.49s WALL (       5 calls)
     potinit      :      0.06s CPU      0.06s WALL (       1 calls)
     hinit0       :      0.04s CPU      0.04s WALL (       1 calls)

     Called by electrons:
     c_bands      :  26422.11s CPU  26698.42s WALL (     779 calls)
     sum_band     :   2487.45s CPU   2508.54s WALL (     779 calls)
     v_of_rho     :     16.43s CPU     17.51s WALL (     788 calls)
     v_h          :      0.76s CPU      0.91s WALL (     788 calls)
     v_xc         :     17.25s CPU     18.29s WALL (     868 calls)
     newd         :     85.84s CPU     86.31s WALL (     788 calls)
     PAW_pot      :     27.59s CPU     27.72s WALL (     828 calls)
     mix_rho      :      2.33s CPU      2.47s WALL (     779 calls)

     Called by c_bands:
     init_us_2    :     43.59s CPU     43.77s WALL (    8395 calls)
     cegterg      :  26335.60s CPU  26611.49s WALL (    3895 calls)

     Called by sum_band:
     sum_band:wei :      1.60s CPU      1.62s WALL (     779 calls)
     sum_band:loo :   2434.47s CPU   2454.80s WALL (     779 calls)
     sum_band:buf :      8.17s CPU      8.24s WALL (    3895 calls)
     sum_band:ini :     20.04s CPU     20.10s WALL (    3895 calls)
     sum_band:cal :   1759.74s CPU   1775.16s WALL (    4095 calls)
     sum_band:bec :     41.51s CPU     41.62s WALL (    4095 calls)
     addusdens    :     46.41s CPU     46.66s WALL (     779 calls)
                                        0.00s GPU  (     779 calls)
     addusd:skk   :      0.92s CPU      0.93s WALL (    3116 calls)
                                        0.00s GPU  (    3116 calls)

     Called by *egterg:
     cdiaghg      :   3671.90s CPU   3726.27s WALL (   16249 calls)
     cegterg:over :   2986.98s CPU   3021.01s WALL (   12714 calls)
     cegterg:upda :   1291.88s CPU   1310.34s WALL (   12714 calls)
     cegterg:last :   4400.51s CPU   4487.36s WALL (    7591 calls)
     cdiaghg:chol :    270.06s CPU    270.81s WALL (   16249 calls)
     cdiaghg:inve :     54.07s CPU     54.23s WALL (   16249 calls)
     cdiaghg:para :   1070.85s CPU   1089.99s WALL (   32498 calls)
     h_psi        :   9996.87s CPU  10058.68s WALL (   16614 calls)
     s_psi        :   3111.53s CPU   3118.99s WALL (   16614 calls)
     g_psi        :      6.01s CPU      6.05s WALL (   12714 calls)

     Called by h_psi:
     h_psi:calbec :   3618.92s CPU   3650.66s WALL (   16614 calls)
     vloc_psi     :   3000.01s CPU   3021.52s WALL (   16614 calls)
     add_vuspsi   :   3362.29s CPU   3370.55s WALL (   16614 calls)

     General routines
     calbec       :   5798.63s CPU   5849.54s WALL (   21709 calls)
     fft          :     10.47s CPU     12.15s WALL (    9741 calls)
     ffts         :      0.73s CPU      0.84s WALL (     779 calls)
     fftw         :   3483.10s CPU   3509.12s WALL ( 8484364 calls)
     davcio       :      0.00s CPU      0.01s WALL (      23 calls)

     Parallel routines

     PAW routines
     PAW_pot      :     27.59s CPU     27.72s WALL (     828 calls)

     PWSCF        :      8h29m CPU      8h34m WALL


   This run was terminated on:   9:21: 6  25Jan1998            

=------------------------------------------------------------------------------=
   JOB DONE.
=------------------------------------------------------------------------------=
Note: The following floating-point exceptions are signalling: IEEE_DENORMAL
Note: The following floating-point exceptions are signalling: IEEE_DENORMAL
Note: The following floating-point exceptions are signalling: IEEE_DENORMAL
Note: The following floating-point exceptions are signalling: IEEE_DENORMAL
Note: The following floating-point exceptions are signalling: IEEE_DENORMAL
Note: The following floating-point exceptions are signalling: IEEE_DENORMAL
Note: The following floating-point exceptions are signalling: IEEE_DENORMAL
