--------------------------------------------------------------------------
By default, for Open MPI 4.0 and later, infiniband ports on a device
are not used by default.  The intent is to use UCX for these devices.
You can override this policy by setting the btl_openib_allow_ib MCA parameter
to true.

  Local host:              psid02
  Local adapter:           mlx5_0
  Local port:              1

--------------------------------------------------------------------------
--------------------------------------------------------------------------
WARNING: There was an error initializing an OpenFabrics device.

  Local host:   psid02
  Local device: mlx5_0
--------------------------------------------------------------------------

     Program PWSCF v.7.3.1 starts on 17Mar2025 at 10:27:54 

     This program is part of the open-source Quantum ESPRESSO suite
     for quantum simulation of materials; please cite
         "P. Giannozzi et al., J. Phys.:Condens. Matter 21 395502 (2009);
         "P. Giannozzi et al., J. Phys.:Condens. Matter 29 465901 (2017);
         "P. Giannozzi et al., J. Chem. Phys. 152 154105 (2020);
          URL http://www.quantum-espresso.org", 
     in publications or presentations arising from this work. More details at
     http://www.quantum-espresso.org/quote

     Parallel version (MPI), running on    30 processors

     MPI processes distributed on     1 nodes
     85425 MiB available memory on the printing compute node when the environment starts

     Waiting for input...
     Reading input from standard input
Warning: card &CELL ignored
Warning: card   CELL_DOFREE = 'ALL' ignored
Warning: card / ignored

     Current dimensions of program PWSCF are:
     Max number of different atomic species (ntypx) = 10
     Max number of k-points (npk) =  40000
     Max angular momentum in pseudopotentials (lmaxx) =  4
     Message from routine input:
     WARNING: "startingwfc" set to atomic+random may spoil restart
     Message from routine input:
     WARNING: "startingpot" set to atomic may spoil restart
     file C.pbe-n-kjpaw_psl.1.0.0.UPF: wavefunction(s)  2S 2P renormalized

     R & G space division:  proc/nbgrp/npool/nimage =      30
     Subspace diagonalization in iterative solution of the eigenvalue problem:
     one sub-group per band group will be used
     custom distributed-memory algorithm (size of sub-group:  4*  4 procs)


     Parallelization info
     --------------------
     sticks:   dense  smooth     PW     G-vecs:    dense   smooth      PW
     Min          63      63     18                 6221     6221     969
     Max          64      64     19                 6239     6239     982
     Sum        1919    1919    563               187003   187003   29267

     Using Slab Decomposition



     bravais-lattice index     =            0
     lattice parameter (alat)  =      20.9009  a.u.
     unit-cell volume          =    8423.3755 (a.u.)^3
     number of atoms/cell      =           47
     number of atomic types    =            4
     number of electrons       =       684.00
     number of Kohn-Sham states=          410
     kinetic-energy cutoff     =      30.0000  Ry
     charge density cutoff     =     120.0000  Ry
     scf convergence threshold =      7.3E-07
     mixing beta               =       0.7000
     number of iterations used =            8  plain     mixing
     energy convergence thresh.=      1.0E-05
     force convergence thresh. =      5.0E-04
     Exchange-correlation= PBE
                           (   1   4   3   4   0   0   0)
     nstep                     =          100


     celldm(1)=  20.900943  celldm(2)=   0.000000  celldm(3)=   0.000000
     celldm(4)=   0.000000  celldm(5)=   0.000000  celldm(6)=   0.000000

     crystal axes: (cart. coord. in units of alat)
               a(1) = (   1.000000   0.000000   0.000000 )  
               a(2) = (  -0.111745   0.459350   0.000000 )  
               a(3) = (  -4.200249  -1.021781   2.008375 )  

     reciprocal axes: (cart. coord. in units 2 pi/alat)
               b(1) = (  1.000000  0.243267  2.215131 )  
               b(2) = ( -0.000000  2.176989  1.107566 )  
               b(3) = (  0.000000 -0.000000  0.497915 )  


     PseudoPot. # 1 for Zn read from file:
     /home/ys/qepseudo/SSSP_1.3.0_PBE_efficiency/Zn_pbe_v1.uspp.F.UPF
     MD5 check sum: df62231357ef9e81f77b2b3087fa5675
     Pseudo is Ultrasoft, Zval = 20.0
     Generated by new atomic code, or converted to UPF format
     Using radial grid of  943 points,  6 beta functions with: 
                l(1) =   0
                l(2) =   0
                l(3) =   1
                l(4) =   1
                l(5) =   2
                l(6) =   2
     Q(r) pseudized with  8 coefficients,  rinner =    1.100   1.100   1.100
                                                       1.100   1.100

     PseudoPot. # 2 for C  read from file:
     /home/ys/qepseudo/SSSP_1.3.0_PBE_efficiency/C.pbe-n-kjpaw_psl.1.0.0.UPF
     MD5 check sum: 5d2aebdfa2cae82b50a7e79e9516da0f
     Pseudo is Projector augmented-wave + core cor, Zval =  4.0
     Generated using "atomic" code by A. Dal Corso  v.5.1
     Shape of augmentation charge: PSQ
     Using radial grid of 1073 points,  4 beta functions with: 
                l(1) =   0
                l(2) =   0
                l(3) =   1
                l(4) =   1
     Q(r) pseudized with 0 coefficients 


     PseudoPot. # 3 for N  read from file:
     /home/ys/qepseudo/SSSP_1.3.0_PBE_efficiency/N.pbe-n-radius_5.UPF
     MD5 check sum: 16739722b17309cd8fe442a2ace49922
     Pseudo is Ultrasoft + core correction, Zval =  5.0
     Generated using "atomic" code by A. Dal Corso  v.5.1
     Using radial grid of 1085 points,  4 beta functions with: 
                l(1) =   0
                l(2) =   0
                l(3) =   1
                l(4) =   1
     Q(r) pseudized with 0 coefficients 


     PseudoPot. # 4 for H  read from file:
     /home/ys/qepseudo/SSSP_1.3.0_PBE_efficiency/H.pbe-rrkjus_psl.1.0.0.UPF
     MD5 check sum: f52b6d4d1c606e5624b1dc7b2218f220
     Pseudo is Ultrasoft, Zval =  1.0
     Generated using "atomic" code by A. Dal Corso  v.5.1
     Using radial grid of  929 points,  2 beta functions with: 
                l(1) =   0
                l(2) =   0
     Q(r) pseudized with 0 coefficients 


     atomic species   valence    mass     pseudopotential
     Zn               20.00    65.38000     Zn( 1.00)
     C                 4.00    12.01070     C ( 1.00)
     N                 5.00    14.00670     N ( 1.00)
     H                 1.00     1.00800     H ( 1.00)

     No symmetry found


                                    s                        frac. trans.

      isym =  1     identity                                     

 cryst.   s( 1) = (     1          0          0      )
                  (     0          1          0      )
                  (     0          0          1      )

 cart.    s( 1) = (  1.0000000  0.0000000  0.0000000 )
                  (  0.0000000  1.0000000  0.0000000 )
                  (  0.0000000  0.0000000  1.0000000 )


   Cartesian axes

     site n.     atom                  positions (alat units)
         1        Zn     tau(   1) = (  -0.0970639   0.0980210   0.1082939  )
         2        Zn     tau(   2) = (  -0.4853192   0.0035714   0.2939406  )
         3        Zn     tau(   3) = (  -0.8748941  -0.0913952   0.5100643  )
         4        Zn     tau(   4) = (  -1.2418072  -0.1804079   0.7113944  )
         5        Zn     tau(   5) = (  -0.1529362   0.3276960   0.1082939  )
         6        Zn     tau(   6) = (  -0.5411916   0.2332464   0.2939406  )
         7        Zn     tau(   7) = (  -0.9305420   0.1385106   0.5106608  )
         8        Zn     tau(   8) = (  -1.2976723   0.0494382   0.7113514  )
         9        Zn     tau(   9) = (   0.4029361   0.0980210   0.1082939  )
        10        Zn     tau(  10) = (   0.0146808   0.0035714   0.2939406  )
        11        Zn     tau(  11) = (  -0.3734923  -0.0908107   0.5132416  )
        12        Zn     tau(  12) = (  -0.7269751  -0.1773901   0.6854168  )
        13        Zn     tau(  13) = (   0.3470638   0.3276960   0.1082939  )
        14        Zn     tau(  14) = (  -0.0411916   0.2332464   0.2939406  )
        15        Zn     tau(  15) = (  -0.4323544   0.1380592   0.5116429  )
        16        Zn     tau(  16) = (  -0.7835817   0.0520216   0.6908388  )
        17        Zn     tau(  17) = (   0.1529362   0.0372043   0.0773528  )
        18        Zn     tau(  18) = (  -0.2353192  -0.0572454   0.2629995  )
        19        Zn     tau(  19) = (  -0.6175798  -0.1501665   0.4561036  )
        20        Zn     tau(  20) = (  -1.0111247  -0.2458000   0.6600926  )
        21        Zn     tau(  21) = (   0.0970639   0.2668793   0.0773528  )
        22        Zn     tau(  22) = (  -0.2911915   0.1724296   0.2629995  )
        23        Zn     tau(  23) = (  -0.6786193   0.0781158   0.4561868  )
        24        Zn     tau(  24) = (  -1.0662092  -0.0160404   0.6614130  )
        25        Zn     tau(  25) = (   0.6529362   0.0372043   0.0773528  )
        26        Zn     tau(  26) = (   0.2646808  -0.0572454   0.2629995  )
        27        Zn     tau(  27) = (  -0.1340031  -0.1542259   0.4623657  )
        28        Zn     tau(  28) = (  -0.4968946  -0.2427972   0.6719452  )
        29        Zn     tau(  29) = (   0.5970639   0.2668793   0.0773528  )
        30        Zn     tau(  30) = (   0.2088085   0.1724296   0.2629995  )
        31        Zn     tau(  31) = (  -0.1901147   0.0755993   0.4625909  )
        32        Zn     tau(  32) = (  -0.5530355  -0.0132017   0.6717702  )
        33        C      tau(  33) = (  -0.7672064  -0.2148023   1.5048088  )
        34        C      tau(  34) = (  -0.7702610  -0.2094244   1.3759324  )
        35        C      tau(  35) = (  -0.8619888  -0.2684633   1.3102385  )
        36        C      tau(  36) = (  -0.6828605  -0.1428554   1.3117800  )
        37        C      tau(  37) = (  -0.6859042  -0.1376473   1.1863455  )
        38        C      tau(  38) = (  -0.8647029  -0.2627665   1.1847575  )
        39        C      tau(  39) = (  -0.7756363  -0.1989752   1.1203786  )
        40        N      tau(  40) = (  -0.7654712  -0.2180243   1.6108764  )
        41        N      tau(  41) = (  -0.7725608  -0.2014412   0.9940815  )
        42        H      tau(  42) = (  -0.7305206  -0.1288653   0.9553320  )
        43        H      tau(  43) = (  -0.8541763  -0.2178358   0.9542003  )
        44        H      tau(  44) = (  -0.9314857  -0.3191956   1.3587373  )
        45        H      tau(  45) = (  -0.6128406  -0.0938558   1.3615574  )
        46        H      tau(  46) = (  -0.6179107  -0.0845005   1.1380130  )
        47        H      tau(  47) = (  -0.9365260  -0.3095756   1.1352147  )

   Crystallographic axes

     site n.     atom                  positions (cryst. coord.)
         1        Zn     tau(   1) = (  0.1666667  0.3333333  0.0539212  )
         2        Zn     tau(   2) = (  0.1666667  0.3333333  0.1463574  )
         3        Zn     tau(   3) = (  0.2327320  0.3659633  0.2539687  )
         4        Zn     tau(   4) = (  0.2901376  0.3951700  0.3542139  )
         5        Zn     tau(   5) = (  0.1666667  0.8333333  0.0539212  )
         6        Zn     tau(   6) = (  0.1666667  0.8333333  0.1463574  )
         7        Zn     tau(   7) = (  0.2343338  0.8671263  0.2542656  )
         8        Zn     tau(   8) = (  0.2900912  0.8954948  0.3541925  )
         9        Zn     tau(   9) = (  0.6666667  0.3333333  0.0539212  )
        10        Zn     tau(  10) = (  0.6666667  0.3333333  0.1463574  )
        11        Zn     tau(  11) = (  0.7413140  0.3707549  0.2555507  )
        12        Zn     tau(  12) = (  0.7481600  0.3729677  0.3412793  )
        13        Zn     tau(  13) = (  0.6666667  0.8333333  0.0539212  )
        14        Zn     tau(  14) = (  0.6666667  0.8333333  0.1463574  )
        15        Zn     tau(  15) = (  0.7345870  0.8672313  0.2547547  )
        16        Zn     tau(  16) = (  0.7593721  0.8783998  0.3439790  )
        17        Zn     tau(  17) = (  0.3333333  0.1666667  0.0385151  )
        18        Zn     tau(  18) = (  0.3333333  0.1666667  0.1309514  )
        19        Zn     tau(  19) = (  0.3562191  0.1782538  0.2271008  )
        20        Zn     tau(  20) = (  0.3912720  0.1959919  0.3286700  )
        21        Zn     tau(  21) = (  0.3333333  0.6666667  0.0385151  )
        22        Zn     tau(  22) = (  0.3333333  0.6666667  0.1309514  )
        23        Zn     tau(  23) = (  0.3508974  0.6753140  0.2271422  )
        24        Zn     tau(  24) = (  0.3950053  0.6976386  0.3293274  )
        25        Zn     tau(  25) = (  0.8333333  0.1666667  0.0385151  )
        26        Zn     tau(  26) = (  0.8333333  0.1666667  0.1309514  )
        27        Zn     tau(  27) = (  0.8526797  0.1763523  0.2302188  )
        28        Zn     tau(  28) = (  0.9324877  0.2156565  0.3345716  )
        29        Zn     tau(  29) = (  0.8333333  0.6666667  0.0385151  )
        30        Zn     tau(  30) = (  0.8333333  0.6666667  0.1309514  )
        31        Zn     tau(  31) = (  0.8529757  0.6769287  0.2303309  )
        32        Zn     tau(  32) = (  0.9318123  0.7152896  0.3344845  )
        33        C      tau(  33) = (  2.5138885  1.1990523  0.7492669  )
        34        C      tau(  34) = (  2.2266639  1.0680207  0.6850974  )
        35        C      tau(  35) = (  1.9750533  0.8667333  0.6523874  )
        36        C      tau(  36) = (  2.1881524  1.1418876  0.6531549  )
        37        C      tau(  37) = (  1.9085219  1.0142988  0.5906992  )
        38        C      tau(  38) = (  1.6957682  0.7401569  0.5899085  )
        39        C      tau(  39) = (  1.6577453  0.8077257  0.5578533  )
        40        N      tau(  40) = (  2.7497935  1.3095147  0.8020795  )
        41        N      tau(  41) = (  1.3804564  0.6624752  0.4949681  )
        42        H      tau(  42) = (  1.3543165  0.7775545  0.4756741  )
        43        H      tau(  43) = (  1.2065104  0.5826132  0.4751106  )
        44        H      tau(  44) = (  2.0006463  0.8100053  0.6765357  )
        45        H      tau(  45) = (  2.3803558  1.3036910  0.6779398  )
        46        H      tau(  46) = (  1.8823815  1.0764674  0.5666337  )
        47        H      tau(  47) = (  1.5028141  0.5833819  0.5652404  )

     number of k points=     5  Marzari-Vanderbilt smearing, width (Ry)=  0.0200
                       cart. coord. in units 2pi/alat
        k(    1) = (   0.0000000   0.0000000   0.0000000), wk =   0.2222222
        k(    2) = (   0.0000000   0.7256631   0.3691885), wk =   0.4444444
        k(    3) = (   0.3333333   0.0810890   0.7383771), wk =   0.4444444
        k(    4) = (   0.3333333   0.8067520   1.1075656), wk =   0.4444444
        k(    5) = (   0.3333333  -0.6445741   0.3691886), wk =   0.4444444

                       cryst. coord.
        k(    1) = (   0.0000000   0.0000000   0.0000000), wk =   0.2222222
        k(    2) = (   0.0000000   0.3333333  -0.0000000), wk =   0.4444444
        k(    3) = (   0.3333333   0.0000000   0.0000000), wk =   0.4444444
        k(    4) = (   0.3333333   0.3333333   0.0000000), wk =   0.4444444
        k(    5) = (   0.3333333  -0.3333333   0.0000000), wk =   0.4444444

     Dense  grid:   187003 G-vectors     FFT dimensions: (  75,  36, 360)

     Dynamical RAM for                 wfc:       4.87 MB

     Dynamical RAM for     wfc (w. buffer):      29.24 MB

     Dynamical RAM for           str. fact:       0.38 MB

     Dynamical RAM for           local pot:       0.00 MB

     Dynamical RAM for          nlocal pot:       7.85 MB

     Dynamical RAM for                qrad:       3.52 MB

     Dynamical RAM for          rho,v,vnew:       1.03 MB

     Dynamical RAM for               rhoin:       0.34 MB

     Dynamical RAM for            rho*nmix:       1.52 MB

     Dynamical RAM for           G-vectors:       0.40 MB

     Dynamical RAM for          h,s,v(r/c):       1.92 MB

     Dynamical RAM for          <psi|beta>:       4.13 MB

     Dynamical RAM for                 psi:       9.75 MB

     Dynamical RAM for                hpsi:       9.75 MB

     Dynamical RAM for                spsi:       9.75 MB

     Dynamical RAM for      wfcinit/wfcrot:      15.69 MB

     Dynamical RAM for           addusdens:      20.74 MB

     Dynamical RAM for          addusforce:      26.81 MB

     Dynamical RAM for         addusstress:      19.12 MB

     Estimated static dynamical RAM per process >      44.47 MB

     Estimated max dynamical RAM per process >      81.29 MB

     Estimated total dynamical RAM >       2.38 GB

     Atomic positions and unit cell read from directory:
     ./tmp/Zn101_2x2x4_relax_ecutrho250_ecutwfc25_ABN.save/


     Check: negative core charge=   -0.000080

     The initial density is read from file :
     ./tmp/Zn101_2x2x4_relax_ecutrho250_ecutwfc25_ABN.save/charge-density


     negative rho (up, down):  1.494E-02 0.000E+00
     Starting wfcs are  458 randomized atomic wfcs
[psid02:157274] 29 more processes have sent help message help-mpi-btl-openib.txt / ib port not selected
[psid02:157274] Set MCA parameter "orte_base_help_aggregate" to 0 to see all help / error messages
[psid02:157274] 29 more processes have sent help message help-mpi-btl-openib.txt / error in device init
     Checking if some PAW data can be deallocated... 
       PAW data deallocated on   24 nodes for type:  2

     total cpu time spent up to now is       12.7 secs

     Self-consistent Calculation

     iteration #  1     ecut=    30.00 Ry     beta= 0.70
     Davidson diagonalization with overlap

---- Real-time Memory Report at c_bands before calling an iterative solver
            92 MiB given to the printing process from OS
             0 MiB allocation reported by mallinfo(arena+hblkhd)
         83246 MiB available memory on the node where the printing process lives
------------------
     ethr =  1.00E-05,  avg # of iterations = 12.2

     Threshold (ethr) on eigenvalues was too large:
     Diagonalizing with lowered threshold

     Davidson diagonalization with overlap

---- Real-time Memory Report at c_bands before calling an iterative solver
           117 MiB given to the printing process from OS
             0 MiB allocation reported by mallinfo(arena+hblkhd)
         83097 MiB available memory on the node where the printing process lives
------------------
     ethr =  1.22E-09,  avg # of iterations =  5.0

     negative rho (up, down):  1.494E-02 0.000E+00

     total cpu time spent up to now is      202.8 secs

     total energy              =  -14943.92551464 Ry
     estimated scf accuracy    <       0.00000731 Ry

     iteration #  2     ecut=    30.00 Ry     beta= 0.70
     Davidson diagonalization with overlap

---- Real-time Memory Report at c_bands before calling an iterative solver
           117 MiB given to the printing process from OS
             0 MiB allocation reported by mallinfo(arena+hblkhd)
         83064 MiB available memory on the node where the printing process lives
------------------
     ethr =  1.07E-09,  avg # of iterations =  3.4

     negative rho (up, down):  1.494E-02 0.000E+00

     total cpu time spent up to now is      243.3 secs

     total energy              =  -14943.92551052 Ry
     estimated scf accuracy    <       0.00008648 Ry

     iteration #  3     ecut=    30.00 Ry     beta= 0.70
     Davidson diagonalization with overlap

---- Real-time Memory Report at c_bands before calling an iterative solver
           117 MiB given to the printing process from OS
             0 MiB allocation reported by mallinfo(arena+hblkhd)
         83050 MiB available memory on the node where the printing process lives
------------------
     ethr =  1.07E-09,  avg # of iterations =  1.0

     negative rho (up, down):  1.494E-02 0.000E+00

     total cpu time spent up to now is      275.1 secs

     total energy              =  -14943.92551885 Ry
     estimated scf accuracy    <       0.00004090 Ry

     iteration #  4     ecut=    30.00 Ry     beta= 0.70
     Davidson diagonalization with overlap

---- Real-time Memory Report at c_bands before calling an iterative solver
           118 MiB given to the printing process from OS
             0 MiB allocation reported by mallinfo(arena+hblkhd)
         83034 MiB available memory on the node where the printing process lives
------------------
     ethr =  1.07E-09,  avg # of iterations =  2.0

     negative rho (up, down):  1.494E-02 0.000E+00

     total cpu time spent up to now is      312.1 secs

     total energy              =  -14943.92552932 Ry
     estimated scf accuracy    <       0.00007202 Ry

     iteration #  5     ecut=    30.00 Ry     beta= 0.70
     Davidson diagonalization with overlap

---- Real-time Memory Report at c_bands before calling an iterative solver
           118 MiB given to the printing process from OS
             0 MiB allocation reported by mallinfo(arena+hblkhd)
         83025 MiB available memory on the node where the printing process lives
------------------
     ethr =  1.07E-09,  avg # of iterations =  3.0

     negative rho (up, down):  1.494E-02 0.000E+00

     total cpu time spent up to now is      353.2 secs

     total energy              =  -14943.92553580 Ry
     estimated scf accuracy    <       0.00001246 Ry

     iteration #  6     ecut=    30.00 Ry     beta= 0.70
     Davidson diagonalization with overlap

---- Real-time Memory Report at c_bands before calling an iterative solver
           118 MiB given to the printing process from OS
             0 MiB allocation reported by mallinfo(arena+hblkhd)
         83016 MiB available memory on the node where the printing process lives
------------------
     ethr =  1.07E-09,  avg # of iterations =  3.0

     negative rho (up, down):  1.494E-02 0.000E+00

     total cpu time spent up to now is      390.6 secs

     total energy              =  -14943.92551814 Ry
     estimated scf accuracy    <       0.00003862 Ry

     iteration #  7     ecut=    30.00 Ry     beta= 0.70
     Davidson diagonalization with overlap

---- Real-time Memory Report at c_bands before calling an iterative solver
           119 MiB given to the printing process from OS
             0 MiB allocation reported by mallinfo(arena+hblkhd)
         83011 MiB available memory on the node where the printing process lives
------------------
     ethr =  1.07E-09,  avg # of iterations =  3.0

     negative rho (up, down):  1.494E-02 0.000E+00

     total cpu time spent up to now is      428.3 secs

     total energy              =  -14943.92551648 Ry
     estimated scf accuracy    <       0.00001042 Ry

     iteration #  8     ecut=    30.00 Ry     beta= 0.70
     Davidson diagonalization with overlap

---- Real-time Memory Report at c_bands before calling an iterative solver
           119 MiB given to the printing process from OS
             0 MiB allocation reported by mallinfo(arena+hblkhd)
         82999 MiB available memory on the node where the printing process lives
------------------
     ethr =  1.07E-09,  avg # of iterations =  3.0

     negative rho (up, down):  1.493E-02 0.000E+00

     total cpu time spent up to now is      466.4 secs

     total energy              =  -14943.92548878 Ry
     estimated scf accuracy    <       0.00004035 Ry

     iteration #  9     ecut=    30.00 Ry     beta= 0.70
     Davidson diagonalization with overlap

---- Real-time Memory Report at c_bands before calling an iterative solver
           119 MiB given to the printing process from OS
             0 MiB allocation reported by mallinfo(arena+hblkhd)
         82991 MiB available memory on the node where the printing process lives
------------------
     ethr =  1.07E-09,  avg # of iterations =  2.2

     negative rho (up, down):  1.494E-02 0.000E+00

     total cpu time spent up to now is      503.3 secs

     total energy              =  -14943.92564817 Ry
     estimated scf accuracy    <       0.00010897 Ry

     iteration # 10     ecut=    30.00 Ry     beta= 0.70
     Davidson diagonalization with overlap

---- Real-time Memory Report at c_bands before calling an iterative solver
           120 MiB given to the printing process from OS
             0 MiB allocation reported by mallinfo(arena+hblkhd)
         82981 MiB available memory on the node where the printing process lives
------------------
     ethr =  1.07E-09,  avg # of iterations =  4.0

     negative rho (up, down):  1.495E-02 0.000E+00

     total cpu time spent up to now is      544.9 secs

     total energy              =  -14943.92561608 Ry
     estimated scf accuracy    <       0.00003858 Ry

     iteration # 11     ecut=    30.00 Ry     beta= 0.70
     Davidson diagonalization with overlap

---- Real-time Memory Report at c_bands before calling an iterative solver
           120 MiB given to the printing process from OS
             0 MiB allocation reported by mallinfo(arena+hblkhd)
         82982 MiB available memory on the node where the printing process lives
------------------
     ethr =  1.07E-09,  avg # of iterations =  8.2

     negative rho (up, down):  1.493E-02 0.000E+00

     total cpu time spent up to now is      589.2 secs

     total energy              =  -14943.92499178 Ry
     estimated scf accuracy    <       0.00188586 Ry

     iteration # 12     ecut=    30.00 Ry     beta= 0.70
     Davidson diagonalization with overlap

---- Real-time Memory Report at c_bands before calling an iterative solver
           120 MiB given to the printing process from OS
             0 MiB allocation reported by mallinfo(arena+hblkhd)
         82977 MiB available memory on the node where the printing process lives
------------------
     ethr =  1.07E-09,  avg # of iterations =  8.8

     negative rho (up, down):  1.494E-02 0.000E+00

     total cpu time spent up to now is      644.9 secs

     total energy              =  -14943.92554080 Ry
     estimated scf accuracy    <       0.00010035 Ry

     iteration # 13     ecut=    30.00 Ry     beta= 0.70
     Davidson diagonalization with overlap

---- Real-time Memory Report at c_bands before calling an iterative solver
           120 MiB given to the printing process from OS
             0 MiB allocation reported by mallinfo(arena+hblkhd)
         82982 MiB available memory on the node where the printing process lives
------------------
     ethr =  1.07E-09,  avg # of iterations =  3.0

     negative rho (up, down):  1.494E-02 0.000E+00

     total cpu time spent up to now is      682.5 secs

     total energy              =  -14943.92553631 Ry
     estimated scf accuracy    <       0.00001322 Ry

     iteration # 14     ecut=    30.00 Ry     beta= 0.70
     Davidson diagonalization with overlap

---- Real-time Memory Report at c_bands before calling an iterative solver
           120 MiB given to the printing process from OS
             0 MiB allocation reported by mallinfo(arena+hblkhd)
         82984 MiB available memory on the node where the printing process lives
------------------
     ethr =  1.07E-09,  avg # of iterations =  3.0

     negative rho (up, down):  1.494E-02 0.000E+00

     total cpu time spent up to now is      720.1 secs

     total energy              =  -14943.92552720 Ry
     estimated scf accuracy    <       0.00001077 Ry

     iteration # 15     ecut=    30.00 Ry     beta= 0.70
     Davidson diagonalization with overlap

---- Real-time Memory Report at c_bands before calling an iterative solver
           120 MiB given to the printing process from OS
             0 MiB allocation reported by mallinfo(arena+hblkhd)
         82977 MiB available memory on the node where the printing process lives
------------------
     ethr =  1.07E-09,  avg # of iterations =  1.0

     negative rho (up, down):  1.494E-02 0.000E+00

     total cpu time spent up to now is      750.7 secs

     total energy              =  -14943.92552263 Ry
     estimated scf accuracy    <       0.00001081 Ry

     iteration # 16     ecut=    30.00 Ry     beta= 0.70
     Davidson diagonalization with overlap

---- Real-time Memory Report at c_bands before calling an iterative solver
           120 MiB given to the printing process from OS
             0 MiB allocation reported by mallinfo(arena+hblkhd)
         82979 MiB available memory on the node where the printing process lives
------------------
     ethr =  1.07E-09,  avg # of iterations =  2.0

     negative rho (up, down):  1.494E-02 0.000E+00

     total cpu time spent up to now is      786.7 secs

     total energy              =  -14943.92552190 Ry
     estimated scf accuracy    <       0.00000712 Ry

     iteration # 17     ecut=    30.00 Ry     beta= 0.70
     Davidson diagonalization with overlap

---- Real-time Memory Report at c_bands before calling an iterative solver
           120 MiB given to the printing process from OS
             0 MiB allocation reported by mallinfo(arena+hblkhd)
         82981 MiB available memory on the node where the printing process lives
------------------
     ethr =  1.04E-09,  avg # of iterations =  1.0

     negative rho (up, down):  1.494E-02 0.000E+00

     total cpu time spent up to now is      817.3 secs

     total energy              =  -14943.92551836 Ry
     estimated scf accuracy    <       0.00000711 Ry

     iteration # 18     ecut=    30.00 Ry     beta= 0.70
     Davidson diagonalization with overlap

---- Real-time Memory Report at c_bands before calling an iterative solver
           120 MiB given to the printing process from OS
             0 MiB allocation reported by mallinfo(arena+hblkhd)
         82976 MiB available memory on the node where the printing process lives
------------------
     ethr =  1.04E-09,  avg # of iterations =  2.0

     negative rho (up, down):  1.494E-02 0.000E+00

     total cpu time spent up to now is      853.4 secs

     total energy              =  -14943.92551560 Ry
     estimated scf accuracy    <       0.00001046 Ry

     iteration # 19     ecut=    30.00 Ry     beta= 0.70
     Davidson diagonalization with overlap

---- Real-time Memory Report at c_bands before calling an iterative solver
           120 MiB given to the printing process from OS
             0 MiB allocation reported by mallinfo(arena+hblkhd)
         82982 MiB available memory on the node where the printing process lives
------------------
     ethr =  1.04E-09,  avg # of iterations =  1.0

     negative rho (up, down):  1.494E-02 0.000E+00

     total cpu time spent up to now is      884.2 secs

     total energy              =  -14943.92551657 Ry
     estimated scf accuracy    <       0.00001259 Ry

     iteration # 20     ecut=    30.00 Ry     beta= 0.70
     Davidson diagonalization with overlap

---- Real-time Memory Report at c_bands before calling an iterative solver
           120 MiB given to the printing process from OS
             0 MiB allocation reported by mallinfo(arena+hblkhd)
         82976 MiB available memory on the node where the printing process lives
------------------
     ethr =  1.04E-09,  avg # of iterations =  1.0

     negative rho (up, down):  1.495E-02 0.000E+00

     total cpu time spent up to now is      915.0 secs

     total energy              =  -14943.92556908 Ry
     estimated scf accuracy    <       0.00001106 Ry

     iteration # 21     ecut=    30.00 Ry     beta= 0.70
     Davidson diagonalization with overlap

---- Real-time Memory Report at c_bands before calling an iterative solver
           120 MiB given to the printing process from OS
             0 MiB allocation reported by mallinfo(arena+hblkhd)
         82980 MiB available memory on the node where the printing process lives
------------------
     ethr =  1.04E-09,  avg # of iterations =  4.0

     negative rho (up, down):  1.496E-02 0.000E+00

     total cpu time spent up to now is      954.8 secs

     total energy              =  -14943.92580670 Ry
     estimated scf accuracy    <       0.00014790 Ry

     iteration # 22     ecut=    30.00 Ry     beta= 0.70
     Davidson diagonalization with overlap

---- Real-time Memory Report at c_bands before calling an iterative solver
           120 MiB given to the printing process from OS
             0 MiB allocation reported by mallinfo(arena+hblkhd)
         82983 MiB available memory on the node where the printing process lives
------------------
     ethr =  1.04E-09,  avg # of iterations = 12.6

     negative rho (up, down):  1.494E-02 0.000E+00

     total cpu time spent up to now is     1012.1 secs

     total energy              =  -14943.92355032 Ry
     estimated scf accuracy    <       0.01521038 Ry

     iteration # 23     ecut=    30.00 Ry     beta= 0.70
     Davidson diagonalization with overlap

---- Real-time Memory Report at c_bands before calling an iterative solver
           120 MiB given to the printing process from OS
             0 MiB allocation reported by mallinfo(arena+hblkhd)
         82981 MiB available memory on the node where the printing process lives
------------------
     ethr =  1.04E-09,  avg # of iterations = 13.0

     negative rho (up, down):  1.494E-02 0.000E+00

     total cpu time spent up to now is     1079.6 secs

     total energy              =  -14943.92550576 Ry
     estimated scf accuracy    <       0.00002379 Ry

     iteration # 24     ecut=    30.00 Ry     beta= 0.70
     Davidson diagonalization with overlap

---- Real-time Memory Report at c_bands before calling an iterative solver
           121 MiB given to the printing process from OS
             0 MiB allocation reported by mallinfo(arena+hblkhd)
         82982 MiB available memory on the node where the printing process lives
------------------
     ethr =  1.04E-09,  avg # of iterations =  2.0

     negative rho (up, down):  1.494E-02 0.000E+00

     total cpu time spent up to now is     1114.8 secs

     total energy              =  -14943.92550462 Ry
     estimated scf accuracy    <       0.00003436 Ry

     iteration # 25     ecut=    30.00 Ry     beta= 0.70
     Davidson diagonalization with overlap

---- Real-time Memory Report at c_bands before calling an iterative solver
           121 MiB given to the printing process from OS
             0 MiB allocation reported by mallinfo(arena+hblkhd)
         82981 MiB available memory on the node where the printing process lives
------------------
     ethr =  1.04E-09,  avg # of iterations =  1.0

     negative rho (up, down):  1.494E-02 0.000E+00

     total cpu time spent up to now is     1145.4 secs

     total energy              =  -14943.92551009 Ry
     estimated scf accuracy    <       0.00003584 Ry

     iteration # 26     ecut=    30.00 Ry     beta= 0.70
     Davidson diagonalization with overlap

---- Real-time Memory Report at c_bands before calling an iterative solver
           121 MiB given to the printing process from OS
             0 MiB allocation reported by mallinfo(arena+hblkhd)
         82983 MiB available memory on the node where the printing process lives
------------------
     ethr =  1.04E-09,  avg # of iterations =  2.0

     negative rho (up, down):  1.494E-02 0.000E+00

     total cpu time spent up to now is     1180.7 secs

     total energy              =  -14943.92551026 Ry
     estimated scf accuracy    <       0.00002400 Ry

     iteration # 27     ecut=    30.00 Ry     beta= 0.70
     Davidson diagonalization with overlap

---- Real-time Memory Report at c_bands before calling an iterative solver
           121 MiB given to the printing process from OS
             0 MiB allocation reported by mallinfo(arena+hblkhd)
         82981 MiB available memory on the node where the printing process lives
------------------
     ethr =  1.04E-09,  avg # of iterations =  1.0

     negative rho (up, down):  1.494E-02 0.000E+00

     total cpu time spent up to now is     1211.5 secs

     total energy              =  -14943.92550891 Ry
     estimated scf accuracy    <       0.00002217 Ry

     iteration # 28     ecut=    30.00 Ry     beta= 0.70
     Davidson diagonalization with overlap

---- Real-time Memory Report at c_bands before calling an iterative solver
           121 MiB given to the printing process from OS
             0 MiB allocation reported by mallinfo(arena+hblkhd)
         82982 MiB available memory on the node where the printing process lives
------------------
     ethr =  1.04E-09,  avg # of iterations =  1.0

     negative rho (up, down):  1.494E-02 0.000E+00

     total cpu time spent up to now is     1242.3 secs

     total energy              =  -14943.92550466 Ry
     estimated scf accuracy    <       0.00002534 Ry

     iteration # 29     ecut=    30.00 Ry     beta= 0.70
     Davidson diagonalization with overlap

---- Real-time Memory Report at c_bands before calling an iterative solver
           121 MiB given to the printing process from OS
             0 MiB allocation reported by mallinfo(arena+hblkhd)
         82974 MiB available memory on the node where the printing process lives
------------------
     ethr =  1.04E-09,  avg # of iterations =  2.0

     negative rho (up, down):  1.494E-02 0.000E+00

     total cpu time spent up to now is     1277.8 secs

     total energy              =  -14943.92550427 Ry
     estimated scf accuracy    <       0.00003754 Ry

     iteration # 30     ecut=    30.00 Ry     beta= 0.70
     Davidson diagonalization with overlap

---- Real-time Memory Report at c_bands before calling an iterative solver
           121 MiB given to the printing process from OS
             0 MiB allocation reported by mallinfo(arena+hblkhd)
         82978 MiB available memory on the node where the printing process lives
------------------
     ethr =  1.04E-09,  avg # of iterations =  1.0

     negative rho (up, down):  1.494E-02 0.000E+00

     total cpu time spent up to now is     1308.7 secs

     total energy              =  -14943.92550361 Ry
     estimated scf accuracy    <       0.00003664 Ry

     iteration # 31     ecut=    30.00 Ry     beta= 0.70
     Davidson diagonalization with overlap

---- Real-time Memory Report at c_bands before calling an iterative solver
           121 MiB given to the printing process from OS
             0 MiB allocation reported by mallinfo(arena+hblkhd)
         82980 MiB available memory on the node where the printing process lives
------------------
     ethr =  1.04E-09,  avg # of iterations =  1.0

     negative rho (up, down):  1.494E-02 0.000E+00

     total cpu time spent up to now is     1339.6 secs

     total energy              =  -14943.92554342 Ry
     estimated scf accuracy    <       0.00003835 Ry

     iteration # 32     ecut=    30.00 Ry     beta= 0.70
     Davidson diagonalization with overlap

---- Real-time Memory Report at c_bands before calling an iterative solver
           121 MiB given to the printing process from OS
             0 MiB allocation reported by mallinfo(arena+hblkhd)
         82977 MiB available memory on the node where the printing process lives
------------------
     ethr =  1.04E-09,  avg # of iterations =  3.0

     negative rho (up, down):  1.494E-02 0.000E+00

     total cpu time spent up to now is     1377.7 secs

     total energy              =  -14943.92552449 Ry
     estimated scf accuracy    <       0.00000710 Ry

     iteration # 33     ecut=    30.00 Ry     beta= 0.70
     Davidson diagonalization with overlap

---- Real-time Memory Report at c_bands before calling an iterative solver
           121 MiB given to the printing process from OS
             0 MiB allocation reported by mallinfo(arena+hblkhd)
         82978 MiB available memory on the node where the printing process lives
------------------
     ethr =  1.04E-09,  avg # of iterations =  1.2

     negative rho (up, down):  1.494E-02 0.000E+00

     total cpu time spent up to now is     1409.6 secs

     total energy              =  -14943.92552692 Ry
     estimated scf accuracy    <       0.00000777 Ry

     iteration # 34     ecut=    30.00 Ry     beta= 0.70
     Davidson diagonalization with overlap

---- Real-time Memory Report at c_bands before calling an iterative solver
           121 MiB given to the printing process from OS
             0 MiB allocation reported by mallinfo(arena+hblkhd)
         82978 MiB available memory on the node where the printing process lives
------------------
     ethr =  1.04E-09,  avg # of iterations =  2.0

     negative rho (up, down):  1.494E-02 0.000E+00

     total cpu time spent up to now is     1445.4 secs

     total energy              =  -14943.92553268 Ry
     estimated scf accuracy    <       0.00001019 Ry

     iteration # 35     ecut=    30.00 Ry     beta= 0.70
     Davidson diagonalization with overlap

---- Real-time Memory Report at c_bands before calling an iterative solver
           121 MiB given to the printing process from OS
             0 MiB allocation reported by mallinfo(arena+hblkhd)
         82980 MiB available memory on the node where the printing process lives
------------------
     ethr =  1.04E-09,  avg # of iterations =  2.0

     negative rho (up, down):  1.494E-02 0.000E+00

     total cpu time spent up to now is     1481.6 secs

     total energy              =  -14943.92553014 Ry
     estimated scf accuracy    <       0.00002232 Ry

     iteration # 36     ecut=    30.00 Ry     beta= 0.70
     Davidson diagonalization with overlap

---- Real-time Memory Report at c_bands before calling an iterative solver
           121 MiB given to the printing process from OS
             0 MiB allocation reported by mallinfo(arena+hblkhd)
         82978 MiB available memory on the node where the printing process lives
------------------
     ethr =  1.04E-09,  avg # of iterations =  1.0

     negative rho (up, down):  1.494E-02 0.000E+00

     total cpu time spent up to now is     1512.5 secs

     total energy              =  -14943.92553950 Ry
     estimated scf accuracy    <       0.00001658 Ry

     iteration # 37     ecut=    30.00 Ry     beta= 0.70
     Davidson diagonalization with overlap

---- Real-time Memory Report at c_bands before calling an iterative solver
           121 MiB given to the printing process from OS
             0 MiB allocation reported by mallinfo(arena+hblkhd)
         82979 MiB available memory on the node where the printing process lives
------------------
     ethr =  1.04E-09,  avg # of iterations =  2.0

     negative rho (up, down):  1.493E-02 0.000E+00

     total cpu time spent up to now is     1549.0 secs

     total energy              =  -14943.92550411 Ry
     estimated scf accuracy    <       0.00005098 Ry

     iteration # 38     ecut=    30.00 Ry     beta= 0.70
     Davidson diagonalization with overlap

---- Real-time Memory Report at c_bands before calling an iterative solver
           121 MiB given to the printing process from OS
             0 MiB allocation reported by mallinfo(arena+hblkhd)
         82978 MiB available memory on the node where the printing process lives
------------------
     ethr =  1.04E-09,  avg # of iterations =  4.0

     negative rho (up, down):  1.493E-02 0.000E+00

     total cpu time spent up to now is     1590.3 secs

     total energy              =  -14943.92546998 Ry
     estimated scf accuracy    <       0.00006587 Ry

     iteration # 39     ecut=    30.00 Ry     beta= 0.70
     Davidson diagonalization with overlap

---- Real-time Memory Report at c_bands before calling an iterative solver
           121 MiB given to the printing process from OS
             0 MiB allocation reported by mallinfo(arena+hblkhd)
         82969 MiB available memory on the node where the printing process lives
------------------
     ethr =  1.04E-09,  avg # of iterations =  3.0

     negative rho (up, down):  1.494E-02 0.000E+00

     total cpu time spent up to now is     1628.2 secs

     total energy              =  -14943.92552462 Ry
     estimated scf accuracy    <       0.00020057 Ry

     iteration # 40     ecut=    30.00 Ry     beta= 0.70
     Davidson diagonalization with overlap

---- Real-time Memory Report at c_bands before calling an iterative solver
           121 MiB given to the printing process from OS
             0 MiB allocation reported by mallinfo(arena+hblkhd)
         82969 MiB available memory on the node where the printing process lives
------------------
     ethr =  1.04E-09,  avg # of iterations =  3.0

     negative rho (up, down):  1.494E-02 0.000E+00

     total cpu time spent up to now is     1666.1 secs

     total energy              =  -14943.92550847 Ry
     estimated scf accuracy    <       0.00004565 Ry

     iteration # 41     ecut=    30.00 Ry     beta= 0.70
     Davidson diagonalization with overlap

---- Real-time Memory Report at c_bands before calling an iterative solver
           121 MiB given to the printing process from OS
             0 MiB allocation reported by mallinfo(arena+hblkhd)
         82969 MiB available memory on the node where the printing process lives
------------------
     ethr =  1.04E-09,  avg # of iterations =  2.0

     negative rho (up, down):  1.494E-02 0.000E+00

     total cpu time spent up to now is     1702.2 secs

     total energy              =  -14943.92551063 Ry
     estimated scf accuracy    <       0.00002889 Ry

     iteration # 42     ecut=    30.00 Ry     beta= 0.70
     Davidson diagonalization with overlap

---- Real-time Memory Report at c_bands before calling an iterative solver
           121 MiB given to the printing process from OS
             0 MiB allocation reported by mallinfo(arena+hblkhd)
         82970 MiB available memory on the node where the printing process lives
------------------
     ethr =  1.04E-09,  avg # of iterations =  1.6

     negative rho (up, down):  1.494E-02 0.000E+00

     total cpu time spent up to now is     1736.0 secs

     total energy              =  -14943.92551546 Ry
     estimated scf accuracy    <       0.00002207 Ry

     iteration # 43     ecut=    30.00 Ry     beta= 0.70
     Davidson diagonalization with overlap

---- Real-time Memory Report at c_bands before calling an iterative solver
           121 MiB given to the printing process from OS
             0 MiB allocation reported by mallinfo(arena+hblkhd)
         82975 MiB available memory on the node where the printing process lives
------------------
     ethr =  1.04E-09,  avg # of iterations =  2.0

     negative rho (up, down):  1.494E-02 0.000E+00

     total cpu time spent up to now is     1772.0 secs

     total energy              =  -14943.92552650 Ry
     estimated scf accuracy    <       0.00001395 Ry

     iteration # 44     ecut=    30.00 Ry     beta= 0.70
     Davidson diagonalization with overlap

---- Real-time Memory Report at c_bands before calling an iterative solver
           121 MiB given to the printing process from OS
             0 MiB allocation reported by mallinfo(arena+hblkhd)
         82976 MiB available memory on the node where the printing process lives
------------------
     ethr =  1.04E-09,  avg # of iterations =  2.2

     negative rho (up, down):  1.494E-02 0.000E+00

     total cpu time spent up to now is     1809.0 secs

     total energy              =  -14943.92552274 Ry
     estimated scf accuracy    <       0.00000707 Ry

     iteration # 45     ecut=    30.00 Ry     beta= 0.70
     Davidson diagonalization with overlap

---- Real-time Memory Report at c_bands before calling an iterative solver
           121 MiB given to the printing process from OS
             0 MiB allocation reported by mallinfo(arena+hblkhd)
         82976 MiB available memory on the node where the printing process lives
------------------
     ethr =  1.03E-09,  avg # of iterations =  1.0

     negative rho (up, down):  1.494E-02 0.000E+00

     total cpu time spent up to now is     1839.9 secs

     total energy              =  -14943.92552615 Ry
     estimated scf accuracy    <       0.00000714 Ry

     iteration # 46     ecut=    30.00 Ry     beta= 0.70
     Davidson diagonalization with overlap

---- Real-time Memory Report at c_bands before calling an iterative solver
           121 MiB given to the printing process from OS
             0 MiB allocation reported by mallinfo(arena+hblkhd)
         82976 MiB available memory on the node where the printing process lives
------------------
     ethr =  1.03E-09,  avg # of iterations =  2.0

     negative rho (up, down):  1.494E-02 0.000E+00

     total cpu time spent up to now is     1875.7 secs

     total energy              =  -14943.92552433 Ry
     estimated scf accuracy    <       0.00000915 Ry

     iteration # 47     ecut=    30.00 Ry     beta= 0.70
     Davidson diagonalization with overlap

---- Real-time Memory Report at c_bands before calling an iterative solver
           121 MiB given to the printing process from OS
             0 MiB allocation reported by mallinfo(arena+hblkhd)
         82975 MiB available memory on the node where the printing process lives
------------------
     ethr =  1.03E-09,  avg # of iterations =  1.0

     negative rho (up, down):  1.494E-02 0.000E+00

     total cpu time spent up to now is     1906.4 secs

     total energy              =  -14943.92552169 Ry
     estimated scf accuracy    <       0.00000782 Ry

     iteration # 48     ecut=    30.00 Ry     beta= 0.70
     Davidson diagonalization with overlap

---- Real-time Memory Report at c_bands before calling an iterative solver
           121 MiB given to the printing process from OS
             0 MiB allocation reported by mallinfo(arena+hblkhd)
         82974 MiB available memory on the node where the printing process lives
------------------
     ethr =  1.03E-09,  avg # of iterations =  2.0

     negative rho (up, down):  1.494E-02 0.000E+00

     total cpu time spent up to now is     1942.0 secs

     total energy              =  -14943.92552924 Ry
     estimated scf accuracy    <       0.00000728 Ry

     iteration # 49     ecut=    30.00 Ry     beta= 0.70
     Davidson diagonalization with overlap

---- Real-time Memory Report at c_bands before calling an iterative solver
           121 MiB given to the printing process from OS
             0 MiB allocation reported by mallinfo(arena+hblkhd)
         82974 MiB available memory on the node where the printing process lives
------------------
     ethr =  1.03E-09,  avg # of iterations =  2.0

     negative rho (up, down):  1.494E-02 0.000E+00

     total cpu time spent up to now is     1978.5 secs

     total energy              =  -14943.92553411 Ry
     estimated scf accuracy    <       0.00001190 Ry

     iteration # 50     ecut=    30.00 Ry     beta= 0.70
     Davidson diagonalization with overlap

---- Real-time Memory Report at c_bands before calling an iterative solver
           121 MiB given to the printing process from OS
             0 MiB allocation reported by mallinfo(arena+hblkhd)
         82974 MiB available memory on the node where the printing process lives
------------------
     ethr =  1.03E-09,  avg # of iterations =  2.0

     negative rho (up, down):  1.494E-02 0.000E+00

     total cpu time spent up to now is     2014.6 secs

     total energy              =  -14943.92555738 Ry
     estimated scf accuracy    <       0.00002779 Ry

     iteration # 51     ecut=    30.00 Ry     beta= 0.70
     Davidson diagonalization with overlap

---- Real-time Memory Report at c_bands before calling an iterative solver
           121 MiB given to the printing process from OS
             0 MiB allocation reported by mallinfo(arena+hblkhd)
         82972 MiB available memory on the node where the printing process lives
------------------
     ethr =  1.03E-09,  avg # of iterations =  3.0

     negative rho (up, down):  1.494E-02 0.000E+00

     total cpu time spent up to now is     2052.4 secs

     total energy              =  -14943.92548984 Ry
     estimated scf accuracy    <       0.00019788 Ry

     iteration # 52     ecut=    30.00 Ry     beta= 0.70
     Davidson diagonalization with overlap

---- Real-time Memory Report at c_bands before calling an iterative solver
           121 MiB given to the printing process from OS
             0 MiB allocation reported by mallinfo(arena+hblkhd)
         82971 MiB available memory on the node where the printing process lives
------------------
     ethr =  1.03E-09,  avg # of iterations =  3.2

     negative rho (up, down):  1.494E-02 0.000E+00

     total cpu time spent up to now is     2091.1 secs

     total energy              =  -14943.92552045 Ry
     estimated scf accuracy    <       0.00000746 Ry

     iteration # 53     ecut=    30.00 Ry     beta= 0.70
     Davidson diagonalization with overlap

---- Real-time Memory Report at c_bands before calling an iterative solver
           121 MiB given to the printing process from OS
             0 MiB allocation reported by mallinfo(arena+hblkhd)
         82966 MiB available memory on the node where the printing process lives
------------------
     ethr =  1.03E-09,  avg # of iterations =  2.0

     negative rho (up, down):  1.494E-02 0.000E+00

     total cpu time spent up to now is     2127.5 secs

     total energy              =  -14943.92551946 Ry
     estimated scf accuracy    <       0.00000799 Ry

     iteration # 54     ecut=    30.00 Ry     beta= 0.70
     Davidson diagonalization with overlap

---- Real-time Memory Report at c_bands before calling an iterative solver
           121 MiB given to the printing process from OS
             0 MiB allocation reported by mallinfo(arena+hblkhd)
         82971 MiB available memory on the node where the printing process lives
------------------
     ethr =  1.03E-09,  avg # of iterations =  1.0

     negative rho (up, down):  1.494E-02 0.000E+00

     total cpu time spent up to now is     2158.3 secs

     total energy              =  -14943.92552424 Ry
     estimated scf accuracy    <       0.00000821 Ry

     iteration # 55     ecut=    30.00 Ry     beta= 0.70
     Davidson diagonalization with overlap

---- Real-time Memory Report at c_bands before calling an iterative solver
           121 MiB given to the printing process from OS
             0 MiB allocation reported by mallinfo(arena+hblkhd)
         82967 MiB available memory on the node where the printing process lives
------------------
     ethr =  1.03E-09,  avg # of iterations =  2.0

     negative rho (up, down):  1.494E-02 0.000E+00

     total cpu time spent up to now is     2194.1 secs

     total energy              =  -14943.92552353 Ry
     estimated scf accuracy    <       0.00000704 Ry

     iteration # 56     ecut=    30.00 Ry     beta= 0.70
     Davidson diagonalization with overlap

---- Real-time Memory Report at c_bands before calling an iterative solver
           121 MiB given to the printing process from OS
             0 MiB allocation reported by mallinfo(arena+hblkhd)
         82967 MiB available memory on the node where the printing process lives
------------------
     ethr =  1.03E-09,  avg # of iterations =  1.0

     negative rho (up, down):  1.494E-02 0.000E+00

     total cpu time spent up to now is     2224.9 secs

     total energy              =  -14943.92552160 Ry
     estimated scf accuracy    <       0.00000771 Ry

     iteration # 57     ecut=    30.00 Ry     beta= 0.70
     Davidson diagonalization with overlap

---- Real-time Memory Report at c_bands before calling an iterative solver
           121 MiB given to the printing process from OS
             0 MiB allocation reported by mallinfo(arena+hblkhd)
         82971 MiB available memory on the node where the printing process lives
------------------
     ethr =  1.03E-09,  avg # of iterations =  2.0

     negative rho (up, down):  1.494E-02 0.000E+00

     total cpu time spent up to now is     2260.3 secs

     total energy              =  -14943.92552086 Ry
     estimated scf accuracy    <       0.00000710 Ry

     iteration # 58     ecut=    30.00 Ry     beta= 0.70
     Davidson diagonalization with overlap

---- Real-time Memory Report at c_bands before calling an iterative solver
           121 MiB given to the printing process from OS
             0 MiB allocation reported by mallinfo(arena+hblkhd)
         82965 MiB available memory on the node where the printing process lives
------------------
     ethr =  1.03E-09,  avg # of iterations =  1.0

     negative rho (up, down):  1.494E-02 0.000E+00

     total cpu time spent up to now is     2291.2 secs

     total energy              =  -14943.92551827 Ry
     estimated scf accuracy    <       0.00000736 Ry

     iteration # 59     ecut=    30.00 Ry     beta= 0.70
     Davidson diagonalization with overlap

---- Real-time Memory Report at c_bands before calling an iterative solver
           121 MiB given to the printing process from OS
             0 MiB allocation reported by mallinfo(arena+hblkhd)
         82965 MiB available memory on the node where the printing process lives
------------------
     ethr =  1.03E-09,  avg # of iterations =  2.0

     negative rho (up, down):  1.494E-02 0.000E+00

     total cpu time spent up to now is     2327.1 secs

     total energy              =  -14943.92551441 Ry
     estimated scf accuracy    <       0.00000973 Ry

     iteration # 60     ecut=    30.00 Ry     beta= 0.70
     Davidson diagonalization with overlap

---- Real-time Memory Report at c_bands before calling an iterative solver
           121 MiB given to the printing process from OS
             0 MiB allocation reported by mallinfo(arena+hblkhd)
         82972 MiB available memory on the node where the printing process lives
------------------
     ethr =  1.03E-09,  avg # of iterations =  2.0

     negative rho (up, down):  1.494E-02 0.000E+00

     total cpu time spent up to now is     2363.2 secs

     total energy              =  -14943.92557108 Ry
     estimated scf accuracy    <       0.00001592 Ry

     iteration # 61     ecut=    30.00 Ry     beta= 0.70
     Davidson diagonalization with overlap

---- Real-time Memory Report at c_bands before calling an iterative solver
           121 MiB given to the printing process from OS
             0 MiB allocation reported by mallinfo(arena+hblkhd)
         82965 MiB available memory on the node where the printing process lives
------------------
     ethr =  1.03E-09,  avg # of iterations =  3.8

     negative rho (up, down):  1.495E-02 0.000E+00

     total cpu time spent up to now is     2403.0 secs

     total energy              =  -14943.92563604 Ry
     estimated scf accuracy    <       0.00009021 Ry

     iteration # 62     ecut=    30.00 Ry     beta= 0.70
     Davidson diagonalization with overlap

---- Real-time Memory Report at c_bands before calling an iterative solver
           121 MiB given to the printing process from OS
             0 MiB allocation reported by mallinfo(arena+hblkhd)
         82972 MiB available memory on the node where the printing process lives
------------------
     ethr =  1.03E-09,  avg # of iterations =  9.8

     negative rho (up, down):  1.494E-02 0.000E+00

     total cpu time spent up to now is     2447.7 secs

     total energy              =  -14943.92513175 Ry
     estimated scf accuracy    <       0.00197562 Ry

     iteration # 63     ecut=    30.00 Ry     beta= 0.70
     Davidson diagonalization with overlap

---- Real-time Memory Report at c_bands before calling an iterative solver
           121 MiB given to the printing process from OS
             0 MiB allocation reported by mallinfo(arena+hblkhd)
         82972 MiB available memory on the node where the printing process lives
------------------
     ethr =  1.03E-09,  avg # of iterations =  9.4

     negative rho (up, down):  1.494E-02 0.000E+00

     total cpu time spent up to now is     2499.2 secs

     total energy              =  -14943.92551525 Ry
     estimated scf accuracy    <       0.00001289 Ry

     iteration # 64     ecut=    30.00 Ry     beta= 0.70
     Davidson diagonalization with overlap

---- Real-time Memory Report at c_bands before calling an iterative solver
           121 MiB given to the printing process from OS
             0 MiB allocation reported by mallinfo(arena+hblkhd)
         82964 MiB available memory on the node where the printing process lives
------------------
     ethr =  1.03E-09,  avg # of iterations =  1.0

     negative rho (up, down):  1.494E-02 0.000E+00

     total cpu time spent up to now is     2529.9 secs

     total energy              =  -14943.92551432 Ry
     estimated scf accuracy    <       0.00001287 Ry

     iteration # 65     ecut=    30.00 Ry     beta= 0.70
     Davidson diagonalization with overlap

---- Real-time Memory Report at c_bands before calling an iterative solver
           121 MiB given to the printing process from OS
             0 MiB allocation reported by mallinfo(arena+hblkhd)
         82968 MiB available memory on the node where the printing process lives
------------------
     ethr =  1.03E-09,  avg # of iterations =  1.0

     negative rho (up, down):  1.494E-02 0.000E+00

     total cpu time spent up to now is     2560.5 secs

     total energy              =  -14943.92551427 Ry
     estimated scf accuracy    <       0.00001444 Ry

     iteration # 66     ecut=    30.00 Ry     beta= 0.70
     Davidson diagonalization with overlap

---- Real-time Memory Report at c_bands before calling an iterative solver
           121 MiB given to the printing process from OS
             0 MiB allocation reported by mallinfo(arena+hblkhd)
         82970 MiB available memory on the node where the printing process lives
------------------
     ethr =  1.03E-09,  avg # of iterations =  1.0

     negative rho (up, down):  1.494E-02 0.000E+00

     total cpu time spent up to now is     2591.4 secs

     total energy              =  -14943.92551382 Ry
     estimated scf accuracy    <       0.00001450 Ry

     iteration # 67     ecut=    30.00 Ry     beta= 0.70
     Davidson diagonalization with overlap

---- Real-time Memory Report at c_bands before calling an iterative solver
           121 MiB given to the printing process from OS
             0 MiB allocation reported by mallinfo(arena+hblkhd)
         82965 MiB available memory on the node where the printing process lives
------------------
     ethr =  1.03E-09,  avg # of iterations =  1.0

     negative rho (up, down):  1.494E-02 0.000E+00

     total cpu time spent up to now is     2622.2 secs

     total energy              =  -14943.92551170 Ry
     estimated scf accuracy    <       0.00001521 Ry

     iteration # 68     ecut=    30.00 Ry     beta= 0.70
     Davidson diagonalization with overlap

---- Real-time Memory Report at c_bands before calling an iterative solver
           121 MiB given to the printing process from OS
             0 MiB allocation reported by mallinfo(arena+hblkhd)
         82962 MiB available memory on the node where the printing process lives
------------------
     ethr =  1.03E-09,  avg # of iterations =  1.0

     negative rho (up, down):  1.494E-02 0.000E+00

     total cpu time spent up to now is     2652.8 secs

     total energy              =  -14943.92550875 Ry
     estimated scf accuracy    <       0.00001975 Ry

     iteration # 69     ecut=    30.00 Ry     beta= 0.70
     Davidson diagonalization with overlap

---- Real-time Memory Report at c_bands before calling an iterative solver
           121 MiB given to the printing process from OS
             0 MiB allocation reported by mallinfo(arena+hblkhd)
         82968 MiB available memory on the node where the printing process lives
------------------
     ethr =  1.03E-09,  avg # of iterations =  1.8

     negative rho (up, down):  1.494E-02 0.000E+00

     total cpu time spent up to now is     2687.3 secs

     total energy              =  -14943.92550461 Ry
     estimated scf accuracy    <       0.00002639 Ry

     iteration # 70     ecut=    30.00 Ry     beta= 0.70
     Davidson diagonalization with overlap

---- Real-time Memory Report at c_bands before calling an iterative solver
           121 MiB given to the printing process from OS
             0 MiB allocation reported by mallinfo(arena+hblkhd)
         82964 MiB available memory on the node where the printing process lives
------------------
     ethr =  1.03E-09,  avg # of iterations =  2.0

     negative rho (up, down):  1.494E-02 0.000E+00

     total cpu time spent up to now is     2722.8 secs

     total energy              =  -14943.92550034 Ry
     estimated scf accuracy    <       0.00003720 Ry

     iteration # 71     ecut=    30.00 Ry     beta= 0.70
     Davidson diagonalization with overlap

---- Real-time Memory Report at c_bands before calling an iterative solver
           121 MiB given to the printing process from OS
             0 MiB allocation reported by mallinfo(arena+hblkhd)
         82966 MiB available memory on the node where the printing process lives
------------------
     ethr =  1.03E-09,  avg # of iterations =  1.8

     negative rho (up, down):  1.494E-02 0.000E+00

     total cpu time spent up to now is     2757.5 secs

     total energy              =  -14943.92555477 Ry
     estimated scf accuracy    <       0.00004846 Ry

     iteration # 72     ecut=    30.00 Ry     beta= 0.70
     Davidson diagonalization with overlap

---- Real-time Memory Report at c_bands before calling an iterative solver
           121 MiB given to the printing process from OS
             0 MiB allocation reported by mallinfo(arena+hblkhd)
         82965 MiB available memory on the node where the printing process lives
------------------
     ethr =  1.03E-09,  avg # of iterations =  3.0

     negative rho (up, down):  1.494E-02 0.000E+00

     total cpu time spent up to now is     2796.0 secs

     total energy              =  -14943.92552650 Ry
     estimated scf accuracy    <       0.00000749 Ry

     iteration # 73     ecut=    30.00 Ry     beta= 0.70
     Davidson diagonalization with overlap

---- Real-time Memory Report at c_bands before calling an iterative solver
           121 MiB given to the printing process from OS
             0 MiB allocation reported by mallinfo(arena+hblkhd)
         82965 MiB available memory on the node where the printing process lives
------------------
     ethr =  1.03E-09,  avg # of iterations =  2.0

     negative rho (up, down):  1.494E-02 0.000E+00

     total cpu time spent up to now is     2831.6 secs

     total energy              =  -14943.92552724 Ry
     estimated scf accuracy    <       0.00000965 Ry

     iteration # 74     ecut=    30.00 Ry     beta= 0.70
     Davidson diagonalization with overlap

---- Real-time Memory Report at c_bands before calling an iterative solver
           121 MiB given to the printing process from OS
             0 MiB allocation reported by mallinfo(arena+hblkhd)
         82966 MiB available memory on the node where the printing process lives
------------------
     ethr =  1.03E-09,  avg # of iterations =  1.0

     negative rho (up, down):  1.494E-02 0.000E+00

     total cpu time spent up to now is     2862.3 secs

     total energy              =  -14943.92552990 Ry
     estimated scf accuracy    <       0.00001077 Ry

     iteration # 75     ecut=    30.00 Ry     beta= 0.70
     Davidson diagonalization with overlap

---- Real-time Memory Report at c_bands before calling an iterative solver
           121 MiB given to the printing process from OS
             0 MiB allocation reported by mallinfo(arena+hblkhd)
         82966 MiB available memory on the node where the printing process lives
------------------
     ethr =  1.03E-09,  avg # of iterations =  2.0

     negative rho (up, down):  1.494E-02 0.000E+00

     total cpu time spent up to now is     2897.7 secs

     total energy              =  -14943.92553071 Ry
     estimated scf accuracy    <       0.00001556 Ry

     iteration # 76     ecut=    30.00 Ry     beta= 0.70
     Davidson diagonalization with overlap

---- Real-time Memory Report at c_bands before calling an iterative solver
           121 MiB given to the printing process from OS
             0 MiB allocation reported by mallinfo(arena+hblkhd)
         82965 MiB available memory on the node where the printing process lives
------------------
     ethr =  1.03E-09,  avg # of iterations =  1.0

     negative rho (up, down):  1.494E-02 0.000E+00

     total cpu time spent up to now is     2928.6 secs

     total energy              =  -14943.92553527 Ry
     estimated scf accuracy    <       0.00001755 Ry

     iteration # 77     ecut=    30.00 Ry     beta= 0.70
     Davidson diagonalization with overlap

---- Real-time Memory Report at c_bands before calling an iterative solver
           121 MiB given to the printing process from OS
             0 MiB allocation reported by mallinfo(arena+hblkhd)
         82966 MiB available memory on the node where the printing process lives
------------------
     ethr =  1.03E-09,  avg # of iterations =  2.0

     negative rho (up, down):  1.494E-02 0.000E+00

     total cpu time spent up to now is     2964.3 secs

     total energy              =  -14943.92554091 Ry
     estimated scf accuracy    <       0.00003095 Ry

     iteration # 78     ecut=    30.00 Ry     beta= 0.70
     Davidson diagonalization with overlap

---- Real-time Memory Report at c_bands before calling an iterative solver
           121 MiB given to the printing process from OS
             0 MiB allocation reported by mallinfo(arena+hblkhd)
         82961 MiB available memory on the node where the printing process lives
------------------
     ethr =  1.03E-09,  avg # of iterations =  2.0

     negative rho (up, down):  1.495E-02 0.000E+00

     total cpu time spent up to now is     2999.8 secs

     total energy              =  -14943.92555934 Ry
     estimated scf accuracy    <       0.00005311 Ry

     iteration # 79     ecut=    30.00 Ry     beta= 0.70
     Davidson diagonalization with overlap

---- Real-time Memory Report at c_bands before calling an iterative solver
           121 MiB given to the printing process from OS
             0 MiB allocation reported by mallinfo(arena+hblkhd)
         82964 MiB available memory on the node where the printing process lives
------------------
     ethr =  1.03E-09,  avg # of iterations =  2.0

     negative rho (up, down):  1.494E-02 0.000E+00

     total cpu time spent up to now is     3036.2 secs

     total energy              =  -14943.92548532 Ry
     estimated scf accuracy    <       0.00017977 Ry

     iteration # 80     ecut=    30.00 Ry     beta= 0.70
     Davidson diagonalization with overlap

---- Real-time Memory Report at c_bands before calling an iterative solver
           121 MiB given to the printing process from OS
             0 MiB allocation reported by mallinfo(arena+hblkhd)
         82961 MiB available memory on the node where the printing process lives
------------------
     ethr =  1.03E-09,  avg # of iterations =  3.4

     negative rho (up, down):  1.494E-02 0.000E+00

     total cpu time spent up to now is     3075.1 secs

     total energy              =  -14943.92551945 Ry
     estimated scf accuracy    <       0.00000734 Ry

     iteration # 81     ecut=    30.00 Ry     beta= 0.70
     Davidson diagonalization with overlap

---- Real-time Memory Report at c_bands before calling an iterative solver
           121 MiB given to the printing process from OS
             0 MiB allocation reported by mallinfo(arena+hblkhd)
         82962 MiB available memory on the node where the printing process lives
------------------
     ethr =  1.03E-09,  avg # of iterations =  2.0

     negative rho (up, down):  1.494E-02 0.000E+00

     total cpu time spent up to now is     3110.6 secs

     total energy              =  -14943.92551844 Ry
     estimated scf accuracy    <       0.00000827 Ry

     iteration # 82     ecut=    30.00 Ry     beta= 0.70
     Davidson diagonalization with overlap

---- Real-time Memory Report at c_bands before calling an iterative solver
           121 MiB given to the printing process from OS
             0 MiB allocation reported by mallinfo(arena+hblkhd)
         82967 MiB available memory on the node where the printing process lives
------------------
     ethr =  1.03E-09,  avg # of iterations =  1.0

     negative rho (up, down):  1.494E-02 0.000E+00

     total cpu time spent up to now is     3141.5 secs

     total energy              =  -14943.92551748 Ry
     estimated scf accuracy    <       0.00000892 Ry

     iteration # 83     ecut=    30.00 Ry     beta= 0.70
     Davidson diagonalization with overlap

---- Real-time Memory Report at c_bands before calling an iterative solver
           121 MiB given to the printing process from OS
             0 MiB allocation reported by mallinfo(arena+hblkhd)
         82965 MiB available memory on the node where the printing process lives
------------------
     ethr =  1.03E-09,  avg # of iterations =  1.0

     negative rho (up, down):  1.494E-02 0.000E+00

     total cpu time spent up to now is     3172.5 secs

     total energy              =  -14943.92551293 Ry
     estimated scf accuracy    <       0.00001002 Ry

     iteration # 84     ecut=    30.00 Ry     beta= 0.70
     Davidson diagonalization with overlap

---- Real-time Memory Report at c_bands before calling an iterative solver
           121 MiB given to the printing process from OS
             0 MiB allocation reported by mallinfo(arena+hblkhd)
         82965 MiB available memory on the node where the printing process lives
------------------
     ethr =  1.03E-09,  avg # of iterations =  2.0

     negative rho (up, down):  1.494E-02 0.000E+00

     total cpu time spent up to now is     3209.1 secs

     total energy              =  -14943.92550650 Ry
     estimated scf accuracy    <       0.00002139 Ry

     iteration # 85     ecut=    30.00 Ry     beta= 0.70
     Davidson diagonalization with overlap

---- Real-time Memory Report at c_bands before calling an iterative solver
           121 MiB given to the printing process from OS
             0 MiB allocation reported by mallinfo(arena+hblkhd)
         82961 MiB available memory on the node where the printing process lives
------------------
     ethr =  1.03E-09,  avg # of iterations =  2.0

     negative rho (up, down):  1.494E-02 0.000E+00

     total cpu time spent up to now is     3245.3 secs

     total energy              =  -14943.92550032 Ry
     estimated scf accuracy    <       0.00003309 Ry

     iteration # 86     ecut=    30.00 Ry     beta= 0.70
     Davidson diagonalization with overlap

---- Real-time Memory Report at c_bands before calling an iterative solver
           121 MiB given to the printing process from OS
             0 MiB allocation reported by mallinfo(arena+hblkhd)
         82963 MiB available memory on the node where the printing process lives
------------------
     ethr =  1.03E-09,  avg # of iterations =  2.0

     negative rho (up, down):  1.493E-02 0.000E+00

     total cpu time spent up to now is     3281.3 secs

     total energy              =  -14943.92549263 Ry
     estimated scf accuracy    <       0.00005042 Ry

     iteration # 87     ecut=    30.00 Ry     beta= 0.70
     Davidson diagonalization with overlap

---- Real-time Memory Report at c_bands before calling an iterative solver
           121 MiB given to the printing process from OS
             0 MiB allocation reported by mallinfo(arena+hblkhd)
         82959 MiB available memory on the node where the printing process lives
------------------
     ethr =  1.03E-09,  avg # of iterations =  2.0

     negative rho (up, down):  1.493E-02 0.000E+00

     total cpu time spent up to now is     3317.0 secs

     total energy              =  -14943.92548686 Ry
     estimated scf accuracy    <       0.00007404 Ry

     iteration # 88     ecut=    30.00 Ry     beta= 0.70
     Davidson diagonalization with overlap

---- Real-time Memory Report at c_bands before calling an iterative solver
           121 MiB given to the printing process from OS
             0 MiB allocation reported by mallinfo(arena+hblkhd)
         82965 MiB available memory on the node where the printing process lives
------------------
     ethr =  1.03E-09,  avg # of iterations =  1.2

     negative rho (up, down):  1.494E-02 0.000E+00

     total cpu time spent up to now is     3348.6 secs

     total energy              =  -14943.92556459 Ry
     estimated scf accuracy    <       0.00009043 Ry

     iteration # 89     ecut=    30.00 Ry     beta= 0.70
     Davidson diagonalization with overlap

---- Real-time Memory Report at c_bands before calling an iterative solver
           121 MiB given to the printing process from OS
             0 MiB allocation reported by mallinfo(arena+hblkhd)
         82966 MiB available memory on the node where the printing process lives
------------------
     ethr =  1.03E-09,  avg # of iterations =  3.4

     negative rho (up, down):  1.494E-02 0.000E+00

     total cpu time spent up to now is     3387.4 secs

     total energy              =  -14943.92552500 Ry
     estimated scf accuracy    <       0.00000716 Ry

     iteration # 90     ecut=    30.00 Ry     beta= 0.70
     Davidson diagonalization with overlap

---- Real-time Memory Report at c_bands before calling an iterative solver
           121 MiB given to the printing process from OS
             0 MiB allocation reported by mallinfo(arena+hblkhd)
         82960 MiB available memory on the node where the printing process lives
------------------
     ethr =  1.03E-09,  avg # of iterations =  2.0

     negative rho (up, down):  1.494E-02 0.000E+00

     total cpu time spent up to now is     3423.5 secs

     total energy              =  -14943.92552554 Ry
     estimated scf accuracy    <       0.00000784 Ry

     iteration # 91     ecut=    30.00 Ry     beta= 0.70
     Davidson diagonalization with overlap

---- Real-time Memory Report at c_bands before calling an iterative solver
           121 MiB given to the printing process from OS
             0 MiB allocation reported by mallinfo(arena+hblkhd)
         82964 MiB available memory on the node where the printing process lives
------------------
     ethr =  1.03E-09,  avg # of iterations =  1.0

     negative rho (up, down):  1.494E-02 0.000E+00

     total cpu time spent up to now is     3454.6 secs

     total energy              =  -14943.92552688 Ry
     estimated scf accuracy    <       0.00000872 Ry

     iteration # 92     ecut=    30.00 Ry     beta= 0.70
     Davidson diagonalization with overlap

---- Real-time Memory Report at c_bands before calling an iterative solver
           121 MiB given to the printing process from OS
             0 MiB allocation reported by mallinfo(arena+hblkhd)
         82962 MiB available memory on the node where the printing process lives
------------------
     ethr =  1.03E-09,  avg # of iterations =  1.0

     negative rho (up, down):  1.494E-02 0.000E+00

     total cpu time spent up to now is     3485.7 secs

     total energy              =  -14943.92552863 Ry
     estimated scf accuracy    <       0.00001024 Ry

     iteration # 93     ecut=    30.00 Ry     beta= 0.70
     Davidson diagonalization with overlap

---- Real-time Memory Report at c_bands before calling an iterative solver
           121 MiB given to the printing process from OS
             0 MiB allocation reported by mallinfo(arena+hblkhd)
         82965 MiB available memory on the node where the printing process lives
------------------
     ethr =  1.03E-09,  avg # of iterations =  1.0

     negative rho (up, down):  1.494E-02 0.000E+00

     total cpu time spent up to now is     3516.5 secs

     total energy              =  -14943.92553660 Ry
[...]
------------------
     ethr =  1.03E-09,  avg # of iterations =  1.2

     negative rho (up, down):  1.494E-02 0.000E+00

     total cpu time spent up to now is     6562.4 secs

     total energy              =  -14943.92552330 Ry
     estimated scf accuracy    <       0.00000733 Ry

     iteration #178     ecut=    30.00 Ry     beta= 0.70
     Davidson diagonalization with overlap

---- Real-time Memory Report at c_bands before calling an iterative solver
           121 MiB given to the printing process from OS
             0 MiB allocation reported by mallinfo(arena+hblkhd)
         82964 MiB available memory on the node where the printing process lives
------------------
     ethr =  1.03E-09,  avg # of iterations =  1.0

     negative rho (up, down):  1.494E-02 0.000E+00

     total cpu time spent up to now is     6594.0 secs

     total energy              =  -14943.92552251 Ry
     estimated scf accuracy    <       0.00000726 Ry

     iteration #179     ecut=    30.00 Ry     beta= 0.70
     Davidson diagonalization with overlap

---- Real-time Memory Report at c_bands before calling an iterative solver
           121 MiB given to the printing process from OS
             0 MiB allocation reported by mallinfo(arena+hblkhd)
         82967 MiB available memory on the node where the printing process lives
------------------
     ethr =  1.03E-09,  avg # of iterations =  1.2

     negative rho (up, down):  1.494E-02 0.000E+00

     total cpu time spent up to now is     6627.0 secs

     total energy              =  -14943.92552170 Ry
     estimated scf accuracy    <       0.00000710 Ry

     iteration #180     ecut=    30.00 Ry     beta= 0.70
     Davidson diagonalization with overlap

---- Real-time Memory Report at c_bands before calling an iterative solver
           121 MiB given to the printing process from OS
             0 MiB allocation reported by mallinfo(arena+hblkhd)
         82963 MiB available memory on the node where the printing process lives
------------------
     ethr =  1.03E-09,  avg # of iterations =  1.4

     negative rho (up, down):  1.494E-02 0.000E+00

     total cpu time spent up to now is     6661.0 secs

     total energy              =  -14943.92551894 Ry
     estimated scf accuracy    <       0.00000712 Ry

     iteration #181     ecut=    30.00 Ry     beta= 0.70
     Davidson diagonalization with overlap

---- Real-time Memory Report at c_bands before calling an iterative solver
           121 MiB given to the printing process from OS
             0 MiB allocation reported by mallinfo(arena+hblkhd)
         82963 MiB available memory on the node where the printing process lives
------------------
     ethr =  1.03E-09,  avg # of iterations =  2.4

     negative rho (up, down):  1.494E-02 0.000E+00

     total cpu time spent up to now is     6698.3 secs

     total energy              =  -14943.92551587 Ry
     estimated scf accuracy    <       0.00000905 Ry

     iteration #182     ecut=    30.00 Ry     beta= 0.70
     Davidson diagonalization with overlap

---- Real-time Memory Report at c_bands before calling an iterative solver
           121 MiB given to the printing process from OS
             0 MiB allocation reported by mallinfo(arena+hblkhd)
         82965 MiB available memory on the node where the printing process lives
------------------
     ethr =  1.03E-09,  avg # of iterations =  2.2

     negative rho (up, down):  1.494E-02 0.000E+00

     total cpu time spent up to now is     6734.9 secs

     total energy              =  -14943.92551259 Ry
     estimated scf accuracy    <       0.00001277 Ry

     iteration #183     ecut=    30.00 Ry     beta= 0.70
     Davidson diagonalization with overlap

---- Real-time Memory Report at c_bands before calling an iterative solver
           121 MiB given to the printing process from OS
             0 MiB allocation reported by mallinfo(arena+hblkhd)
         82963 MiB available memory on the node where the printing process lives
------------------
     ethr =  1.03E-09,  avg # of iterations =  2.2

     negative rho (up, down):  1.494E-02 0.000E+00

     total cpu time spent up to now is     6771.3 secs

     total energy              =  -14943.92550896 Ry
     estimated scf accuracy    <       0.00001858 Ry

     iteration #184     ecut=    30.00 Ry     beta= 0.70
     Davidson diagonalization with overlap

---- Real-time Memory Report at c_bands before calling an iterative solver
           121 MiB given to the printing process from OS
             0 MiB allocation reported by mallinfo(arena+hblkhd)
         82959 MiB available memory on the node where the printing process lives
------------------
     ethr =  1.03E-09,  avg # of iterations =  2.2

     negative rho (up, down):  1.494E-02 0.000E+00

     total cpu time spent up to now is     6807.3 secs

     total energy              =  -14943.92555814 Ry
     estimated scf accuracy    <       0.00002635 Ry

     iteration #185     ecut=    30.00 Ry     beta= 0.70
     Davidson diagonalization with overlap

---- Real-time Memory Report at c_bands before calling an iterative solver
           121 MiB given to the printing process from OS
             0 MiB allocation reported by mallinfo(arena+hblkhd)
         82961 MiB available memory on the node where the printing process lives
------------------
     ethr =  1.03E-09,  avg # of iterations =  3.2

     negative rho (up, down):  1.495E-02 0.000E+00

     total cpu time spent up to now is     6846.2 secs

     total energy              =  -14943.92555400 Ry
     estimated scf accuracy    <       0.00001824 Ry

     iteration #186     ecut=    30.00 Ry     beta= 0.70
     Davidson diagonalization with overlap

---- Real-time Memory Report at c_bands before calling an iterative solver
           121 MiB given to the printing process from OS
             0 MiB allocation reported by mallinfo(arena+hblkhd)
         82960 MiB available memory on the node where the printing process lives
------------------
     ethr =  1.03E-09,  avg # of iterations =  3.0

     negative rho (up, down):  1.495E-02 0.000E+00

     total cpu time spent up to now is     6884.1 secs

     total energy              =  -14943.92565843 Ry
     estimated scf accuracy    <       0.00017954 Ry

     iteration #187     ecut=    30.00 Ry     beta= 0.70
     Davidson diagonalization with overlap

---- Real-time Memory Report at c_bands before calling an iterative solver
           121 MiB given to the printing process from OS
             0 MiB allocation reported by mallinfo(arena+hblkhd)
         82961 MiB available memory on the node where the printing process lives
------------------
     ethr =  1.03E-09,  avg # of iterations =  5.2

     negative rho (up, down):  1.494E-02 0.000E+00

     total cpu time spent up to now is     6924.4 secs

     total energy              =  -14943.92518162 Ry
     estimated scf accuracy    <       0.00207763 Ry

     iteration #188     ecut=    30.00 Ry     beta= 0.70
     Davidson diagonalization with overlap

---- Real-time Memory Report at c_bands before calling an iterative solver
           121 MiB given to the printing process from OS
             0 MiB allocation reported by mallinfo(arena+hblkhd)
         82965 MiB available memory on the node where the printing process lives
------------------
     ethr =  1.03E-09,  avg # of iterations =  5.6

     negative rho (up, down):  1.494E-02 0.000E+00

     total cpu time spent up to now is     6969.2 secs

     total energy              =  -14943.92551833 Ry
     estimated scf accuracy    <       0.00000733 Ry

     iteration #189     ecut=    30.00 Ry     beta= 0.70
     Davidson diagonalization with overlap

---- Real-time Memory Report at c_bands before calling an iterative solver
           121 MiB given to the printing process from OS
             0 MiB allocation reported by mallinfo(arena+hblkhd)
         82961 MiB available memory on the node where the printing process lives
------------------
     ethr =  1.03E-09,  avg # of iterations =  2.0

     negative rho (up, down):  1.493E-02 0.000E+00

     total cpu time spent up to now is     7004.9 secs

     total energy              =  -14943.92551077 Ry
     estimated scf accuracy    <       0.00000966 Ry

     iteration #190     ecut=    30.00 Ry     beta= 0.70
     Davidson diagonalization with overlap

---- Real-time Memory Report at c_bands before calling an iterative solver
           121 MiB given to the printing process from OS
             0 MiB allocation reported by mallinfo(arena+hblkhd)
         82964 MiB available memory on the node where the printing process lives
------------------
     ethr =  1.03E-09,  avg # of iterations =  3.0

     negative rho (up, down):  1.494E-02 0.000E+00

     total cpu time spent up to now is     7042.7 secs

     total energy              =  -14943.92551032 Ry
     estimated scf accuracy    <       0.00005922 Ry

     iteration #191     ecut=    30.00 Ry     beta= 0.70
     Davidson diagonalization with overlap

---- Real-time Memory Report at c_bands before calling an iterative solver
           121 MiB given to the printing process from OS
             0 MiB allocation reported by mallinfo(arena+hblkhd)
         82967 MiB available memory on the node where the printing process lives
------------------
     ethr =  1.03E-09,  avg # of iterations =  2.0

     negative rho (up, down):  1.494E-02 0.000E+00

     total cpu time spent up to now is     7078.7 secs

     total energy              =  -14943.92550576 Ry
     estimated scf accuracy    <       0.00002883 Ry

     iteration #192     ecut=    30.00 Ry     beta= 0.70
     Davidson diagonalization with overlap

---- Real-time Memory Report at c_bands before calling an iterative solver
           121 MiB given to the printing process from OS
             0 MiB allocation reported by mallinfo(arena+hblkhd)
         82966 MiB available memory on the node where the printing process lives
------------------
     ethr =  1.03E-09,  avg # of iterations =  1.0

     negative rho (up, down):  1.494E-02 0.000E+00

     total cpu time spent up to now is     7109.4 secs

     total energy              =  -14943.92550637 Ry
     estimated scf accuracy    <       0.00003295 Ry

     iteration #193     ecut=    30.00 Ry     beta= 0.70
     Davidson diagonalization with overlap

---- Real-time Memory Report at c_bands before calling an iterative solver
           121 MiB given to the printing process from OS
             0 MiB allocation reported by mallinfo(arena+hblkhd)
         82968 MiB available memory on the node where the printing process lives
------------------
     ethr =  1.03E-09,  avg # of iterations =  1.0

     negative rho (up, down):  1.494E-02 0.000E+00

     total cpu time spent up to now is     7140.1 secs

     total energy              =  -14943.92550948 Ry
     estimated scf accuracy    <       0.00003124 Ry

     iteration #194     ecut=    30.00 Ry     beta= 0.70
     Davidson diagonalization with overlap

---- Real-time Memory Report at c_bands before calling an iterative solver
           121 MiB given to the printing process from OS
             0 MiB allocation reported by mallinfo(arena+hblkhd)
         82961 MiB available memory on the node where the printing process lives
------------------
     ethr =  1.03E-09,  avg # of iterations =  1.0

     negative rho (up, down):  1.494E-02 0.000E+00

     total cpu time spent up to now is     7170.9 secs

     total energy              =  -14943.92551020 Ry
     estimated scf accuracy    <       0.00002445 Ry

     iteration #195     ecut=    30.00 Ry     beta= 0.70
     Davidson diagonalization with overlap

---- Real-time Memory Report at c_bands before calling an iterative solver
           121 MiB given to the printing process from OS
             0 MiB allocation reported by mallinfo(arena+hblkhd)
         82964 MiB available memory on the node where the printing process lives
------------------
     ethr =  1.03E-09,  avg # of iterations =  1.0

     negative rho (up, down):  1.494E-02 0.000E+00

     total cpu time spent up to now is     7201.7 secs

     total energy              =  -14943.92550939 Ry
     estimated scf accuracy    <       0.00002229 Ry

     iteration #196     ecut=    30.00 Ry     beta= 0.70
     Davidson diagonalization with overlap

---- Real-time Memory Report at c_bands before calling an iterative solver
           121 MiB given to the printing process from OS
             0 MiB allocation reported by mallinfo(arena+hblkhd)
         82966 MiB available memory on the node where the printing process lives
------------------
     ethr =  1.03E-09,  avg # of iterations =  1.0

     negative rho (up, down):  1.494E-02 0.000E+00

     total cpu time spent up to now is     7232.4 secs

     total energy              =  -14943.92555195 Ry
     estimated scf accuracy    <       0.00002416 Ry

     iteration #197     ecut=    30.00 Ry     beta= 0.70
     Davidson diagonalization with overlap

---- Real-time Memory Report at c_bands before calling an iterative solver
           121 MiB given to the printing process from OS
             0 MiB allocation reported by mallinfo(arena+hblkhd)
         82967 MiB available memory on the node where the printing process lives
------------------
     ethr =  1.03E-09,  avg # of iterations =  3.0

     negative rho (up, down):  1.494E-02 0.000E+00

     total cpu time spent up to now is     7270.5 secs

     total energy              =  -14943.92553086 Ry
     estimated scf accuracy    <       0.00001429 Ry

     iteration #198     ecut=    30.00 Ry     beta= 0.70
     Davidson diagonalization with overlap

---- Real-time Memory Report at c_bands before calling an iterative solver
           121 MiB given to the printing process from OS
             0 MiB allocation reported by mallinfo(arena+hblkhd)
         82967 MiB available memory on the node where the printing process lives
------------------
     ethr =  1.03E-09,  avg # of iterations =  1.0

     negative rho (up, down):  1.494E-02 0.000E+00

     total cpu time spent up to now is     7301.3 secs

     total energy              =  -14943.92553781 Ry
     estimated scf accuracy    <       0.00001775 Ry

     iteration #199     ecut=    30.00 Ry     beta= 0.70
     Davidson diagonalization with overlap

---- Real-time Memory Report at c_bands before calling an iterative solver
           121 MiB given to the printing process from OS
             0 MiB allocation reported by mallinfo(arena+hblkhd)
         82961 MiB available memory on the node where the printing process lives
------------------
     ethr =  1.03E-09,  avg # of iterations =  2.0

     negative rho (up, down):  1.495E-02 0.000E+00

     total cpu time spent up to now is     7337.4 secs

     total energy              =  -14943.92556890 Ry
     estimated scf accuracy    <       0.00004204 Ry

     iteration #200     ecut=    30.00 Ry     beta= 0.70
     Davidson diagonalization with overlap

---- Real-time Memory Report at c_bands before calling an iterative solver
           121 MiB given to the printing process from OS
             0 MiB allocation reported by mallinfo(arena+hblkhd)
         82964 MiB available memory on the node where the printing process lives
------------------
     ethr =  1.03E-09,  avg # of iterations =  3.0

     negative rho (up, down):  1.495E-02 0.000E+00

     total cpu time spent up to now is     7375.0 secs

     total energy              =  -14943.92561249 Ry
     estimated scf accuracy    <       0.00032692 Ry

     End of self-consistent calculation

     convergence NOT achieved after 200 iterations: stopping

     Writing config to output data dir ./tmp/Zn101_2x2x4_relax_ecutrho250_ecutwfc25_ABN.save/ :
     XML data file, charge density

     init_run     :     12.38s CPU     12.51s WALL (       1 calls)
     electrons    :   7285.96s CPU   7362.41s WALL (       1 calls)

     Called by init_run:
     wfcinit      :     11.99s CPU     12.08s WALL (       1 calls)
     wfcinit:atom :      0.02s CPU      0.02s WALL (       5 calls)
     wfcinit:wfcr :     11.82s CPU     11.90s WALL (       5 calls)
     potinit      :      0.10s CPU      0.11s WALL (       1 calls)
     hinit0       :      0.15s CPU      0.16s WALL (       1 calls)

     Called by electrons:
     c_bands      :   6578.74s CPU   6647.99s WALL (     201 calls)
     sum_band     :    665.90s CPU    672.45s WALL (     201 calls)
     v_of_rho     :      4.31s CPU      4.55s WALL (     201 calls)
     v_h          :      0.19s CPU      0.22s WALL (     201 calls)
     v_xc         :      4.12s CPU      4.34s WALL (     201 calls)
     newd         :     23.09s CPU     23.25s WALL (     201 calls)
     PAW_pot      :     13.16s CPU     13.21s WALL (     201 calls)
     mix_rho      :      0.75s CPU      0.79s WALL (     201 calls)

     Called by c_bands:
     init_us_2    :     10.04s CPU     10.11s WALL (    2015 calls)
     cegterg      :   6555.17s CPU   6621.06s WALL (    1005 calls)

     Called by sum_band:
     sum_band:wei :      0.42s CPU      0.42s WALL (     201 calls)
     sum_band:loo :    652.42s CPU    657.98s WALL (     201 calls)
     sum_band:buf :      2.07s CPU      2.09s WALL (    1005 calls)
     sum_band:ini :      5.15s CPU      5.17s WALL (    1005 calls)
     sum_band:cal :    453.33s CPU    457.33s WALL (    1005 calls)
     sum_band:bec :     10.12s CPU     10.15s WALL (    1005 calls)
     addusdens    :     12.02s CPU     12.88s WALL (     201 calls)
                                        0.00s GPU  (     201 calls)
     addusd:skk   :      0.23s CPU      0.23s WALL (     804 calls)
                                        0.00s GPU  (     804 calls)

     Called by *egterg:
     cdiaghg      :    884.29s CPU    905.22s WALL (    3522 calls)
     cegterg:over :    838.59s CPU    844.06s WALL (    2522 calls)
     cegterg:upda :    321.80s CPU    324.35s WALL (    2522 calls)
     cegterg:last :    947.30s CPU    954.84s WALL (    1751 calls)
     cdiaghg:chol :     64.98s CPU     65.15s WALL (    3522 calls)
     cdiaghg:inve :     12.81s CPU     12.85s WALL (    3522 calls)
     cdiaghg:para :    242.32s CPU    248.35s WALL (    7044 calls)
     h_psi        :   2517.72s CPU   2537.43s WALL (    3532 calls)
     s_psi        :    767.35s CPU    769.22s WALL (    3532 calls)
     g_psi        :      1.51s CPU      1.53s WALL (    2522 calls)

     Called by h_psi:
     h_psi:calbec :    958.57s CPU    967.05s WALL (    3532 calls)
     vloc_psi     :    765.04s CPU    770.83s WALL (    3532 calls)
     add_vuspsi   :    791.19s CPU    794.39s WALL (    3532 calls)

     General routines
     calbec       :   1411.89s CPU   1424.37s WALL (    4537 calls)
     fft          :      2.31s CPU      2.69s WALL (    2213 calls)
     ffts         :      0.18s CPU      0.21s WALL (     201 calls)
     fftw         :    894.28s CPU    901.29s WALL ( 2151810 calls)
     davcio       :      0.00s CPU      0.10s WALL (      23 calls)

     Parallel routines

     PAW routines
     PAW_pot      :     13.16s CPU     13.21s WALL (     201 calls)

     PWSCF        :      2h 1m CPU      2h 2m WALL


   This run was terminated on:  12:30:50  17Mar2025            

=------------------------------------------------------------------------------=
   JOB DONE.
=------------------------------------------------------------------------------=
Note: The following floating-point exceptions are signalling: IEEE_DENORMAL
Note: The following floating-point exceptions are signalling: IEEE_DENORMAL
Note: The following floating-point exceptions are signalling: IEEE_DENORMAL
Note: The following floating-point exceptions are signalling: IEEE_DENORMAL
Note: The following floating-point exceptions are signalling: IEEE_DENORMAL
Note: The following floating-point exceptions are signalling: IEEE_DENORMAL
Note: The following floating-point exceptions are signalling: IEEE_DENORMAL
