--------------------------------------------------------------------------
By default, for Open MPI 4.0 and later, infiniband ports on a device
are not used by default.  The intent is to use UCX for these devices.
You can override this policy by setting the btl_openib_allow_ib MCA parameter
to true.

  Local host:              psid09
  Local adapter:           mlx4_0
  Local port:              1

--------------------------------------------------------------------------
--------------------------------------------------------------------------
WARNING: There was an error initializing an OpenFabrics device.

  Local host:   psid09
  Local device: mlx4_0
--------------------------------------------------------------------------

     Program PWSCF v.7.3.1 starts on 21Mar2025 at 13:17:41 

     This program is part of the open-source Quantum ESPRESSO suite
     for quantum simulation of materials; please cite
         "P. Giannozzi et al., J. Phys.:Condens. Matter 21 395502 (2009);
         "P. Giannozzi et al., J. Phys.:Condens. Matter 29 465901 (2017);
         "P. Giannozzi et al., J. Chem. Phys. 152 154105 (2020);
          URL http://www.quantum-espresso.org", 
     in publications or presentations arising from this work. More details at
     http://www.quantum-espresso.org/quote

     Parallel version (MPI), running on    32 processors

     MPI processes distributed on     1 nodes
     124274 MiB available memory on the printing compute node when the environment starts

     Waiting for input...
     Reading input from standard input
Warning: card &CELL ignored
Warning: card   CELL_DOFREE = 'ALL' ignored
Warning: card / ignored

     Current dimensions of program PWSCF are:
     Max number of different atomic species (ntypx) = 10
     Max number of k-points (npk) =  40000
     Max angular momentum in pseudopotentials (lmaxx) =  4
     Message from routine input:
     WARNING: "startingwfc" set to atomic+random may spoil restart
     Message from routine input:
     WARNING: "startingpot" set to atomic may spoil restart
     file O.pbe-n-kjpaw_psl.0.1.UPF: wavefunction(s)  2P renormalized

     R & G space division:  proc/nbgrp/npool/nimage =      32
     Subspace diagonalization in iterative solution of the eigenvalue problem:
     one sub-group per band group will be used
     custom distributed-memory algorithm (size of sub-group:  5*  5 procs)


     Parallelization info
     --------------------
     sticks:   dense  smooth     PW     G-vecs:    dense   smooth      PW
     Min         101     101     26                10531    10531    1466
     Max         102     102     27                10543    10543    1481
     Sum        3241    3241    859               337189   337189   47187

     Using Slab Decomposition



     bravais-lattice index     =            0
     lattice parameter (alat)  =      19.7617  a.u.
     unit-cell volume          =   15176.5939 (a.u.)^3
     number of atoms/cell      =           67
     number of atomic types    =            3
     number of electrons       =      1288.00
     number of Kohn-Sham states=          773
     kinetic-energy cutoff     =      30.0000  Ry
     charge density cutoff     =     120.0000  Ry
     scf convergence threshold =      7.3E-07
     mixing beta               =       0.7000
     number of iterations used =            8  plain     mixing
     energy convergence thresh.=      1.0E-05
     force convergence thresh. =      5.0E-04
     Exchange-correlation= PBE
                           (   1   4   3   4   0   0   0)
     nstep                     =          100


     celldm(1)=  19.761696  celldm(2)=   0.000000  celldm(3)=   0.000000
     celldm(4)=   0.000000  celldm(5)=   0.000000  celldm(6)=   0.000000

     crystal axes: (cart. coord. in units of alat)
               a(1) = (   1.000000   0.000000   0.000000 )  
               a(2) = (  -0.500000   0.866025   0.000000 )  
               a(3) = (   0.000000   0.000000   2.270759 )  

     reciprocal axes: (cart. coord. in units 2 pi/alat)
               b(1) = (  1.000000  0.577350 -0.000000 )  
               b(2) = (  0.000000  1.154701  0.000000 )  
               b(3) = (  0.000000 -0.000000  0.440381 )  


     PseudoPot. # 1 for Zn read from file:
     /home/ys/qepseudo/SSSP_1.3.0_PBE_efficiency/Zn_pbe_v1.uspp.F.UPF
     MD5 check sum: df62231357ef9e81f77b2b3087fa5675
     Pseudo is Ultrasoft, Zval = 20.0
     Generated by new atomic code, or converted to UPF format
     Using radial grid of  943 points,  6 beta functions with: 
                l(1) =   0
                l(2) =   0
                l(3) =   1
                l(4) =   1
                l(5) =   2
                l(6) =   2
     Q(r) pseudized with  8 coefficients,  rinner =    1.100   1.100   1.100
                                                       1.100   1.100

     PseudoPot. # 2 for O  read from file:
     /home/ys/qepseudo/SSSP_1.3.0_PBE_efficiency/O.pbe-n-kjpaw_psl.0.1.UPF
     MD5 check sum: 0234752ac141de4415c5fc33072bef88
     Pseudo is Projector augmented-wave + core cor, Zval =  6.0
     Generated using "atomic" code by A. Dal Corso  v.5.0.99 svn rev. 10869
     Shape of augmentation charge: BESSEL
     Using radial grid of 1095 points,  4 beta functions with: 
                l(1) =   0
                l(2) =   0
                l(3) =   1
                l(4) =   1
     Q(r) pseudized with 0 coefficients 


     PseudoPot. # 3 for H  read from file:
     /home/ys/qepseudo/SSSP_1.3.0_PBE_efficiency/H.pbe-rrkjus_psl.1.0.0.UPF
     MD5 check sum: f52b6d4d1c606e5624b1dc7b2218f220
     Pseudo is Ultrasoft, Zval =  1.0
     Generated using "atomic" code by A. Dal Corso  v.5.1
     Using radial grid of  929 points,  2 beta functions with: 
                l(1) =   0
                l(2) =   0
     Q(r) pseudized with 0 coefficients 


     atomic species   valence    mass     pseudopotential
     Zn               20.00    65.38000     Zn( 1.00)
     O                 6.00    16.00000     O ( 1.00)
     H                 1.00     1.00800     H ( 1.00)

     No symmetry found


                                    s                        frac. trans.

      isym =  1     identity                                     

 cryst.   s( 1) = (     1          0          0      )
                  (     0          1          0      )
                  (     0          0          1      )

 cart.    s( 1) = (  1.0000000  0.0000000  0.0000000 )
                  (  0.0000000  1.0000000  0.0000000 )
                  (  0.0000000  0.0000000  1.0000000 )


   Cartesian axes

     site n.     atom                  positions (alat units)
         1        Zn     tau(   1) = (  -0.0000000   0.1443376   0.1164999  )
         2        Zn     tau(   2) = (   0.5000000   0.1443376   0.1164999  )
         3        Zn     tau(   3) = (   0.0001063   0.1443772   0.5902127  )
         4        Zn     tau(   4) = (   0.4998958   0.1443643   0.5917156  )
         5        Zn     tau(   5) = (  -0.1250000   0.3608439   0.1164999  )
         6        Zn     tau(   6) = (   0.3750000   0.3608439   0.1164999  )
         7        Zn     tau(   7) = (  -0.1249761   0.3609302   0.5908726  )
         8        Zn     tau(   8) = (   0.3749642   0.3608477   0.5913644  )
         9        Zn     tau(   9) = (  -0.2500000   0.5773503   0.1164999  )
        10        Zn     tau(  10) = (   0.2500000   0.5773503   0.1164999  )
        11        Zn     tau(  11) = (  -0.2499911   0.5773738   0.5915504  )
        12        Zn     tau(  12) = (   0.2499824   0.5772583   0.5907382  )
        13        Zn     tau(  13) = (  -0.3750000   0.7938566   0.1164999  )
        14        Zn     tau(  14) = (   0.1250000   0.7938566   0.1164999  )
        15        Zn     tau(  15) = (  -0.3749161   0.7938269   0.5909604  )
        16        Zn     tau(  16) = (   0.1249053   0.7937898   0.5911170  )
        17        Zn     tau(  17) = (   0.2500000   0.1443376   0.1164999  )
        18        Zn     tau(  18) = (   0.7500000   0.1443376   0.1164999  )
        19        Zn     tau(  19) = (   0.2499566   0.1443139   0.5910485  )
        20        Zn     tau(  20) = (   0.7500401   0.1444360   0.5909256  )
        21        Zn     tau(  21) = (   0.1250000   0.3608439   0.1164999  )
        22        Zn     tau(  22) = (   0.6250000   0.3608439   0.1164999  )
        23        Zn     tau(  23) = (   0.1249684   0.3608327   0.5904686  )
        24        Zn     tau(  24) = (   0.6250220   0.3609386   0.5917101  )
        25        Zn     tau(  25) = (  -0.0000000   0.5773503   0.1164999  )
        26        Zn     tau(  26) = (   0.5000000   0.5773503   0.1164999  )
        27        Zn     tau(  27) = (  -0.0000983   0.5773031   0.5910657  )
        28        Zn     tau(  28) = (   0.5000885   0.5773473   0.5912976  )
        29        Zn     tau(  29) = (  -0.1250000   0.7938566   0.1164999  )
        30        Zn     tau(  30) = (   0.3750000   0.7938566   0.1164999  )
        31        Zn     tau(  31) = (  -0.1251014   0.7937984   0.5915674  )
        32        Zn     tau(  32) = (   0.3751324   0.7938157   0.5904624  )
        33        Zn     tau(  33) = (   0.1250000   0.0721688   0.3494996  )
        34        Zn     tau(  34) = (   0.6250000   0.0721688   0.3494996  )
        35        Zn     tau(  35) = (   0.1249555   0.0721735   0.8318150  )
        36        Zn     tau(  36) = (   0.6250994   0.0719565   0.8323343  )
        37        Zn     tau(  37) = (   0.0000000   0.2886751   0.3494996  )
        38        Zn     tau(  38) = (   0.5000000   0.2886751   0.3494996  )
        39        Zn     tau(  39) = (   0.0003125   0.2891089   0.8284535  )
        40        Zn     tau(  40) = (   0.5000628   0.2886357   0.8325242  )
        41        Zn     tau(  41) = (  -0.1250000   0.5051815   0.3494996  )
        42        Zn     tau(  42) = (   0.3750000   0.5051815   0.3494996  )
        43        Zn     tau(  43) = (  -0.1241870   0.5050183   0.8316895  )
        44        Zn     tau(  44) = (   0.3743954   0.5050974   0.8290353  )
        45        Zn     tau(  45) = (  -0.2500000   0.7216878   0.3494996  )
        46        Zn     tau(  46) = (   0.2500000   0.7216878   0.3494996  )
        47        Zn     tau(  47) = (  -0.2498174   0.7215891   0.8322194  )
        48        Zn     tau(  48) = (   0.2496247   0.7208769   0.8298712  )
        49        Zn     tau(  49) = (   0.3750000   0.0721688   0.3494996  )
        50        Zn     tau(  50) = (   0.8750000   0.0721688   0.3494996  )
        51        Zn     tau(  51) = (   0.3750282   0.0719510   0.8325892  )
        52        Zn     tau(  52) = (   0.8750546   0.0720372   0.8319255  )
        53        Zn     tau(  53) = (   0.2500000   0.2886751   0.3494996  )
        54        Zn     tau(  54) = (   0.7500000   0.2886751   0.3494996  )
        55        Zn     tau(  55) = (   0.2497277   0.2890501   0.8286237  )
        56        Zn     tau(  56) = (   0.7501588   0.2886277   0.8322726  )
        57        Zn     tau(  57) = (   0.1250000   0.5051815   0.3494996  )
        58        Zn     tau(  58) = (   0.6250000   0.5051815   0.3494996  )
        59        Zn     tau(  59) = (   0.1250193   0.5047146   0.8577619  )
        60        Zn     tau(  60) = (   0.6251648   0.5052558   0.8326372  )
        61        Zn     tau(  61) = (   0.0000000   0.7216878   0.3494996  )
        62        Zn     tau(  62) = (   0.5000000   0.7216878   0.3494996  )
        63        Zn     tau(  63) = (   0.0004986   0.7208147   0.8319378  )
        64        Zn     tau(  64) = (   0.4999623   0.7216984   0.8319082  )
        65        O      tau(  65) = (   0.1274866   0.4929823   1.1260554  )
        66        H      tau(  66) = (   0.2121477   0.5257963   1.1497612  )
        67        H      tau(  67) = (   0.1325676   0.4012570   1.1453836  )

   Crystallographic axes

     site n.     atom                  positions (cryst. coord.)
         1        Zn     tau(   1) = (  0.0833333  0.1666667  0.0513044  )
         2        Zn     tau(   2) = (  0.5833333  0.1666667  0.0513044  )
         3        Zn     tau(   3) = (  0.0834625  0.1667124  0.2599187  )
         4        Zn     tau(   4) = (  0.5832446  0.1666976  0.2605806  )
         5        Zn     tau(   5) = (  0.0833333  0.4166667  0.0513044  )
         6        Zn     tau(   6) = (  0.5833333  0.4166667  0.0513044  )
         7        Zn     tau(   7) = (  0.0834070  0.4167663  0.2602093  )
         8        Zn     tau(   8) = (  0.5832997  0.4166711  0.2604259  )
         9        Zn     tau(   9) = (  0.0833333  0.6666667  0.0513044  )
        10        Zn     tau(  10) = (  0.5833333  0.6666667  0.0513044  )
        11        Zn     tau(  11) = (  0.0833558  0.6666938  0.2605078  )
        12        Zn     tau(  12) = (  0.5832626  0.6665605  0.2601501  )
        13        Zn     tau(  13) = (  0.0833333  0.9166667  0.0513044  )
        14        Zn     tau(  14) = (  0.5833333  0.9166667  0.0513044  )
        15        Zn     tau(  15) = (  0.0834001  0.9166324  0.2602480  )
        16        Zn     tau(  16) = (  0.5832000  0.9165895  0.2603170  )
        17        Zn     tau(  17) = (  0.3333333  0.1666667  0.0513044  )
        18        Zn     tau(  18) = (  0.8333333  0.1666667  0.0513044  )
        19        Zn     tau(  19) = (  0.3332763  0.1666393  0.2602868  )
        20        Zn     tau(  20) = (  0.8334303  0.1667804  0.2602327  )
        21        Zn     tau(  21) = (  0.3333333  0.4166667  0.0513044  )
        22        Zn     tau(  22) = (  0.8333333  0.4166667  0.0513044  )
        23        Zn     tau(  23) = (  0.3332952  0.4166537  0.2600314  )
        24        Zn     tau(  24) = (  0.8334099  0.4167759  0.2605781  )
        25        Zn     tau(  25) = (  0.3333333  0.6666667  0.0513044  )
        26        Zn     tau(  26) = (  0.8333333  0.6666667  0.0513044  )
        27        Zn     tau(  27) = (  0.3332078  0.6666122  0.2602944  )
        28        Zn     tau(  28) = (  0.8334201  0.6666632  0.2603965  )
        29        Zn     tau(  29) = (  0.3333333  0.9166667  0.0513044  )
        30        Zn     tau(  30) = (  0.8333333  0.9166667  0.0513044  )
        31        Zn     tau(  31) = (  0.3331983  0.9165994  0.2605153  )
        32        Zn     tau(  32) = (  0.8334421  0.9166194  0.2600287  )
        33        Zn     tau(  33) = (  0.1666667  0.0833333  0.1539131  )
        34        Zn     tau(  34) = (  0.6666667  0.0833333  0.1539131  )
        35        Zn     tau(  35) = (  0.1666249  0.0833388  0.3663159  )
        36        Zn     tau(  36) = (  0.6666435  0.0830882  0.3665446  )
        37        Zn     tau(  37) = (  0.1666667  0.3333333  0.1539131  )
        38        Zn     tau(  38) = (  0.6666667  0.3333333  0.1539131  )
        39        Zn     tau(  39) = (  0.1672295  0.3338341  0.3648355  )
        40        Zn     tau(  40) = (  0.6667067  0.3332879  0.3666282  )
        41        Zn     tau(  41) = (  0.1666667  0.5833333  0.1539131  )
        42        Zn     tau(  42) = (  0.6666667  0.5833333  0.1539131  )
        43        Zn     tau(  43) = (  0.1673855  0.5831449  0.3662606  )
        44        Zn     tau(  44) = (  0.6660135  0.5832362  0.3650917  )
        45        Zn     tau(  45) = (  0.1666667  0.8333333  0.1539131  )
        46        Zn     tau(  46) = (  0.6666667  0.8333333  0.1539131  )
        47        Zn     tau(  47) = (  0.1667923  0.8332193  0.3664939  )
        48        Zn     tau(  48) = (  0.6658232  0.8323970  0.3654599  )
        49        Zn     tau(  49) = (  0.4166667  0.0833333  0.1539131  )
        50        Zn     tau(  50) = (  0.9166667  0.0833333  0.1539131  )
        51        Zn     tau(  51) = (  0.4165691  0.0830818  0.3666568  )
        52        Zn     tau(  52) = (  0.9166453  0.0831814  0.3663646  )
        53        Zn     tau(  53) = (  0.4166667  0.3333333  0.1539131  )
        54        Zn     tau(  54) = (  0.9166667  0.3333333  0.1539131  )
        55        Zn     tau(  55) = (  0.4166109  0.3337663  0.3649105  )
        56        Zn     tau(  56) = (  0.9167981  0.3332786  0.3665174  )
        57        Zn     tau(  57) = (  0.4166667  0.5833333  0.1539131  )
        58        Zn     tau(  58) = (  0.9166667  0.5833333  0.1539131  )
        59        Zn     tau(  59) = (  0.4164165  0.5827943  0.3777424  )
        60        Zn     tau(  60) = (  0.9168744  0.5834192  0.3666780  )
        61        Zn     tau(  61) = (  0.4166667  0.8333333  0.1539131  )
        62        Zn     tau(  62) = (  0.9166667  0.8333333  0.1539131  )
        63        Zn     tau(  63) = (  0.4166611  0.8323251  0.3663699  )
        64        Zn     tau(  64) = (  0.9166350  0.8333455  0.3663569  )
        65        O      tau(  65) = (  0.4121101  0.5692470  0.4958939  )
        66        H      tau(  66) = (  0.5157163  0.6071373  0.5063335  )
        67        H      tau(  67) = (  0.3642334  0.4633317  0.5044057  )

     number of k points=     5  Marzari-Vanderbilt smearing, width (Ry)=  0.0200
                       cart. coord. in units 2pi/alat
        k(    1) = (   0.0000000   0.0000000   0.0000000), wk =   0.2222222
        k(    2) = (   0.0000000   0.3849002   0.0000000), wk =   0.4444444
        k(    3) = (   0.3333333   0.1924501   0.0000000), wk =   0.4444444
        k(    4) = (   0.3333333   0.5773503   0.0000000), wk =   0.4444444
        k(    5) = (   0.3333333  -0.1924501   0.0000000), wk =   0.4444444

                       cryst. coord.
        k(    1) = (   0.0000000   0.0000000   0.0000000), wk =   0.2222222
        k(    2) = (   0.0000000   0.3333333   0.0000000), wk =   0.4444444
        k(    3) = (   0.3333333   0.0000000   0.0000000), wk =   0.4444444
        k(    4) = (   0.3333333   0.3333333   0.0000000), wk =   0.4444444
        k(    5) = (   0.3333333  -0.3333333   0.0000000), wk =   0.4444444

     Dense  grid:   337189 G-vectors     FFT dimensions: (  72,  72, 160)

     Dynamical RAM for                 wfc:      15.52 MB

     Dynamical RAM for     wfc (w. buffer):      93.13 MB

     Dynamical RAM for           str. fact:       0.48 MB

     Dynamical RAM for           local pot:       0.00 MB

     Dynamical RAM for          nlocal pot:      23.37 MB

     Dynamical RAM for                qrad:       2.64 MB

     Dynamical RAM for          rho,v,vnew:       1.08 MB

     Dynamical RAM for               rhoin:       0.36 MB

     Dynamical RAM for            rho*nmix:       2.57 MB

     Dynamical RAM for           G-vectors:       0.68 MB

     Dynamical RAM for          h,s,v(r/c):       4.37 MB

     Dynamical RAM for          <psi|beta>:      13.73 MB

     Dynamical RAM for                 psi:      31.04 MB

     Dynamical RAM for                hpsi:      31.04 MB

     Dynamical RAM for                spsi:      31.04 MB

     Dynamical RAM for      wfcinit/wfcrot:      49.73 MB

     Dynamical RAM for           addusdens:      40.19 MB

     Dynamical RAM for          addusforce:      60.78 MB

     Dynamical RAM for         addusstress:      32.31 MB

     Estimated static dynamical RAM per process >     123.38 MB

     Estimated max dynamical RAM per process >     237.19 MB

     Estimated total dynamical RAM >       7.41 GB

     Atomic positions and unit cell read from directory:
     ./tmp/Zn002_optimized_topsite_H2O.save/


     Check: negative core charge=   -0.000010
     Cannot read rho : file not found

     Initial potential from superposition of free atoms

     starting charge    1287.9910, renormalised to    1288.0000

     negative rho (up, down):  6.513E-03 0.000E+00
     Starting wfcs are  838 randomized atomic wfcs
[psid09:155609] 31 more processes have sent help message help-mpi-btl-openib.txt / ib port not selected
[psid09:155609] Set MCA parameter "orte_base_help_aggregate" to 0 to see all help / error messages
[psid09:155609] 31 more processes have sent help message help-mpi-btl-openib.txt / error in device init
     Checking if some PAW data can be deallocated... 
       PAW data deallocated on   31 nodes for type:  2

     total cpu time spent up to now is       64.7 secs

     Self-consistent Calculation

     iteration #  1     ecut=    30.00 Ry     beta= 0.70
     Davidson diagonalization with overlap

---- Real-time Memory Report at c_bands before calling an iterative solver
           202 MiB given to the printing process from OS
             0 MiB allocation reported by mallinfo(arena+hblkhd)
        119917 MiB available memory on the node where the printing process lives
------------------
     ethr =  1.00E-05,  avg # of iterations = 11.6

     negative rho (up, down):  1.020E-02 0.000E+00

     total cpu time spent up to now is      721.5 secs

     total energy              =  -29577.87822364 Ry
     estimated scf accuracy    <       3.28052651 Ry

     iteration #  2     ecut=    30.00 Ry     beta= 0.70
     Davidson diagonalization with overlap

---- Real-time Memory Report at c_bands before calling an iterative solver
           276 MiB given to the printing process from OS
             0 MiB allocation reported by mallinfo(arena+hblkhd)
        118448 MiB available memory on the node where the printing process lives
------------------
     ethr =  2.55E-04,  avg # of iterations =  4.4

     negative rho (up, down):  1.075E-02 0.000E+00

     total cpu time spent up to now is     1059.4 secs

     total energy              =  -29578.54927445 Ry
     estimated scf accuracy    <       5.43775391 Ry

     iteration #  3     ecut=    30.00 Ry     beta= 0.70
     Davidson diagonalization with overlap

---- Real-time Memory Report at c_bands before calling an iterative solver
           280 MiB given to the printing process from OS
             0 MiB allocation reported by mallinfo(arena+hblkhd)
        118341 MiB available memory on the node where the printing process lives
------------------
     ethr =  2.55E-04,  avg # of iterations =  7.6

     negative rho (up, down):  1.079E-02 0.000E+00

     total cpu time spent up to now is     1363.4 secs

     total energy              =  -29579.31679274 Ry
     estimated scf accuracy    <       2.22245930 Ry

     iteration #  4     ecut=    30.00 Ry     beta= 0.70
     Davidson diagonalization with overlap

---- Real-time Memory Report at c_bands before calling an iterative solver
           281 MiB given to the printing process from OS
             0 MiB allocation reported by mallinfo(arena+hblkhd)
        118325 MiB available memory on the node where the printing process lives
------------------
     ethr =  1.73E-04,  avg # of iterations =  5.0

     negative rho (up, down):  1.142E-02 0.000E+00

     total cpu time spent up to now is     1599.4 secs

     total energy              =  -29579.47378832 Ry
     estimated scf accuracy    <       1.02981502 Ry

     iteration #  5     ecut=    30.00 Ry     beta= 0.70
     Davidson diagonalization with overlap

---- Real-time Memory Report at c_bands before calling an iterative solver
           281 MiB given to the printing process from OS
             0 MiB allocation reported by mallinfo(arena+hblkhd)
        118310 MiB available memory on the node where the printing process lives
------------------
     ethr =  8.00E-05,  avg # of iterations =  7.0

     negative rho (up, down):  1.247E-02 0.000E+00

     total cpu time spent up to now is     1847.0 secs

     total energy              =  -29579.48545406 Ry
     estimated scf accuracy    <       1.08577124 Ry

     iteration #  6     ecut=    30.00 Ry     beta= 0.70
     Davidson diagonalization with overlap

---- Real-time Memory Report at c_bands before calling an iterative solver
           282 MiB given to the printing process from OS
             0 MiB allocation reported by mallinfo(arena+hblkhd)
        118291 MiB available memory on the node where the printing process lives
------------------
     ethr =  8.00E-05,  avg # of iterations =  2.8

     negative rho (up, down):  1.275E-02 0.000E+00

     total cpu time spent up to now is     2068.9 secs

     total energy              =  -29579.57665985 Ry
     estimated scf accuracy    <       0.02849542 Ry

     iteration #  7     ecut=    30.00 Ry     beta= 0.70
     Davidson diagonalization with overlap

---- Real-time Memory Report at c_bands before calling an iterative solver
           282 MiB given to the printing process from OS
             0 MiB allocation reported by mallinfo(arena+hblkhd)
        118275 MiB available memory on the node where the printing process lives
------------------
     c_bands:  1 eigenvalues not converged
     ethr =  2.21E-06,  avg # of iterations = 15.8

     negative rho (up, down):  1.289E-02 0.000E+00

     total cpu time spent up to now is     2355.7 secs

     total energy              =  -29579.58056901 Ry
     estimated scf accuracy    <       0.00369044 Ry

     iteration #  8     ecut=    30.00 Ry     beta= 0.70
     Davidson diagonalization with overlap

---- Real-time Memory Report at c_bands before calling an iterative solver
           283 MiB given to the printing process from OS
             0 MiB allocation reported by mallinfo(arena+hblkhd)
        118259 MiB available memory on the node where the printing process lives
------------------
     ethr =  2.87E-07,  avg # of iterations =  2.2

     negative rho (up, down):  1.304E-02 0.000E+00

     total cpu time spent up to now is     2575.1 secs

     total energy              =  -29579.58120814 Ry
     estimated scf accuracy    <       0.00093618 Ry

     iteration #  9     ecut=    30.00 Ry     beta= 0.70
     Davidson diagonalization with overlap

---- Real-time Memory Report at c_bands before calling an iterative solver
           283 MiB given to the printing process from OS
             0 MiB allocation reported by mallinfo(arena+hblkhd)
        118242 MiB available memory on the node where the printing process lives
------------------
     ethr =  7.27E-08,  avg # of iterations =  2.2

     negative rho (up, down):  1.308E-02 0.000E+00

     total cpu time spent up to now is     2797.3 secs

     total energy              =  -29579.58130684 Ry
     estimated scf accuracy    <       0.00033367 Ry

     iteration # 10     ecut=    30.00 Ry     beta= 0.70
     Davidson diagonalization with overlap

---- Real-time Memory Report at c_bands before calling an iterative solver
           284 MiB given to the printing process from OS
             0 MiB allocation reported by mallinfo(arena+hblkhd)
        118226 MiB available memory on the node where the printing process lives
------------------
     ethr =  2.59E-08,  avg # of iterations =  2.0

     negative rho (up, down):  1.313E-02 0.000E+00

     total cpu time spent up to now is     3011.6 secs

     total energy              =  -29579.58135569 Ry
     estimated scf accuracy    <       0.00002852 Ry

     iteration # 11     ecut=    30.00 Ry     beta= 0.70
     Davidson diagonalization with overlap

---- Real-time Memory Report at c_bands before calling an iterative solver
           284 MiB given to the printing process from OS
             0 MiB allocation reported by mallinfo(arena+hblkhd)
        118210 MiB available memory on the node where the printing process lives
------------------
     ethr =  2.21E-09,  avg # of iterations =  2.0

     negative rho (up, down):  1.314E-02 0.000E+00

     total cpu time spent up to now is     3267.1 secs

     total energy              =  -29579.58136080 Ry
     estimated scf accuracy    <       0.00001404 Ry

     iteration # 12     ecut=    30.00 Ry     beta= 0.70
     Davidson diagonalization with overlap

---- Real-time Memory Report at c_bands before calling an iterative solver
           284 MiB given to the printing process from OS
             0 MiB allocation reported by mallinfo(arena+hblkhd)
        118209 MiB available memory on the node where the printing process lives
------------------
     ethr =  1.09E-09,  avg # of iterations =  2.0

     negative rho (up, down):  1.314E-02 0.000E+00

     total cpu time spent up to now is     3491.8 secs

     total energy              =  -29579.58136317 Ry
     estimated scf accuracy    <       0.00000087 Ry

     iteration # 13     ecut=    30.00 Ry     beta= 0.70
     Davidson diagonalization with overlap

---- Real-time Memory Report at c_bands before calling an iterative solver
           284 MiB given to the printing process from OS
             0 MiB allocation reported by mallinfo(arena+hblkhd)
        118208 MiB available memory on the node where the printing process lives
------------------
     ethr =  6.78E-11,  avg # of iterations =  2.0

     negative rho (up, down):  1.315E-02 0.000E+00

     total cpu time spent up to now is     3748.2 secs

     End of self-consistent calculation

          k = 0.0000 0.0000 0.0000 ( 42115 PWs)   bands (ev):

  -123.1393-123.1373-123.1365-123.1359-123.1352-123.1349-123.1345-123.1340
  -123.1339-123.1336-123.1335-123.1333-123.1326-123.1306-123.1297-123.1279
  -123.0922-123.0911-123.0903-123.0888-123.0870-123.0862-123.0841-123.0827
  -123.0819-123.0813-123.0812-123.0805-123.0801-123.0604-123.0561-123.0462
  -122.9430-122.9399-122.9397-122.9394-122.9394-122.9393-122.9392-122.9388
  -122.9387-122.9384-122.9383-122.9381-122.9380-122.9377-122.9372-122.9369
  -122.9141-122.9128-122.9103-122.9055-122.9016-122.9002-122.8981-122.8967
  -122.8959-122.8950-122.8947-122.8945-122.8942-122.8919-122.8911-122.7904
   -77.2471 -77.2467 -77.2465 -77.2381 -77.2380 -77.2373 -77.2367 -77.2363
   -77.2361 -77.2253 -77.2242 -77.2232 -77.2221 -77.2217 -77.2214 -77.2207
   -77.2206 -77.2205 -77.2204 -77.2202 -77.2198 -77.2191 -77.2167 -77.2160
   -77.2153 -77.2152 -77.2150 -77.2145 -77.2143 -77.2140 -77.2134 -77.2124
   -77.2119 -77.2116 -77.2111 -77.2107 -77.2101 -77.2100 -77.2097 -77.2077
   -77.2074 -77.2071 -77.2064 -77.2061 -77.2056 -77.2045 -77.2035 -77.2033
   -77.1975 -77.1958 -77.1947 -77.1883 -77.1875 -77.1863 -77.1840 -77.1821
   -77.1800 -77.1782 -77.1772 -77.1768 -77.1751 -77.1734 -77.1722 -77.1705
   -77.1690 -77.1683 -77.1680 -77.1677 -77.1671 -77.1670 -77.1669 -77.1663
   -77.1652 -77.1647 -77.1636 -77.1635 -77.1626 -77.1612 -77.1607 -77.1589
   -77.1588 -77.1571 -77.1561 -77.1561 -77.1553 -77.1548 -77.1539 -77.1473
   -77.1456 -77.1431 -77.1421 -77.1374 -77.1333 -77.1331 -77.1262 -77.1242
   -77.0490 -77.0483 -77.0482 -77.0396 -77.0394 -77.0392 -77.0388 -77.0387
   -77.0385 -77.0355 -77.0338 -77.0337 -77.0336 -77.0334 -77.0331 -77.0331
   -77.0329 -77.0329 -77.0327 -77.0323 -77.0321 -77.0319 -77.0318 -77.0310
   -77.0307 -77.0162 -77.0161 -77.0159 -77.0159 -77.0158 -77.0156 -77.0143
   -77.0133 -77.0129 -77.0129 -77.0127 -77.0125 -77.0122 -77.0115 -77.0115
   -77.0086 -77.0085 -77.0085 -77.0083 -77.0083 -77.0080 -77.0080 -77.0076
   -77.0075 -77.0074 -77.0073 -77.0070 -77.0066 -77.0043 -77.0039 -77.0010
   -76.9998 -76.9983 -76.9974 -76.9967 -76.9958 -76.9951 -76.9936 -76.9932
   -76.9921 -76.9912 -76.9908 -76.9905 -76.9903 -76.9901 -76.9864 -76.9858
   -76.9838 -76.9817 -76.9801 -76.9786 -76.9776 -76.9760 -76.9752 -76.9732
   -76.9720 -76.9705 -76.9696 -76.9696 -76.9692 -76.9674 -76.9668 -76.9660
   -76.9652 -76.9647 -76.9644 -76.9640 -76.9619 -76.8852 -76.8755 -76.8748
   -18.3682  -6.5815  -5.9866  -5.7881  -5.1036  -5.0169  -5.0088  -5.0069
    -5.0053  -5.0025  -5.0022  -4.9873  -4.8565  -4.8564  -4.8564  -4.7955
    -4.7952  -4.7931  -4.6757  -4.6751  -4.6728  -4.6721  -4.6718  -4.6702
    -4.6681  -4.6680  -4.6517  -4.5881  -4.5794  -4.5790  -4.5273  -4.5268
    -4.5265  -4.5257  -4.5250  -4.5223  -4.4971  -4.4948  -4.4948  -4.4482
    -4.4473  -4.4464  -4.4460  -4.4456  -4.4452  -4.4434  -4.4431  -4.4419
    -4.4294  -4.4289  -4.4234  -4.4228  -4.4227  -4.4081  -4.4006  -4.3997
    -4.3985  -4.3970  -4.3958  -4.3929  -4.3535  -4.3527  -4.3514  -4.3477
    -4.3467  -4.3453  -4.2931  -4.2634  -4.2616  -4.2612  -4.2607  -4.2600
    -4.2595  -4.2590  -4.2583  -4.2575  -4.2571  -4.2565  -4.2457  -4.2184
    -4.2179  -4.2172  -4.2163  -4.2156  -4.2121  -4.2113  -4.2107  -4.2094
    -4.2072  -4.2067  -4.2066  -4.2058  -4.1935  -4.1924  -4.1687  -4.1681
    -4.1634  -4.1631  -4.1533  -4.1515  -4.1253  -4.1216  -4.1205  -4.1181
    -4.1136  -4.1122  -4.0938  -4.0938  -4.0824  -4.0815  -4.0751  -4.0700
    -4.0695  -4.0684  -4.0679  -4.0676  -4.0657  -4.0644  -4.0607  -4.0593
    -4.0580  -4.0576  -4.0569  -4.0436  -4.0333  -4.0333  -4.0067  -4.0056
    -4.0049  -4.0028  -3.9951  -3.9947  -3.9906  -3.9903  -3.9896  -3.9867
    -3.9865  -3.9825  -3.9497  -3.9495  -3.9492  -3.9465  -3.9462  -3.9419
    -3.9186  -3.9178  -3.9140  -3.9137  -3.9135  -3.8993  -3.8917  -3.8917
    -3.8525  -3.8518  -3.8483  -3.8481  -3.8476  -3.8471  -3.8381  -3.8377
    -3.8164  -3.8157  -3.8156  -3.8153  -3.8073  -3.8056  -3.8034  -3.8024
    -3.8011  -3.7803  -3.7797  -3.7785  -3.7762  -3.7727  -3.7716  -3.7609
    -3.7590  -3.7555  -3.7545  -3.7543  -3.7542  -3.7540  -3.7539  -3.7539
    -3.7443  -3.7425  -3.7418  -3.7326  -3.7323  -3.7317  -3.7316  -3.7307
    -3.7304  -3.7301  -3.7292  -3.7289  -3.7256  -3.7241  -3.7218  -3.7152
    -3.7134  -3.7128  -3.7074  -3.7059  -3.7056  -3.7013  -3.7011  -3.7003
    -3.6996  -3.6991  -3.6987  -3.6962  -3.6958  -3.6776  -3.6553  -3.6525
    -3.6522  -3.6468  -3.6467  -3.6460  -3.6402  -3.6400  -3.6380  -3.6342
    -3.6340  -3.6323  -3.6316  -3.6243  -3.6235  -3.6028  -3.6027  -3.5871
    -3.5839  -3.5837  -3.5831  -3.5828  -3.5821  -3.5782  -3.5776  -3.5752
    -3.5727  -3.5717  -3.5707  -3.5681  -3.5680  -3.5666  -3.5664  -3.5615
    -3.5615  -3.5545  -3.5544  -3.5516  -3.5514  -3.5293  -3.5285  -3.4965
    -3.4964  -3.4930  -3.4927  -3.4924  -3.4747  -3.4745  -3.4742  -3.4739
    -3.4737  -3.4735  -3.4633  -3.4600  -3.4599  -3.4460  -3.4457  -3.4403
    -3.4384  -3.4382  -3.4350  -3.4324  -3.4227  -3.4222  -3.4184  -3.4165
    -3.4160  -3.4134  -3.4114  -3.4108  -3.4096  -3.4094  -3.4080  -3.3945
    -3.3944  -3.3943  -3.3941  -3.3922  -3.3922  -3.3646  -3.3638  -3.3629
    -3.3628  -3.3612  -3.3594  -3.3591  -3.3558  -3.3552  -3.3515  -3.3515
    -3.3171  -3.3170  -3.2956  -3.2956  -3.2952  -3.2951  -3.2950  -3.2949
    -3.2790  -3.2693  -3.2685  -3.2680  -3.2650  -3.2641  -3.2607  -3.2604
    -3.2604  -3.2066  -3.2061  -3.2033  -3.1324  -3.0620  -3.0616  -3.0615
    -3.0229  -3.0177  -3.0167  -2.9981  -2.9974  -2.9957  -2.9894  -2.9863
    -2.9845  -2.4446  -1.6215  -1.5844  -1.5827  -1.5811  -1.5782  -1.5691
    -1.1514  -0.4384  -0.1223  -0.1212  -0.1202  -0.1111  -0.1103  -0.0937
     0.3012   0.3048   0.3101   0.3131   0.3150   0.3827   0.7159   0.7173
     0.7230   0.7418   0.7447   0.7702   1.0669   1.1858   1.1861   1.1902
     1.7446   1.7456   1.7629   2.0870   2.0995   2.1005   2.1446   2.1454
     2.1458   2.1484   2.1535   2.1578   2.3516   2.3586   2.3616   3.3195
     3.3287   3.3408   3.3446   3.3455   3.4062   3.8216   3.8227   3.8444
     3.8452   3.8464   3.8523   3.9946   4.4267   4.4294   4.4473   4.7140
     4.7149   4.7280   5.5393   5.5407   5.5497   5.7357   5.8410   5.8584
     5.8717   5.8753   5.9032   6.0453   6.4484   6.4506   6.4592   6.8341
     6.8990   7.1789   7.1826   7.1982   7.2086   7.2113   7.2612   7.4376
     7.4397   7.4410   7.4499   7.4503   7.4543   7.5550   7.6021   7.6048
     7.6072   7.6087   7.6192   7.6204   7.6234   7.9141   8.0000   8.0176
     8.0546   8.3294   8.3311   8.3378   8.3381   8.3399   8.3422   8.3702
     8.3753   8.4007   8.4069   8.4078   8.4130   8.4372   8.4384   8.4546
     8.4834   8.5790   8.5861   8.6570   8.6841   8.6978   8.7089   8.7273
     8.7397   8.7989   8.8196   8.8517   8.8766   8.9045   9.3573   9.4012
     9.4269   9.4433   9.4547   9.4617   9.8260   9.8408   9.8442   9.8546
     9.8601   9.8625   9.8942   9.8954   9.9173   9.9196   9.9253   9.9290
     9.9784   9.9973  10.0119  10.1112  10.1242  10.3831  10.4503  10.4571
    10.4659  10.4912  10.4935  10.5861  10.6277  10.6420  10.6643  10.8891
    11.0948  11.1259  11.1775  11.1888  11.2855  11.2881  11.2886  11.2931
    11.2970  11.3010  11.3507  11.4340  11.4623

     occupation numbers 
     1.0000   1.0000   1.0000   1.0000   1.0000   1.0000   1.0000   1.0000
     1.0000   1.0000   1.0000   1.0000   1.0000   1.0000   1.0000   1.0000
     1.0000   1.0000   1.0000   1.0000   1.0000   1.0000   1.0000   1.0000
     1.0000   1.0000   1.0000   1.0000   1.0000   1.0000   1.0000   1.0000
     1.0000   1.0000   1.0000   1.0000   1.0000   1.0000   1.0000   1.0000
     1.0000   1.0000   1.0000   1.0000   1.0000   1.0000   1.0000   1.0000
     1.0000   1.0000   1.0000   1.0000   1.0000   1.0000   1.0000   1.0000
     1.0000   1.0000   1.0000   1.0000   1.0000   1.0000   1.0000   1.0000
     1.0000   1.0000   1.0000   1.0000   1.0000   1.0000   1.0000   1.0000
     1.0000   1.0000   1.0000   1.0000   1.0000   1.0000   1.0000   1.0000
     1.0000   1.0000   1.0000   1.0000   1.0000   1.0000   1.0000   1.0000
     1.0000   1.0000   1.0000   1.0000   1.0000   1.0000   1.0000   1.0000
     1.0000   1.0000   1.0000   1.0000   1.0000   1.0000   1.0000   1.0000
     1.0000   1.0000   1.0000   1.0000   1.0000   1.0000   1.0000   1.0000
     1.0000   1.0000   1.0000   1.0000   1.0000   1.0000   1.0000   1.0000
     1.0000   1.0000   1.0000   1.0000   1.0000   1.0000   1.0000   1.0000
     1.0000   1.0000   1.0000   1.0000   1.0000   1.0000   1.0000   1.0000
     1.0000   1.0000   1.0000   1.0000   1.0000   1.0000   1.0000   1.0000
     1.0000   1.0000   1.0000   1.0000   1.0000   1.0000   1.0000   1.0000
     1.0000   1.0000   1.0000   1.0000   1.0000   1.0000   1.0000   1.0000
     1.0000   1.0000   1.0000   1.0000   1.0000   1.0000   1.0000   1.0000
     1.0000   1.0000   1.0000   1.0000   1.0000   1.0000   1.0000   1.0000
     1.0000   1.0000   1.0000   1.0000   1.0000   1.0000   1.0000   1.0000
     1.0000   1.0000   1.0000   1.0000   1.0000   1.0000   1.0000   1.0000
     1.0000   1.0000   1.0000   1.0000   1.0000   1.0000   1.0000   1.0000
     1.0000   1.0000   1.0000   1.0000   1.0000   1.0000   1.0000   1.0000
     1.0000   1.0000   1.0000   1.0000   1.0000   1.0000   1.0000   1.0000
     1.0000   1.0000   1.0000   1.0000   1.0000   1.0000   1.0000   1.0000
     1.0000   1.0000   1.0000   1.0000   1.0000   1.0000   1.0000   1.0000
     1.0000   1.0000   1.0000   1.0000   1.0000   1.0000   1.0000   1.0000
     1.0000   1.0000   1.0000   1.0000   1.0000   1.0000   1.0000   1.0000
     1.0000   1.0000   1.0000   1.0000   1.0000   1.0000   1.0000   1.0000
     1.0000   1.0000   1.0000   1.0000   1.0000   1.0000   1.0000   1.0000
     1.0000   1.0000   1.0000   1.0000   1.0000   1.0000   1.0000   1.0000
     1.0000   1.0000   1.0000   1.0000   1.0000   1.0000   1.0000   1.0000
     1.0000   1.0000   1.0000   1.0000   1.0000   1.0000   1.0000   1.0000
     1.0000   1.0000   1.0000   1.0000   1.0000   1.0000   1.0000   1.0000
     1.0000   1.0000   1.0000   1.0000   1.0000   1.0000   1.0000   1.0000
     1.0000   1.0000   1.0000   1.0000   1.0000   1.0000   1.0000   1.0000
     1.0000   1.0000   1.0000   1.0000   1.0000   1.0000   1.0000   1.0000
     1.0000   1.0000   1.0000   1.0000   1.0000   1.0000   1.0000   1.0000
     1.0000   1.0000   1.0000   1.0000   1.0000   1.0000   1.0000   1.0000
     1.0000   1.0000   1.0000   1.0000   1.0000   1.0000   1.0000   1.0000
     1.0000   1.0000   1.0000   1.0000   1.0000   1.0000   1.0000   1.0000
     1.0000   1.0000   1.0000   1.0000   1.0000   1.0000   1.0000   1.0000
     1.0000   1.0000   1.0000   1.0000   1.0000   1.0000   1.0000   1.0000
     1.0000   1.0000   1.0000   1.0000   1.0000   1.0000   1.0000   1.0000
     1.0000   1.0000   1.0000   1.0000   1.0000   1.0000   1.0000   1.0000
     1.0000   1.0000   1.0000   1.0000   1.0000   1.0000   1.0000   1.0000
     1.0000   1.0000   1.0000   1.0000   1.0000   1.0000   1.0000   1.0000
     1.0000   1.0000   1.0000   1.0000   1.0000   1.0000   1.0000   1.0000
     1.0000   1.0000   1.0000   1.0000   1.0000   1.0000   1.0000   1.0000
     1.0000   1.0000   1.0000   1.0000   1.0000   1.0000   1.0000   1.0000
     1.0000   1.0000   1.0000   1.0000   1.0000   1.0000   1.0000   1.0000
     1.0000   1.0000   1.0000   1.0000   1.0000   1.0000   1.0000   1.0000
     1.0000   1.0000   1.0000   1.0000   1.0000   1.0000   1.0000   1.0000
     1.0000   1.0000   1.0000   1.0000   1.0000   1.0000   1.0000   1.0000
     1.0000   1.0000   1.0000   1.0000   1.0000   1.0000   1.0000   1.0000
     1.0000   1.0000   1.0000   1.0000   1.0000   1.0000   1.0000   1.0000
     1.0000   1.0000   1.0000   1.0000   1.0000   1.0000   1.0000   1.0000
     1.0000   1.0000   1.0000   1.0000   1.0000   1.0000   1.0000   1.0000
     1.0000   1.0000   1.0000   1.0000   1.0000   1.0000   1.0000   1.0000
     1.0000   1.0000   1.0000   1.0000   1.0000   1.0000   1.0000   1.0000
     1.0000   1.0000   1.0000   1.0000   1.0000   1.0000   1.0000   1.0000
     1.0000   1.0000   1.0000   1.0000   1.0000   1.0000   1.0000   1.0000
     1.0000   1.0000   1.0000   1.0000   1.0000   1.0000   1.0000   1.0000
     1.0000   1.0000   1.0000   1.0000   1.0000   1.0000   1.0000   1.0000
     1.0000   1.0000   1.0000   1.0000   1.0000   1.0000   1.0000   1.0000
     1.0000   1.0000   1.0000   1.0000   1.0000   1.0000   1.0000   1.0000
     1.0000   1.0000   1.0000   1.0000   1.0000   1.0000   1.0000   1.0000
     1.0000   1.0000   1.0000   1.0000   1.0000   1.0000   1.0000   1.0000
     1.0000   1.0000   1.0000   1.0000   1.0000   1.0000   1.0000   1.0000
     1.0000   1.0000   1.0000   1.0000   1.0000   1.0000   1.0000   1.0000
     1.0000   1.0000   1.0000   1.0000   1.0000   1.0000   1.0000   1.0000
     1.0000   1.0000   1.0000   1.0000   1.0000   1.0000   1.0000   1.0000
     1.0000   1.0000   1.0000   1.0000   1.0000   1.0000   1.0000   1.0000
     1.0000   1.0000   1.0000   1.0000   1.0000   1.0000   1.0000   1.0000
     1.0000   1.0000   1.0000   1.0000   1.0000   1.0000   1.0000   1.0000
     1.0000   1.0000   1.0000   1.0000   1.0000   1.0000   1.0000   1.0000
     1.0000   1.0000   1.0000   1.0000   1.0000   1.0000   1.0000   1.0306
     1.0332   1.0368   1.0380   1.0383   1.0587   0.6088   0.6057   0.5457
     0.5434   0.5403   0.5240   0.1974   0.0005   0.0004   0.0003   0.0000
     0.0000   0.0000   0.0000   0.0000   0.0000   0.0000   0.0000   0.0000
     0.0000   0.0000   0.0000   0.0000   0.0000   0.0000   0.0000   0.0000
     0.0000   0.0000   0.0000   0.0000   0.0000   0.0000   0.0000   0.0000
     0.0000   0.0000   0.0000   0.0000   0.0000   0.0000   0.0000   0.0000
     0.0000   0.0000   0.0000   0.0000   0.0000   0.0000   0.0000   0.0000
     0.0000   0.0000   0.0000   0.0000   0.0000   0.0000   0.0000   0.0000
     0.0000   0.0000   0.0000   0.0000   0.0000   0.0000   0.0000   0.0000
     0.0000   0.0000   0.0000   0.0000   0.0000   0.0000   0.0000   0.0000
     0.0000   0.0000   0.0000   0.0000   0.0000   0.0000   0.0000   0.0000
     0.0000   0.0000   0.0000   0.0000   0.0000   0.0000   0.0000   0.0000
     0.0000   0.0000   0.0000   0.0000   0.0000   0.0000   0.0000   0.0000
     0.0000   0.0000   0.0000   0.0000   0.0000   0.0000   0.0000   0.0000
     0.0000   0.0000   0.0000   0.0000   0.0000   0.0000   0.0000   0.0000
     0.0000   0.0000   0.0000   0.0000   0.0000   0.0000   0.0000   0.0000
     0.0000   0.0000   0.0000   0.0000   0.0000

          k = 0.0000 0.3849 0.0000 ( 42150 PWs)   bands (ev):

  -123.1385-123.1375-123.1366-123.1359-123.1354-123.1351-123.1345-123.1343
  -123.1340-123.1339-123.1337-123.1337-123.1329-123.1307-123.1300-123.1281
  -123.0919-123.0912-123.0907-123.0889-123.0871-123.0863-123.0843-123.0827
  -123.0820-123.0816-123.0815-123.0808-123.0804-123.0606-123.0563-123.0464
  -122.9417-122.9402-122.9399-122.9397-122.9395-122.9394-122.9393-122.9392
  -122.9389-122.9387-122.9387-122.9384-122.9383-122.9381-122.9375-122.9372
  -122.9141-122.9130-122.9105-122.9056-122.9015-122.9004-122.8981-122.8969
  -122.8959-122.8953-122.8949-122.8947-122.8947-122.8921-122.8913-122.7906
   -77.2459 -77.2457 -77.2422 -77.2393 -77.2385 -77.2382 -77.2378 -77.2317
   -77.2315 -77.2267 -77.2257 -77.2243 -77.2240 -77.2234 -77.2232 -77.2228
   -77.2221 -77.2220 -77.2212 -77.2211 -77.2209 -77.2206 -77.2202 -77.2198
   -77.2196 -77.2193 -77.2190 -77.2176 -77.2173 -77.2169 -77.2156 -77.2141
   -77.2137 -77.2135 -77.2116 -77.2113 -77.2099 -77.2093 -77.2072 -77.2065
   -77.2061 -77.2052 -77.2050 -77.2036 -77.2034 -77.2027 -77.2010 -77.2008
   -77.1959 -77.1946 -77.1919 -77.1889 -77.1871 -77.1865 -77.1840 -77.1803
   -77.1790 -77.1786 -77.1779 -77.1767 -77.1754 -77.1744 -77.1738 -77.1726
   -77.1719 -77.1709 -77.1703 -77.1693 -77.1690 -77.1688 -77.1682 -77.1678
   -77.1677 -77.1666 -77.1664 -77.1660 -77.1652 -77.1623 -77.1611 -77.1600
   -77.1590 -77.1576 -77.1557 -77.1544 -77.1537 -77.1524 -77.1519 -77.1475
   -77.1462 -77.1432 -77.1417 -77.1384 -77.1337 -77.1333 -77.1259 -77.1236
   -77.0477 -77.0472 -77.0438 -77.0413 -77.0406 -77.0400 -77.0398 -77.0360
   -77.0355 -77.0354 -77.0343 -77.0341 -77.0335 -77.0335 -77.0334 -77.0333
   -77.0331 -77.0329 -77.0324 -77.0323 -77.0320 -77.0317 -77.0310 -77.0307
   -77.0300 -77.0287 -77.0253 -77.0250 -77.0230 -77.0229 -77.0191 -77.0188
   -77.0149 -77.0148 -77.0138 -77.0138 -77.0127 -77.0111 -77.0108 -77.0086
   -77.0081 -77.0078 -77.0077 -77.0074 -77.0071 -77.0070 -77.0068 -77.0062
   -77.0056 -77.0053 -77.0051 -77.0043 -77.0041 -77.0039 -77.0027 -77.0013
   -77.0000 -76.9992 -76.9971 -76.9964 -76.9959 -76.9938 -76.9934 -76.9925
   -76.9916 -76.9915 -76.9911 -76.9907 -76.9903 -76.9893 -76.9890 -76.9865
   -76.9863 -76.9856 -76.9845 -76.9834 -76.9821 -76.9805 -76.9787 -76.9752
   -76.9748 -76.9722 -76.9712 -76.9702 -76.9689 -76.9674 -76.9654 -76.9648
   -76.9645 -76.9636 -76.9622 -76.9616 -76.9605 -76.8854 -76.8762 -76.8753
   -18.3682  -6.3694  -5.9875  -5.7636  -5.5909  -5.2291  -5.2200  -5.0684
    -4.9695  -4.9006  -4.8264  -4.7881  -4.7881  -4.7787  -4.7622  -4.7252
    -4.7238  -4.7081  -4.7075  -4.7000  -4.6936  -4.6843  -4.6827  -4.6368
    -4.6165  -4.6152  -4.6127  -4.5884  -4.5882  -4.5811  -4.5778  -4.5595
    -4.5501  -4.5355  -4.5338  -4.5191  -4.5145  -4.5123  -4.5098  -4.4996
    -4.4994  -4.4838  -4.4822  -4.4756  -4.4668  -4.4664  -4.4647  -4.4634
    -4.4616  -4.4490  -4.4472  -4.4270  -4.4250  -4.4164  -4.4125  -4.4122
    -4.4050  -4.3947  -4.3914  -4.3905  -4.3855  -4.3840  -4.3805  -4.3741
    -4.3690  -4.3525  -4.3524  -4.3432  -4.3378  -4.3230  -4.3219  -4.3197
    -4.3185  -4.3138  -4.3120  -4.3049  -4.2669  -4.2657  -4.2650  -4.2598
    -4.2552  -4.2442  -4.2419  -4.2392  -4.2347  -4.2268  -4.2267  -4.2196
    -4.2004  -4.1985  -4.1960  -4.1950  -4.1923  -4.1891  -4.1884  -4.1808
    -4.1798  -4.1668  -4.1649  -4.1630  -4.1588  -4.1552  -4.1520  -4.1499
    -4.1455  -4.1432  -4.1343  -4.1284  -4.1274  -4.1199  -4.1175  -4.1154
    -4.1139  -4.0782  -4.0776  -4.0672  -4.0651  -4.0554  -4.0536  -4.0514
    -4.0468  -4.0457  -4.0422  -4.0415  -4.0390  -4.0386  -4.0376  -4.0308
    -4.0153  -4.0112  -4.0036  -4.0016  -3.9934  -3.9877  -3.9798  -3.9734
    -3.9641  -3.9636  -3.9618  -3.9611  -3.9544  -3.9381  -3.9333  -3.9314
    -3.9271  -3.9234  -3.9151  -3.9127  -3.9121  -3.9046  -3.9029  -3.8907
    -3.8899  -3.8814  -3.8755  -3.8731  -3.8722  -3.8687  -3.8634  -3.8596
    -3.8466  -3.8460  -3.8387  -3.8361  -3.8324  -3.8281  -3.8218  -3.8198
    -3.8141  -3.8039  -3.7897  -3.7883  -3.7825  -3.7710  -3.7693  -3.7685
    -3.7679  -3.7662  -3.7641  -3.7638  -3.7618  -3.7591  -3.7567  -3.7404
    -3.7384  -3.7346  -3.7332  -3.7315  -3.7310  -3.7267  -3.7252  -3.7162
    -3.7151  -3.7125  -3.7115  -3.7104  -3.7027  -3.6995  -3.6916  -3.6866
    -3.6857  -3.6833  -3.6803  -3.6679  -3.6664  -3.6625  -3.6596  -3.6530
    -3.6528  -3.6513  -3.6506  -3.6502  -3.6463  -3.6453  -3.6429  -3.6359
    -3.6333  -3.6259  -3.6252  -3.6240  -3.6222  -3.6206  -3.6198  -3.6186
    -3.6149  -3.6141  -3.6084  -3.5926  -3.5898  -3.5852  -3.5807  -3.5793
    -3.5679  -3.5640  -3.5593  -3.5548  -3.5437  -3.5342  -3.5328  -3.5313
    -3.5292  -3.5285  -3.5265  -3.5260  -3.5246  -3.5243  -3.5232  -3.5208
    -3.5159  -3.5091  -3.5055  -3.5021  -3.4997  -3.4982  -3.4972  -3.4957
    -3.4948  -3.4938  -3.4916  -3.4876  -3.4835  -3.4772  -3.4709  -3.4700
    -3.4687  -3.4639  -3.4574  -3.4524  -3.4433  -3.4409  -3.4393  -3.4386
    -3.4363  -3.4328  -3.4306  -3.4153  -3.4109  -3.4089  -3.4083  -3.4031
    -3.4030  -3.4022  -3.4011  -3.4005  -3.3983  -3.3962  -3.3952  -3.3863
    -3.3858  -3.3797  -3.3785  -3.3783  -3.3772  -3.3763  -3.3745  -3.3721
    -3.3706  -3.3688  -3.3635  -3.3557  -3.3473  -3.3392  -3.3384  -3.3366
    -3.3338  -3.3333  -3.3320  -3.3201  -3.3154  -3.3010  -3.3006  -3.2865
    -3.2836  -3.2782  -3.2778  -3.2699  -3.2637  -3.2625  -3.2587  -3.2452
    -3.2430  -3.2234  -3.1624  -3.1595  -3.1560  -3.1556  -3.1182  -3.1140
    -3.1097  -3.0741  -2.9586  -2.9539  -2.9003  -2.5910  -2.4984  -2.3798
    -2.2671  -2.2426  -1.9232  -1.9066  -1.7854  -1.7771  -1.7457  -1.0309
    -0.9928  -0.9669  -0.8392  -0.8092  -0.7480  -0.5768  -0.3743  -0.2252
    -0.0250   0.0308   0.0382   0.0417   0.1031   0.4455   0.4559   0.5352
     0.5384   0.8842   0.8862   1.0360   1.0418   1.3318   1.3449   1.3566
     1.4975   1.5646   1.9744   1.9854   2.1370   2.2139   2.2160   2.2749
     2.2768   2.5247   2.5291   2.8185   2.8362   2.8625   2.8937   2.9556
     2.9627   3.0095   3.8093   3.8265   4.1173   4.1185   4.2028   4.2514
     4.2723   4.4155   4.4277   4.6532   4.6667   4.8323   4.9072   5.0179
     5.0602   5.0676   5.4327   5.4657   5.5004   5.5011   5.5619   5.5729
     5.6557   5.6651   5.6773   5.7684   5.7740   6.1052   6.1199   6.1273
     6.2194   6.2301   6.5259   6.6637   6.6779   6.7834   6.9194   6.9239
     7.0781   7.0833   7.0911   7.1120   7.1820   7.1945   7.2116   7.2710
     7.4217   7.4253   7.4505   7.5380   7.6838   7.7685   7.8220   7.8323
     7.8416   7.8467   7.8658   7.9883   7.9964   8.0245   8.0280   8.2423
     8.2802   8.2912   8.3641   8.4002   8.4056   8.4101   8.5486   8.6376
     8.6397   8.6997   8.7277   8.8307   8.9690   9.0342   9.0383   9.1317
     9.1432   9.1782   9.2586   9.2754   9.3352   9.4165   9.4298   9.5102
     9.5192   9.5248   9.5535   9.5782   9.6172   9.6577   9.6652   9.7431
     9.8670   9.8879   9.9807   9.9886  10.0057  10.0371  10.1498  10.1564
    10.1702  10.2009  10.2418  10.2963  10.3032  10.4152  10.4621  10.4906
    10.5357  10.5466  10.6901  10.7498  10.7583  10.8327  10.9556  10.9634
    10.9828  10.9960  11.0004  11.0144  11.0187  11.0476  11.0656  11.1162
    11.2104  11.2680  11.4090  11.4730  11.5016

     occupation numbers 
     1.0000   1.0000   1.0000   1.0000   1.0000   1.0000   1.0000   1.0000
     1.0000   1.0000   1.0000   1.0000   1.0000   1.0000   1.0000   1.0000
     1.0000   1.0000   1.0000   1.0000   1.0000   1.0000   1.0000   1.0000
     1.0000   1.0000   1.0000   1.0000   1.0000   1.0000   1.0000   1.0000
     1.0000   1.0000   1.0000   1.0000   1.0000   1.0000   1.0000   1.0000
     1.0000   1.0000   1.0000   1.0000   1.0000   1.0000   1.0000   1.0000
     1.0000   1.0000   1.0000   1.0000   1.0000   1.0000   1.0000   1.0000
     1.0000   1.0000   1.0000   1.0000   1.0000   1.0000   1.0000   1.0000
     1.0000   1.0000   1.0000   1.0000   1.0000   1.0000   1.0000   1.0000
     1.0000   1.0000   1.0000   1.0000   1.0000   1.0000   1.0000   1.0000
     1.0000   1.0000   1.0000   1.0000   1.0000   1.0000   1.0000   1.0000
     1.0000   1.0000   1.0000   1.0000   1.0000   1.0000   1.0000   1.0000
     1.0000   1.0000   1.0000   1.0000   1.0000   1.0000   1.0000   1.0000
     1.0000   1.0000   1.0000   1.0000   1.0000   1.0000   1.0000   1.0000
     1.0000   1.0000   1.0000   1.0000   1.0000   1.0000   1.0000   1.0000
     1.0000   1.0000   1.0000   1.0000   1.0000   1.0000   1.0000   1.0000
     1.0000   1.0000   1.0000   1.0000   1.0000   1.0000   1.0000   1.0000
     1.0000   1.0000   1.0000   1.0000   1.0000   1.0000   1.0000   1.0000
     1.0000   1.0000   1.0000   1.0000   1.0000   1.0000   1.0000   1.0000
     1.0000   1.0000   1.0000   1.0000   1.0000   1.0000   1.0000   1.0000
     1.0000   1.0000   1.0000   1.0000   1.0000   1.0000   1.0000   1.0000
     1.0000   1.0000   1.0000   1.0000   1.0000   1.0000   1.0000   1.0000
     1.0000   1.0000   1.0000   1.0000   1.0000   1.0000   1.0000   1.0000
     1.0000   1.0000   1.0000   1.0000   1.0000   1.0000   1.0000   1.0000
     1.0000   1.0000   1.0000   1.0000   1.0000   1.0000   1.0000   1.0000
     1.0000   1.0000   1.0000   1.0000   1.0000   1.0000   1.0000   1.0000
     1.0000   1.0000   1.0000   1.0000   1.0000   1.0000   1.0000   1.0000
     1.0000   1.0000   1.0000   1.0000   1.0000   1.0000   1.0000   1.0000
     1.0000   1.0000   1.0000   1.0000   1.0000   1.0000   1.0000   1.0000
     1.0000   1.0000   1.0000   1.0000   1.0000   1.0000   1.0000   1.0000
     1.0000   1.0000   1.0000   1.0000   1.0000   1.0000   1.0000   1.0000
     1.0000   1.0000   1.0000   1.0000   1.0000   1.0000   1.0000   1.0000
     1.0000   1.0000   1.0000   1.0000   1.0000   1.0000   1.0000   1.0000
     1.0000   1.0000   1.0000   1.0000   1.0000   1.0000   1.0000   1.0000
     1.0000   1.0000   1.0000   1.0000   1.0000   1.0000   1.0000   1.0000
     1.0000   1.0000   1.0000   1.0000   1.0000   1.0000   1.0000   1.0000
     1.0000   1.0000   1.0000   1.0000   1.0000   1.0000   1.0000   1.0000
     1.0000   1.0000   1.0000   1.0000   1.0000   1.0000   1.0000   1.0000
     1.0000   1.0000   1.0000   1.0000   1.0000   1.0000   1.0000   1.0000
     1.0000   1.0000   1.0000   1.0000   1.0000   1.0000   1.0000   1.0000
     1.0000   1.0000   1.0000   1.0000   1.0000   1.0000   1.0000   1.0000
     1.0000   1.0000   1.0000   1.0000   1.0000   1.0000   1.0000   1.0000
     1.0000   1.0000   1.0000   1.0000   1.0000   1.0000   1.0000   1.0000
     1.0000   1.0000   1.0000   1.0000   1.0000   1.0000   1.0000   1.0000
     1.0000   1.0000   1.0000   1.0000   1.0000   1.0000   1.0000   1.0000
     1.0000   1.0000   1.0000   1.0000   1.0000   1.0000   1.0000   1.0000
     1.0000   1.0000   1.0000   1.0000   1.0000   1.0000   1.0000   1.0000
     1.0000   1.0000   1.0000   1.0000   1.0000   1.0000   1.0000   1.0000
     1.0000   1.0000   1.0000   1.0000   1.0000   1.0000   1.0000   1.0000
     1.0000   1.0000   1.0000   1.0000   1.0000   1.0000   1.0000   1.0000
     1.0000   1.0000   1.0000   1.0000   1.0000   1.0000   1.0000   1.0000
     1.0000   1.0000   1.0000   1.0000   1.0000   1.0000   1.0000   1.0000
     1.0000   1.0000   1.0000   1.0000   1.0000   1.0000   1.0000   1.0000
     1.0000   1.0000   1.0000   1.0000   1.0000   1.0000   1.0000   1.0000
     1.0000   1.0000   1.0000   1.0000   1.0000   1.0000   1.0000   1.0000
     1.0000   1.0000   1.0000   1.0000   1.0000   1.0000   1.0000   1.0000
     1.0000   1.0000   1.0000   1.0000   1.0000   1.0000   1.0000   1.0000
     1.0000   1.0000   1.0000   1.0000   1.0000   1.0000   1.0000   1.0000
     1.0000   1.0000   1.0000   1.0000   1.0000   1.0000   1.0000   1.0000
     1.0000   1.0000   1.0000   1.0000   1.0000   1.0000   1.0000   1.0000
     1.0000   1.0000   1.0000   1.0000   1.0000   1.0000   1.0000   1.0000
     1.0000   1.0000   1.0000   1.0000   1.0000   1.0000   1.0000   1.0000
     1.0000   1.0000   1.0000   1.0000   1.0000   1.0000   1.0000   1.0000
     1.0000   1.0000   1.0000   1.0000   1.0000   1.0000   1.0000   1.0000
     1.0000   1.0000   1.0000   1.0000   1.0000   1.0000   1.0000   1.0000
     1.0000   1.0000   1.0000   1.0000   1.0000   1.0000   1.0000   1.0000
     1.0000   1.0000   1.0000   1.0000   1.0000   1.0000   1.0000   1.0000
     1.0000   1.0000   1.0000   1.0000   1.0000   1.0000   1.0000   1.0000
     1.0000   1.0000   1.0000   1.0000   1.0000   1.0000   1.0000   1.0000
     1.0000   1.0000   1.0000   1.0000   1.0000   1.0000   1.0000   1.0000
     1.0000   1.0000   1.0000   1.0000   1.0000   1.0000   1.0000   1.0000
     1.0000   1.0000   1.0000   1.0000   1.0000   1.0000   1.0000   1.0000
     1.0000   1.0000   1.0000   1.0000   1.0000   1.0000   1.0000   1.0000
     1.0000   1.0000   1.0000   1.0000   1.0000   1.0000   1.0000   1.0000
     1.0000   1.0000   1.0000   1.0000   1.0000   1.0000   1.0000   1.0000
     1.0000   1.0000   1.0000   1.0000   1.0000   1.0000   1.0000   1.0000
     1.0000   1.0000   1.0000   1.0000   1.0000   1.0000   1.0000   1.0000
     1.0000   1.0000   1.0000   1.0000   1.0000   1.0000   1.0000   1.0000
     1.0000   1.0000   1.0000   1.0000   1.0000   1.0000   1.0000   1.0000
     1.0000   1.0000   1.0000   1.0000   1.0000   1.0000   1.0000   1.0001
     1.0002   1.0004   0.6427   0.5951   0.0573   0.0565   0.0193   0.0096
     0.0069   0.0006   0.0004   0.0000   0.0000   0.0000   0.0000   0.0000
     0.0000   0.0000   0.0000   0.0000   0.0000   0.0000   0.0000   0.0000
     0.0000   0.0000   0.0000   0.0000   0.0000   0.0000   0.0000   0.0000
     0.0000   0.0000   0.0000   0.0000   0.0000   0.0000   0.0000   0.0000
     0.0000   0.0000   0.0000   0.0000   0.0000   0.0000   0.0000   0.0000
     0.0000   0.0000   0.0000   0.0000   0.0000   0.0000   0.0000   0.0000
     0.0000   0.0000   0.0000   0.0000   0.0000   0.0000   0.0000   0.0000
     0.0000   0.0000   0.0000   0.0000   0.0000   0.0000   0.0000   0.0000
     0.0000   0.0000   0.0000   0.0000   0.0000   0.0000   0.0000   0.0000
     0.0000   0.0000   0.0000   0.0000   0.0000   0.0000   0.0000   0.0000
     0.0000   0.0000   0.0000   0.0000   0.0000   0.0000   0.0000   0.0000
     0.0000   0.0000   0.0000   0.0000   0.0000   0.0000   0.0000   0.0000
     0.0000   0.0000   0.0000   0.0000   0.0000   0.0000   0.0000   0.0000
     0.0000   0.0000   0.0000   0.0000   0.0000   0.0000   0.0000   0.0000
     0.0000   0.0000   0.0000   0.0000   0.0000   0.0000   0.0000   0.0000
     0.0000   0.0000   0.0000   0.0000   0.0000

          k = 0.3333 0.1925 0.0000 ( 42150 PWs)   bands (ev):

  -123.1385-123.1375-123.1366-123.1359-123.1355-123.1350-123.1345-123.1341
  -123.1341-123.1339-123.1338-123.1337-123.1329-123.1308-123.1300-123.1281
  -123.0919-123.0912-123.0907-123.0889-123.0872-123.0863-123.0843-123.0827
  -123.0820-123.0816-123.0815-123.0807-123.0804-123.0606-123.0563-123.0464
  -122.9417-122.9401-122.9399-122.9397-122.9395-122.9394-122.9393-122.9392
  -122.9389-122.9388-122.9387-122.9384-122.9383-122.9381-122.9375-122.9373
  -122.9141-122.9130-122.9105-122.9056-122.9016-122.9004-122.8981-122.8969
  -122.8958-122.8953-122.8950-122.8947-122.8946-122.8921-122.8913-122.7906
   -77.2458 -77.2457 -77.2423 -77.2394 -77.2386 -77.2381 -77.2377 -77.2317
   -77.2315 -77.2268 -77.2256 -77.2246 -77.2237 -77.2234 -77.2231 -77.2226
   -77.2221 -77.2218 -77.2213 -77.2211 -77.2209 -77.2206 -77.2204 -77.2201
   -77.2197 -77.2192 -77.2186 -77.2176 -77.2173 -77.2165 -77.2160 -77.2140
   -77.2138 -77.2135 -77.2117 -77.2113 -77.2100 -77.2093 -77.2071 -77.2066
   -77.2060 -77.2049 -77.2048 -77.2038 -77.2036 -77.2026 -77.2010 -77.2008
   -77.1957 -77.1947 -77.1922 -77.1888 -77.1872 -77.1861 -77.1842 -77.1800
   -77.1791 -77.1786 -77.1775 -77.1771 -77.1756 -77.1747 -77.1734 -77.1726
   -77.1719 -77.1711 -77.1701 -77.1692 -77.1691 -77.1688 -77.1682 -77.1680
   -77.1675 -77.1672 -77.1665 -77.1662 -77.1652 -77.1622 -77.1612 -77.1594
   -77.1587 -77.1568 -77.1560 -77.1547 -77.1537 -77.1529 -77.1520 -77.1475
   -77.1462 -77.1432 -77.1423 -77.1379 -77.1336 -77.1333 -77.1259 -77.1237
   -77.0477 -77.0472 -77.0438 -77.0413 -77.0406 -77.0401 -77.0398 -77.0360
   -77.0355 -77.0354 -77.0343 -77.0340 -77.0335 -77.0335 -77.0334 -77.0333
   -77.0331 -77.0329 -77.0324 -77.0322 -77.0319 -77.0318 -77.0310 -77.0308
   -77.0300 -77.0287 -77.0253 -77.0250 -77.0230 -77.0229 -77.0191 -77.0188
   -77.0149 -77.0148 -77.0138 -77.0138 -77.0125 -77.0111 -77.0108 -77.0086
   -77.0080 -77.0078 -77.0077 -77.0075 -77.0072 -77.0071 -77.0069 -77.0061
   -77.0057 -77.0053 -77.0051 -77.0045 -77.0041 -77.0040 -77.0035 -77.0003
   -76.9998 -76.9994 -76.9970 -76.9965 -76.9960 -76.9938 -76.9933 -76.9926
   -76.9918 -76.9912 -76.9910 -76.9906 -76.9899 -76.9896 -76.9890 -76.9865
   -76.9863 -76.9856 -76.9844 -76.9834 -76.9819 -76.9807 -76.9796 -76.9751
   -76.9745 -76.9720 -76.9713 -76.9701 -76.9688 -76.9671 -76.9654 -76.9648
   -76.9645 -76.9638 -76.9623 -76.9616 -76.9605 -76.8854 -76.8762 -76.8753
   -18.3682  -6.3694  -5.9875  -5.7636  -5.5908  -5.2291  -5.2200  -5.0683
    -4.9695  -4.9006  -4.8264  -4.7881  -4.7881  -4.7787  -4.7622  -4.7252
    -4.7238  -4.7081  -4.7076  -4.7003  -4.6935  -4.6842  -4.6828  -4.6367
    -4.6164  -4.6153  -4.6127  -4.5884  -4.5882  -4.5812  -4.5778  -4.5595
    -4.5501  -4.5354  -4.5339  -4.5190  -4.5145  -4.5123  -4.5097  -4.4996
    -4.4994  -4.4838  -4.4821  -4.4757  -4.4668  -4.4664  -4.4649  -4.4633
    -4.4615  -4.4490  -4.4472  -4.4270  -4.4250  -4.4162  -4.4126  -4.4123
    -4.4048  -4.3946  -4.3915  -4.3905  -4.3855  -4.3839  -4.3806  -4.3742
    -4.3690  -4.3526  -4.3524  -4.3432  -4.3377  -4.3233  -4.3219  -4.3195
    -4.3185  -4.3136  -4.3119  -4.3051  -4.2673  -4.2657  -4.2649  -4.2598
    -4.2550  -4.2443  -4.2418  -4.2391  -4.2346  -4.2269  -4.2266  -4.2196
    -4.2007  -4.1985  -4.1959  -4.1949  -4.1923  -4.1890  -4.1880  -4.1809
    -4.1799  -4.1670  -4.1648  -4.1630  -4.1588  -4.1553  -4.1524  -4.1496
    -4.1455  -4.1429  -4.1344  -4.1286  -4.1273  -4.1199  -4.1172  -4.1156
    -4.1139  -4.0783  -4.0775  -4.0673  -4.0648  -4.0558  -4.0533  -4.0513
    -4.0471  -4.0456  -4.0423  -4.0413  -4.0391  -4.0387  -4.0375  -4.0307
    -4.0157  -4.0110  -4.0035  -4.0017  -3.9934  -3.9877  -3.9797  -3.9733
    -3.9642  -3.9636  -3.9618  -3.9611  -3.9544  -3.9381  -3.9333  -3.9315
    -3.9270  -3.9233  -3.9152  -3.9127  -3.9122  -3.9045  -3.9029  -3.8907
    -3.8900  -3.8815  -3.8755  -3.8731  -3.8719  -3.8685  -3.8638  -3.8595
    -3.8467  -3.8459  -3.8387  -3.8360  -3.8324  -3.8281  -3.8218  -3.8199
    -3.8142  -3.8038  -3.7898  -3.7883  -3.7824  -3.7713  -3.7693  -3.7685
    -3.7677  -3.7660  -3.7641  -3.7638  -3.7620  -3.7590  -3.7569  -3.7404
    -3.7385  -3.7346  -3.7332  -3.7315  -3.7309  -3.7267  -3.7252  -3.7161
    -3.7152  -3.7125  -3.7115  -3.7104  -3.7028  -3.6994  -3.6917  -3.6865
    -3.6856  -3.6832  -3.6803  -3.6683  -3.6663  -3.6625  -3.6597  -3.6530
    -3.6528  -3.6514  -3.6507  -3.6502  -3.6463  -3.6449  -3.6428  -3.6359
    -3.6333  -3.6259  -3.6251  -3.6240  -3.6222  -3.6206  -3.6196  -3.6188
    -3.6147  -3.6141  -3.6087  -3.5925  -3.5898  -3.5852  -3.5807  -3.5792
    -3.5679  -3.5639  -3.5593  -3.5547  -3.5438  -3.5343  -3.5327  -3.5313
    -3.5293  -3.5285  -3.5265  -3.5260  -3.5246  -3.5243  -3.5231  -3.5207
    -3.5158  -3.5089  -3.5054  -3.5022  -3.4996  -3.4982  -3.4972  -3.4958
    -3.4951  -3.4937  -3.4917  -3.4878  -3.4836  -3.4774  -3.4710  -3.4700
    -3.4686  -3.4638  -3.4573  -3.4524  -3.4433  -3.4411  -3.4392  -3.4387
    -3.4362  -3.4330  -3.4306  -3.4152  -3.4109  -3.4088  -3.4082  -3.4032
    -3.4029  -3.4023  -3.4011  -3.4004  -3.3984  -3.3961  -3.3952  -3.3865
    -3.3856  -3.3798  -3.3785  -3.3783  -3.3771  -3.3763  -3.3746  -3.3721
    -3.3708  -3.3689  -3.3634  -3.3557  -3.3471  -3.3393  -3.3384  -3.3366
    -3.3338  -3.3333  -3.3319  -3.3200  -3.3154  -3.3009  -3.3007  -3.2865
    -3.2836  -3.2782  -3.2777  -3.2700  -3.2638  -3.2622  -3.2588  -3.2453
    -3.2431  -3.2234  -3.1623  -3.1596  -3.1560  -3.1556  -3.1183  -3.1141
    -3.1097  -3.0741  -2.9586  -2.9539  -2.9003  -2.5910  -2.4978  -2.3805
    -2.2676  -2.2422  -1.9229  -1.9063  -1.7855  -1.7769  -1.7458  -1.0314
    -0.9926  -0.9665  -0.8392  -0.8094  -0.7479  -0.5771  -0.3742  -0.2249
    -0.0249   0.0305   0.0385   0.0416   0.1028   0.4453   0.4560   0.5353
     0.5383   0.8839   0.8866   1.0358   1.0420   1.3316   1.3451   1.3567
     1.4975   1.5646   1.9744   1.9855   2.1369   2.2135   2.2165   2.2746
     2.2770   2.5244   2.5293   2.8184   2.8364   2.8625   2.8936   2.9555
     2.9626   3.0096   3.8095   3.8263   4.1176   4.1185   4.2029   4.2510
     4.2725   4.4155   4.4279   4.6535   4.6671   4.8322   4.9070   5.0177
     5.0603   5.0678   5.4327   5.4653   5.5004   5.5017   5.5616   5.5726
     5.6553   5.6646   5.6774   5.7685   5.7743   6.1066   6.1198   6.1273
     6.2196   6.2300   6.5250   6.6634   6.6780   6.7808   6.9195   6.9237
     7.0772   7.0826   7.0912   7.1104   7.1825   7.1941   7.2121   7.2718
     7.4208   7.4255   7.4498   7.5475   7.6838   7.7669   7.8222   7.8315
     7.8420   7.8469   7.8657   7.9884   7.9964   8.0247   8.0280   8.2461
     8.2794   8.2889   8.3694   8.4017   8.4059   8.4111   8.5298   8.6376
     8.6402   8.7001   8.7322   8.8310   8.9695   9.0353   9.0390   9.1277
     9.1450   9.1764   9.2591   9.2738   9.3386   9.4167   9.4299   9.5083
     9.5197   9.5257   9.5519   9.5777   9.6184   9.6580   9.6659   9.7398
     9.8706   9.8941   9.9744   9.9879  10.0070  10.0368  10.1494  10.1563
    10.1693  10.2017  10.2425  10.2939  10.3050  10.4151  10.4613  10.4905
    10.5355  10.5466  10.6883  10.7498  10.7582  10.8384  10.9543  10.9682
    10.9822  10.9968  11.0025  11.0131  11.0172  11.0481  11.0667  11.1253
    11.2090  11.2649  11.4106  11.4725  11.5049

     occupation numbers 
     1.0000   1.0000   1.0000   1.0000   1.0000   1.0000   1.0000   1.0000
     1.0000   1.0000   1.0000   1.0000   1.0000   1.0000   1.0000   1.0000
     1.0000   1.0000   1.0000   1.0000   1.0000   1.0000   1.0000   1.0000
     1.0000   1.0000   1.0000   1.0000   1.0000   1.0000   1.0000   1.0000
     1.0000   1.0000   1.0000   1.0000   1.0000   1.0000   1.0000   1.0000
     1.0000   1.0000   1.0000   1.0000   1.0000   1.0000   1.0000   1.0000
     1.0000   1.0000   1.0000   1.0000   1.0000   1.0000   1.0000   1.0000
     1.0000   1.0000   1.0000   1.0000   1.0000   1.0000   1.0000   1.0000
     1.0000   1.0000   1.0000   1.0000   1.0000   1.0000   1.0000   1.0000
     1.0000   1.0000   1.0000   1.0000   1.0000   1.0000   1.0000   1.0000
     1.0000   1.0000   1.0000   1.0000   1.0000   1.0000   1.0000   1.0000
     1.0000   1.0000   1.0000   1.0000   1.0000   1.0000   1.0000   1.0000
     1.0000   1.0000   1.0000   1.0000   1.0000   1.0000   1.0000   1.0000
     1.0000   1.0000   1.0000   1.0000   1.0000   1.0000   1.0000   1.0000
     1.0000   1.0000   1.0000   1.0000   1.0000   1.0000   1.0000   1.0000
     1.0000   1.0000   1.0000   1.0000   1.0000   1.0000   1.0000   1.0000
     1.0000   1.0000   1.0000   1.0000   1.0000   1.0000   1.0000   1.0000
     1.0000   1.0000   1.0000   1.0000   1.0000   1.0000   1.0000   1.0000
     1.0000   1.0000   1.0000   1.0000   1.0000   1.0000   1.0000   1.0000
     1.0000   1.0000   1.0000   1.0000   1.0000   1.0000   1.0000   1.0000
     1.0000   1.0000   1.0000   1.0000   1.0000   1.0000   1.0000   1.0000
     1.0000   1.0000   1.0000   1.0000   1.0000   1.0000   1.0000   1.0000
     1.0000   1.0000   1.0000   1.0000   1.0000   1.0000   1.0000   1.0000
     1.0000   1.0000   1.0000   1.0000   1.0000   1.0000   1.0000   1.0000
     1.0000   1.0000   1.0000   1.0000   1.0000   1.0000   1.0000   1.0000
     1.0000   1.0000   1.0000   1.0000   1.0000   1.0000   1.0000   1.0000
     1.0000   1.0000   1.0000   1.0000   1.0000   1.0000   1.0000   1.0000
     1.0000   1.0000   1.0000   1.0000   1.0000   1.0000   1.0000   1.0000
     1.0000   1.0000   1.0000   1.0000   1.0000   1.0000   1.0000   1.0000
     1.0000   1.0000   1.0000   1.0000   1.0000   1.0000   1.0000   1.0000
     1.0000   1.0000   1.0000   1.0000   1.0000   1.0000   1.0000   1.0000
     1.0000   1.0000   1.0000   1.0000   1.0000   1.0000   1.0000   1.0000
     1.0000   1.0000   1.0000   1.0000   1.0000   1.0000   1.0000   1.0000
     1.0000   1.0000   1.0000   1.0000   1.0000   1.0000   1.0000   1.0000
     1.0000   1.0000   1.0000   1.0000   1.0000   1.0000   1.0000   1.0000
     1.0000   1.0000   1.0000   1.0000   1.0000   1.0000   1.0000   1.0000
     1.0000   1.0000   1.0000   1.0000   1.0000   1.0000   1.0000   1.0000
     1.0000   1.0000   1.0000   1.0000   1.0000   1.0000   1.0000   1.0000
     1.0000   1.0000   1.0000   1.0000   1.0000   1.0000   1.0000   1.0000
     1.0000   1.0000   1.0000   1.0000   1.0000   1.0000   1.0000   1.0000
     1.0000   1.0000   1.0000   1.0000   1.0000   1.0000   1.0000   1.0000
     1.0000   1.0000   1.0000   1.0000   1.0000   1.0000   1.0000   1.0000
     1.0000   1.0000   1.0000   1.0000   1.0000   1.0000   1.0000   1.0000
     1.0000   1.0000   1.0000   1.0000   1.0000   1.0000   1.0000   1.0000
     1.0000   1.0000   1.0000   1.0000   1.0000   1.0000   1.0000   1.0000
     1.0000   1.0000   1.0000   1.0000   1.0000   1.0000   1.0000   1.0000
     1.0000   1.0000   1.0000   1.0000   1.0000   1.0000   1.0000   1.0000
     1.0000   1.0000   1.0000   1.0000   1.0000   1.0000   1.0000   1.0000
     1.0000   1.0000   1.0000   1.0000   1.0000   1.0000   1.0000   1.0000
     1.0000   1.0000   1.0000   1.0000   1.0000   1.0000   1.0000   1.0000
     1.0000   1.0000   1.0000   1.0000   1.0000   1.0000   1.0000   1.0000
     1.0000   1.0000   1.0000   1.0000   1.0000   1.0000   1.0000   1.0000
     1.0000   1.0000   1.0000   1.0000   1.0000   1.0000   1.0000   1.0000
     1.0000   1.0000   1.0000   1.0000   1.0000   1.0000   1.0000   1.0000
     1.0000   1.0000   1.0000   1.0000   1.0000   1.0000   1.0000   1.0000
     1.0000   1.0000   1.0000   1.0000   1.0000   1.0000   1.0000   1.0000
     1.0000   1.0000   1.0000   1.0000   1.0000   1.0000   1.0000   1.0000
     1.0000   1.0000   1.0000   1.0000   1.0000   1.0000   1.0000   1.0000
     1.0000   1.0000   1.0000   1.0000   1.0000   1.0000   1.0000   1.0000
     1.0000   1.0000   1.0000   1.0000   1.0000   1.0000   1.0000   1.0000
     1.0000   1.0000   1.0000   1.0000   1.0000   1.0000   1.0000   1.0000
     1.0000   1.0000   1.0000   1.0000   1.0000   1.0000   1.0000   1.0000
     1.0000   1.0000   1.0000   1.0000   1.0000   1.0000   1.0000   1.0000
     1.0000   1.0000   1.0000   1.0000   1.0000   1.0000   1.0000   1.0000
     1.0000   1.0000   1.0000   1.0000   1.0000   1.0000   1.0000   1.0000
     1.0000   1.0000   1.0000   1.0000   1.0000   1.0000   1.0000   1.0000
     1.0000   1.0000   1.0000   1.0000   1.0000   1.0000   1.0000   1.0000
     1.0000   1.0000   1.0000   1.0000   1.0000   1.0000   1.0000   1.0000
     1.0000   1.0000   1.0000   1.0000   1.0000   1.0000   1.0000   1.0000
     1.0000   1.0000   1.0000   1.0000   1.0000   1.0000   1.0000   1.0000
     1.0000   1.0000   1.0000   1.0000   1.0000   1.0000   1.0000   1.0000
     1.0000   1.0000   1.0000   1.0000   1.0000   1.0000   1.0000   1.0000
     1.0000   1.0000   1.0000   1.0000   1.0000   1.0000   1.0000   1.0000
     1.0000   1.0000   1.0000   1.0000   1.0000   1.0000   1.0000   1.0000
     1.0000   1.0000   1.0000   1.0000   1.0000   1.0000   1.0000   1.0000
     1.0000   1.0000   1.0000   1.0000   1.0000   1.0000   1.0000   1.0000
     1.0000   1.0000   1.0000   1.0000   1.0000   1.0000   1.0000   1.0000
     1.0000   1.0000   1.0000   1.0000   1.0000   1.0000   1.0000   1.0000
     1.0000   1.0000   1.0000   1.0000   1.0000   1.0000   1.0000   1.0000
     1.0000   1.0000   1.0000   1.0000   1.0000   1.0000   1.0000   1.0001
     1.0002   1.0004   0.6422   0.5957   0.0571   0.0565   0.0193   0.0096
     0.0069   0.0006   0.0004   0.0000   0.0000   0.0000   0.0000   0.0000
     0.0000   0.0000   0.0000   0.0000   0.0000   0.0000   0.0000   0.0000
     0.0000   0.0000   0.0000   0.0000   0.0000   0.0000   0.0000   0.0000
     0.0000   0.0000   0.0000   0.0000   0.0000   0.0000   0.0000   0.0000
     0.0000   0.0000   0.0000   0.0000   0.0000   0.0000   0.0000   0.0000
     0.0000   0.0000   0.0000   0.0000   0.0000   0.0000   0.0000   0.0000
     0.0000   0.0000   0.0000   0.0000   0.0000   0.0000   0.0000   0.0000
     0.0000   0.0000   0.0000   0.0000   0.0000   0.0000   0.0000   0.0000
     0.0000   0.0000   0.0000   0.0000   0.0000   0.0000   0.0000   0.0000
     0.0000   0.0000   0.0000   0.0000   0.0000   0.0000   0.0000   0.0000
     0.0000   0.0000   0.0000   0.0000   0.0000   0.0000   0.0000   0.0000
     0.0000   0.0000   0.0000   0.0000   0.0000   0.0000   0.0000   0.0000
     0.0000   0.0000   0.0000   0.0000   0.0000   0.0000   0.0000   0.0000
     0.0000   0.0000   0.0000   0.0000   0.0000   0.0000   0.0000   0.0000
     0.0000   0.0000   0.0000   0.0000   0.0000   0.0000   0.0000   0.0000
     0.0000   0.0000   0.0000   0.0000   0.0000

          k = 0.3333 0.5774 0.0000 ( 42123 PWs)   bands (ev):

  -123.1382-123.1375-123.1364-123.1359-123.1355-123.1350-123.1346-123.1344
  -123.1341-123.1337-123.1337-123.1334-123.1328-123.1307-123.1299-123.1280
  -123.0917-123.0913-123.0906-123.0889-123.0871-123.0863-123.0842-123.0827
  -123.0821-123.0815-123.0814-123.0808-123.0801-123.0605-123.0562-123.0463
  -122.9408-122.9404-122.9402-122.9399-122.9397-122.9394-122.9393-122.9391
  -122.9389-122.9388-122.9385-122.9384-122.9381-122.9379-122.9373-122.9370
  -122.9140-122.9129-122.9104-122.9056-122.9015-122.9004-122.8980-122.8968
  -122.8959-122.8953-122.8949-122.8947-122.8944-122.8921-122.8912-122.7905
   -77.2434 -77.2426 -77.2418 -77.2359 -77.2358 -77.2348 -77.2341 -77.2333
   -77.2332 -77.2281 -77.2277 -77.2263 -77.2247 -77.2240 -77.2234 -77.2233
   -77.2227 -77.2225 -77.2219 -77.2218 -77.2213 -77.2205 -77.2201 -77.2199
   -77.2190 -77.2188 -77.2181 -77.2171 -77.2170 -77.2169 -77.2167 -77.2151
   -77.2136 -77.2121 -77.2116 -77.2114 -77.2091 -77.2088 -77.2085 -77.2077
   -77.2073 -77.2068 -77.2061 -77.2051 -77.2045 -77.1992 -77.1977 -77.1975
   -77.1939 -77.1916 -77.1901 -77.1866 -77.1855 -77.1844 -77.1819 -77.1812
   -77.1807 -77.1790 -77.1783 -77.1767 -77.1756 -77.1745 -77.1734 -77.1729
   -77.1727 -77.1717 -77.1709 -77.1708 -77.1700 -77.1698 -77.1688 -77.1680
   -77.1672 -77.1667 -77.1661 -77.1655 -77.1641 -77.1619 -77.1607 -77.1606
   -77.1590 -77.1573 -77.1569 -77.1561 -77.1535 -77.1526 -77.1515 -77.1475
   -77.1440 -77.1430 -77.1424 -77.1376 -77.1337 -77.1332 -77.1255 -77.1234
   -77.0444 -77.0443 -77.0441 -77.0369 -77.0367 -77.0366 -77.0364 -77.0361
   -77.0361 -77.0361 -77.0360 -77.0357 -77.0354 -77.0351 -77.0350 -77.0329
   -77.0324 -77.0322 -77.0319 -77.0318 -77.0314 -77.0310 -77.0305 -77.0302
   -77.0301 -77.0299 -77.0288 -77.0244 -77.0243 -77.0241 -77.0189 -77.0188
   -77.0187 -77.0136 -77.0129 -77.0128 -77.0107 -77.0100 -77.0098 -77.0097
   -77.0095 -77.0094 -77.0093 -77.0087 -77.0084 -77.0084 -77.0078 -77.0070
   -77.0063 -77.0042 -77.0034 -77.0008 -77.0003 -77.0002 -77.0001 -77.0000
   -76.9984 -76.9976 -76.9972 -76.9958 -76.9955 -76.9946 -76.9942 -76.9930
   -76.9919 -76.9915 -76.9912 -76.9900 -76.9899 -76.9896 -76.9889 -76.9877
   -76.9866 -76.9862 -76.9852 -76.9849 -76.9818 -76.9794 -76.9782 -76.9766
   -76.9754 -76.9725 -76.9717 -76.9710 -76.9686 -76.9679 -76.9665 -76.9660
   -76.9652 -76.9642 -76.9604 -76.9590 -76.9582 -76.8853 -76.8758 -76.8751
   -18.3682  -5.9881  -5.9648  -5.9600  -5.9464  -5.2344  -5.2324  -5.2046
    -4.7566  -4.7558  -4.7543  -4.7277  -4.7275  -4.7272  -4.7259  -4.7254
    -4.7252  -4.7014  -4.6988  -4.6809  -4.6656  -4.6652  -4.6631  -4.6606
    -4.6551  -4.6537  -4.6254  -4.6246  -4.6243  -4.5774  -4.5756  -4.5724
    -4.5684  -4.5647  -4.5646  -4.5523  -4.5518  -4.5517  -4.5492  -4.5488
    -4.5481  -4.5103  -4.5098  -4.5061  -4.4602  -4.4599  -4.4597  -4.4548
    -4.4483  -4.4477  -4.3993  -4.3986  -4.3984  -4.3979  -4.3970  -4.3967
    -4.3951  -4.3941  -4.3841  -4.3762  -4.3756  -4.3753  -4.3748  -4.3743
    -4.3728  -4.3436  -4.3426  -4.3417  -4.3403  -4.3389  -4.3366  -4.3364
    -4.3340  -4.3331  -4.3324  -4.3301  -4.3287  -4.3214  -4.2963  -4.2948
    -4.2871  -4.2744  -4.2670  -4.2611  -4.2527  -4.2450  -4.2347  -4.2339
    -4.2309  -4.2191  -4.2164  -4.2141  -4.1961  -4.1947  -4.1890  -4.1846
    -4.1814  -4.1707  -4.1678  -4.1655  -4.1645  -4.1627  -4.1623  -4.1615
    -4.1549  -4.1543  -4.1537  -4.1479  -4.1454  -4.1226  -4.1122  -4.1103
    -4.1059  -4.1038  -4.0875  -4.0864  -4.0790  -4.0758  -4.0742  -4.0740
    -4.0516  -4.0497  -4.0495  -4.0300  -4.0284  -4.0273  -4.0225  -4.0213
    -4.0185  -4.0075  -4.0054  -4.0034  -3.9993  -3.9968  -3.9928  -3.9837
    -3.9769  -3.9744  -3.9701  -3.9621  -3.9619  -3.9602  -3.9394  -3.9307
    -3.9302  -3.9278  -3.9254  -3.9245  -3.9238  -3.9194  -3.9049  -3.8997
    -3.8809  -3.8731  -3.8695  -3.8653  -3.8643  -3.8623  -3.8593  -3.8549
    -3.8532  -3.8520  -3.8512  -3.8477  -3.8465  -3.8300  -3.8296  -3.8293
    -3.8289  -3.8270  -3.8259  -3.8256  -3.8220  -3.8075  -3.8062  -3.8058
    -3.8048  -3.8036  -3.8005  -3.7872  -3.7860  -3.7627  -3.7602  -3.7593
    -3.7379  -3.7377  -3.7374  -3.7161  -3.6927  -3.6922  -3.6910  -3.6822
    -3.6807  -3.6791  -3.6661  -3.6628  -3.6619  -3.6613  -3.6584  -3.6572
    -3.6556  -3.6550  -3.6508  -3.6499  -3.6482  -3.6465  -3.6450  -3.6423
    -3.6395  -3.6373  -3.6362  -3.6339  -3.6327  -3.6241  -3.6230  -3.6225
    -3.6202  -3.6195  -3.6171  -3.6108  -3.6081  -3.6071  -3.6047  -3.6038
    -3.6016  -3.5981  -3.5963  -3.5957  -3.5939  -3.5884  -3.5828  -3.5331
    -3.5323  -3.5317  -3.5217  -3.5171  -3.5157  -3.5088  -3.5081  -3.5064
    -3.4996  -3.4977  -3.4969  -3.4963  -3.4958  -3.4956  -3.4944  -3.4890
    -3.4875  -3.4868  -3.4861  -3.4842  -3.4833  -3.4823  -3.4810  -3.4802
    -3.4800  -3.4777  -3.4773  -3.4758  -3.4703  -3.4696  -3.4688  -3.4674
    -3.4638  -3.4620  -3.4411  -3.4381  -3.4375  -3.4360  -3.4343  -3.4335
    -3.4286  -3.4277  -3.4266  -3.4245  -3.4237  -3.4223  -3.4191  -3.4180
    -3.4113  -3.4101  -3.4076  -3.4065  -3.4045  -3.4000  -3.3955  -3.3919
    -3.3885  -3.3816  -3.3814  -3.3810  -3.3747  -3.3745  -3.3734  -3.3652
    -3.3647  -3.3608  -3.3598  -3.3588  -3.3579  -3.3564  -3.3558  -3.3554
    -3.3515  -3.3508  -3.3464  -3.3424  -3.3419  -3.3409  -3.3308  -3.3303
    -3.3300  -3.2961  -3.2763  -3.2743  -3.2370  -3.2368  -3.2367  -3.2364
    -3.2361  -3.2360  -3.1995  -3.1983  -3.1956  -3.1942  -3.1827  -3.1821
    -2.9783  -2.9766  -2.9754  -2.6303  -2.5622  -2.5604  -2.4344  -2.3781
    -2.3761  -2.3240  -1.5141  -1.5124  -1.5104  -1.5051  -1.5041  -1.4900
    -1.0308  -0.9768  -0.9744  -0.8002  -0.6820  -0.6806  -0.6781  -0.6700
    -0.6681  -0.6612  -0.6601  -0.6164  -0.2672   0.7730   0.7753   0.7766
     0.7779   0.7803   0.8030   0.8682   0.8703   0.8913   1.8614   1.8656
     1.9057   2.0754   2.0784   2.0802   2.4771   2.4797   2.4917   2.4965
     2.4986   2.5132   2.5147   2.5158   2.5333   2.9201   2.9300   2.9322
     3.1582   3.1605   3.1709   4.0263   4.0300   4.0665   4.2190   4.2915
     4.3538   4.6007   4.6282   4.6434   4.9529   4.9610   4.9667   5.0303
     5.1294   5.1887   5.1943   5.2032   5.2759   5.9112   5.9167   5.9389
     5.9409   5.9443   5.9990   6.1907   6.2012   6.2090   6.2155   6.3979
     6.4003   6.4010   6.4036   6.4128   6.4141   6.4710   6.4919   6.5306
     6.6356   6.7496   6.8353   6.9063   6.9175   6.9499   6.9630   6.9686
     7.1861   7.1902   7.1928   7.2026   7.2174   7.2275   7.3939   7.4402
     7.4927   7.5194   7.5786   7.6504   7.9868   8.1539   8.2239   8.2440
     8.2578   8.2752   8.2781   8.3833   8.4639   8.5610   8.6322   8.6660
     8.6780   8.6823   8.6938   8.7005   8.7054   8.7131   8.9578   9.0511
     9.0686   9.0959   9.1247   9.2202   9.2534   9.2692   9.2808   9.3359
     9.3593   9.4166   9.4375   9.4473   9.4749   9.8603   9.8615   9.8650
     9.9188  10.1941  10.2423  10.3505  10.3628  10.4016  10.4912  10.5088
    10.5158  10.5198  10.5550  10.5657  10.6151  10.6212  10.6421  10.7626
    10.7702  10.7727  10.8303  10.9017  10.9809  11.0257  11.0513  11.0548
    11.0880  11.1029  11.1224  11.1406  11.1590  11.1787  11.1806  11.1946
    11.2153  11.2451  11.2540  11.3070  11.3169

     occupation numbers 
[...]
     atom   52 type  1   force =     0.00000000    0.00000000    0.00000000
     atom   53 type  1   force =     0.00000000    0.00000000    0.00000000
     atom   54 type  1   force =     0.00000000    0.00000000    0.00000000
     atom   55 type  1   force =     0.00000000    0.00000000    0.00000000
     atom   56 type  1   force =     0.00000000    0.00000000    0.00000000
     atom   57 type  1   force =     0.00000000    0.00000000    0.00000000
     atom   58 type  1   force =     0.00000000    0.00000000    0.00000000
     atom   59 type  1   force =     0.00000000    0.00000000    0.00000000
     atom   60 type  1   force =     0.00000000    0.00000000    0.00000000
     atom   61 type  1   force =     0.00000000    0.00000000    0.00000000
     atom   62 type  1   force =     0.00000000    0.00000000    0.00000000
     atom   63 type  1   force =     0.00000000    0.00000000    0.00000000
     atom   64 type  1   force =     0.00000000    0.00000000    0.00000000
     atom   65 type  2   force =     0.00000000    0.00000000    0.00000000
     atom   66 type  3   force =     0.00000000    0.00000000    0.00000000
     atom   67 type  3   force =     0.00000000    0.00000000    0.00000000
     The SCF correction term to forces
     atom    1 type  1   force =     0.00000000    0.00000000   -0.00000000
     atom    2 type  1   force =    -0.00000000    0.00000000    0.00000000
     atom    3 type  1   force =    -0.00000000   -0.00000000    0.00000000
     atom    4 type  1   force =     0.00000000    0.00000000    0.00000000
     atom    5 type  1   force =     0.00000000   -0.00000000   -0.00000000
     atom    6 type  1   force =    -0.00000000    0.00000000    0.00000000
     atom    7 type  1   force =    -0.00000000    0.00000000    0.00000000
     atom    8 type  1   force =     0.00000000    0.00000000    0.00000000
     atom    9 type  1   force =    -0.00000000   -0.00000000    0.00000000
     atom   10 type  1   force =     0.00000000   -0.00000000    0.00000000
     atom   11 type  1   force =    -0.00000000    0.00000000    0.00000000
     atom   12 type  1   force =     0.00000000    0.00000000    0.00000000
     atom   13 type  1   force =    -0.00000000   -0.00000000   -0.00000000
     atom   14 type  1   force =     0.00000000   -0.00000000    0.00000000
     atom   15 type  1   force =     0.00000000   -0.00000000    0.00000000
     atom   16 type  1   force =    -0.00000000    0.00000000   -0.00000000
     atom   17 type  1   force =     0.00000000    0.00000000   -0.00000000
     atom   18 type  1   force =    -0.00000000   -0.00000000    0.00000000
     atom   19 type  1   force =     0.00000000   -0.00000000    0.00000000
     atom   20 type  1   force =    -0.00000000   -0.00000000    0.00000000
     atom   21 type  1   force =     0.00000000    0.00000000   -0.00000000
     atom   22 type  1   force =    -0.00000000    0.00000000    0.00000000
     atom   23 type  1   force =     0.00000000    0.00000000    0.00000000
     atom   24 type  1   force =    -0.00000000   -0.00000000    0.00000000
     atom   25 type  1   force =     0.00000000   -0.00000000    0.00000000
     atom   26 type  1   force =    -0.00000000   -0.00000000    0.00000000
     atom   27 type  1   force =    -0.00000000    0.00000000    0.00000000
     atom   28 type  1   force =     0.00000000   -0.00000000    0.00000000
     atom   29 type  1   force =     0.00000000    0.00000000    0.00000000
     atom   30 type  1   force =    -0.00000000   -0.00000000    0.00000000
     atom   31 type  1   force =     0.00000000   -0.00000000   -0.00000000
     atom   32 type  1   force =    -0.00000000   -0.00000000    0.00000000
     atom   33 type  1   force =     0.00000000   -0.00000000   -0.00000000
     atom   34 type  1   force =    -0.00000000   -0.00000000    0.00000000
     atom   35 type  1   force =    -0.00000801   -0.00001804   -0.00001203
     atom   36 type  1   force =    -0.00000504    0.00000754   -0.00002034
     atom   37 type  1   force =     0.00000000    0.00000000   -0.00000000
     atom   38 type  1   force =    -0.00000000    0.00000000   -0.00000000
     atom   39 type  1   force =    -0.00001116    0.00001011   -0.00000955
     atom   40 type  1   force =     0.00000344    0.00000159   -0.00004850
     atom   41 type  1   force =     0.00000000    0.00000000    0.00000000
     atom   42 type  1   force =    -0.00000000   -0.00000000   -0.00000000
     atom   43 type  1   force =     0.00004320    0.00001251    0.00001736
     atom   44 type  1   force =     0.00004766    0.00000087   -0.00007589
     atom   45 type  1   force =     0.00000000   -0.00000000    0.00000000
     atom   46 type  1   force =    -0.00000000   -0.00000000   -0.00000000
     atom   47 type  1   force =    -0.00000310   -0.00000639   -0.00000904
     atom   48 type  1   force =    -0.00001274    0.00000321   -0.00002322
     atom   49 type  1   force =     0.00000000    0.00000000    0.00000000
     atom   50 type  1   force =    -0.00000000   -0.00000000    0.00000000
     atom   51 type  1   force =     0.00000786    0.00002385   -0.00002793
     atom   52 type  1   force =    -0.00000566   -0.00002062   -0.00000407
     atom   53 type  1   force =     0.00000000    0.00000000   -0.00000000
     atom   54 type  1   force =    -0.00000000   -0.00000000    0.00000000
     atom   55 type  1   force =     0.00003667   -0.00003064   -0.00005963
     atom   56 type  1   force =    -0.00002813   -0.00000169   -0.00000979
     atom   57 type  1   force =     0.00000000    0.00000000   -0.00000000
     atom   58 type  1   force =    -0.00000000   -0.00000000    0.00000000
     atom   59 type  1   force =    -0.00006405    0.00004172   -0.00000269
     atom   60 type  1   force =    -0.00002337   -0.00001022   -0.00003154
     atom   61 type  1   force =     0.00000000    0.00000000    0.00000000
     atom   62 type  1   force =    -0.00000000   -0.00000000   -0.00000000
     atom   63 type  1   force =     0.00002469   -0.00004718    0.00000641
     atom   64 type  1   force =    -0.00000108    0.00000413   -0.00002484
     atom   65 type  2   force =    -0.00000774    0.00000553    0.00000016
     atom   66 type  3   force =     0.00000001    0.00000117    0.00000121
     atom   67 type  3   force =    -0.00000109   -0.00000055    0.00000096

     Total force =     0.001282     Total SCF correction =     0.000186
     SCF correction compared to forces is large: reduce conv_thr to get better values


     Computing stress (Cartesian axis) and pressure


     negative rho (up, down):  1.339E-02 0.000E+00
          total   stress  (Ry/bohr**3)                   (kbar)     P=     -307.72
  -0.00208945   0.00000066   0.00000074         -307.37        0.10        0.11
   0.00000066  -0.00208880  -0.00000019            0.10     -307.27       -0.03
   0.00000074  -0.00000019  -0.00209716            0.11       -0.03     -308.50

     kinetic stress (kbar)  16837.73     -6.22     -5.37
                               -6.22  16831.74      1.98
                               -5.37      1.98  16937.58

     local   stress (kbar)**********    -11.49    -28.02
                              -11.49**********     23.40
                              -28.02     23.401549005.98

     nonloc. stress (kbar)  -1995.04      0.08     -0.20
                                0.08  -1994.99      0.09
                               -0.20      0.09  -2057.99

     hartree stress (kbar) 801616.31      0.95      8.98
                                0.95 801617.44     -9.05
                                8.98     -9.05-727279.89

     exc-cor stress (kbar)  -8394.16      0.07      0.07
                                0.07  -8394.09     -0.03
                                0.07     -0.03  -8405.05

     corecor stress (kbar)     -3.91      0.01      0.01
                                0.01     -3.90     -0.00
                                0.01     -0.00     -4.04

     ewald   stress (kbar) 721945.35     16.69     24.63
                               16.69 721961.81    -16.43
                               24.63    -16.43-828505.10

     hubbard stress (kbar)      0.00      0.00      0.00
                                0.00      0.00      0.00
                                0.00      0.00      0.00

     DFT-D   stress (kbar)      0.00      0.00      0.00
                                0.00      0.00      0.00
                                0.00      0.00      0.00

     XDM     stress (kbar)      0.00      0.00      0.00
                                0.00      0.00      0.00
                                0.00      0.00      0.00

     dft-nl  stress (kbar)      0.00      0.00      0.00
                                0.00      0.00      0.00
                                0.00      0.00      0.00

     TS-vdW  stress (kbar)      0.00      0.00      0.00
                                0.00      0.00      0.00
                                0.00      0.00      0.00

     MDB     stress (kbar)      0.00      0.00      0.00
                                0.00      0.00      0.00
                                0.00      0.00      0.00

     3D-RISM stress (kbar)      0.00      0.00      0.00
                                0.00      0.00      0.00
                                0.00      0.00      0.00

     Energy error            =      7.2E-06 Ry
     Gradient error          =      4.7E-04 Ry/Bohr

     bfgs converged in  46 scf cycles and  45 bfgs steps
     (criteria: energy <  1.0E-05 Ry, force <  5.0E-04 Ry/Bohr)

     End of BFGS Geometry Optimization

     Final energy             =  -29579.5819549231 Ry

     File ./tmp/Zn002_optimized_topsite_H2O.bfgs deleted, as requested
Begin final coordinates

ATOMIC_POSITIONS (angstrom)
Zn              -0.0000000130        1.5094013740        1.2182902590    0   0   0
Zn               5.2287196980        1.5094013740        1.2182902590    0   0   0
Zn               0.0011120427        1.5098156786        6.1721139700    0   0   0
Zn               5.2276298567        1.5096812409        6.1878303447    0   0   0
Zn              -1.3071799410        3.7735034240        1.2182902590    0   0   0
Zn               3.9215397700        3.7735034240        1.2182902590    0   0   0
Zn              -1.3069300877        3.7744055475        6.1790147181    0   0   0
Zn               3.9211654507        3.7735432858        6.1841575930    0   0   0
Zn              -2.6143598690        6.0376054730        1.2182902590    0   0   0
Zn               2.6143598420        6.0376054730        1.2182902590    0   0   0
Zn              -2.6142664897        6.0378510255        6.1861027382    0   0   0
Zn               2.6141756116        6.0366437837        6.1776090524    0   0   0
Zn              -3.9215397970        8.3017075230        1.2182902590    0   0   0
Zn               1.3071799140        8.3017075230        1.2182902590    0   0   0
Zn              -3.9206627632        8.3013971165        6.1799331037    0   0   0
Zn               1.3061892394        8.3010083570        6.1815705960    0   0   0
Zn               2.6143598430        1.5094013740        1.2182902590    0   0   0
Zn               7.8430795540        1.5094013740        1.2182902590    0   0   0
Zn               2.6139064777        1.5091536489        6.1808539610    0   0   0
Zn               7.8434993133        1.5104311852        6.1795685079    0   0   0
Zn               1.3071799150        3.7735034240        1.2182902590    0   0   0
Zn               6.5358996260        3.7735034240        1.2182902590    0   0   0
Zn               1.3068490933        3.7733862370        6.1747897063    0   0   0
Zn               6.5361293872        3.7744930338        6.1877720625    0   0   0
Zn              -0.0000000130        6.0376054730        1.2182902590    0   0   0
Zn               5.2287196980        6.0376054730        1.2182902590    0   0   0
Zn              -0.0010277368        6.0371123597        6.1810339429    0   0   0
Zn               5.2296452053        6.0375740856        6.1834586640    0   0   0
Zn              -1.3071799410        8.3017075230        1.2182902590    0   0   0
Zn               3.9215397700        8.3017075230        1.2182902590    0   0   0
Zn              -1.3082407216        8.3010985074        6.1862800640    0   0   0
Zn               3.9229243575        8.3012795558        6.1747242960    0   0   0
Zn               1.3071799410        0.7547006760        3.6548707760    0   0   0
Zn               6.5358996520        0.7547006760        3.6548707760    0   0   0
Zn               1.3081480402        0.7544337497        8.6973619154
Zn               6.5388994984        0.7537708526        8.7019495583
Zn               0.0000000130        3.0188027250        3.6548707760    0   0   0
Zn               5.2287197240        3.0188027250        3.6548707760    0   0   0
Zn               0.0047243765        3.0266123321        8.6637193095
Zn               5.2301516721        3.0174279964        8.7041621988
Zn              -1.3071799150        5.2829047750        3.6548707760    0   0   0
Zn               3.9215397960        5.2829047750        3.6548707760    0   0   0
Zn              -1.3011445757        5.2821202681        8.6901071595
Zn               3.9125257052        5.2815585311        8.6671959343
Zn              -2.6143598430        7.5470068250        3.6548707760    0   0   0
Zn               2.6143598680        7.5470068250        3.6548707760    0   0   0
Zn              -2.6141133537        7.5460797915        8.7033840012
Zn               2.6102123485        7.5402611667        8.6728206719
Zn               3.9215397970        0.7547006760        3.6548707760    0   0   0
Zn               9.1502595080        0.7547006760        3.6548707760    0   0   0
Zn               3.9206054229        0.7552901761        8.7054698765
Zn               9.1530845037        0.7544696045        8.6970961159
Zn               2.6143598690        3.0188027250        3.6548707760    0   0   0
Zn               7.8430795800        3.0188027250        3.6548707760    0   0   0
Zn               2.6099929769        3.0250967216        8.6637902505
Zn               7.8453991270        3.0163872911        8.7018845379
Zn               1.3071799410        5.2829047750        3.6548707760    0   0   0
Zn               6.5358996520        5.2829047750        3.6548707760    0   0   0
Zn               1.3030768096        5.2858242282        9.0148449805
Zn               6.5344378797        5.2817401006        8.7065509262
Zn               0.0000000130        7.5470068250        3.6548707760    0   0   0
Zn               5.2287197240        7.5470068250        3.6548707760    0   0   0
Zn               0.0027691485        7.5409678374        8.6920384754
Zn               5.2283832881        7.5448785546        8.6978187236
O                1.3206783498        5.1924496818       11.6298289711
H                2.2088709649        5.5192270107       11.8881593881
H                1.3592220343        4.2275633804       11.8035017573
End final coordinates



     Writing all to output data dir ./tmp/Zn002_optimized_topsite_H2O.save/ :
     XML data file, charge density, pseudopotentials, collected wavefunctions

     init_run     :     63.99s CPU     64.52s WALL (       1 calls)
     electrons    :  68764.95s CPU  69336.87s WALL (      30 calls)
     update_pot   :      1.72s CPU      1.77s WALL (      29 calls)
     forces       :   1686.74s CPU   1696.37s WALL (      30 calls)
     stress       :   4682.38s CPU   4698.68s WALL (      30 calls)

     Called by init_run:
     wfcinit      :     63.31s CPU     63.82s WALL (       1 calls)
     wfcinit:atom :      0.03s CPU      0.06s WALL (       5 calls)
     wfcinit:wfcr :     62.81s CPU     63.25s WALL (       5 calls)
     potinit      :      0.05s CPU      0.06s WALL (       1 calls)
     hinit0       :      0.23s CPU      0.24s WALL (       1 calls)

     Called by electrons:
     c_bands      :  64105.60s CPU  64650.01s WALL (     302 calls)
     sum_band     :   4554.36s CPU   4580.02s WALL (     302 calls)
     v_of_rho     :      4.97s CPU      5.31s WALL (     303 calls)
     v_h          :      0.24s CPU      0.28s WALL (     303 calls)
     v_xc         :      5.65s CPU      6.05s WALL (     363 calls)
     newd         :     99.17s CPU     99.62s WALL (     303 calls)
     PAW_pot      :     11.05s CPU     11.12s WALL (     332 calls)
     mix_rho      :      0.93s CPU      0.99s WALL (     302 calls)

     Called by c_bands:
     init_us_2    :     52.89s CPU     53.11s WALL (    3470 calls)
     cegterg      :  63993.46s CPU  64531.60s WALL (    1510 calls)

     Called by sum_band:
     sum_band:wei :      1.24s CPU      1.25s WALL (     302 calls)
     sum_band:loo :   4469.60s CPU   4494.76s WALL (     302 calls)
     sum_band:buf :     10.66s CPU     10.74s WALL (    1510 calls)
     sum_band:ini :     23.85s CPU     23.92s WALL (    1510 calls)
     sum_band:cal :   4424.88s CPU   4448.57s WALL (    1655 calls)
     sum_band:bec :     60.67s CPU     60.83s WALL (    1655 calls)
     addusdens    :     78.90s CPU     79.19s WALL (     302 calls)
                                        0.00s GPU  (     302 calls)
     addusd:skk   :      0.97s CPU      0.98s WALL (     906 calls)
                                        0.00s GPU  (     906 calls)

     Called by *egterg:
     cdiaghg      :   5569.05s CPU   5779.04s WALL (    4999 calls)
     cegterg:over :  10192.12s CPU  10237.33s WALL (    3779 calls)
     cegterg:upda :   4040.87s CPU   4066.14s WALL (    3779 calls)
     cegterg:last :  15466.14s CPU  15580.62s WALL (    3039 calls)
     cdiaghg:chol :    458.27s CPU    459.42s WALL (    4999 calls)
     cdiaghg:inve :     62.42s CPU     62.58s WALL (    4999 calls)
     cdiaghg:para :   1806.89s CPU   1832.66s WALL (    9998 calls)
     h_psi        :  18018.92s CPU  18116.63s WALL (    5294 calls)
     s_psi        :   7644.56s CPU   7662.89s WALL (    5294 calls)
     g_psi        :      6.39s CPU      6.44s WALL (    3779 calls)

     Called by h_psi:
     h_psi:calbec :   8810.52s CPU   8858.41s WALL (    5294 calls)
     vloc_psi     :   1473.08s CPU   1487.14s WALL (    5294 calls)
     add_vuspsi   :   7718.84s CPU   7742.71s WALL (    5294 calls)

     General routines
     calbec       :  15331.68s CPU  15414.34s WALL (    7699 calls)
     fft          :      5.47s CPU      6.03s WALL (    4141 calls)
     ffts         :      0.26s CPU      0.31s WALL (     302 calls)
     fftw         :   1681.15s CPU   1697.41s WALL ( 6248594 calls)

     Parallel routines

     PAW routines
     PAW_pot      :     11.05s CPU     11.12s WALL (     332 calls)

     PWSCF        :     21h 0m CPU     21h10m WALL


   This run was terminated on:  10:27:56  22Mar2025            

=------------------------------------------------------------------------------=
   JOB DONE.
=------------------------------------------------------------------------------=
Note: The following floating-point exceptions are signalling: IEEE_DENORMAL
Note: The following floating-point exceptions are signalling: IEEE_DENORMAL
Note: The following floating-point exceptions are signalling: IEEE_DENORMAL
Note: The following floating-point exceptions are signalling: IEEE_DENORMAL
Note: The following floating-point exceptions are signalling: IEEE_DENORMAL
Note: The following floating-point exceptions are signalling: IEEE_DENORMAL
Note: The following floating-point exceptions are signalling: IEEE_DENORMAL
Note: The following floating-point exceptions are signalling: IEEE_DENORMAL
Note: The following floating-point exceptions are signalling: IEEE_DENORMAL
Note: The following floating-point exceptions are signalling: IEEE_DENORMAL
Note: The following floating-point exceptions are signalling: IEEE_DENORMAL
Note: The following floating-point exceptions are signalling: IEEE_DENORMAL
