--------------------------------------------------------------------------
By default, for Open MPI 4.0 and later, infiniband ports on a device
are not used by default.  The intent is to use UCX for these devices.
You can override this policy by setting the btl_openib_allow_ib MCA parameter
to true.

  Local host:              psid02
  Local adapter:           mlx5_0
  Local port:              1

--------------------------------------------------------------------------
--------------------------------------------------------------------------
WARNING: There was an error initializing an OpenFabrics device.

  Local host:   psid02
  Local device: mlx5_0
--------------------------------------------------------------------------

     Program PWSCF v.7.3.1 starts on 10Mar2025 at 15:12: 1 

     This program is part of the open-source Quantum ESPRESSO suite
     for quantum simulation of materials; please cite
         "P. Giannozzi et al., J. Phys.:Condens. Matter 21 395502 (2009);
         "P. Giannozzi et al., J. Phys.:Condens. Matter 29 465901 (2017);
         "P. Giannozzi et al., J. Chem. Phys. 152 154105 (2020);
          URL http://www.quantum-espresso.org", 
     in publications or presentations arising from this work. More details at
     http://www.quantum-espresso.org/quote

     Parallel version (MPI), running on    16 processors

     MPI processes distributed on     1 nodes
     88343 MiB available memory on the printing compute node when the environment starts

     Waiting for input...
     Reading input from standard input
Warning: card &CELL ignored
Warning: card   CELL_DOFREE = 'ALL' ignored
Warning: card / ignored

     Current dimensions of program PWSCF are:
     Max number of different atomic species (ntypx) = 10
     Max number of k-points (npk) =  40000
     Max angular momentum in pseudopotentials (lmaxx) =  4
     Found identity + (  0.0000 -0.5000  0.0000) symmetry
     This is a supercell, fractional translations are disabled
     Message from routine setup:
     using ibrav=0 with symmetry is DISCOURAGED, use correct ibrav instead

     K-points division:     npool     =       4
     R & G space division:  proc/nbgrp/npool/nimage =       4
     Subspace diagonalization in iterative solution of the eigenvalue problem:
     one sub-group per band group will be used
     custom distributed-memory algorithm (size of sub-group:  2*  2 procs)


     Parallelization info
     --------------------
     sticks:   dense  smooth     PW     G-vecs:    dense   smooth      PW
     Min         677     336     91               101899    36008    5251
     Max         679     337     92               101906    36025    5266
     Sum        2713    1345    367               407615   144053   21043

     Using Slab Decomposition



     bravais-lattice index     =            0
     lattice parameter (alat)  =       9.8808  a.u.
     unit-cell volume          =    3015.5229 (a.u.)^3
     number of atoms/cell      =           16
     number of atomic types    =            1
     number of electrons       =       320.00
     number of Kohn-Sham states=          192
     kinetic-energy cutoff     =      50.0000  Ry
     charge density cutoff     =     400.0000  Ry
     scf convergence threshold =      7.3E-07
     mixing beta               =       0.7000
     number of iterations used =            8  plain     mixing
     energy convergence thresh.=      1.0E-05
     force convergence thresh. =      5.0E-04
     Exchange-correlation= SLA  PW   PBE  PBE
                           (   1   4   3   4   0   0   0)
     nstep                     =          100


     celldm(1)=   9.880849  celldm(2)=   0.000000  celldm(3)=   0.000000
     celldm(4)=   0.000000  celldm(5)=   0.000000  celldm(6)=   0.000000

     crystal axes: (cart. coord. in units of alat)
               a(1) = (   1.000000   0.000000   0.000000 )  
               a(2) = (  -0.500000   0.866025   0.000000 )  
               a(3) = (   0.000000   0.000000   3.609518 )  

     reciprocal axes: (cart. coord. in units 2 pi/alat)
               b(1) = (  1.000000  0.577350 -0.000000 )  
               b(2) = (  0.000000  1.154701  0.000000 )  
               b(3) = (  0.000000 -0.000000  0.277045 )  


     PseudoPot. # 1 for Zn read from file:
     /home/ys/qepseudo/SSSP_1.3.0_PBE_efficiency/Zn_pbe_v1.uspp.F.UPF
     MD5 check sum: df62231357ef9e81f77b2b3087fa5675
     Pseudo is Ultrasoft, Zval = 20.0
     Generated by new atomic code, or converted to UPF format
     Using radial grid of  943 points,  6 beta functions with: 
                l(1) =   0
                l(2) =   0
                l(3) =   1
                l(4) =   1
                l(5) =   2
                l(6) =   2
     Q(r) pseudized with  8 coefficients,  rinner =    1.100   1.100   1.100
                                                       1.100   1.100

     atomic species   valence    mass     pseudopotential
     Zn               20.00    65.38000     Zn( 1.00)

     12 Sym. Ops. (no inversion) found


                                    s                        frac. trans.

      isym =  1     identity                                     

 cryst.   s( 1) = (     1          0          0      )
                  (     0          1          0      )
                  (     0          0          1      )

 cart.    s( 1) = (  1.0000000  0.0000000  0.0000000 )
                  (  0.0000000  1.0000000  0.0000000 )
                  (  0.0000000  0.0000000  1.0000000 )


      isym =  2     180 deg rotation - cart. axis [0,0,1]        

 cryst.   s( 2) = (    -1          0          0      )
                  (     0         -1          0      )
                  (     0          0          1      )

 cart.    s( 2) = ( -1.0000000 -0.0000000  0.0000000 )
                  (  0.0000000 -1.0000000  0.0000000 )
                  (  0.0000000  0.0000000  1.0000000 )


      isym =  3      60 deg rotation - cryst. axis [0,0,1]       

 cryst.   s( 3) = (     1          1          0      )
                  (    -1          0          0      )
                  (     0          0          1      )

 cart.    s( 3) = (  0.5000000 -0.8660255  0.0000000 )
                  (  0.8660253  0.5000000  0.0000000 )
                  (  0.0000000  0.0000000  1.0000000 )


      isym =  4      60 deg rotation - cryst. axis [0,0,-1]      

 cryst.   s( 4) = (     0         -1          0      )
                  (     1          1          0      )
                  (     0          0          1      )

 cart.    s( 4) = (  0.5000000  0.8660255  0.0000000 )
                  ( -0.8660253  0.5000000  0.0000000 )
                  (  0.0000000  0.0000000  1.0000000 )


      isym =  5     120 deg rotation - cryst. axis [0,0,1]       

 cryst.   s( 5) = (     0          1          0      )
                  (    -1         -1          0      )
                  (     0          0          1      )

 cart.    s( 5) = ( -0.5000000 -0.8660255  0.0000000 )
                  (  0.8660253 -0.5000000  0.0000000 )
                  (  0.0000000  0.0000000  1.0000000 )


      isym =  6     120 deg rotation - cryst. axis [0,0,-1]      

 cryst.   s( 6) = (    -1         -1          0      )
                  (     1          0          0      )
                  (     0          0          1      )

 cart.    s( 6) = ( -0.5000000  0.8660255  0.0000000 )
                  ( -0.8660253 -0.5000000  0.0000000 )
                  (  0.0000000  0.0000000  1.0000000 )


      isym =  7     inv. 180 deg rotation - cart. axis [0,1,0]   

 cryst.   s( 7) = (     1          0          0      )
                  (    -1         -1          0      )
                  (     0          0          1      )

 cart.    s( 7) = (  1.0000000 -0.0000001  0.0000000 )
                  (  0.0000000 -1.0000000  0.0000000 )
                  (  0.0000000  0.0000000  1.0000000 )


      isym =  8     inv. 180 deg rotation - cart. axis [1,0,0]   

 cryst.   s( 8) = (    -1          0          0      )
                  (     1          1          0      )
                  (     0          0          1      )

 cart.    s( 8) = ( -1.0000000  0.0000001  0.0000000 )
                  (  0.0000000  1.0000000  0.0000000 )
                  (  0.0000000  0.0000000  1.0000000 )


      isym =  9     inv. 180 deg rotation - cryst. axis [1,-1,0] 

 cryst.   s( 9) = (     0          1          0      )
                  (     1          0          0      )
                  (     0          0          1      )

 cart.    s( 9) = ( -0.5000000  0.8660255  0.0000000 )
                  (  0.8660253  0.5000000  0.0000000 )
                  (  0.0000000  0.0000000  1.0000000 )


      isym = 10     inv. 180 deg rotation - cryst. axis [2,1,0]  

 cryst.   s(10) = (    -1         -1          0      )
                  (     0          1          0      )
                  (     0          0          1      )

 cart.    s(10) = ( -0.5000000 -0.8660254  0.0000000 )
                  ( -0.8660253  0.5000000  0.0000000 )
                  (  0.0000000  0.0000000  1.0000000 )


      isym = 11     inv. 180 deg rotation - cryst. axis [0,1,0]  

 cryst.   s(11) = (     1          1          0      )
                  (     0         -1          0      )
                  (     0          0          1      )

 cart.    s(11) = (  0.5000000  0.8660254  0.0000000 )
                  (  0.8660253 -0.5000000  0.0000000 )
                  (  0.0000000  0.0000000  1.0000000 )


      isym = 12     inv. 180 deg rotation - cryst. axis [1,1,0]  

 cryst.   s(12) = (     0         -1          0      )
                  (    -1          0          0      )
                  (     0          0          1      )

 cart.    s(12) = (  0.5000000 -0.8660255  0.0000000 )
                  ( -0.8660253 -0.5000000  0.0000000 )
                  (  0.0000000  0.0000000  1.0000000 )


   Cartesian axes

     site n.     atom                  positions (alat units)
         1        Zn     tau(   1) = (   0.0000000   0.2886751   0.2329997  )
         2        Zn     tau(   2) = (   0.0000000   0.2886751   0.6989991  )
         3        Zn     tau(   3) = (  -0.2500000   0.7216878   0.2329997  )
         4        Zn     tau(   4) = (  -0.2500000   0.7216878   0.6989991  )
         5        Zn     tau(   5) = (   0.5000000   0.2886751   0.2329997  )
         6        Zn     tau(   6) = (   0.5000000   0.2886751   0.6989991  )
         7        Zn     tau(   7) = (   0.2500000   0.7216878   0.2329997  )
         8        Zn     tau(   8) = (   0.2500000   0.7216878   0.6989991  )
         9        Zn     tau(   9) = (   0.2500000   0.1443376   0.2329997  )
        10        Zn     tau(  10) = (   0.2500000   0.1443376   0.6989991  )
        11        Zn     tau(  11) = (   0.0000000   0.5773502   0.2329997  )
        12        Zn     tau(  12) = (   0.0000000   0.5773502   0.6989991  )
        13        Zn     tau(  13) = (   0.7500000   0.1443376   0.2329997  )
        14        Zn     tau(  14) = (   0.7500000   0.1443376   0.6989991  )
        15        Zn     tau(  15) = (   0.5000000   0.5773502   0.2329997  )
        16        Zn     tau(  16) = (   0.5000000   0.5773502   0.6989991  )

   Crystallographic axes

     site n.     atom                  positions (cryst. coord.)
         1        Zn     tau(   1) = (  0.1666667  0.3333333  0.0645515  )
         2        Zn     tau(   2) = (  0.1666667  0.3333333  0.1936544  )
         3        Zn     tau(   3) = (  0.1666667  0.8333333  0.0645515  )
         4        Zn     tau(   4) = (  0.1666667  0.8333333  0.1936544  )
         5        Zn     tau(   5) = (  0.6666667  0.3333333  0.0645515  )
         6        Zn     tau(   6) = (  0.6666667  0.3333333  0.1936544  )
         7        Zn     tau(   7) = (  0.6666667  0.8333333  0.0645515  )
         8        Zn     tau(   8) = (  0.6666667  0.8333333  0.1936544  )
         9        Zn     tau(   9) = (  0.3333333  0.1666667  0.0645515  )
        10        Zn     tau(  10) = (  0.3333333  0.1666667  0.1936544  )
        11        Zn     tau(  11) = (  0.3333333  0.6666667  0.0645515  )
        12        Zn     tau(  12) = (  0.3333333  0.6666667  0.1936544  )
        13        Zn     tau(  13) = (  0.8333333  0.1666667  0.0645515  )
        14        Zn     tau(  14) = (  0.8333333  0.1666667  0.1936544  )
        15        Zn     tau(  15) = (  0.8333333  0.6666667  0.0645515  )
        16        Zn     tau(  16) = (  0.8333333  0.6666667  0.1936544  )

     number of k points=    12  Marzari-Vanderbilt smearing, width (Ry)=  0.0200
                       cart. coord. in units 2pi/alat
        k(    1) = (   0.0000000   0.0000000   0.0000000), wk =   0.0312500
        k(    2) = (   0.0000000   0.0000000   0.0692613), wk =   0.0625000
        k(    3) = (   0.0000000   0.0000000  -0.1385226), wk =   0.0312500
        k(    4) = (   0.0000000   0.2886752   0.0000000), wk =   0.1875000
        k(    5) = (   0.0000000   0.2886752   0.0692613), wk =   0.3750000
        k(    6) = (   0.0000000   0.2886752  -0.1385226), wk =   0.1875000
        k(    7) = (   0.0000000  -0.5773503   0.0000000), wk =   0.0937500
        k(    8) = (   0.0000000  -0.5773503   0.0692613), wk =   0.1875000
        k(    9) = (   0.0000000  -0.5773503  -0.1385226), wk =   0.0937500
        k(   10) = (   0.2500000   0.4330127   0.0000000), wk =   0.1875000
        k(   11) = (   0.2500000   0.4330127   0.0692613), wk =   0.3750000
        k(   12) = (   0.2500000   0.4330127  -0.1385226), wk =   0.1875000

                       cryst. coord.
        k(    1) = (   0.0000000   0.0000000   0.0000000), wk =   0.0312500
        k(    2) = (   0.0000000   0.0000000   0.2500000), wk =   0.0625000
        k(    3) = (   0.0000000   0.0000000  -0.5000000), wk =   0.0312500
        k(    4) = (   0.0000000   0.2500000   0.0000000), wk =   0.1875000
        k(    5) = (   0.0000000   0.2500000   0.2500000), wk =   0.3750000
        k(    6) = (   0.0000000   0.2500000  -0.5000000), wk =   0.1875000
        k(    7) = (   0.0000000  -0.5000000   0.0000000), wk =   0.0937500
        k(    8) = (   0.0000000  -0.5000000   0.2500000), wk =   0.1875000
        k(    9) = (   0.0000000  -0.5000000  -0.5000000), wk =   0.0937500
        k(   10) = (   0.2500000   0.2500000   0.0000000), wk =   0.1875000
        k(   11) = (   0.2500000   0.2500000   0.2500000), wk =   0.3750000
        k(   12) = (   0.2500000   0.2500000  -0.5000000), wk =   0.1875000

     Dense  grid:   407615 G-vectors     FFT dimensions: (  64,  64, 240)

     Smooth grid:   144053 G-vectors     FFT dimensions: (  45,  45, 162)

     Dynamical RAM for                 wfc:      13.19 MB

     Dynamical RAM for     wfc (w. buffer):      52.75 MB

     Dynamical RAM for           str. fact:       1.55 MB

     Dynamical RAM for           local pot:       0.00 MB

     Dynamical RAM for          nlocal pot:      19.78 MB

     Dynamical RAM for                qrad:       1.61 MB

     Dynamical RAM for          rho,v,vnew:      10.29 MB

     Dynamical RAM for               rhoin:       3.43 MB

     Dynamical RAM for            rho*nmix:      24.88 MB

     Dynamical RAM for           G-vectors:       6.11 MB

     Dynamical RAM for          h,s,v(r/c):       1.69 MB

     Dynamical RAM for          <psi|beta>:       0.84 MB

     Dynamical RAM for                 psi:      26.37 MB

     Dynamical RAM for                hpsi:      26.37 MB

     Dynamical RAM for                spsi:      26.37 MB

     Dynamical RAM for      wfcinit/wfcrot:      29.56 MB

     Dynamical RAM for           addusdens:      79.69 MB

     Dynamical RAM for          addusforce:      91.03 MB

     Dynamical RAM for         addusstress:      78.72 MB

     Estimated static dynamical RAM per process >     108.00 MB

     Estimated max dynamical RAM per process >     223.90 MB

     Estimated total dynamical RAM >       3.21 GB

     Initial potential from superposition of free atoms

     starting charge     319.9977, renormalised to     320.0000

     negative rho (up, down):  4.585E-04 0.000E+00
     Starting wfcs are  208 randomized atomic wfcs
[psid02:118894] 15 more processes have sent help message help-mpi-btl-openib.txt / ib port not selected
[psid02:118894] Set MCA parameter "orte_base_help_aggregate" to 0 to see all help / error messages
[psid02:118894] 15 more processes have sent help message help-mpi-btl-openib.txt / error in device init

     total cpu time spent up to now is        8.9 secs

     Self-consistent Calculation

     iteration #  1     ecut=    50.00 Ry     beta= 0.70
     Davidson diagonalization with overlap

---- Real-time Memory Report at c_bands before calling an iterative solver
           151 MiB given to the printing process from OS
             0 MiB allocation reported by mallinfo(arena+hblkhd)
         86383 MiB available memory on the node where the printing process lives
------------------
     ethr =  1.00E-02,  avg # of iterations =  7.2

     Threshold (ethr) on eigenvalues was too large:
     Diagonalizing with lowered threshold

     Davidson diagonalization with overlap

---- Real-time Memory Report at c_bands before calling an iterative solver
           231 MiB given to the printing process from OS
             0 MiB allocation reported by mallinfo(arena+hblkhd)
         85742 MiB available memory on the node where the printing process lives
------------------
     ethr =  6.27E-05,  avg # of iterations =  7.2

     negative rho (up, down):  1.779E-04 0.000E+00

     total cpu time spent up to now is       83.3 secs

     total energy              =   -7364.75924357 Ry
     estimated scf accuracy    <       0.19476241 Ry

     iteration #  2     ecut=    50.00 Ry     beta= 0.70
     Davidson diagonalization with overlap

---- Real-time Memory Report at c_bands before calling an iterative solver
           242 MiB given to the printing process from OS
             0 MiB allocation reported by mallinfo(arena+hblkhd)
         85509 MiB available memory on the node where the printing process lives
------------------
     ethr =  6.09E-05,  avg # of iterations =  2.1

     negative rho (up, down):  3.357E-04 0.000E+00

     total cpu time spent up to now is      112.2 secs

     total energy              =   -7364.76621359 Ry
     estimated scf accuracy    <       0.02920082 Ry

     iteration #  3     ecut=    50.00 Ry     beta= 0.70
     Davidson diagonalization with overlap

---- Real-time Memory Report at c_bands before calling an iterative solver
           242 MiB given to the printing process from OS
             0 MiB allocation reported by mallinfo(arena+hblkhd)
         85485 MiB available memory on the node where the printing process lives
------------------
     ethr =  9.13E-06,  avg # of iterations =  6.7

     negative rho (up, down):  3.853E-04 0.000E+00

     total cpu time spent up to now is      151.9 secs

     total energy              =   -7364.77299555 Ry
     estimated scf accuracy    <       0.01536085 Ry

     iteration #  4     ecut=    50.00 Ry     beta= 0.70
     Davidson diagonalization with overlap

---- Real-time Memory Report at c_bands before calling an iterative solver
           244 MiB given to the printing process from OS
             0 MiB allocation reported by mallinfo(arena+hblkhd)
         85426 MiB available memory on the node where the printing process lives
------------------
     ethr =  4.80E-06,  avg # of iterations =  2.9

     negative rho (up, down):  3.921E-04 0.000E+00

     total cpu time spent up to now is      183.6 secs

     total energy              =   -7364.77596711 Ry
     estimated scf accuracy    <       0.00013913 Ry

     iteration #  5     ecut=    50.00 Ry     beta= 0.70
     Davidson diagonalization with overlap

---- Real-time Memory Report at c_bands before calling an iterative solver
           246 MiB given to the printing process from OS
             0 MiB allocation reported by mallinfo(arena+hblkhd)
         85420 MiB available memory on the node where the printing process lives
------------------
     ethr =  4.35E-08,  avg # of iterations =  4.2

     negative rho (up, down):  3.962E-04 0.000E+00

     total cpu time spent up to now is      215.7 secs

     total energy              =   -7364.77592814 Ry
     estimated scf accuracy    <       0.00061888 Ry

     iteration #  6     ecut=    50.00 Ry     beta= 0.70
     Davidson diagonalization with overlap

---- Real-time Memory Report at c_bands before calling an iterative solver
           246 MiB given to the printing process from OS
             0 MiB allocation reported by mallinfo(arena+hblkhd)
         85364 MiB available memory on the node where the printing process lives
------------------
     ethr =  4.35E-08,  avg # of iterations =  2.4

     negative rho (up, down):  3.968E-04 0.000E+00

     total cpu time spent up to now is      244.9 secs

     total energy              =   -7364.77598455 Ry
     estimated scf accuracy    <       0.00057289 Ry

     iteration #  7     ecut=    50.00 Ry     beta= 0.70
     Davidson diagonalization with overlap

---- Real-time Memory Report at c_bands before calling an iterative solver
           248 MiB given to the printing process from OS
             0 MiB allocation reported by mallinfo(arena+hblkhd)
         85359 MiB available memory on the node where the printing process lives
------------------
     ethr =  4.35E-08,  avg # of iterations =  1.8

     negative rho (up, down):  3.960E-04 0.000E+00

     total cpu time spent up to now is      270.6 secs

     total energy              =   -7364.77602908 Ry
     estimated scf accuracy    <       0.00001406 Ry

     iteration #  8     ecut=    50.00 Ry     beta= 0.70
     Davidson diagonalization with overlap

---- Real-time Memory Report at c_bands before calling an iterative solver
           248 MiB given to the printing process from OS
             0 MiB allocation reported by mallinfo(arena+hblkhd)
         85306 MiB available memory on the node where the printing process lives
------------------
     ethr =  4.39E-09,  avg # of iterations =  2.0

     negative rho (up, down):  3.959E-04 0.000E+00

     total cpu time spent up to now is      296.4 secs

     End of self-consistent calculation

          k = 0.0000 0.0000 0.0000 ( 17973 PWs)   bands (ev):

  -127.3673-127.3641-126.6904-126.6904-126.6904-126.6877-126.6877-126.6877
  -125.9999-125.9999-125.9998-125.9975-125.9975-125.9975-125.2902-125.2882
   -83.2197 -83.2196 -83.2196 -83.2159 -83.2159 -83.2159 -82.8641 -82.8641
   -82.8606 -82.8606 -82.0364 -82.0363 -82.0363 -82.0331 -82.0331 -82.0331
   -80.4593 -80.4207 -80.0957 -80.0957 -80.0957 -80.0943 -80.0942 -80.0942
   -80.0806 -80.0806 -80.0806 -80.0475 -80.0475 -80.0474 -79.7026 -79.7026
   -79.7026 -79.6750 -79.6750 -79.6749 -79.3232 -79.3013 -79.2450 -79.2450
   -79.2434 -79.2434 -78.8685 -78.8684 -78.8684 -78.8675 -78.8674 -78.8674
   -13.3195 -13.3194 -13.3194 -13.1856 -13.1855 -13.1855 -11.9240 -11.9240
   -11.9240 -11.9172 -11.8971 -11.8971 -11.8971 -11.5831 -10.6609 -10.6609
   -10.6609 -10.2391 -10.2390 -10.2390 -10.1857 -10.1857 -10.1857 -10.1675
    -9.7652  -9.7652  -9.4001  -9.4001  -9.3473  -9.3473  -9.3473  -9.3393
    -9.3393  -9.3393  -9.1436  -9.1436  -9.1436  -8.6999  -8.6999  -8.6785
    -8.6785  -8.6488  -8.6488  -8.6015  -8.6015  -7.0320  -7.0320  -7.0320
    -6.1836  -6.1836  -6.1835  -6.0455  -6.0455  -6.0455  -5.7360  -5.5856
    -5.5856  -5.5856  -5.3209  -5.3209  -5.3209  -4.8672  -4.8671  -4.6779
    -4.6779  -4.3683  -3.8529  -3.8529  -3.8529  -3.7683  -3.7683  -3.7683
    -3.7248  -3.6947  -3.6947  -3.6947  -3.5941  -3.5941  -3.5941  -3.5810
    -3.5810  -3.5810  -2.7762  -2.7762  -2.7762  -1.8811   0.2958   0.2958
     0.2958   0.5711   0.5711   0.5711   3.2211   3.2211   3.2211   4.6203
     6.3717   6.3717   6.3717   8.6513   8.7298   8.7298   8.7298   9.2995
     9.7921   9.8855   9.8855   9.8855  11.3784  12.1332  12.6715  12.6715
    12.6715  12.8242  12.8242  12.8242  12.8454  12.8454  12.8454  14.6065
    15.5536  15.5537  15.5537  15.5605  16.0416  16.0416  16.0416  16.4926

     occupation numbers 
     1.0000   1.0000   1.0000   1.0000   1.0000   1.0000   1.0000   1.0000
     1.0000   1.0000   1.0000   1.0000   1.0000   1.0000   1.0000   1.0000
     1.0000   1.0000   1.0000   1.0000   1.0000   1.0000   1.0000   1.0000
     1.0000   1.0000   1.0000   1.0000   1.0000   1.0000   1.0000   1.0000
     1.0000   1.0000   1.0000   1.0000   1.0000   1.0000   1.0000   1.0000
     1.0000   1.0000   1.0000   1.0000   1.0000   1.0000   1.0000   1.0000
     1.0000   1.0000   1.0000   1.0000   1.0000   1.0000   1.0000   1.0000
     1.0000   1.0000   1.0000   1.0000   1.0000   1.0000   1.0000   1.0000
     1.0000   1.0000   1.0000   1.0000   1.0000   1.0000   1.0000   1.0000
     1.0000   1.0000   1.0000   1.0000   1.0000   1.0000   1.0000   1.0000
     1.0000   1.0000   1.0000   1.0000   1.0000   1.0000   1.0000   1.0000
     1.0000   1.0000   1.0000   1.0000   1.0000   1.0000   1.0000   1.0000
     1.0000   1.0000   1.0000   1.0000   1.0000   1.0000   1.0000   1.0000
     1.0000   1.0000   1.0000   1.0000   1.0000   1.0000   1.0000   1.0000
     1.0000   1.0000   1.0000   1.0000   1.0000   1.0000   1.0000   1.0000
     1.0000   1.0000   1.0000   1.0000   1.0000   1.0000   1.0000   1.0000
     1.0000   1.0000   1.0000   1.0000   1.0000   1.0000   1.0000   1.0000
     1.0000   1.0000   1.0000   1.0000   1.0000   1.0000   1.0000   1.0000
     1.0000   1.0000   1.0000   1.0000   1.0000   1.0000   1.0000   1.0000
     1.0000   1.0000   1.0000   1.0000   1.0000   1.0000   1.0000   1.0000
     0.0048   0.0048   0.0048   0.0000   0.0000   0.0000   0.0000   0.0000
     0.0000   0.0000   0.0000   0.0000   0.0000   0.0000   0.0000   0.0000
     0.0000   0.0000   0.0000   0.0000   0.0000   0.0000   0.0000   0.0000
     0.0000   0.0000   0.0000   0.0000   0.0000   0.0000   0.0000   0.0000

          k = 0.0000 0.0000 0.0693 ( 17960 PWs)   bands (ev):

  -127.3673-127.3641-126.6904-126.6904-126.6904-126.6877-126.6877-126.6877
  -125.9999-125.9999-125.9998-125.9975-125.9975-125.9975-125.2902-125.2882
   -83.2197 -83.2197 -83.2197 -83.2160 -83.2159 -83.2159 -82.8640 -82.8640
   -82.8606 -82.8606 -82.0363 -82.0363 -82.0363 -82.0331 -82.0331 -82.0331
   -80.4593 -80.4207 -80.0957 -80.0957 -80.0957 -80.0943 -80.0942 -80.0942
   -80.0807 -80.0807 -80.0806 -80.0474 -80.0474 -80.0474 -79.7027 -79.7027
   -79.7026 -79.6750 -79.6750 -79.6749 -79.3232 -79.3013 -79.2449 -79.2449
   -79.2434 -79.2434 -78.8684 -78.8684 -78.8684 -78.8674 -78.8674 -78.8674
   -13.3195 -13.3195 -13.3195 -13.1856 -13.1855 -13.1855 -11.9240 -11.9240
   -11.9240 -11.9172 -11.8971 -11.8971 -11.8971 -11.5830 -10.6609 -10.6609
   -10.6609 -10.2391 -10.2390 -10.2390 -10.1858 -10.1857 -10.1857 -10.1675
    -9.7652  -9.7652  -9.4001  -9.4001  -9.3473  -9.3472  -9.3472  -9.3393
    -9.3393  -9.3393  -9.1436  -9.1436  -9.1436  -8.6999  -8.6999  -8.6785
    -8.6785  -8.6488  -8.6488  -8.6015  -8.6015  -7.0320  -7.0320  -7.0320
    -6.1836  -6.1836  -6.1835  -6.0455  -6.0455  -6.0455  -5.7360  -5.5856
    -5.5856  -5.5856  -5.3209  -5.3209  -5.3209  -4.8672  -4.8672  -4.6779
    -4.6779  -4.3682  -3.8529  -3.8529  -3.8529  -3.7683  -3.7683  -3.7683
    -3.7248  -3.6947  -3.6947  -3.6947  -3.5941  -3.5941  -3.5941  -3.5810
    -3.5810  -3.5810  -2.7762  -2.7762  -2.7762  -1.8811   0.2957   0.2958
     0.2958   0.5711   0.5711   0.5711   3.2211   3.2211   3.2211   4.6203
     6.3717   6.3717   6.3717   8.6736   8.7298   8.7298   8.7298   9.1905
     9.8855   9.8855   9.8855   9.9711  11.0884  12.4822  12.6715  12.6715
    12.6715  12.8242  12.8242  12.8242  12.8454  12.8454  12.8454  14.1553
    15.5586  15.5586  15.5586  16.0676  16.0677  16.0677  16.0770  16.5124

     occupation numbers 
     1.0000   1.0000   1.0000   1.0000   1.0000   1.0000   1.0000   1.0000
     1.0000   1.0000   1.0000   1.0000   1.0000   1.0000   1.0000   1.0000
     1.0000   1.0000   1.0000   1.0000   1.0000   1.0000   1.0000   1.0000
     1.0000   1.0000   1.0000   1.0000   1.0000   1.0000   1.0000   1.0000
     1.0000   1.0000   1.0000   1.0000   1.0000   1.0000   1.0000   1.0000
     1.0000   1.0000   1.0000   1.0000   1.0000   1.0000   1.0000   1.0000
     1.0000   1.0000   1.0000   1.0000   1.0000   1.0000   1.0000   1.0000
     1.0000   1.0000   1.0000   1.0000   1.0000   1.0000   1.0000   1.0000
     1.0000   1.0000   1.0000   1.0000   1.0000   1.0000   1.0000   1.0000
     1.0000   1.0000   1.0000   1.0000   1.0000   1.0000   1.0000   1.0000
     1.0000   1.0000   1.0000   1.0000   1.0000   1.0000   1.0000   1.0000
     1.0000   1.0000   1.0000   1.0000   1.0000   1.0000   1.0000   1.0000
     1.0000   1.0000   1.0000   1.0000   1.0000   1.0000   1.0000   1.0000
     1.0000   1.0000   1.0000   1.0000   1.0000   1.0000   1.0000   1.0000
     1.0000   1.0000   1.0000   1.0000   1.0000   1.0000   1.0000   1.0000
     1.0000   1.0000   1.0000   1.0000   1.0000   1.0000   1.0000   1.0000
     1.0000   1.0000   1.0000   1.0000   1.0000   1.0000   1.0000   1.0000
     1.0000   1.0000   1.0000   1.0000   1.0000   1.0000   1.0000   1.0000
     1.0000   1.0000   1.0000   1.0000   1.0000   1.0000   1.0000   1.0000
     1.0000   1.0000   1.0000   1.0000   1.0000   1.0000   1.0000   1.0000
     0.0048   0.0048   0.0048   0.0000   0.0000   0.0000   0.0000   0.0000
     0.0000   0.0000   0.0000   0.0000   0.0000   0.0000   0.0000   0.0000
     0.0000   0.0000   0.0000   0.0000   0.0000   0.0000   0.0000   0.0000
     0.0000   0.0000   0.0000   0.0000   0.0000   0.0000   0.0000   0.0000

          k = 0.0000 0.0000-0.1385 ( 17948 PWs)   bands (ev):

  -127.3673-127.3641-126.6904-126.6904-126.6904-126.6877-126.6877-126.6877
  -125.9999-125.9999-125.9998-125.9975-125.9975-125.9975-125.2902-125.2882
   -83.2197 -83.2197 -83.2197 -83.2160 -83.2160 -83.2159 -82.8640 -82.8640
   -82.8607 -82.8607 -82.0363 -82.0363 -82.0362 -82.0331 -82.0331 -82.0331
   -80.4593 -80.4205 -80.0957 -80.0957 -80.0957 -80.0942 -80.0942 -80.0942
   -80.0807 -80.0807 -80.0806 -80.0474 -80.0474 -80.0474 -79.7026 -79.7026
   -79.7026 -79.6750 -79.6750 -79.6750 -79.3234 -79.3012 -79.2449 -79.2449
   -79.2433 -79.2433 -78.8684 -78.8683 -78.8683 -78.8675 -78.8674 -78.8674
   -13.3195 -13.3194 -13.3194 -13.1856 -13.1855 -13.1855 -11.9240 -11.9240
   -11.9240 -11.9172 -11.8971 -11.8971 -11.8971 -11.5830 -10.6609 -10.6609
   -10.6609 -10.2391 -10.2390 -10.2390 -10.1858 -10.1858 -10.1858 -10.1675
    -9.7653  -9.7653  -9.4001  -9.4001  -9.3472  -9.3472  -9.3472  -9.3393
    -9.3393  -9.3393  -9.1436  -9.1436  -9.1436  -8.6999  -8.6999  -8.6785
    -8.6785  -8.6488  -8.6488  -8.6016  -8.6016  -7.0320  -7.0320  -7.0320
    -6.1836  -6.1836  -6.1835  -6.0456  -6.0456  -6.0455  -5.7360  -5.5856
    -5.5856  -5.5855  -5.3209  -5.3209  -5.3209  -4.8672  -4.8672  -4.6778
    -4.6778  -4.3682  -3.8530  -3.8530  -3.8530  -3.7683  -3.7683  -3.7683
    -3.7248  -3.6947  -3.6947  -3.6947  -3.5941  -3.5941  -3.5941  -3.5810
    -3.5810  -3.5810  -2.7762  -2.7762  -2.7762  -1.8811   0.2958   0.2958
     0.2958   0.5711   0.5711   0.5711   3.2211   3.2211   3.2211   4.6203
     6.3717   6.3717   6.3717   8.7012   8.7298   8.7298   8.7298   9.1032
     9.8855   9.8855   9.8855  10.1715  10.8237  12.6715  12.6715  12.6715
    12.8242  12.8242  12.8242  12.8453  12.8454  12.8454  12.8516  13.7303
    15.5637  15.5637  15.5637  16.1004  16.1005  16.1005  16.5683  16.5685

     occupation numbers 
     1.0000   1.0000   1.0000   1.0000   1.0000   1.0000   1.0000   1.0000
     1.0000   1.0000   1.0000   1.0000   1.0000   1.0000   1.0000   1.0000
     1.0000   1.0000   1.0000   1.0000   1.0000   1.0000   1.0000   1.0000
     1.0000   1.0000   1.0000   1.0000   1.0000   1.0000   1.0000   1.0000
     1.0000   1.0000   1.0000   1.0000   1.0000   1.0000   1.0000   1.0000
     1.0000   1.0000   1.0000   1.0000   1.0000   1.0000   1.0000   1.0000
     1.0000   1.0000   1.0000   1.0000   1.0000   1.0000   1.0000   1.0000
     1.0000   1.0000   1.0000   1.0000   1.0000   1.0000   1.0000   1.0000
     1.0000   1.0000   1.0000   1.0000   1.0000   1.0000   1.0000   1.0000
     1.0000   1.0000   1.0000   1.0000   1.0000   1.0000   1.0000   1.0000
     1.0000   1.0000   1.0000   1.0000   1.0000   1.0000   1.0000   1.0000
     1.0000   1.0000   1.0000   1.0000   1.0000   1.0000   1.0000   1.0000
     1.0000   1.0000   1.0000   1.0000   1.0000   1.0000   1.0000   1.0000
     1.0000   1.0000   1.0000   1.0000   1.0000   1.0000   1.0000   1.0000
     1.0000   1.0000   1.0000   1.0000   1.0000   1.0000   1.0000   1.0000
     1.0000   1.0000   1.0000   1.0000   1.0000   1.0000   1.0000   1.0000
     1.0000   1.0000   1.0000   1.0000   1.0000   1.0000   1.0000   1.0000
     1.0000   1.0000   1.0000   1.0000   1.0000   1.0000   1.0000   1.0000
     1.0000   1.0000   1.0000   1.0000   1.0000   1.0000   1.0000   1.0000
     1.0000   1.0000   1.0000   1.0000   1.0000   1.0000   1.0000   1.0000
     0.0048   0.0048   0.0048   0.0000   0.0000   0.0000   0.0000   0.0000
     0.0000   0.0000   0.0000   0.0000   0.0000   0.0000   0.0000   0.0000
     0.0000   0.0000   0.0000   0.0000   0.0000   0.0000   0.0000   0.0000
     0.0000   0.0000   0.0000   0.0000   0.0000   0.0000   0.0000   0.0000

          k = 0.0000 0.2887 0.0000 ( 17957 PWs)   bands (ev):

  -127.2997-127.2965-126.8522-126.8494-126.6907-126.6906-126.6879-126.6879
  -125.9996-125.9996-125.9973-125.9973-125.8333-125.8310-125.3627-125.3607
   -83.2763 -83.2762 -83.2724 -83.2724 -83.1715 -83.1677 -82.9205 -82.9171
   -82.7679 -82.7646 -82.1959 -82.1926 -81.9034 -81.9034 -81.9002 -81.9002
   -80.4210 -80.3830 -80.2245 -80.2245 -80.2226 -80.2226 -80.1703 -80.1361
   -80.0807 -80.0807 -80.0477 -80.0476 -79.9332 -79.9312 -79.7026 -79.7025
   -79.6749 -79.6749 -79.6127 -79.5865 -79.3616 -79.3446 -79.3429 -79.3390
   -79.1854 -79.1839 -78.9196 -78.9184 -78.8163 -78.8163 -78.8151 -78.8151
   -13.7396 -13.7396 -13.6142 -13.6142 -12.9377 -12.8018 -11.7014 -11.6717
   -11.4697 -11.2532 -11.2531 -11.2484 -11.2130 -11.2130 -11.0705 -11.0705
   -10.5469 -10.4793 -10.4520 -10.4520 -10.1604 -10.1380 -10.0853 -10.0368
    -9.9746  -9.9044  -9.8272  -9.6455  -9.6379  -9.6038  -9.6038  -9.5331
    -9.4793  -9.4792  -9.4742  -9.3656  -9.3271  -9.3271  -9.3249  -8.8934
    -8.8934  -7.5169  -7.3590  -7.3590  -7.3418  -7.3083  -7.1425  -7.0654
    -6.3310  -6.3310  -6.1354  -6.1354  -6.1160  -5.9705  -5.6799  -5.6799
    -5.6702  -5.6156  -5.5668  -5.4806  -5.4806  -5.3614  -4.7032  -4.6949
    -4.5778  -4.5778  -4.5264  -4.4651  -4.1777  -4.1755  -4.1287  -3.9724
    -3.8867  -3.7976  -3.7796  -3.7430  -3.7429  -3.6674  -3.6673  -3.5468
    -3.5468  -2.7481  -2.7481  -2.6432  -2.6432  -1.9652  -0.8644  -0.3474
    -0.3474   1.5552   1.5552   3.1545   4.3805   4.4929   4.4929   5.2434
     5.8149   5.8149   6.4373   7.5143   7.5143   9.1074   9.7052   9.7909
    10.0848  10.0848  10.2466  10.5071  10.5071  10.7524  11.6165  11.6165
    11.7370  11.8700  12.5505  12.7667  13.6165  13.7412  13.8933  14.0896
    14.5786  14.5787  14.9650  14.9650  15.1000  15.5204  15.5208  15.7129

     occupation numbers 
     1.0000   1.0000   1.0000   1.0000   1.0000   1.0000   1.0000   1.0000
     1.0000   1.0000   1.0000   1.0000   1.0000   1.0000   1.0000   1.0000
     1.0000   1.0000   1.0000   1.0000   1.0000   1.0000   1.0000   1.0000
     1.0000   1.0000   1.0000   1.0000   1.0000   1.0000   1.0000   1.0000
     1.0000   1.0000   1.0000   1.0000   1.0000   1.0000   1.0000   1.0000
     1.0000   1.0000   1.0000   1.0000   1.0000   1.0000   1.0000   1.0000
     1.0000   1.0000   1.0000   1.0000   1.0000   1.0000   1.0000   1.0000
     1.0000   1.0000   1.0000   1.0000   1.0000   1.0000   1.0000   1.0000
     1.0000   1.0000   1.0000   1.0000   1.0000   1.0000   1.0000   1.0000
     1.0000   1.0000   1.0000   1.0000   1.0000   1.0000   1.0000   1.0000
     1.0000   1.0000   1.0000   1.0000   1.0000   1.0000   1.0000   1.0000
     1.0000   1.0000   1.0000   1.0000   1.0000   1.0000   1.0000   1.0000
     1.0000   1.0000   1.0000   1.0000   1.0000   1.0000   1.0000   1.0000
     1.0000   1.0000   1.0000   1.0000   1.0000   1.0000   1.0000   1.0000
     1.0000   1.0000   1.0000   1.0000   1.0000   1.0000   1.0000   1.0000
     1.0000   1.0000   1.0000   1.0000   1.0000   1.0000   1.0000   1.0000
     1.0000   1.0000   1.0000   1.0000   1.0000   1.0000   1.0000   1.0000
     1.0000   1.0000   1.0000   1.0000   1.0000   1.0000   1.0000   1.0000
     1.0000   1.0000   1.0000   1.0000   1.0000   1.0000   1.0000   1.0000
     1.0000   1.0000   1.0000   1.0000   1.0000   1.0000   1.0000   1.0053
     0.8265   0.8265   0.0016   0.0000   0.0000   0.0000   0.0000   0.0000
     0.0000   0.0000   0.0000   0.0000   0.0000   0.0000   0.0000   0.0000
     0.0000   0.0000   0.0000   0.0000   0.0000   0.0000   0.0000   0.0000
     0.0000   0.0000   0.0000   0.0000   0.0000   0.0000   0.0000   0.0000

          k = 0.0000 0.2887 0.0693 ( 17993 PWs)   bands (ev):

  -127.2997-127.2965-126.8523-126.8494-126.6907-126.6906-126.6879-126.6879
  -125.9996-125.9996-125.9973-125.9973-125.8333-125.8310-125.3627-125.3607
   -83.2762 -83.2762 -83.2724 -83.2724 -83.1715 -83.1678 -82.9205 -82.9171
   -82.7679 -82.7646 -82.1960 -82.1926 -81.9034 -81.9034 -81.9002 -81.9002
   -80.4210 -80.3830 -80.2245 -80.2245 -80.2227 -80.2226 -80.1703 -80.1361
   -80.0807 -80.0807 -80.0477 -80.0476 -79.9332 -79.9312 -79.7025 -79.7025
   -79.6749 -79.6749 -79.6128 -79.5865 -79.3616 -79.3446 -79.3429 -79.3390
   -79.1854 -79.1839 -78.9197 -78.9184 -78.8163 -78.8163 -78.8151 -78.8151
   -13.7396 -13.7396 -13.6142 -13.6142 -12.9377 -12.8018 -11.7015 -11.6717
   -11.4697 -11.2532 -11.2531 -11.2484 -11.2130 -11.2130 -11.0705 -11.0705
   -10.5470 -10.4793 -10.4520 -10.4520 -10.1604 -10.1380 -10.0853 -10.0368
    -9.9746  -9.9044  -9.8272  -9.6455  -9.6380  -9.6038  -9.6038  -9.5331
    -9.4793  -9.4793  -9.4742  -9.3656  -9.3271  -9.3271  -9.3249  -8.8934
    -8.8934  -7.5169  -7.3590  -7.3590  -7.3418  -7.3084  -7.1425  -7.0654
    -6.3310  -6.3310  -6.1354  -6.1354  -6.1160  -5.9705  -5.6799  -5.6799
    -5.6703  -5.6156  -5.5668  -5.4806  -5.4806  -5.3614  -4.7032  -4.6949
    -4.5778  -4.5778  -4.5264  -4.4651  -4.1777  -4.1755  -4.1287  -3.9724
    -3.8868  -3.7976  -3.7796  -3.7430  -3.7429  -3.6674  -3.6674  -3.5468
    -3.5468  -2.7481  -2.7481  -2.6432  -2.6432  -1.9652  -0.8644  -0.3474
    -0.3474   1.5552   1.5552   3.1545   4.3805   4.4929   4.4929   5.2434
     5.8149   5.8149   6.4373   7.5143   7.5143   9.1296   9.6725   9.7051
    10.0848  10.0848  10.4403  10.5071  10.5071  10.7524  11.5536  11.6164
    11.6164  11.7370  12.7879  12.9286  13.4436  13.7412  14.0404  14.1636
    14.5987  14.5987  14.6996  14.9606  14.9606  15.2463  15.3263  15.3263

     occupation numbers 
     1.0000   1.0000   1.0000   1.0000   1.0000   1.0000   1.0000   1.0000
     1.0000   1.0000   1.0000   1.0000   1.0000   1.0000   1.0000   1.0000
     1.0000   1.0000   1.0000   1.0000   1.0000   1.0000   1.0000   1.0000
     1.0000   1.0000   1.0000   1.0000   1.0000   1.0000   1.0000   1.0000
     1.0000   1.0000   1.0000   1.0000   1.0000   1.0000   1.0000   1.0000
     1.0000   1.0000   1.0000   1.0000   1.0000   1.0000   1.0000   1.0000
     1.0000   1.0000   1.0000   1.0000   1.0000   1.0000   1.0000   1.0000
     1.0000   1.0000   1.0000   1.0000   1.0000   1.0000   1.0000   1.0000
     1.0000   1.0000   1.0000   1.0000   1.0000   1.0000   1.0000   1.0000
     1.0000   1.0000   1.0000   1.0000   1.0000   1.0000   1.0000   1.0000
     1.0000   1.0000   1.0000   1.0000   1.0000   1.0000   1.0000   1.0000
     1.0000   1.0000   1.0000   1.0000   1.0000   1.0000   1.0000   1.0000
     1.0000   1.0000   1.0000   1.0000   1.0000   1.0000   1.0000   1.0000
     1.0000   1.0000   1.0000   1.0000   1.0000   1.0000   1.0000   1.0000
     1.0000   1.0000   1.0000   1.0000   1.0000   1.0000   1.0000   1.0000
     1.0000   1.0000   1.0000   1.0000   1.0000   1.0000   1.0000   1.0000
     1.0000   1.0000   1.0000   1.0000   1.0000   1.0000   1.0000   1.0000
     1.0000   1.0000   1.0000   1.0000   1.0000   1.0000   1.0000   1.0000
     1.0000   1.0000   1.0000   1.0000   1.0000   1.0000   1.0000   1.0000
     1.0000   1.0000   1.0000   1.0000   1.0000   1.0000   1.0000   1.0053
     0.8265   0.8265   0.0016   0.0000   0.0000   0.0000   0.0000   0.0000
     0.0000   0.0000   0.0000   0.0000   0.0000   0.0000   0.0000   0.0000
     0.0000   0.0000   0.0000   0.0000   0.0000   0.0000   0.0000   0.0000
     0.0000   0.0000   0.0000   0.0000   0.0000   0.0000   0.0000   0.0000

          k = 0.0000 0.2887-0.1385 ( 17990 PWs)   bands (ev):

  -127.2997-127.2965-126.8522-126.8494-126.6907-126.6906-126.6879-126.6879
  -125.9996-125.9996-125.9973-125.9973-125.8333-125.8310-125.3626-125.3607
   -83.2763 -83.2762 -83.2724 -83.2724 -83.1715 -83.1678 -82.9205 -82.9171
   -82.7679 -82.7646 -82.1960 -82.1926 -81.9034 -81.9034 -81.9003 -81.9002
   -80.4210 -80.3830 -80.2246 -80.2246 -80.2227 -80.2227 -80.1703 -80.1360
   -80.0807 -80.0807 -80.0477 -80.0476 -79.9332 -79.9312 -79.7025 -79.7025
   -79.6749 -79.6749 -79.6128 -79.5865 -79.3616 -79.3447 -79.3430 -79.3390
   -79.1854 -79.1839 -78.9197 -78.9184 -78.8163 -78.8163 -78.8152 -78.8152
   -13.7396 -13.7396 -13.6142 -13.6142 -12.9377 -12.8018 -11.7015 -11.6717
   -11.4697 -11.2532 -11.2532 -11.2484 -11.2130 -11.2130 -11.0705 -11.0705
   -10.5470 -10.4792 -10.4520 -10.4520 -10.1604 -10.1380 -10.0853 -10.0368
    -9.9746  -9.9044  -9.8272  -9.6455  -9.6379  -9.6038  -9.6038  -9.5331
    -9.4793  -9.4793  -9.4742  -9.3656  -9.3271  -9.3271  -9.3249  -8.8934
    -8.8934  -7.5169  -7.3590  -7.3590  -7.3418  -7.3083  -7.1425  -7.0654
    -6.3310  -6.3310  -6.1354  -6.1354  -6.1160  -5.9705  -5.6799  -5.6799
    -5.6703  -5.6156  -5.5668  -5.4806  -5.4806  -5.3614  -4.7032  -4.6949
    -4.5778  -4.5778  -4.5264  -4.4651  -4.1777  -4.1755  -4.1287  -3.9724
    -3.8868  -3.7976  -3.7796  -3.7430  -3.7429  -3.6674  -3.6673  -3.5468
    -3.5468  -2.7481  -2.7481  -2.6432  -2.6432  -1.9652  -0.8644  -0.3474
    -0.3474   1.5552   1.5552   3.1545   4.3805   4.4929   4.4929   5.2434
     5.8149   5.8149   6.4373   7.5143   7.5143   9.1567   9.5816   9.7051
    10.0848  10.0848  10.5071  10.5071  10.6583  10.7524  11.2686  11.6164
    11.6164  11.7370  12.8130  13.3378  13.3464  13.7412  13.8514  14.4256
    14.4730  14.6221  14.6221  14.8663  14.9534  14.9534  15.2252  15.2252

     occupation numbers 
     1.0000   1.0000   1.0000   1.0000   1.0000   1.0000   1.0000   1.0000
     1.0000   1.0000   1.0000   1.0000   1.0000   1.0000   1.0000   1.0000
     1.0000   1.0000   1.0000   1.0000   1.0000   1.0000   1.0000   1.0000
     1.0000   1.0000   1.0000   1.0000   1.0000   1.0000   1.0000   1.0000
     1.0000   1.0000   1.0000   1.0000   1.0000   1.0000   1.0000   1.0000
     1.0000   1.0000   1.0000   1.0000   1.0000   1.0000   1.0000   1.0000
     1.0000   1.0000   1.0000   1.0000   1.0000   1.0000   1.0000   1.0000
     1.0000   1.0000   1.0000   1.0000   1.0000   1.0000   1.0000   1.0000
     1.0000   1.0000   1.0000   1.0000   1.0000   1.0000   1.0000   1.0000
     1.0000   1.0000   1.0000   1.0000   1.0000   1.0000   1.0000   1.0000
     1.0000   1.0000   1.0000   1.0000   1.0000   1.0000   1.0000   1.0000
     1.0000   1.0000   1.0000   1.0000   1.0000   1.0000   1.0000   1.0000
     1.0000   1.0000   1.0000   1.0000   1.0000   1.0000   1.0000   1.0000
     1.0000   1.0000   1.0000   1.0000   1.0000   1.0000   1.0000   1.0000
     1.0000   1.0000   1.0000   1.0000   1.0000   1.0000   1.0000   1.0000
     1.0000   1.0000   1.0000   1.0000   1.0000   1.0000   1.0000   1.0000
     1.0000   1.0000   1.0000   1.0000   1.0000   1.0000   1.0000   1.0000
     1.0000   1.0000   1.0000   1.0000   1.0000   1.0000   1.0000   1.0000
     1.0000   1.0000   1.0000   1.0000   1.0000   1.0000   1.0000   1.0000
     1.0000   1.0000   1.0000   1.0000   1.0000   1.0000   1.0000   1.0053
     0.8265   0.8265   0.0016   0.0000   0.0000   0.0000   0.0000   0.0000
     0.0000   0.0000   0.0000   0.0000   0.0000   0.0000   0.0000   0.0000
     0.0000   0.0000   0.0000   0.0000   0.0000   0.0000   0.0000   0.0000
     0.0000   0.0000   0.0000   0.0000   0.0000   0.0000   0.0000   0.0000

          k = 0.0000-0.5774 0.0000 ( 18016 PWs)   bands (ev):

  -127.1107-127.1107-127.1077-127.1076-126.6909-126.6909-126.6882-126.6881
  -125.9994-125.9994-125.9971-125.9970-125.5632-125.5632-125.5611-125.5611
   -83.3257 -83.3257 -83.3219 -83.3219 -83.0501 -83.0501 -83.0466 -83.0466
   -82.5103 -82.5103 -82.5071 -82.5071 -81.7637 -81.7637 -81.7608 -81.7608
   -80.3610 -80.3610 -80.3588 -80.3588 -80.3146 -80.3146 -80.2783 -80.2782
   -80.0808 -80.0807 -80.0477 -80.0477 -79.7025 -79.7024 -79.6749 -79.6748
   -79.6106 -79.6106 -79.6088 -79.6087 -79.4682 -79.4682 -79.4440 -79.4440
   -79.0484 -79.0484 -79.0471 -79.0471 -78.7702 -78.7702 -78.7692 -78.7691
   -14.0129 -14.0129 -13.8870 -13.8870 -11.8877 -11.8877 -11.7516 -11.7516
   -11.2865 -11.2865 -11.0525 -11.0525 -11.0143 -11.0142 -10.6207 -10.6206
   -10.5824 -10.5824 -10.5554 -10.5554 -10.4347 -10.4347 -10.2889 -10.2889
   -10.2503 -10.2503  -9.9364  -9.9364  -9.8251  -9.8251  -9.7335  -9.7335
    -9.6234  -9.6234  -9.3167  -9.3166  -9.0751  -9.0750  -8.8684  -8.8684
    -8.4753  -8.4753  -7.7570  -7.7570  -6.6655  -6.6655  -6.3947  -6.3947
    -6.2495  -6.2494  -6.2214  -6.2214  -5.8430  -5.8430  -5.8032  -5.8032
    -5.7201  -5.7201  -5.5332  -5.5332  -5.4600  -5.4599  -5.3877  -5.3877
    -4.9804  -4.9803  -4.6210  -4.6210  -4.3164  -4.3164  -4.1906  -4.1906
    -4.0224  -4.0224  -3.9259  -3.9259  -3.7775  -3.7775  -3.6486  -3.6485
    -3.5785  -3.5785  -2.3621  -2.3621  -2.1357  -2.1357  -0.8832  -0.8832
     1.2436   1.2436   3.8876   3.8876   4.1071   4.1071   5.6425   5.6425
     6.8538   6.8538   6.8539   6.8539   7.5812   7.5812   8.4903   8.4903
    10.5202  10.5202  11.1076  11.1076  11.2094  11.2094  11.6329  11.6329
    12.0694  12.0694  12.3102  12.3102  12.9847  12.9848  13.3391  13.3391
    13.3620  13.3620  13.9392  13.9392  14.1410  14.1410  15.0196  15.0196

     occupation numbers 
     1.0000   1.0000   1.0000   1.0000   1.0000   1.0000   1.0000   1.0000
     1.0000   1.0000   1.0000   1.0000   1.0000   1.0000   1.0000   1.0000
     1.0000   1.0000   1.0000   1.0000   1.0000   1.0000   1.0000   1.0000
     1.0000   1.0000   1.0000   1.0000   1.0000   1.0000   1.0000   1.0000
     1.0000   1.0000   1.0000   1.0000   1.0000   1.0000   1.0000   1.0000
     1.0000   1.0000   1.0000   1.0000   1.0000   1.0000   1.0000   1.0000
     1.0000   1.0000   1.0000   1.0000   1.0000   1.0000   1.0000   1.0000
     1.0000   1.0000   1.0000   1.0000   1.0000   1.0000   1.0000   1.0000
     1.0000   1.0000   1.0000   1.0000   1.0000   1.0000   1.0000   1.0000
     1.0000   1.0000   1.0000   1.0000   1.0000   1.0000   1.0000   1.0000
     1.0000   1.0000   1.0000   1.0000   1.0000   1.0000   1.0000   1.0000
     1.0000   1.0000   1.0000   1.0000   1.0000   1.0000   1.0000   1.0000
     1.0000   1.0000   1.0000   1.0000   1.0000   1.0000   1.0000   1.0000
     1.0000   1.0000   1.0000   1.0000   1.0000   1.0000   1.0000   1.0000
     1.0000   1.0000   1.0000   1.0000   1.0000   1.0000   1.0000   1.0000
     1.0000   1.0000   1.0000   1.0000   1.0000   1.0000   1.0000   1.0000
     1.0000   1.0000   1.0000   1.0000   1.0000   1.0000   1.0000   1.0000
     1.0000   1.0000   1.0000   1.0000   1.0000   1.0000   1.0000   1.0000
     1.0000   1.0000   1.0000   1.0000   1.0000   1.0000   1.0000   1.0000
     1.0000   1.0000   1.0000   1.0000   1.0000   1.0000   1.0727   1.0727
     0.0000   0.0000   0.0000   0.0000   0.0000   0.0000   0.0000   0.0000
     0.0000   0.0000   0.0000   0.0000   0.0000   0.0000   0.0000   0.0000
     0.0000   0.0000   0.0000   0.0000   0.0000   0.0000   0.0000   0.0000
     0.0000   0.0000   0.0000   0.0000   0.0000   0.0000   0.0000   0.0000

          k = 0.0000-0.5774 0.0693 ( 18006 PWs)   bands (ev):

  -127.1107-127.1107-127.1077-127.1076-126.6909-126.6909-126.6882-126.6881
  -125.9994-125.9993-125.9971-125.9970-125.5632-125.5632-125.5611-125.5611
   -83.3257 -83.3257 -83.3219 -83.3219 -83.0502 -83.0502 -83.0466 -83.0466
   -82.5103 -82.5103 -82.5071 -82.5071 -81.7636 -81.7636 -81.7608 -81.7608
   -80.3610 -80.3610 -80.3588 -80.3588 -80.3147 -80.3146 -80.2782 -80.2782
   -80.0808 -80.0808 -80.0477 -80.0477 -79.7025 -79.7025 -79.6748 -79.6748
   -79.6106 -79.6106 -79.6088 -79.6087 -79.4682 -79.4682 -79.4440 -79.4440
   -79.0484 -79.0484 -79.0471 -79.0471 -78.7702 -78.7702 -78.7691 -78.7691
   -14.0129 -14.0129 -13.8870 -13.8870 -11.8877 -11.8877 -11.7516 -11.7516
   -11.2866 -11.2865 -11.0525 -11.0525 -11.0143 -11.0142 -10.6206 -10.6206
   -10.5823 -10.5823 -10.5554 -10.5554 -10.4347 -10.4347 -10.2889 -10.2889
   -10.2503 -10.2503  -9.9364  -9.9364  -9.8251  -9.8251  -9.7335  -9.7335
    -9.6234  -9.6234  -9.3167  -9.3166  -9.0751  -9.0751  -8.8684  -8.8684
    -8.4753  -8.4753  -7.7570  -7.7570  -6.6655  -6.6655  -6.3947  -6.3947
    -6.2495  -6.2494  -6.2214  -6.2214  -5.8430  -5.8430  -5.8032  -5.8032
    -5.7201  -5.7201  -5.5332  -5.5332  -5.4600  -5.4599  -5.3877  -5.3877
    -4.9804  -4.9803  -4.6210  -4.6210  -4.3164  -4.3163  -4.1906  -4.1906
    -4.0224  -4.0224  -3.9259  -3.9259  -3.7775  -3.7775  -3.6485  -3.6485
    -3.5784  -3.5784  -2.3621  -2.3621  -2.1357  -2.1357  -0.8832  -0.8832
     1.2436   1.2436   3.8876   3.8876   4.1071   4.1071   5.6425   5.6425
     6.8538   6.8538   6.8539   6.8539   7.5812   7.5812   8.4903   8.4903
    10.5442  10.5442  11.0818  11.0818  11.1076  11.1076  11.8135  11.8135
    12.0991  12.0991  12.3102  12.3102  12.9819  12.9819  12.9847  12.9847
    13.3621  13.3621  14.1620  14.1620  14.3599  14.3599  14.8353  14.8353

     occupation numbers 
     1.0000   1.0000   1.0000   1.0000   1.0000   1.0000   1.0000   1.0000
     1.0000   1.0000   1.0000   1.0000   1.0000   1.0000   1.0000   1.0000
     1.0000   1.0000   1.0000   1.0000   1.0000   1.0000   1.0000   1.0000
     1.0000   1.0000   1.0000   1.0000   1.0000   1.0000   1.0000   1.0000
     1.0000   1.0000   1.0000   1.0000   1.0000   1.0000   1.0000   1.0000
     1.0000   1.0000   1.0000   1.0000   1.0000   1.0000   1.0000   1.0000
     1.0000   1.0000   1.0000   1.0000   1.0000   1.0000   1.0000   1.0000
     1.0000   1.0000   1.0000   1.0000   1.0000   1.0000   1.0000   1.0000
     1.0000   1.0000   1.0000   1.0000   1.0000   1.0000   1.0000   1.0000
     1.0000   1.0000   1.0000   1.0000   1.0000   1.0000   1.0000   1.0000
     1.0000   1.0000   1.0000   1.0000   1.0000   1.0000   1.0000   1.0000
     1.0000   1.0000   1.0000   1.0000   1.0000   1.0000   1.0000   1.0000
     1.0000   1.0000   1.0000   1.0000   1.0000   1.0000   1.0000   1.0000
     1.0000   1.0000   1.0000   1.0000   1.0000   1.0000   1.0000   1.0000
     1.0000   1.0000   1.0000   1.0000   1.0000   1.0000   1.0000   1.0000
     1.0000   1.0000   1.0000   1.0000   1.0000   1.0000   1.0000   1.0000
     1.0000   1.0000   1.0000   1.0000   1.0000   1.0000   1.0000   1.0000
     1.0000   1.0000   1.0000   1.0000   1.0000   1.0000   1.0000   1.0000
     1.0000   1.0000   1.0000   1.0000   1.0000   1.0000   1.0000   1.0000
     1.0000   1.0000   1.0000   1.0000   1.0000   1.0000   1.0727   1.0727
     0.0000   0.0000   0.0000   0.0000   0.0000   0.0000   0.0000   0.0000
     0.0000   0.0000   0.0000   0.0000   0.0000   0.0000   0.0000   0.0000
     0.0000   0.0000   0.0000   0.0000   0.0000   0.0000   0.0000   0.0000
     0.0000   0.0000   0.0000   0.0000   0.0000   0.0000   0.0000   0.0000

          k = 0.0000-0.5774-0.1385 ( 18028 PWs)   bands (ev):

  -127.1107-127.1107-127.1077-127.1076-126.6909-126.6909-126.6882-126.6881
  -125.9994-125.9993-125.9971-125.9970-125.5632-125.5632-125.5612-125.5611
   -83.3257 -83.3257 -83.3219 -83.3219 -83.0501 -83.0501 -83.0466 -83.0466
   -82.5103 -82.5103 -82.5071 -82.5071 -81.7636 -81.7636 -81.7608 -81.7608
   -80.3610 -80.3610 -80.3588 -80.3588 -80.3147 -80.3147 -80.2782 -80.2782
   -80.0809 -80.0808 -80.0478 -80.0477 -79.7025 -79.7025 -79.6749 -79.6748
   -79.6107 -79.6106 -79.6088 -79.6087 -79.4682 -79.4682 -79.4440 -79.4440
   -79.0484 -79.0484 -79.0471 -79.0471 -78.7702 -78.7702 -78.7691 -78.7691
   -14.0129 -14.0129 -13.8870 -13.8870 -11.8877 -11.8877 -11.7516 -11.7516
   -11.2866 -11.2865 -11.0526 -11.0525 -11.0143 -11.0143 -10.6206 -10.6206
   -10.5823 -10.5823 -10.5554 -10.5554 -10.4347 -10.4347 -10.2889 -10.2889
   -10.2503 -10.2503  -9.9364  -9.9364  -9.8251  -9.8251  -9.7335  -9.7335
    -9.6234  -9.6234  -9.3166  -9.3166  -9.0751  -9.0751  -8.8684  -8.8684
    -8.4753  -8.4753  -7.7570  -7.7570  -6.6655  -6.6655  -6.3947  -6.3947
    -6.2495  -6.2494  -6.2214  -6.2214  -5.8430  -5.8430  -5.8032  -5.8032
    -5.7201  -5.7201  -5.5332  -5.5332  -5.4600  -5.4599  -5.3877  -5.3877
    -4.9804  -4.9803  -4.6210  -4.6210  -4.3164  -4.3164  -4.1906  -4.1905
    -4.0224  -4.0224  -3.9259  -3.9259  -3.7775  -3.7775  -3.6486  -3.6485
    -3.5785  -3.5784  -2.3621  -2.3620  -2.1357  -2.1357  -0.8832  -0.8832
     1.2436   1.2436   3.8876   3.8876   4.1071   4.1071   5.6425   5.6425
     6.8538   6.8538   6.8539   6.8539   7.5812   7.5812   8.4903   8.4903
    10.5740  10.5740  10.9852  10.9852  11.1076  11.1076  11.9399  11.9399
    12.2253  12.2253  12.3102  12.3102  12.6557  12.6557  12.9847  12.9847
    13.3621  13.3621  14.1869  14.1869  14.7271  14.7271  14.8144  14.8145

     occupation numbers 
     1.0000   1.0000   1.0000   1.0000   1.0000   1.0000   1.0000   1.0000
     1.0000   1.0000   1.0000   1.0000   1.0000   1.0000   1.0000   1.0000
     1.0000   1.0000   1.0000   1.0000   1.0000   1.0000   1.0000   1.0000
     1.0000   1.0000   1.0000   1.0000   1.0000   1.0000   1.0000   1.0000
     1.0000   1.0000   1.0000   1.0000   1.0000   1.0000   1.0000   1.0000
     1.0000   1.0000   1.0000   1.0000   1.0000   1.0000   1.0000   1.0000
     1.0000   1.0000   1.0000   1.0000   1.0000   1.0000   1.0000   1.0000
     1.0000   1.0000   1.0000   1.0000   1.0000   1.0000   1.0000   1.0000
     1.0000   1.0000   1.0000   1.0000   1.0000   1.0000   1.0000   1.0000
     1.0000   1.0000   1.0000   1.0000   1.0000   1.0000   1.0000   1.0000
     1.0000   1.0000   1.0000   1.0000   1.0000   1.0000   1.0000   1.0000
     1.0000   1.0000   1.0000   1.0000   1.0000   1.0000   1.0000   1.0000
     1.0000   1.0000   1.0000   1.0000   1.0000   1.0000   1.0000   1.0000
     1.0000   1.0000   1.0000   1.0000   1.0000   1.0000   1.0000   1.0000
     1.0000   1.0000   1.0000   1.0000   1.0000   1.0000   1.0000   1.0000
     1.0000   1.0000   1.0000   1.0000   1.0000   1.0000   1.0000   1.0000
     1.0000   1.0000   1.0000   1.0000   1.0000   1.0000   1.0000   1.0000
     1.0000   1.0000   1.0000   1.0000   1.0000   1.0000   1.0000   1.0000
     1.0000   1.0000   1.0000   1.0000   1.0000   1.0000   1.0000   1.0000
     1.0000   1.0000   1.0000   1.0000   1.0000   1.0000   1.0727   1.0727
     0.0000   0.0000   0.0000   0.0000   0.0000   0.0000   0.0000   0.0000
     0.0000   0.0000   0.0000   0.0000   0.0000   0.0000   0.0000   0.0000
     0.0000   0.0000   0.0000   0.0000   0.0000   0.0000   0.0000   0.0000
     0.0000   0.0000   0.0000   0.0000   0.0000   0.0000   0.0000   0.0000

          k = 0.2500 0.4330 0.0000 ( 18045 PWs)   bands (ev):

  -127.1708-127.1677-126.9402-126.9402-126.9373-126.9372-126.4899-126.4873
  -126.2037-126.2013-125.7419-125.7419-125.7398-125.7397-125.4998-125.4977
   -83.3877 -83.3838 -83.1762 -83.1762 -83.1726 -83.1726 -83.0271 -83.0236
   -82.5723 -82.5692 -82.2286 -82.2286 -82.2255 -82.2254 -81.4093 -81.4067
   -80.7155 -80.7133 -80.3484 -80.3115 -80.2193 -80.2193 -80.1843 -80.1843
   -79.9700 -79.9385 -79.8953 -79.8952 -79.8931 -79.8931 -79.8133 -79.7841
   -79.5638 -79.5638 -79.5451 -79.5433 -79.5382 -79.5382 -79.4344 -79.4107
   -79.0746 -79.0733 -78.9201 -78.9201 -78.9189 -78.9189 -78.7080 -78.7071
   -14.3817 -14.2559 -13.0093 -13.0092 -12.8814 -12.8814 -11.7332 -11.6083
   -11.4775 -10.9524 -10.9523 -10.9133 -10.9133 -10.7850 -10.7746 -10.7746
   -10.7433 -10.5781 -10.4751 -10.4325 -10.4106 -10.3810 -10.3013 -10.2006
   -10.2006  -9.9491  -9.9490  -9.8247  -9.8247  -9.8138  -9.6933  -9.6794
    -9.6164  -9.6035  -9.6035  -9.2552  -9.2375  -9.0305  -9.0305  -8.7787
    -8.0923  -8.0724  -8.0724  -7.8630  -7.0605  -6.8018  -6.7147  -6.2050
    -6.2050  -6.1142  -6.0906  -6.0750  -6.0750  -5.8768  -5.8767  -5.8713
    -5.8225  -5.8225  -5.8134  -5.7588  -5.6822  -5.2989  -5.2989  -5.2099
    -5.0315  -4.8525  -4.8525  -4.5387  -4.3918  -4.2796  -4.2570  -3.9995
    -3.9994  -3.8993  -3.8993  -3.8065  -3.7830  -3.7830  -3.5096  -3.4498
    -3.3944  -3.3944  -2.8823  -2.8823  -1.7403  -1.5502  -1.1378   0.4572
     0.6215   1.6000   2.8711   2.8711   3.2266   3.7050   6.1168   6.1168
     6.3592   6.5259   7.9197   7.9776   7.9776   8.9824   8.9824   9.4883
     9.7741   9.7741   9.9758  10.7581  11.0556  11.2080  11.5556  11.8864
    11.8864  12.2918  12.2918  12.5648  12.7264  12.7264  12.8413  13.0039
    13.0039  13.5682  14.0046  14.1801  14.2056  14.2056  14.7719  14.7741

     occupation numbers 
     1.0000   1.0000   1.0000   1.0000   1.0000   1.0000   1.0000   1.0000
     1.0000   1.0000   1.0000   1.0000   1.0000   1.0000   1.0000   1.0000
     1.0000   1.0000   1.0000   1.0000   1.0000   1.0000   1.0000   1.0000
     1.0000   1.0000   1.0000   1.0000   1.0000   1.0000   1.0000   1.0000
     1.0000   1.0000   1.0000   1.0000   1.0000   1.0000   1.0000   1.0000
     1.0000   1.0000   1.0000   1.0000   1.0000   1.0000   1.0000   1.0000
     1.0000   1.0000   1.0000   1.0000   1.0000   1.0000   1.0000   1.0000
     1.0000   1.0000   1.0000   1.0000   1.0000   1.0000   1.0000   1.0000
     1.0000   1.0000   1.0000   1.0000   1.0000   1.0000   1.0000   1.0000
     1.0000   1.0000   1.0000   1.0000   1.0000   1.0000   1.0000   1.0000
     1.0000   1.0000   1.0000   1.0000   1.0000   1.0000   1.0000   1.0000
     1.0000   1.0000   1.0000   1.0000   1.0000   1.0000   1.0000   1.0000
     1.0000   1.0000   1.0000   1.0000   1.0000   1.0000   1.0000   1.0000
     1.0000   1.0000   1.0000   1.0000   1.0000   1.0000   1.0000   1.0000
     1.0000   1.0000   1.0000   1.0000   1.0000   1.0000   1.0000   1.0000
     1.0000   1.0000   1.0000   1.0000   1.0000   1.0000   1.0000   1.0000
     1.0000   1.0000   1.0000   1.0000   1.0000   1.0000   1.0000   1.0000
     1.0000   1.0000   1.0000   1.0000   1.0000   1.0000   1.0000   1.0000
     1.0000   1.0000   1.0000   1.0000   1.0000   1.0000   1.0000   1.0000
     1.0000   1.0000   1.0000   1.0000   1.0000   1.0000   0.1294   0.1294
     0.0058   0.0003   0.0000   0.0000   0.0000   0.0000   0.0000   0.0000
     0.0000   0.0000   0.0000   0.0000   0.0000   0.0000   0.0000   0.0000
     0.0000   0.0000   0.0000   0.0000   0.0000   0.0000   0.0000   0.0000
     0.0000   0.0000   0.0000   0.0000   0.0000   0.0000   0.0000   0.0000

          k = 0.2500 0.4330 0.0693 ( 18029 PWs)   bands (ev):

  -127.1708-127.1677-126.9402-126.9402-126.9373-126.9372-126.4899-126.4873
  -126.2037-126.2013-125.7419-125.7419-125.7398-125.7397-125.4998-125.4977
   -83.3877 -83.3838 -83.1762 -83.1762 -83.1726 -83.1725 -83.0271 -83.0236
   -82.5723 -82.5692 -82.2286 -82.2286 -82.2255 -82.2254 -81.4093 -81.4066
   -80.7155 -80.7133 -80.3484 -80.3114 -80.2193 -80.2193 -80.1843 -80.1843
   -79.9700 -79.9385 -79.8953 -79.8952 -79.8931 -79.8931 -79.8134 -79.7841
   -79.5638 -79.5638 -79.5451 -79.5433 -79.5382 -79.5382 -79.4344 -79.4107
   -79.0746 -79.0733 -78.9201 -78.9201 -78.9189 -78.9189 -78.7079 -78.7071
   -14.3817 -14.2559 -13.0093 -13.0092 -12.8814 -12.8814 -11.7332 -11.6083
   -11.4775 -10.9524 -10.9523 -10.9133 -10.9133 -10.7850 -10.7746 -10.7746
   -10.7433 -10.5781 -10.4751 -10.4325 -10.4105 -10.3810 -10.3013 -10.2006
   -10.2006  -9.9490  -9.9490  -9.8247  -9.8247  -9.8138  -9.6933  -9.6794
    -9.6164  -9.6035  -9.6035  -9.2551  -9.2375  -9.0305  -9.0305  -8.7787
    -8.0922  -8.0724  -8.0724  -7.8630  -7.0605  -6.8018  -6.7147  -6.2050
    -6.2049  -6.1142  -6.0906  -6.0750  -6.0750  -5.8768  -5.8767  -5.8713
    -5.8225  -5.8225  -5.8134  -5.7588  -5.6822  -5.2989  -5.2989  -5.2099
    -5.0315  -4.8525  -4.8525  -4.5387  -4.3918  -4.2796  -4.2570  -3.9995
    -3.9994  -3.8993  -3.8993  -3.8065  -3.7830  -3.7830  -3.5096  -3.4498
    -3.3944  -3.3944  -2.8823  -2.8823  -1.7403  -1.5502  -1.1378   0.4572
     0.6215   1.6000   2.8711   2.8711   3.2266   3.7050   6.1168   6.1168
     6.3592   6.5259   7.9197   7.9776   7.9776   8.9824   8.9824   9.4883
     9.7740   9.7740   9.9945  10.6195  11.2080  11.2433  11.5715  11.9100
    11.9100  12.2819  12.2819  12.5520  12.5648  12.5658  12.5658  13.2650
    13.2650  13.9318  14.0045  14.1801  14.2055  14.2055  14.3774  14.3776

     occupation numbers 
     1.0000   1.0000   1.0000   1.0000   1.0000   1.0000   1.0000   1.0000
     1.0000   1.0000   1.0000   1.0000   1.0000   1.0000   1.0000   1.0000
     1.0000   1.0000   1.0000   1.0000   1.0000   1.0000   1.0000   1.0000
     1.0000   1.0000   1.0000   1.0000   1.0000   1.0000   1.0000   1.0000
     1.0000   1.0000   1.0000   1.0000   1.0000   1.0000   1.0000   1.0000
     1.0000   1.0000   1.0000   1.0000   1.0000   1.0000   1.0000   1.0000
     1.0000   1.0000   1.0000   1.0000   1.0000   1.0000   1.0000   1.0000
     1.0000   1.0000   1.0000   1.0000   1.0000   1.0000   1.0000   1.0000
     1.0000   1.0000   1.0000   1.0000   1.0000   1.0000   1.0000   1.0000
     1.0000   1.0000   1.0000   1.0000   1.0000   1.0000   1.0000   1.0000
     1.0000   1.0000   1.0000   1.0000   1.0000   1.0000   1.0000   1.0000
     1.0000   1.0000   1.0000   1.0000   1.0000   1.0000   1.0000   1.0000
     1.0000   1.0000   1.0000   1.0000   1.0000   1.0000   1.0000   1.0000
     1.0000   1.0000   1.0000   1.0000   1.0000   1.0000   1.0000   1.0000
     1.0000   1.0000   1.0000   1.0000   1.0000   1.0000   1.0000   1.0000
     1.0000   1.0000   1.0000   1.0000   1.0000   1.0000   1.0000   1.0000
     1.0000   1.0000   1.0000   1.0000   1.0000   1.0000   1.0000   1.0000
     1.0000   1.0000   1.0000   1.0000   1.0000   1.0000   1.0000   1.0000
     1.0000   1.0000   1.0000   1.0000   1.0000   1.0000   1.0000   1.0000
     1.0000   1.0000   1.0000   1.0000   1.0000   1.0000   0.1294   0.1294
     0.0058   0.0003   0.0000   0.0000   0.0000   0.0000   0.0000   0.0000
     0.0000   0.0000   0.0000   0.0000   0.0000   0.0000   0.0000   0.0000
     0.0000   0.0000   0.0000   0.0000   0.0000   0.0000   0.0000   0.0000
     0.0000   0.0000   0.0000   0.0000   0.0000   0.0000   0.0000   0.0000

          k = 0.2500 0.4330-0.1385 ( 18032 PWs)   bands (ev):

  -127.1708-127.1677-126.9402-126.9402-126.9373-126.9372-126.4899-126.4873
  -126.2037-126.2013-125.7419-125.7419-125.7398-125.7397-125.4998-125.4977
   -83.3877 -83.3838 -83.1762 -83.1762 -83.1726 -83.1725 -83.0270 -83.0235
   -82.5723 -82.5692 -82.2286 -82.2286 -82.2255 -82.2255 -81.4093 -81.4066
   -80.7155 -80.7133 -80.3484 -80.3114 -80.2193 -80.2193 -80.1843 -80.1843
   -79.9700 -79.9385 -79.8953 -79.8953 -79.8931 -79.8931 -79.8134 -79.7841
   -79.5638 -79.5637 -79.5451 -79.5433 -79.5382 -79.5382 -79.4344 -79.4107
   -79.0746 -79.0733 -78.9202 -78.9201 -78.9189 -78.9189 -78.7079 -78.7071
   -14.3817 -14.2559 -13.0093 -13.0092 -12.8814 -12.8814 -11.7332 -11.6083
   -11.4775 -10.9524 -10.9523 -10.9133 -10.9133 -10.7851 -10.7746 -10.7746
   -10.7433 -10.5781 -10.4751 -10.4325 -10.4106 -10.3810 -10.3012 -10.2006
   -10.2006  -9.9490  -9.9490  -9.8247  -9.8247  -9.8138  -9.6933  -9.6793
    -9.6164  -9.6035  -9.6035  -9.2551  -9.2375  -9.0305  -9.0305  -8.7787
    -8.0922  -8.0724  -8.0724  -7.8630  -7.0605  -6.8018  -6.7146  -6.2050
    -6.2050  -6.1142  -6.0906  -6.0750  -6.0750  -5.8768  -5.8767  -5.8713
    -5.8225  -5.8225  -5.8134  -5.7588  -5.6822  -5.2989  -5.2989  -5.2099
    -5.0315  -4.8525  -4.8525  -4.5387  -4.3918  -4.2796  -4.2569  -3.9995
    -3.9995  -3.8993  -3.8993  -3.8065  -3.7830  -3.7830  -3.5096  -3.4498
    -3.3944  -3.3944  -2.8823  -2.8823  -1.7403  -1.5502  -1.1378   0.4572
     0.6215   1.6000   2.8711   2.8711   3.2266   3.7050   6.1168   6.1168
     6.3592   6.5259   7.9197   7.9776   7.9776   8.9824   8.9824   9.4883
     9.7740   9.7740  10.0164  10.5278  11.2080  11.3821  11.6210  11.9390
    11.9390  12.2637  12.2637  12.3066  12.4760  12.4760  12.5648  13.5503
    13.5503  14.0045  14.0222  14.0222  14.1801  14.2058  14.2058  14.3237

     occupation numbers 
     1.0000   1.0000   1.0000   1.0000   1.0000   1.0000   1.0000   1.0000
     1.0000   1.0000   1.0000   1.0000   1.0000   1.0000   1.0000   1.0000
     1.0000   1.0000   1.0000   1.0000   1.0000   1.0000   1.0000   1.0000
     1.0000   1.0000   1.0000   1.0000   1.0000   1.0000   1.0000   1.0000
     1.0000   1.0000   1.0000   1.0000   1.0000   1.0000   1.0000   1.0000
     1.0000   1.0000   1.0000   1.0000   1.0000   1.0000   1.0000   1.0000
     1.0000   1.0000   1.0000   1.0000   1.0000   1.0000   1.0000   1.0000
     1.0000   1.0000   1.0000   1.0000   1.0000   1.0000   1.0000   1.0000
     1.0000   1.0000   1.0000   1.0000   1.0000   1.0000   1.0000   1.0000
     1.0000   1.0000   1.0000   1.0000   1.0000   1.0000   1.0000   1.0000
     1.0000   1.0000   1.0000   1.0000   1.0000   1.0000   1.0000   1.0000
     1.0000   1.0000   1.0000   1.0000   1.0000   1.0000   1.0000   1.0000
     1.0000   1.0000   1.0000   1.0000   1.0000   1.0000   1.0000   1.0000
     1.0000   1.0000   1.0000   1.0000   1.0000   1.0000   1.0000   1.0000
     1.0000   1.0000   1.0000   1.0000   1.0000   1.0000   1.0000   1.0000
     1.0000   1.0000   1.0000   1.0000   1.0000   1.0000   1.0000   1.0000
     1.0000   1.0000   1.0000   1.0000   1.0000   1.0000   1.0000   1.0000
     1.0000   1.0000   1.0000   1.0000   1.0000   1.0000   1.0000   1.0000
     1.0000   1.0000   1.0000   1.0000   1.0000   1.0000   1.0000   1.0000
     1.0000   1.0000   1.0000   1.0000   1.0000   1.0000   0.1294   0.1294
     0.0058   0.0003   0.0000   0.0000   0.0000   0.0000   0.0000   0.0000
     0.0000   0.0000   0.0000   0.0000   0.0000   0.0000   0.0000   0.0000
     0.0000   0.0000   0.0000   0.0000   0.0000   0.0000   0.0000   0.0000
     0.0000   0.0000   0.0000   0.0000   0.0000   0.0000   0.0000   0.0000

     the Fermi energy is     5.9750 ev

!    total energy              =   -7364.77603059 Ry
     estimated scf accuracy    <       0.00000003 Ry
     smearing contrib. (-TS)   =      -0.00231358 Ry
     internal energy E=F+TS    =   -7364.77371701 Ry

     The total energy is F=E-TS. E is the sum of the following terms:
     one-electron contribution =  -58341.11281622 Ry
     hartree contribution      =   29141.71569644 Ry
     xc contribution           =    -689.35246974 Ry
     ewald contribution        =   22523.97587251 Ry

     convergence has been achieved in   8 iterations

     Forces acting on atoms (cartesian axes, Ry/au):

     atom    1 type  1   force =     0.00000000    0.00002653   -0.10104795
     atom    2 type  1   force =     0.00000000    0.00006487    0.10104540
     atom    3 type  1   force =     0.00002298   -0.00001327   -0.10104795
     atom    4 type  1   force =     0.00005618   -0.00003243    0.10104540
     atom    5 type  1   force =     0.00000000   -0.00000000   -0.10103654
     atom    6 type  1   force =     0.00000000   -0.00000000    0.10104419
     atom    7 type  1   force =    -0.00002298   -0.00001327   -0.10104795
     atom    8 type  1   force =    -0.00005618   -0.00003243    0.10104540
     atom    9 type  1   force =     0.00002298    0.00001327   -0.10104795
     atom   10 type  1   force =     0.00005618    0.00003243    0.10104540
     atom   11 type  1   force =     0.00000000    0.00000000   -0.10103654
     atom   12 type  1   force =     0.00000000    0.00000000    0.10104419
     atom   13 type  1   force =    -0.00002298    0.00001327   -0.10104795
     atom   14 type  1   force =    -0.00005618    0.00003243    0.10104540
     atom   15 type  1   force =     0.00000000   -0.00002653   -0.10104795
     atom   16 type  1   force =    -0.00000000   -0.00006487    0.10104540
     The non-local contrib.  to forces
     atom    1 type  1   force =     0.00000000    0.00001684    0.38060604
     atom    2 type  1   force =     0.00000000    0.00003704   -0.38093388
     atom    3 type  1   force =     0.00001459   -0.00000842    0.38060604
     atom    4 type  1   force =     0.00003208   -0.00001852   -0.38093388
     atom    5 type  1   force =     0.00000000    0.00000000    0.38061411
     atom    6 type  1   force =    -0.00000000   -0.00000000   -0.38093526
     atom    7 type  1   force =    -0.00001459   -0.00000842    0.38060604
     atom    8 type  1   force =    -0.00003208   -0.00001852   -0.38093388
     atom    9 type  1   force =     0.00001459    0.00000842    0.38060604
     atom   10 type  1   force =     0.00003208    0.00001852   -0.38093388
     atom   11 type  1   force =    -0.00000000   -0.00000000    0.38061411
     atom   12 type  1   force =     0.00000000    0.00000000   -0.38093526
     atom   13 type  1   force =    -0.00001459    0.00000842    0.38060604
     atom   14 type  1   force =    -0.00003208    0.00001852   -0.38093388
     atom   15 type  1   force =    -0.00000000   -0.00001684    0.38060604
     atom   16 type  1   force =     0.00000000   -0.00003704   -0.38093388
     The ionic contribution  to forces
     atom    1 type  1   force =    -0.00000617   -0.00001964 -353.64621799
     atom    2 type  1   force =    -0.00000617   -0.00001964  353.64621799
     atom    3 type  1   force =    -0.00000639   -0.00001978 -353.64621800
     atom    4 type  1   force =    -0.00000639   -0.00001978  353.64621800
     atom    5 type  1   force =    -0.00000642   -0.00001963 -353.64621799
     atom    6 type  1   force =    -0.00000642   -0.00001963  353.64621799
     atom    7 type  1   force =    -0.00000638   -0.00001983 -353.64621800
     atom    8 type  1   force =    -0.00000638   -0.00001983  353.64621800
     atom    9 type  1   force =     0.00000628    0.00001989 -353.64621799
     atom   10 type  1   force =     0.00000628    0.00001989  353.64621799
     atom   11 type  1   force =     0.00000642    0.00001963 -353.64621799
     atom   12 type  1   force =     0.00000642    0.00001963  353.64621799
     atom   13 type  1   force =     0.00000630    0.00001972 -353.64621801
     atom   14 type  1   force =     0.00000630    0.00001972  353.64621801
     atom   15 type  1   force =     0.00000636    0.00001964 -353.64621799
     atom   16 type  1   force =     0.00000636    0.00001964  353.64621799
     The local contribution  to forces
     atom    1 type  1   force =     0.00002151   -0.00003617  353.16475758
     atom    2 type  1   force =     0.00002151   -0.00008746 -353.16378112
     atom    3 type  1   force =    -0.00001483    0.00002486  353.16475758
     atom    4 type  1   force =    -0.00005924    0.00005050 -353.16378112
     atom    5 type  1   force =     0.00002051    0.00000476  353.16473600
     atom    6 type  1   force =     0.00002051    0.00000476 -353.16377636
     atom    7 type  1   force =     0.00005611    0.00002486  353.16475758
     atom    8 type  1   force =     0.00010053    0.00005050 -353.16378112
     atom    9 type  1   force =    -0.00005675   -0.00002559  353.16475758
     atom   10 type  1   force =    -0.00010117   -0.00005124 -353.16378112
     atom   11 type  1   force =    -0.00002114   -0.00000550  353.16473600
     atom   12 type  1   force =    -0.00002114   -0.00000550 -353.16377636
     atom   13 type  1   force =     0.00001419   -0.00002559  353.16475758
     atom   14 type  1   force =     0.00005861   -0.00005124 -353.16378112
     atom   15 type  1   force =    -0.00002109    0.00003543  353.16475758
     atom   16 type  1   force =    -0.00002109    0.00008672 -353.16378112
     The core correction contribution to forces
     atom    1 type  1   force =     0.00000000    0.00000000    0.00000000
     atom    2 type  1   force =     0.00000000    0.00000000    0.00000000
     atom    3 type  1   force =     0.00000000    0.00000000    0.00000000
     atom    4 type  1   force =     0.00000000    0.00000000    0.00000000
     atom    5 type  1   force =     0.00000000    0.00000000    0.00000000
     atom    6 type  1   force =     0.00000000    0.00000000    0.00000000
     atom    7 type  1   force =     0.00000000    0.00000000    0.00000000
     atom    8 type  1   force =     0.00000000    0.00000000    0.00000000
     atom    9 type  1   force =     0.00000000    0.00000000    0.00000000
     atom   10 type  1   force =     0.00000000    0.00000000    0.00000000
     atom   11 type  1   force =     0.00000000    0.00000000    0.00000000
     atom   12 type  1   force =     0.00000000    0.00000000    0.00000000
     atom   13 type  1   force =     0.00000000    0.00000000    0.00000000
     atom   14 type  1   force =     0.00000000    0.00000000    0.00000000
     atom   15 type  1   force =     0.00000000    0.00000000    0.00000000
     atom   16 type  1   force =     0.00000000    0.00000000    0.00000000
     The Hubbard contrib.    to forces
     atom    1 type  1   force =     0.00000000    0.00000000    0.00000000
     atom    2 type  1   force =     0.00000000    0.00000000    0.00000000
     atom    3 type  1   force =     0.00000000    0.00000000    0.00000000
     atom    4 type  1   force =     0.00000000    0.00000000    0.00000000
     atom    5 type  1   force =     0.00000000    0.00000000    0.00000000
     atom    6 type  1   force =     0.00000000    0.00000000    0.00000000
     atom    7 type  1   force =     0.00000000    0.00000000    0.00000000
     atom    8 type  1   force =     0.00000000    0.00000000    0.00000000
     atom    9 type  1   force =     0.00000000    0.00000000    0.00000000
     atom   10 type  1   force =     0.00000000    0.00000000    0.00000000
     atom   11 type  1   force =     0.00000000    0.00000000    0.00000000
     atom   12 type  1   force =     0.00000000    0.00000000    0.00000000
     atom   13 type  1   force =     0.00000000    0.00000000    0.00000000
     atom   14 type  1   force =     0.00000000    0.00000000    0.00000000
     atom   15 type  1   force =     0.00000000    0.00000000    0.00000000
     atom   16 type  1   force =     0.00000000    0.00000000    0.00000000
     The SCF correction term to forces
     atom    1 type  1   force =    -0.00000000    0.00000000   -0.00000000
     atom    2 type  1   force =    -0.00000000    0.00011989   -0.00075968
     atom    3 type  1   force =     0.00000000   -0.00000000   -0.00000000
     atom    4 type  1   force =     0.00010383   -0.00005994   -0.00075968
     atom    5 type  1   force =    -0.00000000    0.00000000   -0.00000000
     atom    6 type  1   force =    -0.00000000    0.00000000   -0.00076427
     atom    7 type  1   force =    -0.00000000   -0.00000000   -0.00000000
     atom    8 type  1   force =    -0.00010383   -0.00005994   -0.00075968
     atom    9 type  1   force =     0.00000000    0.00000000   -0.00000000
     atom   10 type  1   force =     0.00010383    0.00005994   -0.00075968
     atom   11 type  1   force =     0.00000000   -0.00000000   -0.00000000
     atom   12 type  1   force =     0.00000000   -0.00000000   -0.00076427
     atom   13 type  1   force =    -0.00000000    0.00000000   -0.00000000
     atom   14 type  1   force =    -0.00010383    0.00005994   -0.00075968
     atom   15 type  1   force =     0.00000000   -0.00000000   -0.00000000
     atom   16 type  1   force =     0.00000000   -0.00011989   -0.00075968

     Total force =     0.285799     Total SCF correction =     0.002172


     Computing stress (Cartesian axis) and pressure

          total   stress  (Ry/bohr**3)                   (kbar)     P=     2195.98
   0.02179617  -0.00000000   0.00000000         3206.33       -0.00        0.00
  -0.00000000   0.02179617   0.00000000           -0.00     3206.33        0.00
   0.00000000   0.00000000   0.00119162            0.00        0.00      175.29

     kinetic stress (kbar)  21904.23     -0.00     -0.00
                               -0.00  21904.24      0.00
                               -0.00      0.00  22058.53

     local   stress (kbar)**********     -0.00     -0.00
                               -0.00**********     -0.00
                               -0.00     -0.002734443.30

     nonloc. stress (kbar)  -1958.10      0.00      0.00
                                0.00  -1958.10     -0.00
                                0.00     -0.00  -1181.31

     hartree stress (kbar)1352600.60      0.00     -0.00
                                0.001352600.59     -0.00
                               -0.00     -0.00**********

     exc-cor stress (kbar) -10743.23      0.00     -0.00
                                0.00 -10743.23     -0.00
                               -0.00     -0.00 -10798.70

     corecor stress (kbar)      0.00      0.00      0.00
                                0.00      0.00      0.00
                                0.00      0.00      0.00

     ewald   stress (kbar)1279766.29      0.00     -0.00
                                0.001279766.30      0.00
                               -0.00      0.00**********

     hubbard stress (kbar)      0.00      0.00      0.00
                                0.00      0.00      0.00
                                0.00      0.00      0.00

     DFT-D   stress (kbar)      0.00      0.00      0.00
                                0.00      0.00      0.00
                                0.00      0.00      0.00

     XDM     stress (kbar)      0.00      0.00      0.00
                                0.00      0.00      0.00
                                0.00      0.00      0.00

     dft-nl  stress (kbar)      0.00      0.00      0.00
                                0.00      0.00      0.00
                                0.00      0.00      0.00

     TS-vdW  stress (kbar)      0.00      0.00      0.00
                                0.00      0.00      0.00
                                0.00      0.00      0.00

     MDB     stress (kbar)      0.00      0.00      0.00
                                0.00      0.00      0.00
                                0.00      0.00      0.00

     3D-RISM stress (kbar)      0.00      0.00      0.00
                                0.00      0.00      0.00
                                0.00      0.00      0.00


     BFGS Geometry Optimization
     Energy error            =      0.0E+00 Ry
     Gradient error          =      1.0E-01 Ry/Bohr

     number of scf cycles    =   1
     number of bfgs steps    =   0

     energy             new  =   -7364.7760305873 Ry

     new trust radius        =       0.1010454208 bohr
     new conv_thr            =       0.0000007350 Ry


ATOMIC_POSITIONS (angstrom)
Zn               0.0000000660        1.5094013740        1.2182902100    0   0   0
Zn               0.0000000660        1.5094357008        3.7083415529
Zn              -1.3071798610        3.7735034240        1.2182902100    0   0   0
Zn              -1.3071501331        3.7734862606        3.7083415529
Zn               2.6143601610        1.5094013740        1.2182902100    0   0   0
Zn               2.6143601610        1.5094013740        3.7083409123
Zn               1.3071802330        3.7735034240        1.2182902100    0   0   0
Zn               1.3071505051        3.7734862606        3.7083415529
Zn               1.3071801000        0.7547006760        1.2182902100    0   0   0
[...]

     occupation numbers 
     1.0000   1.0000   1.0000   1.0000   1.0000   1.0000   1.0000   1.0000
     1.0000   1.0000   1.0000   1.0000   1.0000   1.0000   1.0000   1.0000
     1.0000   1.0000   1.0000   1.0000   1.0000   1.0000   1.0000   1.0000
     1.0000   1.0000   1.0000   1.0000   1.0000   1.0000   1.0000   1.0000
     1.0000   1.0000   1.0000   1.0000   1.0000   1.0000   1.0000   1.0000
     1.0000   1.0000   1.0000   1.0000   1.0000   1.0000   1.0000   1.0000
     1.0000   1.0000   1.0000   1.0000   1.0000   1.0000   1.0000   1.0000
     1.0000   1.0000   1.0000   1.0000   1.0000   1.0000   1.0000   1.0000
     1.0000   1.0000   1.0000   1.0000   1.0000   1.0000   1.0000   1.0000
     1.0000   1.0000   1.0000   1.0000   1.0000   1.0000   1.0000   1.0000
     1.0000   1.0000   1.0000   1.0000   1.0000   1.0000   1.0000   1.0000
     1.0000   1.0000   1.0000   1.0000   1.0000   1.0000   1.0000   1.0000
     1.0000   1.0000   1.0000   1.0000   1.0000   1.0000   1.0000   1.0000
     1.0000   1.0000   1.0000   1.0000   1.0000   1.0000   1.0000   1.0000
     1.0000   1.0000   1.0000   1.0000   1.0000   1.0000   1.0000   1.0000
     1.0000   1.0000   1.0000   1.0000   1.0000   1.0000   1.0000   1.0000
     1.0000   1.0000   1.0000   1.0000   1.0000   1.0000   1.0000   1.0000
     1.0000   1.0000   1.0000   1.0000   1.0000   1.0000   1.0000   1.0000
     1.0000   1.0000   1.0000   1.0000   1.0000   1.0000   1.0000   1.0000
     1.0000   1.0000   1.0000   1.0000   1.0000   1.0000   1.0126   1.0158
     0.8557   0.1478   0.0000   0.0000   0.0000   0.0000   0.0000   0.0000
     0.0000   0.0000   0.0000   0.0000   0.0000   0.0000   0.0000   0.0000
     0.0000   0.0000   0.0000   0.0000   0.0000   0.0000   0.0000   0.0000
     0.0000   0.0000   0.0000   0.0000   0.0000   0.0000   0.0000   0.0000

     the Fermi energy is     5.4947 ev

!    total energy              =   -7373.37451425 Ry
     estimated scf accuracy    <          4.9E-10 Ry
     smearing contrib. (-TS)   =      -0.00642155 Ry
     internal energy E=F+TS    =   -7373.36809270 Ry

     The total energy is F=E-TS. E is the sum of the following terms:
     one-electron contribution =  -21550.91787761 Ry
     hartree contribution      =   10768.18025078 Ry
     xc contribution           =    -682.52221702 Ry
     ewald contribution        =    4091.89175116 Ry

     convergence has been achieved in   7 iterations

     Forces acting on atoms (cartesian axes, Ry/au):

     atom    1 type  1   force =     0.00000000    0.00014471    0.00023992
     atom    2 type  1   force =    -0.00000000   -0.00008114   -0.00033041
     atom    3 type  1   force =     0.00012532   -0.00007236    0.00023992
     atom    4 type  1   force =    -0.00007027    0.00004057   -0.00033041
     atom    5 type  1   force =     0.00000000    0.00000000    0.00024127
     atom    6 type  1   force =     0.00000000    0.00000000    0.00003019
     atom    7 type  1   force =    -0.00012532   -0.00007236    0.00023992
     atom    8 type  1   force =     0.00007027    0.00004057   -0.00033041
     atom    9 type  1   force =     0.00012532    0.00007236    0.00023992
     atom   10 type  1   force =    -0.00007027   -0.00004057   -0.00033041
     atom   11 type  1   force =     0.00000000   -0.00000000    0.00024127
     atom   12 type  1   force =     0.00000000   -0.00000000    0.00003019
     atom   13 type  1   force =    -0.00012532    0.00007236    0.00023992
     atom   14 type  1   force =     0.00007027   -0.00004057   -0.00033041
     atom   15 type  1   force =    -0.00000000   -0.00014471    0.00023992
     atom   16 type  1   force =    -0.00000000    0.00008114   -0.00033041
     The non-local contrib.  to forces
     atom    1 type  1   force =     0.00000000   -0.00057680    0.00223504
     atom    2 type  1   force =     0.00000000   -0.16443602   -0.02054095
     atom    3 type  1   force =    -0.00049952    0.00028840    0.00223504
     atom    4 type  1   force =    -0.14240576    0.08221802   -0.02054095
     atom    5 type  1   force =     0.00000000   -0.00000000    0.00291374
     atom    6 type  1   force =    -0.00000000    0.00000000    0.08833886
     atom    7 type  1   force =     0.00049952    0.00028840    0.00223504
     atom    8 type  1   force =     0.14240576    0.08221800   -0.02054095
     atom    9 type  1   force =    -0.00049952   -0.00028840    0.00223504
     atom   10 type  1   force =    -0.14240576   -0.08221800   -0.02054095
     atom   11 type  1   force =     0.00000000    0.00000000    0.00291374
     atom   12 type  1   force =     0.00000000   -0.00000000    0.08833886
     atom   13 type  1   force =     0.00049952   -0.00028840    0.00223504
     atom   14 type  1   force =     0.14240576   -0.08221802   -0.02054095
     atom   15 type  1   force =     0.00000000    0.00057680    0.00223504
     atom   16 type  1   force =     0.00000000    0.16443602   -0.02054095
     The ionic contribution  to forces
     atom    1 type  1   force =    -0.00000610   -0.24195965 -119.59779850
     atom    2 type  1   force =     0.00000435  -23.91191958  165.47660621
     atom    3 type  1   force =    -0.20953273    0.12095058 -119.59779853
     atom    4 type  1   force =   -20.70832165   11.95595856  165.47660611
     atom    5 type  1   force =    -0.00000626   -0.00001930 -119.88497394
     atom    6 type  1   force =     0.00000279    0.00000411  -17.75144925
     atom    7 type  1   force =     0.20952020    0.12095057 -119.59779858
     atom    8 type  1   force =    20.70831831   11.95594953  165.47660648
     atom    9 type  1   force =    -0.20952029   -0.12095051 -119.59779858
     atom   10 type  1   force =   -20.70831836  -11.95594952  165.47660648
     atom   11 type  1   force =     0.00000626    0.00001930 -119.88497394
     atom   12 type  1   force =    -0.00000279   -0.00000411  -17.75144925
     atom   13 type  1   force =     0.20953264   -0.12095064 -119.59779853
     atom   14 type  1   force =    20.70832160  -11.95595857  165.47660611
     atom   15 type  1   force =     0.00000629    0.24195965 -119.59779850
     atom   16 type  1   force =    -0.00000424   23.91191958  165.47660621
     The local contribution  to forces
     atom    1 type  1   force =     0.00002140    0.24266611  119.59586264
     atom    2 type  1   force =     0.00003908   24.07627196 -165.45639765
     atom    3 type  1   force =     0.21017158   -0.12132655  119.59586267
     atom    4 type  1   force =    20.85073519  -12.03812406 -165.45639766
     atom    5 type  1   force =     0.00002033    0.00000449  119.88236178
     atom    6 type  1   force =     0.00001277   -0.00001348   17.66305466
     atom    7 type  1   force =    -0.21013059   -0.12132657  119.59586272
     atom    8 type  1   force =   -20.85072229  -12.03815850 -165.45639787
     atom    9 type  1   force =     0.21012995    0.12132584  119.59586272
     atom   10 type  1   force =    20.85072160   12.03815772 -165.45639790
     atom   11 type  1   force =    -0.00002096   -0.00000522  119.88236178
     atom   12 type  1   force =    -0.00001350    0.00001263   17.66305466
     atom   13 type  1   force =    -0.21017221    0.12132582  119.59586267
     atom   14 type  1   force =   -20.85073585   12.03812330 -165.45639766
     atom   15 type  1   force =    -0.00002098   -0.24266685  119.59586264
     atom   16 type  1   force =    -0.00003864  -24.07627275 -165.45639764
     The core correction contribution to forces
     atom    1 type  1   force =     0.00000000    0.00000000    0.00000000
     atom    2 type  1   force =     0.00000000    0.00000000    0.00000000
     atom    3 type  1   force =     0.00000000    0.00000000    0.00000000
     atom    4 type  1   force =     0.00000000    0.00000000    0.00000000
     atom    5 type  1   force =     0.00000000    0.00000000    0.00000000
     atom    6 type  1   force =     0.00000000    0.00000000    0.00000000
     atom    7 type  1   force =     0.00000000    0.00000000    0.00000000
     atom    8 type  1   force =     0.00000000    0.00000000    0.00000000
     atom    9 type  1   force =     0.00000000    0.00000000    0.00000000
     atom   10 type  1   force =     0.00000000    0.00000000    0.00000000
     atom   11 type  1   force =     0.00000000    0.00000000    0.00000000
     atom   12 type  1   force =     0.00000000    0.00000000    0.00000000
     atom   13 type  1   force =     0.00000000    0.00000000    0.00000000
     atom   14 type  1   force =     0.00000000    0.00000000    0.00000000
     atom   15 type  1   force =     0.00000000    0.00000000    0.00000000
     atom   16 type  1   force =     0.00000000    0.00000000    0.00000000
     The Hubbard contrib.    to forces
     atom    1 type  1   force =     0.00000000    0.00000000    0.00000000
     atom    2 type  1   force =     0.00000000    0.00000000    0.00000000
     atom    3 type  1   force =     0.00000000    0.00000000    0.00000000
     atom    4 type  1   force =     0.00000000    0.00000000    0.00000000
     atom    5 type  1   force =     0.00000000    0.00000000    0.00000000
     atom    6 type  1   force =     0.00000000    0.00000000    0.00000000
     atom    7 type  1   force =     0.00000000    0.00000000    0.00000000
     atom    8 type  1   force =     0.00000000    0.00000000    0.00000000
     atom    9 type  1   force =     0.00000000    0.00000000    0.00000000
     atom   10 type  1   force =     0.00000000    0.00000000    0.00000000
     atom   11 type  1   force =     0.00000000    0.00000000    0.00000000
     atom   12 type  1   force =     0.00000000    0.00000000    0.00000000
     atom   13 type  1   force =     0.00000000    0.00000000    0.00000000
     atom   14 type  1   force =     0.00000000    0.00000000    0.00000000
     atom   15 type  1   force =     0.00000000    0.00000000    0.00000000
     atom   16 type  1   force =     0.00000000    0.00000000    0.00000000
     The SCF correction term to forces
     atom    1 type  1   force =    -0.00000000    0.00000000   -0.00000000
     atom    2 type  1   force =    -0.00000000   -0.00004473   -0.00002230
     atom    3 type  1   force =     0.00000000   -0.00000000   -0.00000000
     atom    4 type  1   force =    -0.00003874    0.00002236   -0.00002230
     atom    5 type  1   force =    -0.00000000    0.00000000   -0.00000000
     atom    6 type  1   force =     0.00000000    0.00000000    0.00006161
     atom    7 type  1   force =    -0.00000000   -0.00000000   -0.00000000
     atom    8 type  1   force =     0.00003874    0.00002237   -0.00002230
     atom    9 type  1   force =     0.00000000    0.00000000   -0.00000000
     atom   10 type  1   force =    -0.00003874   -0.00002237   -0.00002230
     atom   11 type  1   force =     0.00000000   -0.00000000   -0.00000000
     atom   12 type  1   force =    -0.00000000   -0.00000000    0.00006161
     atom   13 type  1   force =    -0.00000000    0.00000000   -0.00000000
     atom   14 type  1   force =     0.00003874   -0.00002236   -0.00002230
     atom   15 type  1   force =     0.00000000   -0.00000000   -0.00000000
     atom   16 type  1   force =     0.00000000    0.00004473   -0.00002230

     Total force =     0.000834     Total SCF correction =     0.000150
     SCF correction compared to forces is large: reduce conv_thr to get better values


     Computing stress (Cartesian axis) and pressure

          total   stress  (Ry/bohr**3)                   (kbar)     P=     1268.99
   0.01296042  -0.00000000  -0.00000000         1906.54       -0.00       -0.00
  -0.00000000   0.01296042  -0.00000000           -0.00     1906.54       -0.00
  -0.00000000  -0.00000000  -0.00004165           -0.00       -0.00       -6.13

     kinetic stress (kbar)  21482.97     -0.00      0.00
                               -0.00  21482.97     -0.00
                                0.00     -0.00  21695.89

     local   stress (kbar)-813339.90     -0.00     -0.00
                               -0.00-813339.90      0.00
                               -0.00      0.00 878481.72

     nonloc. stress (kbar)  -2013.10      0.00      0.00
                                0.00  -2013.10      0.00
                                0.00      0.00  -1561.89

     hartree stress (kbar) 445205.70      0.00      0.00
                                0.00 445205.70      0.00
                                0.00      0.00-365111.47

     exc-cor stress (kbar) -10642.98      0.00     -0.00
                                0.00 -10642.98     -0.00
                               -0.00     -0.00 -10695.83

     corecor stress (kbar)      0.00      0.00      0.00
                                0.00      0.00      0.00
                                0.00      0.00      0.00

     ewald   stress (kbar) 361213.85      0.00      0.00
                                0.00 361213.86     -0.00
                                0.00     -0.00-522814.55

     hubbard stress (kbar)      0.00      0.00      0.00
                                0.00      0.00      0.00
                                0.00      0.00      0.00

     DFT-D   stress (kbar)      0.00      0.00      0.00
                                0.00      0.00      0.00
                                0.00      0.00      0.00

     XDM     stress (kbar)      0.00      0.00      0.00
                                0.00      0.00      0.00
                                0.00      0.00      0.00

     dft-nl  stress (kbar)      0.00      0.00      0.00
                                0.00      0.00      0.00
                                0.00      0.00      0.00

     TS-vdW  stress (kbar)      0.00      0.00      0.00
                                0.00      0.00      0.00
                                0.00      0.00      0.00

     MDB     stress (kbar)      0.00      0.00      0.00
                                0.00      0.00      0.00
                                0.00      0.00      0.00

     3D-RISM stress (kbar)      0.00      0.00      0.00
                                0.00      0.00      0.00
                                0.00      0.00      0.00

     Energy error            =      4.5E-06 Ry
     Gradient error          =      3.3E-04 Ry/Bohr

     bfgs converged in  36 scf cycles and  34 bfgs steps
     (criteria: energy <  1.0E-05 Ry, force <  5.0E-04 Ry/Bohr)

     End of BFGS Geometry Optimization

     Final energy             =   -7373.3745142455 Ry

     File ./tmp/Zn002_3x3x2_relax.bfgs deleted, as requested
Begin final coordinates

ATOMIC_POSITIONS (angstrom)
Zn               0.0000000660        1.5094013740        1.2182902100    0   0   0
Zn               0.0000000660        1.8665345418        9.0112069686
Zn              -1.3071798610        3.7735034240        1.2182902100    0   0   0
Zn              -0.9978934933        3.5949368238        9.0112069686
Zn               2.6143601610        1.5094013740        1.2182902100    0   0   0
Zn               2.6143601610        1.5094013740        6.0881963345
Zn               1.3071802330        3.7735034240        1.2182902100    0   0   0
Zn               0.9978938653        3.5949368564        9.0112069686
Zn               1.3071801000        0.7547006760        1.2182902100    0   0   0
Zn               1.6164664677        0.9332672436        9.0112069686
Zn               0.0000001720        3.0188027260        1.2182902100    0   0   0
Zn               0.0000001720        3.0188027260        6.0881963345
Zn               3.9215401940        0.7547006760        1.2182902100    0   0   0
Zn               3.6122538263        0.9332672762        9.0112069686
Zn               2.6143602660        3.0188027260        1.2182902100    0   0   0
Zn               2.6143602660        2.6616695582        9.0112069686
End final coordinates



     Writing all to output data dir ./tmp/Zn002_3x3x2_relax.save/ :
     XML data file, charge density, pseudopotentials, collected wavefunctions

     init_run     :      8.64s CPU      8.84s WALL (       1 calls)
     electrons    :  10788.28s CPU  10925.74s WALL (      36 calls)
     update_pot   :      7.24s CPU      7.41s WALL (      35 calls)
     forces       :    243.15s CPU    244.42s WALL (      36 calls)
     stress       :    744.53s CPU    749.64s WALL (      36 calls)

     Called by init_run:
     wfcinit      :      7.98s CPU      8.11s WALL (       1 calls)
     wfcinit:atom :      0.01s CPU      0.02s WALL (       3 calls)
     wfcinit:wfcr :      7.76s CPU      7.85s WALL (       3 calls)
     potinit      :      0.20s CPU      0.24s WALL (       1 calls)
     hinit0       :      0.12s CPU      0.13s WALL (       1 calls)

     Called by electrons:
     c_bands      :   9827.61s CPU   9937.80s WALL (     336 calls)
     sum_band     :    805.61s CPU    825.02s WALL (     336 calls)
     v_of_rho     :     65.70s CPU     67.29s WALL (     369 calls)
     v_h          :      4.07s CPU      4.23s WALL (     369 calls)
     v_xc         :     61.63s CPU     63.05s WALL (     369 calls)
     newd         :     93.73s CPU     99.19s WALL (     369 calls)
     mix_rho      :      5.41s CPU      5.60s WALL (     336 calls)

     Called by c_bands:
     init_us_2    :     16.55s CPU     16.62s WALL (    2235 calls)
     cegterg      :   9458.09s CPU   9566.94s WALL (    1008 calls)

     Called by sum_band:
     sum_band:wei :      0.24s CPU      0.25s WALL (     336 calls)
     sum_band:loo :    736.28s CPU    749.79s WALL (     336 calls)
     sum_band:buf :      2.84s CPU      2.86s WALL (    1008 calls)
     sum_band:ini :      6.88s CPU      6.90s WALL (    1008 calls)
     sum_band:cal :    476.19s CPU    477.67s WALL (    1008 calls)
     sum_band:bec :      2.09s CPU      2.10s WALL (    1008 calls)
     addusdens    :     59.89s CPU     64.97s WALL (     336 calls)
                                        0.00s GPU  (     336 calls)
     addusd:skk   :      0.42s CPU      0.42s WALL (     336 calls)
                                        0.00s GPU  (     336 calls)

     Called by *egterg:
     cdiaghg      :    453.61s CPU    465.28s WALL (    5726 calls)
     cegterg:over :   1807.42s CPU   1812.21s WALL (    4832 calls)
     cegterg:upda :    633.50s CPU    636.12s WALL (    4832 calls)
     cegterg:last :   1928.07s CPU   1934.44s WALL (    2175 calls)
     cdiaghg:chol :     10.57s CPU     10.62s WALL (    5726 calls)
     cdiaghg:inve :      9.07s CPU      9.11s WALL (    5726 calls)
     cdiaghg:para :    145.59s CPU    149.63s WALL (   11452 calls)
     h_psi        :   3215.48s CPU   3289.24s WALL (    5843 calls)
     s_psi        :    933.21s CPU    935.45s WALL (    5843 calls)
     g_psi        :      4.26s CPU      4.29s WALL (    4832 calls)

     Called by h_psi:
     h_psi:calbec :   1181.07s CPU   1185.06s WALL (    5843 calls)
     vloc_psi     :   1087.78s CPU   1149.73s WALL (    5843 calls)
     add_vuspsi   :    941.55s CPU    943.84s WALL (    5843 calls)

     General routines
     calbec       :   1915.67s CPU   1921.94s WALL (    7391 calls)
     fft          :     37.43s CPU     39.55s WALL (    5051 calls)
     ffts         :      1.36s CPU      1.51s WALL (     705 calls)
     fftw         :   1098.35s CPU   1159.03s WALL ( 1162088 calls)
     interpolate  :      3.71s CPU      3.93s WALL (     369 calls)

     Parallel routines

     PWSCF        :      3h16m CPU      3h19m WALL


   This run was terminated on:  18:31: 8  10Mar2025            

=------------------------------------------------------------------------------=
   JOB DONE.
=------------------------------------------------------------------------------=
Note: The following floating-point exceptions are signalling: IEEE_DENORMAL
Note: The following floating-point exceptions are signalling: IEEE_DENORMAL
Note: The following floating-point exceptions are signalling: IEEE_DENORMAL
Note: The following floating-point exceptions are signalling: IEEE_DENORMAL
