--------------------------------------------------------------------------
By default, for Open MPI 4.0 and later, infiniband ports on a device
are not used by default.  The intent is to use UCX for these devices.
You can override this policy by setting the btl_openib_allow_ib MCA parameter
to true.

  Local host:              psid00
  Local adapter:           mlx5_0
  Local port:              1

--------------------------------------------------------------------------
--------------------------------------------------------------------------
WARNING: There was an error initializing an OpenFabrics device.

  Local host:   psid00
  Local device: mlx5_0
--------------------------------------------------------------------------

     Program PWSCF v.7.3.1 starts on 18Jan1998 at 23:27:16 

     This program is part of the open-source Quantum ESPRESSO suite
     for quantum simulation of materials; please cite
         "P. Giannozzi et al., J. Phys.:Condens. Matter 21 395502 (2009);
         "P. Giannozzi et al., J. Phys.:Condens. Matter 29 465901 (2017);
         "P. Giannozzi et al., J. Chem. Phys. 152 154105 (2020);
          URL http://www.quantum-espresso.org", 
     in publications or presentations arising from this work. More details at
     http://www.quantum-espresso.org/quote

     Parallel version (MPI), running on    16 processors

     MPI processes distributed on     1 nodes
     154462 MiB available memory on the printing compute node when the environment starts

     Waiting for input...
     Reading input from standard input
Warning: card &CELL ignored
Warning: card   CELL_DOFREE = 'ALL' ignored
Warning: card / ignored

     Current dimensions of program PWSCF are:
     Max number of different atomic species (ntypx) = 10
     Max number of k-points (npk) =  40000
     Max angular momentum in pseudopotentials (lmaxx) =  4
     Found identity + (  0.0000 -0.5000  0.0000) symmetry
     This is a supercell, fractional translations are disabled

     K-points division:     npool     =       4
     R & G space division:  proc/nbgrp/npool/nimage =       4
     Subspace diagonalization in iterative solution of the eigenvalue problem:
     a serial algorithm will be used


     Parallelization info
     --------------------
     sticks:   dense  smooth     PW     G-vecs:    dense   smooth      PW
     Min        1447     725    204               188899    66790   10062
     Max        1448     726    205               188905    66794   10065
     Sum        5791    2903    819               755607   267169   40257

     Using Slab Decomposition



     bravais-lattice index     =            0
     lattice parameter (alat)  =      18.4179  a.u.
     unit-cell volume          =    5593.2314 (a.u.)^3
     number of atoms/cell      =            8
     number of atomic types    =            1
     number of electrons       =       160.00
     number of Kohn-Sham states=           96
     kinetic-energy cutoff     =      50.0000  Ry
     charge density cutoff     =     400.0000  Ry
     scf convergence threshold =      7.3E-07
     mixing beta               =       0.7000
     number of iterations used =            8  plain     mixing
     energy convergence thresh.=      1.0E-05
     force convergence thresh. =      5.0E-04
     Exchange-correlation= SLA  PW   PBE  PBE
                           (   1   4   3   4   0   0   0)
     nstep                     =          100


     celldm(1)=  18.417879  celldm(2)=   0.000000  celldm(3)=   0.000000
     celldm(4)=   0.000000  celldm(5)=   0.000000  celldm(6)=   0.000000

     crystal axes: (cart. coord. in units of alat)
               a(1) = (   1.000000   0.000000   0.000000 )  
               a(2) = (   0.000000   0.536481   0.000000 )  
               a(3) = (   0.000000  -0.963450   1.668743 )  

     reciprocal axes: (cart. coord. in units 2 pi/alat)
               b(1) = (  1.000000  0.000000 -0.000000 )  
               b(2) = ( -0.000000  1.863998  1.076180 )  
               b(3) = (  0.000000  0.000000  0.599254 )  


     PseudoPot. # 1 for Zn read from file:
     /home/ys/qepseudo/SSSP_1.3.0_PBE_efficiency/Zn_pbe_v1.uspp.F.UPF
     MD5 check sum: df62231357ef9e81f77b2b3087fa5675
     Pseudo is Ultrasoft, Zval = 20.0
     Generated by new atomic code, or converted to UPF format
     Using radial grid of  943 points,  6 beta functions with: 
                l(1) =   0
                l(2) =   0
                l(3) =   1
                l(4) =   1
                l(5) =   2
                l(6) =   2
     Q(r) pseudized with  8 coefficients,  rinner =    1.100   1.100   1.100
                                                       1.100   1.100

     atomic species   valence    mass     pseudopotential
     Zn               20.00    65.38000     Zn( 1.00)

     No symmetry found


                                    s                        frac. trans.

      isym =  1     identity                                     

 cryst.   s( 1) = (     1          0          0      )
                  (     0          1          0      )
                  (     0          0          1      )

 cart.    s( 1) = (  1.0000000  0.0000000  0.0000000 )
                  (  0.0000000  1.0000000  0.0000000 )
                  (  0.0000000  0.0000000  1.0000000 )


   Cartesian axes

     site n.     atom                  positions (alat units)
         1        Zn     tau(   1) = (   0.1250000   0.1341203   0.0774344  )
         2        Zn     tau(   2) = (   0.1250000   0.4023610   0.0774344  )
         3        Zn     tau(   3) = (   0.6250000   0.1341203   0.0774344  )
         4        Zn     tau(   4) = (   0.6250000   0.4023610   0.0774344  )
         5        Zn     tau(   5) = (   0.3750000  -0.0000000   0.1548688  )
         6        Zn     tau(   6) = (   0.3750000   0.2682407   0.1548688  )
         7        Zn     tau(   7) = (   0.8750000  -0.0000000   0.1548688  )
         8        Zn     tau(   8) = (   0.8750000   0.2682407   0.1548688  )

   Crystallographic axes

     site n.     atom                  positions (cryst. coord.)
         1        Zn     tau(   1) = (  0.1250000  0.3333334  0.0464029  )
         2        Zn     tau(   2) = (  0.1250000  0.8333334  0.0464029  )
         3        Zn     tau(   3) = (  0.6250000  0.3333334  0.0464029  )
         4        Zn     tau(   4) = (  0.6250000  0.8333334  0.0464029  )
         5        Zn     tau(   5) = (  0.3750000  0.1666668  0.0928057  )
         6        Zn     tau(   6) = (  0.3750000  0.6666668  0.0928057  )
         7        Zn     tau(   7) = (  0.8750000  0.1666668  0.0928057  )
         8        Zn     tau(   8) = (  0.8750000  0.6666668  0.0928057  )

     number of k points=    36  Marzari-Vanderbilt smearing, width (Ry)=  0.0200
                       cart. coord. in units 2pi/alat
        k(    1) = (   0.0000000   0.0000000   0.0000000), wk =   0.0312500
        k(    2) = (   0.0000000   0.0000000   0.1498134), wk =   0.0625000
        k(    3) = (   0.0000000   0.0000000  -0.2996268), wk =   0.0312500
        k(    4) = (   0.0000000   0.4659994   0.2690451), wk =   0.0625000
        k(    5) = (   0.0000000   0.4659994   0.4188585), wk =   0.0625000
        k(    6) = (   0.0000000   0.4659994  -0.0305817), wk =   0.0625000
        k(    7) = (   0.0000000   0.4659994   0.1192317), wk =   0.0625000
        k(    8) = (   0.0000000  -0.9319989  -0.5380901), wk =   0.0312500
        k(    9) = (   0.0000000  -0.9319989  -0.3882767), wk =   0.0625000
        k(   10) = (   0.0000000  -0.9319989  -0.8377169), wk =   0.0312500
        k(   11) = (   0.2500000   0.0000000   0.0000000), wk =   0.0625000
        k(   12) = (   0.2500000   0.0000000   0.1498134), wk =   0.0625000
        k(   13) = (   0.2500000   0.0000000  -0.2996268), wk =   0.0625000
        k(   14) = (   0.2500000   0.4659994   0.2690451), wk =   0.0625000
        k(   15) = (   0.2500000   0.4659994   0.4188585), wk =   0.0625000
        k(   16) = (   0.2500000   0.4659994  -0.0305817), wk =   0.0625000
        k(   17) = (   0.2500000   0.4659994   0.1192317), wk =   0.0625000
        k(   18) = (   0.2500000  -0.9319989  -0.5380901), wk =   0.0625000
        k(   19) = (   0.2500000  -0.9319989  -0.3882767), wk =   0.0625000
        k(   20) = (   0.2500000  -0.9319989  -0.8377169), wk =   0.0625000
        k(   21) = (  -0.5000000   0.0000000   0.0000000), wk =   0.0312500
        k(   22) = (  -0.5000000   0.0000000   0.1498134), wk =   0.0625000
        k(   23) = (  -0.5000000   0.0000000  -0.2996268), wk =   0.0312500
        k(   24) = (  -0.5000000   0.4659994   0.2690451), wk =   0.0625000
        k(   25) = (  -0.5000000   0.4659994   0.4188585), wk =   0.0625000
        k(   26) = (  -0.5000000   0.4659994  -0.0305817), wk =   0.0625000
        k(   27) = (  -0.5000000   0.4659994   0.1192317), wk =   0.0625000
        k(   28) = (  -0.5000000  -0.9319989  -0.5380901), wk =   0.0312500
        k(   29) = (  -0.5000000  -0.9319989  -0.3882767), wk =   0.0625000
        k(   30) = (  -0.5000000  -0.9319989  -0.8377169), wk =   0.0312500
        k(   31) = (   0.2500000   0.0000000  -0.1498134), wk =   0.0625000
        k(   32) = (   0.2500000  -0.4659994  -0.2690451), wk =   0.0625000
        k(   33) = (   0.2500000  -0.4659994  -0.4188585), wk =   0.0625000
        k(   34) = (   0.2500000  -0.4659994   0.0305817), wk =   0.0625000
        k(   35) = (   0.2500000  -0.4659994  -0.1192317), wk =   0.0625000
        k(   36) = (   0.2500000   0.9319989   0.3882767), wk =   0.0625000

                       cryst. coord.
        k(    1) = (   0.0000000   0.0000000   0.0000000), wk =   0.0312500
        k(    2) = (   0.0000000   0.0000000   0.2500000), wk =   0.0625000
        k(    3) = (   0.0000000   0.0000000  -0.5000000), wk =   0.0312500
        k(    4) = (   0.0000000   0.2500000   0.0000000), wk =   0.0625000
        k(    5) = (   0.0000000   0.2500000   0.2500000), wk =   0.0625000
        k(    6) = (   0.0000000   0.2500000  -0.5000000), wk =   0.0625000
        k(    7) = (   0.0000000   0.2500000  -0.2500000), wk =   0.0625000
        k(    8) = (   0.0000000  -0.5000000   0.0000000), wk =   0.0312500
        k(    9) = (   0.0000000  -0.5000000   0.2500000), wk =   0.0625000
        k(   10) = (   0.0000000  -0.5000000  -0.5000000), wk =   0.0312500
        k(   11) = (   0.2500000   0.0000000   0.0000000), wk =   0.0625000
        k(   12) = (   0.2500000   0.0000000   0.2500000), wk =   0.0625000
        k(   13) = (   0.2500000   0.0000000  -0.5000000), wk =   0.0625000
        k(   14) = (   0.2500000   0.2500000   0.0000000), wk =   0.0625000
        k(   15) = (   0.2500000   0.2500000   0.2500000), wk =   0.0625000
        k(   16) = (   0.2500000   0.2500000  -0.5000000), wk =   0.0625000
        k(   17) = (   0.2500000   0.2500000  -0.2500000), wk =   0.0625000
        k(   18) = (   0.2500000  -0.5000000   0.0000000), wk =   0.0625000
        k(   19) = (   0.2500000  -0.5000000   0.2500000), wk =   0.0625000
        k(   20) = (   0.2500000  -0.5000000  -0.5000000), wk =   0.0625000
        k(   21) = (  -0.5000000   0.0000000   0.0000000), wk =   0.0312500
        k(   22) = (  -0.5000000   0.0000000   0.2500000), wk =   0.0625000
        k(   23) = (  -0.5000000   0.0000000  -0.5000000), wk =   0.0312500
        k(   24) = (  -0.5000000   0.2500000   0.0000000), wk =   0.0625000
        k(   25) = (  -0.5000000   0.2500000   0.2500000), wk =   0.0625000
        k(   26) = (  -0.5000000   0.2500000  -0.5000000), wk =   0.0625000
        k(   27) = (  -0.5000000   0.2500000  -0.2500000), wk =   0.0625000
        k(   28) = (  -0.5000000  -0.5000000   0.0000000), wk =   0.0312500
        k(   29) = (  -0.5000000  -0.5000000   0.2500000), wk =   0.0625000
        k(   30) = (  -0.5000000  -0.5000000  -0.5000000), wk =   0.0312500
        k(   31) = (   0.2500000   0.0000000  -0.2500000), wk =   0.0625000
        k(   32) = (   0.2500000  -0.2500000   0.0000000), wk =   0.0625000
        k(   33) = (   0.2500000  -0.2500000  -0.2500000), wk =   0.0625000
        k(   34) = (   0.2500000  -0.2500000   0.5000000), wk =   0.0625000
        k(   35) = (   0.2500000  -0.2500000   0.2500000), wk =   0.0625000
        k(   36) = (   0.2500000   0.5000000  -0.2500000), wk =   0.0625000

     Dense  grid:   755607 G-vectors     FFT dimensions: ( 120,  64, 225)

     Smooth grid:   267169 G-vectors     FFT dimensions: (  90,  45, 160)

     Dynamical RAM for                 wfc:      12.23 MB

     Dynamical RAM for     wfc (w. buffer):     122.29 MB

     Dynamical RAM for           str. fact:       2.88 MB

     Dynamical RAM for           local pot:       0.00 MB

     Dynamical RAM for          nlocal pot:      18.34 MB

     Dynamical RAM for                qrad:       1.61 MB

     Dynamical RAM for          rho,v,vnew:      18.67 MB

     Dynamical RAM for               rhoin:       6.22 MB

     Dynamical RAM for            rho*nmix:      46.12 MB

     Dynamical RAM for           G-vectors:      11.32 MB

     Dynamical RAM for          h,s,v(r/c):       1.69 MB

     Dynamical RAM for          <psi|beta>:       0.21 MB

     Dynamical RAM for                 psi:      24.46 MB

     Dynamical RAM for                hpsi:      24.46 MB

     Dynamical RAM for                spsi:      24.46 MB

     Dynamical RAM for      wfcinit/wfcrot:      26.74 MB

     Dynamical RAM for           addusdens:     141.96 MB

     Dynamical RAM for          addusforce:     151.36 MB

     Dynamical RAM for         addusstress:     145.92 MB

     Estimated static dynamical RAM per process >     203.79 MB

     Estimated max dynamical RAM per process >     401.27 MB

     Estimated total dynamical RAM >       5.73 GB

     Initial potential from superposition of free atoms

     starting charge     159.9989, renormalised to     160.0000

     negative rho (up, down):  4.864E-04 0.000E+00
     Starting wfcs are  104 randomized atomic wfcs
[psid00:205665] 15 more processes have sent help message help-mpi-btl-openib.txt / ib port not selected
[psid00:205665] Set MCA parameter "orte_base_help_aggregate" to 0 to see all help / error messages
[psid00:205665] 15 more processes have sent help message help-mpi-btl-openib.txt / error in device init

     total cpu time spent up to now is       16.8 secs

     Self-consistent Calculation

     iteration #  1     ecut=    50.00 Ry     beta= 0.70
     Davidson diagonalization with overlap

---- Real-time Memory Report at c_bands before calling an iterative solver
           237 MiB given to the printing process from OS
             0 MiB allocation reported by mallinfo(arena+hblkhd)
        151080 MiB available memory on the node where the printing process lives
------------------
     ethr =  1.00E-02,  avg # of iterations =  4.7

     Threshold (ethr) on eigenvalues was too large:
     Diagonalizing with lowered threshold

     Davidson diagonalization with overlap

---- Real-time Memory Report at c_bands before calling an iterative solver
           374 MiB given to the printing process from OS
             0 MiB allocation reported by mallinfo(arena+hblkhd)
        151191 MiB available memory on the node where the printing process lives
------------------
     ethr =  7.96E-05,  avg # of iterations = 10.6

     negative rho (up, down):  2.380E-04 0.000E+00

     total cpu time spent up to now is      125.4 secs

     total energy              =   -3692.11248547 Ry
     estimated scf accuracy    <       0.13946238 Ry

     iteration #  2     ecut=    50.00 Ry     beta= 0.70
     Davidson diagonalization with overlap

---- Real-time Memory Report at c_bands before calling an iterative solver
           381 MiB given to the printing process from OS
             0 MiB allocation reported by mallinfo(arena+hblkhd)
        150372 MiB available memory on the node where the printing process lives
------------------
     ethr =  8.72E-05,  avg # of iterations =  3.0

     negative rho (up, down):  4.593E-04 0.000E+00

     total cpu time spent up to now is      185.6 secs

     total energy              =   -3692.12766183 Ry
     estimated scf accuracy    <       0.14765759 Ry

     iteration #  3     ecut=    50.00 Ry     beta= 0.70
     Davidson diagonalization with overlap

---- Real-time Memory Report at c_bands before calling an iterative solver
           393 MiB given to the printing process from OS
             0 MiB allocation reported by mallinfo(arena+hblkhd)
        150360 MiB available memory on the node where the printing process lives
------------------
     ethr =  8.72E-05,  avg # of iterations =  2.0

     negative rho (up, down):  4.918E-04 0.000E+00

     total cpu time spent up to now is      237.0 secs

     total energy              =   -3692.16108469 Ry
     estimated scf accuracy    <       0.00280083 Ry

     iteration #  4     ecut=    50.00 Ry     beta= 0.70
     Davidson diagonalization with overlap

---- Real-time Memory Report at c_bands before calling an iterative solver
           395 MiB given to the printing process from OS
             0 MiB allocation reported by mallinfo(arena+hblkhd)
        150355 MiB available memory on the node where the printing process lives
------------------
     ethr =  1.75E-06,  avg # of iterations =  5.8

     negative rho (up, down):  5.183E-04 0.000E+00

     total cpu time spent up to now is      289.4 secs

     total energy              =   -3692.16136153 Ry
     estimated scf accuracy    <       0.00045039 Ry

     iteration #  5     ecut=    50.00 Ry     beta= 0.70
     Davidson diagonalization with overlap

---- Real-time Memory Report at c_bands before calling an iterative solver
           397 MiB given to the printing process from OS
             0 MiB allocation reported by mallinfo(arena+hblkhd)
        150345 MiB available memory on the node where the printing process lives
------------------
     ethr =  2.81E-07,  avg # of iterations =  2.4

     negative rho (up, down):  5.265E-04 0.000E+00

     total cpu time spent up to now is      336.8 secs

     total energy              =   -3692.16140301 Ry
     estimated scf accuracy    <       0.00002370 Ry

     iteration #  6     ecut=    50.00 Ry     beta= 0.70
     Davidson diagonalization with overlap

---- Real-time Memory Report at c_bands before calling an iterative solver
           399 MiB given to the printing process from OS
             0 MiB allocation reported by mallinfo(arena+hblkhd)
        150336 MiB available memory on the node where the printing process lives
------------------
     ethr =  1.48E-08,  avg # of iterations =  2.4

     negative rho (up, down):  5.291E-04 0.000E+00

     total cpu time spent up to now is      391.3 secs

     total energy              =   -3692.16141142 Ry
     estimated scf accuracy    <       0.00001333 Ry

     iteration #  7     ecut=    50.00 Ry     beta= 0.70
     Davidson diagonalization with overlap

---- Real-time Memory Report at c_bands before calling an iterative solver
           402 MiB given to the printing process from OS
             0 MiB allocation reported by mallinfo(arena+hblkhd)
        150447 MiB available memory on the node where the printing process lives
------------------
     ethr =  8.33E-09,  avg # of iterations =  1.8

     negative rho (up, down):  5.300E-04 0.000E+00

     total cpu time spent up to now is      435.7 secs

     total energy              =   -3692.16141187 Ry
     estimated scf accuracy    <       0.00000340 Ry

     iteration #  8     ecut=    50.00 Ry     beta= 0.70
     Davidson diagonalization with overlap

---- Real-time Memory Report at c_bands before calling an iterative solver
           404 MiB given to the printing process from OS
             0 MiB allocation reported by mallinfo(arena+hblkhd)
        150425 MiB available memory on the node where the printing process lives
------------------
     ethr =  2.12E-09,  avg # of iterations =  2.0

     negative rho (up, down):  5.305E-04 0.000E+00

     total cpu time spent up to now is      486.6 secs

     End of self-consistent calculation

          k = 0.0000 0.0000 0.0000 ( 33395 PWs)   bands (ev):

  -127.4174-127.4172-127.4166-127.4164-127.4154-127.4154-127.4148-127.4147
   -81.6040 -81.6039 -81.6035 -81.6033 -81.6020 -81.6020 -81.6015 -81.6013
   -81.5669 -81.5630 -81.5630 -81.5618 -81.5613 -81.5604 -81.5599 -81.5599
   -81.5594 -81.5569 -81.5568 -81.5564 -81.5371 -81.5361 -81.5356 -81.5347
    -9.1586  -9.0057  -8.9615  -8.9611  -8.7874  -8.7871  -8.6793  -8.6790
    -8.6260  -8.6257  -8.5614  -8.5614  -8.5522  -8.5517  -8.5127  -8.4124
    -8.2901  -8.2766  -8.2422  -8.2417  -8.1979  -8.1976  -8.1778  -8.1650
    -8.1646  -8.1361  -8.1361  -8.1344  -8.1340  -8.0795  -8.0795  -8.0331
    -8.0184  -7.9560  -7.9559  -7.9239  -7.9234  -7.8355  -7.7875  -7.7871
    -7.6947  -6.4640  -6.4639  -2.9230  -2.4177  -2.4177  -1.7485  -1.4165
    -1.4163  -0.6229  -0.6228  -0.3486  -0.1465  -0.1463   1.3324   2.5356
     2.5357   2.5710   2.6699   3.2597   3.2598   3.7895   4.1854   4.4678

     occupation numbers 
     1.0000   1.0000   1.0000   1.0000   1.0000   1.0000   1.0000   1.0000
     1.0000   1.0000   1.0000   1.0000   1.0000   1.0000   1.0000   1.0000
     1.0000   1.0000   1.0000   1.0000   1.0000   1.0000   1.0000   1.0000
     1.0000   1.0000   1.0000   1.0000   1.0000   1.0000   1.0000   1.0000
     1.0000   1.0000   1.0000   1.0000   1.0000   1.0000   1.0000   1.0000
     1.0000   1.0000   1.0000   1.0000   1.0000   1.0000   1.0000   1.0000
     1.0000   1.0000   1.0000   1.0000   1.0000   1.0000   1.0000   1.0000
     1.0000   1.0000   1.0000   1.0000   1.0000   1.0000   1.0000   1.0000
     1.0000   1.0000   1.0000   1.0000   1.0000   1.0000   1.0000   1.0000
     1.0000   1.0000   1.0000   1.0000   1.0001   1.0001   1.0597   0.3444
     0.3440   0.0000   0.0000   0.0000   0.0000   0.0000   0.0000   0.0000
     0.0000   0.0000   0.0000   0.0000   0.0000   0.0000   0.0000   0.0000

          k = 0.0000 0.0000 0.1498 ( 33375 PWs)   bands (ev):

  -127.4174-127.4172-127.4166-127.4164-127.4154-127.4154-127.4148-127.4147
   -81.6040 -81.6039 -81.6035 -81.6033 -81.6020 -81.6020 -81.6015 -81.6013
   -81.5669 -81.5630 -81.5630 -81.5618 -81.5613 -81.5604 -81.5599 -81.5599
   -81.5593 -81.5569 -81.5568 -81.5564 -81.5371 -81.5361 -81.5356 -81.5346
    -9.1586  -9.0057  -8.9615  -8.9611  -8.7874  -8.7871  -8.6793  -8.6790
    -8.6260  -8.6257  -8.5614  -8.5614  -8.5522  -8.5517  -8.5127  -8.4124
    -8.2900  -8.2766  -8.2422  -8.2417  -8.1979  -8.1976  -8.1778  -8.1650
    -8.1646  -8.1361  -8.1361  -8.1344  -8.1340  -8.0795  -8.0795  -8.0331
    -8.0184  -7.9560  -7.9559  -7.9239  -7.9234  -7.8355  -7.7875  -7.7871
    -7.6947  -6.4640  -6.4639  -2.9230  -2.4177  -2.4177  -1.7485  -1.4165
    -1.4163  -0.6229  -0.6228  -0.3487  -0.1465  -0.1463   1.3427   2.3637
     2.5356   2.5357   2.9578   3.2864   3.2865   3.7438   3.9610   3.9610

     occupation numbers 
     1.0000   1.0000   1.0000   1.0000   1.0000   1.0000   1.0000   1.0000
     1.0000   1.0000   1.0000   1.0000   1.0000   1.0000   1.0000   1.0000
     1.0000   1.0000   1.0000   1.0000   1.0000   1.0000   1.0000   1.0000
     1.0000   1.0000   1.0000   1.0000   1.0000   1.0000   1.0000   1.0000
     1.0000   1.0000   1.0000   1.0000   1.0000   1.0000   1.0000   1.0000
     1.0000   1.0000   1.0000   1.0000   1.0000   1.0000   1.0000   1.0000
     1.0000   1.0000   1.0000   1.0000   1.0000   1.0000   1.0000   1.0000
     1.0000   1.0000   1.0000   1.0000   1.0000   1.0000   1.0000   1.0000
     1.0000   1.0000   1.0000   1.0000   1.0000   1.0000   1.0000   1.0000
     1.0000   1.0000   1.0000   1.0000   1.0001   1.0001   1.0597   0.3444
     0.3440   0.0000   0.0000   0.0000   0.0000   0.0000   0.0000   0.0000
     0.0000   0.0000   0.0000   0.0000   0.0000   0.0000   0.0000   0.0000

          k = 0.0000 0.0000-0.2996 ( 33400 PWs)   bands (ev):

  -127.4174-127.4172-127.4166-127.4164-127.4154-127.4154-127.4148-127.4147
   -81.6040 -81.6039 -81.6035 -81.6033 -81.6020 -81.6020 -81.6015 -81.6014
   -81.5669 -81.5630 -81.5630 -81.5618 -81.5613 -81.5604 -81.5599 -81.5598
   -81.5594 -81.5569 -81.5569 -81.5564 -81.5371 -81.5361 -81.5356 -81.5347
    -9.1586  -9.0057  -8.9615  -8.9611  -8.7874  -8.7871  -8.6793  -8.6790
    -8.6260  -8.6257  -8.5614  -8.5614  -8.5522  -8.5517  -8.5127  -8.4124
    -8.2900  -8.2766  -8.2422  -8.2417  -8.1979  -8.1976  -8.1778  -8.1650
    -8.1646  -8.1361  -8.1361  -8.1344  -8.1340  -8.0795  -8.0795  -8.0331
    -8.0184  -7.9560  -7.9559  -7.9239  -7.9234  -7.8355  -7.7875  -7.7871
    -7.6947  -6.4640  -6.4639  -2.9230  -2.4177  -2.4177  -1.7485  -1.4165
    -1.4163  -0.6229  -0.6228  -0.3487  -0.1465  -0.1463   1.3535   2.2691
     2.5356   2.5357   3.1757   3.3193   3.3194   3.6544   3.8333   3.8334

     occupation numbers 
     1.0000   1.0000   1.0000   1.0000   1.0000   1.0000   1.0000   1.0000
     1.0000   1.0000   1.0000   1.0000   1.0000   1.0000   1.0000   1.0000
     1.0000   1.0000   1.0000   1.0000   1.0000   1.0000   1.0000   1.0000
     1.0000   1.0000   1.0000   1.0000   1.0000   1.0000   1.0000   1.0000
     1.0000   1.0000   1.0000   1.0000   1.0000   1.0000   1.0000   1.0000
     1.0000   1.0000   1.0000   1.0000   1.0000   1.0000   1.0000   1.0000
     1.0000   1.0000   1.0000   1.0000   1.0000   1.0000   1.0000   1.0000
     1.0000   1.0000   1.0000   1.0000   1.0000   1.0000   1.0000   1.0000
     1.0000   1.0000   1.0000   1.0000   1.0000   1.0000   1.0000   1.0000
     1.0000   1.0000   1.0000   1.0000   1.0001   1.0001   1.0597   0.3444
     0.3440   0.0000   0.0000   0.0000   0.0000   0.0000   0.0000   0.0000
     0.0000   0.0000   0.0000   0.0000   0.0000   0.0000   0.0000   0.0000

          k = 0.0000 0.4660 0.2690 ( 33359 PWs)   bands (ev):

  -127.4171-127.4169-127.4164-127.4162-127.4156-127.4156-127.4151-127.4149
   -81.6037 -81.6036 -81.6032 -81.6030 -81.6023 -81.6023 -81.6018 -81.6016
   -81.5662 -81.5620 -81.5618 -81.5615 -81.5614 -81.5610 -81.5579 -81.5571
   -81.5565 -81.5561 -81.5551 -81.5548 -81.5405 -81.5396 -81.5391 -81.5383
    -8.9080  -8.8535  -8.7828  -8.7824  -8.7254  -8.7252  -8.6315  -8.5997
    -8.5881  -8.5607  -8.5503  -8.5502  -8.4855  -8.4850  -8.4669  -8.4264
    -8.3020  -8.2984  -8.2954  -8.2952  -8.2383  -8.2044  -8.1794  -8.1791
    -8.1783  -8.1756  -8.1429  -8.1427  -8.1356  -8.1352  -8.1040  -8.1001
    -8.0958  -8.0872  -8.0436  -8.0436  -7.9778  -7.9295  -7.9097  -7.9094
    -7.5239  -6.1253  -6.1252  -5.0014  -3.3999  -3.3998  -2.5894  -1.2766
    -0.2319  -0.2318  -0.0355  -0.0110   1.0129   1.7064   2.0076   2.4712
     2.4714   2.5800   2.6188   2.7551   2.7551   3.5245   3.6533   3.6534

     occupation numbers 
     1.0000   1.0000   1.0000   1.0000   1.0000   1.0000   1.0000   1.0000
     1.0000   1.0000   1.0000   1.0000   1.0000   1.0000   1.0000   1.0000
     1.0000   1.0000   1.0000   1.0000   1.0000   1.0000   1.0000   1.0000
     1.0000   1.0000   1.0000   1.0000   1.0000   1.0000   1.0000   1.0000
     1.0000   1.0000   1.0000   1.0000   1.0000   1.0000   1.0000   1.0000
     1.0000   1.0000   1.0000   1.0000   1.0000   1.0000   1.0000   1.0000
     1.0000   1.0000   1.0000   1.0000   1.0000   1.0000   1.0000   1.0000
     1.0000   1.0000   1.0000   1.0000   1.0000   1.0000   1.0000   1.0000
     1.0000   1.0000   1.0000   1.0000   1.0000   1.0000   1.0000   1.0000
     1.0000   1.0000   1.0000   1.0000   1.0000   1.0000   1.0000   0.1049
     0.0000   0.0000   0.0000   0.0000   0.0000   0.0000   0.0000   0.0000
     0.0000   0.0000   0.0000   0.0000   0.0000   0.0000   0.0000   0.0000

          k = 0.0000 0.4660 0.4189 ( 33404 PWs)   bands (ev):

  -127.4171-127.4169-127.4164-127.4162-127.4156-127.4156-127.4151-127.4149
   -81.6037 -81.6036 -81.6032 -81.6030 -81.6023 -81.6023 -81.6018 -81.6016
   -81.5662 -81.5620 -81.5618 -81.5615 -81.5614 -81.5610 -81.5579 -81.5571
   -81.5565 -81.5561 -81.5551 -81.5549 -81.5405 -81.5397 -81.5391 -81.5383
    -8.9080  -8.8535  -8.7828  -8.7824  -8.7254  -8.7252  -8.6315  -8.5997
    -8.5881  -8.5607  -8.5503  -8.5502  -8.4855  -8.4850  -8.4669  -8.4264
    -8.3020  -8.2984  -8.2954  -8.2952  -8.2383  -8.2044  -8.1794  -8.1791
    -8.1783  -8.1756  -8.1429  -8.1427  -8.1356  -8.1352  -8.1040  -8.1001
    -8.0958  -8.0872  -8.0436  -8.0436  -7.9778  -7.9295  -7.9097  -7.9094
    -7.5239  -6.1253  -6.1252  -5.0014  -3.3999  -3.3998  -2.5894  -1.2766
    -0.2319  -0.2318  -0.0354  -0.0110   1.0129   1.6993   2.0076   2.4712
     2.4714   2.5800   2.6762   2.7551   2.7552   3.3793   3.6322   3.6323

     occupation numbers 
     1.0000   1.0000   1.0000   1.0000   1.0000   1.0000   1.0000   1.0000
     1.0000   1.0000   1.0000   1.0000   1.0000   1.0000   1.0000   1.0000
     1.0000   1.0000   1.0000   1.0000   1.0000   1.0000   1.0000   1.0000
     1.0000   1.0000   1.0000   1.0000   1.0000   1.0000   1.0000   1.0000
     1.0000   1.0000   1.0000   1.0000   1.0000   1.0000   1.0000   1.0000
     1.0000   1.0000   1.0000   1.0000   1.0000   1.0000   1.0000   1.0000
     1.0000   1.0000   1.0000   1.0000   1.0000   1.0000   1.0000   1.0000
     1.0000   1.0000   1.0000   1.0000   1.0000   1.0000   1.0000   1.0000
     1.0000   1.0000   1.0000   1.0000   1.0000   1.0000   1.0000   1.0000
     1.0000   1.0000   1.0000   1.0000   1.0000   1.0000   1.0000   0.1049
     0.0000   0.0000   0.0000   0.0000   0.0000   0.0000   0.0000   0.0000
     0.0000   0.0000   0.0000   0.0000   0.0000   0.0000   0.0000   0.0000

          k = 0.0000 0.4660-0.0306 ( 33410 PWs)   bands (ev):

  -127.4171-127.4169-127.4164-127.4162-127.4156-127.4156-127.4151-127.4149
   -81.6037 -81.6036 -81.6032 -81.6031 -81.6023 -81.6023 -81.6018 -81.6016
   -81.5662 -81.5620 -81.5618 -81.5615 -81.5614 -81.5610 -81.5579 -81.5571
   -81.5565 -81.5561 -81.5551 -81.5549 -81.5405 -81.5396 -81.5391 -81.5383
    -8.9080  -8.8535  -8.7828  -8.7824  -8.7254  -8.7252  -8.6315  -8.5997
    -8.5881  -8.5607  -8.5503  -8.5502  -8.4855  -8.4850  -8.4669  -8.4264
    -8.3020  -8.2984  -8.2954  -8.2952  -8.2383  -8.2044  -8.1794  -8.1791
    -8.1783  -8.1756  -8.1429  -8.1427  -8.1356  -8.1352  -8.1040  -8.1001
    -8.0958  -8.0872  -8.0436  -8.0436  -7.9778  -7.9295  -7.9097  -7.9094
    -7.5239  -6.1253  -6.1252  -5.0014  -3.3999  -3.3998  -2.5894  -1.2766
    -0.2319  -0.2318  -0.0353  -0.0110   1.0129   1.6857   2.0076   2.4712
     2.4714   2.5800   2.7551   2.7551   2.8920   3.0507   3.5977   3.5978

     occupation numbers 
     1.0000   1.0000   1.0000   1.0000   1.0000   1.0000   1.0000   1.0000
     1.0000   1.0000   1.0000   1.0000   1.0000   1.0000   1.0000   1.0000
     1.0000   1.0000   1.0000   1.0000   1.0000   1.0000   1.0000   1.0000
     1.0000   1.0000   1.0000   1.0000   1.0000   1.0000   1.0000   1.0000
     1.0000   1.0000   1.0000   1.0000   1.0000   1.0000   1.0000   1.0000
     1.0000   1.0000   1.0000   1.0000   1.0000   1.0000   1.0000   1.0000
     1.0000   1.0000   1.0000   1.0000   1.0000   1.0000   1.0000   1.0000
     1.0000   1.0000   1.0000   1.0000   1.0000   1.0000   1.0000   1.0000
     1.0000   1.0000   1.0000   1.0000   1.0000   1.0000   1.0000   1.0000
     1.0000   1.0000   1.0000   1.0000   1.0000   1.0000   1.0000   0.1049
     0.0000   0.0000   0.0000   0.0000   0.0000   0.0000   0.0000   0.0000
     0.0000   0.0000   0.0000   0.0000   0.0000   0.0000   0.0000   0.0000

          k = 0.0000 0.4660 0.1192 ( 33399 PWs)   bands (ev):

  -127.4171-127.4169-127.4164-127.4162-127.4156-127.4156-127.4151-127.4149
   -81.6037 -81.6036 -81.6032 -81.6030 -81.6023 -81.6023 -81.6018 -81.6016
   -81.5662 -81.5620 -81.5618 -81.5615 -81.5614 -81.5610 -81.5579 -81.5571
   -81.5565 -81.5561 -81.5551 -81.5549 -81.5405 -81.5397 -81.5391 -81.5383
    -8.9080  -8.8535  -8.7828  -8.7824  -8.7254  -8.7252  -8.6315  -8.5997
    -8.5881  -8.5607  -8.5503  -8.5502  -8.4855  -8.4850  -8.4669  -8.4264
    -8.3020  -8.2984  -8.2954  -8.2952  -8.2383  -8.2044  -8.1794  -8.1791
    -8.1783  -8.1756  -8.1429  -8.1427  -8.1356  -8.1352  -8.1040  -8.1001
    -8.0958  -8.0872  -8.0436  -8.0436  -7.9778  -7.9295  -7.9097  -7.9094
    -7.5239  -6.1253  -6.1252  -5.0014  -3.3999  -3.3998  -2.5894  -1.2766
    -0.2319  -0.2318  -0.0354  -0.0110   1.0129   1.6924   2.0076   2.4712
     2.4714   2.5799   2.7509   2.7551   2.7551   3.2421   3.6140   3.6141

     occupation numbers 
     1.0000   1.0000   1.0000   1.0000   1.0000   1.0000   1.0000   1.0000
     1.0000   1.0000   1.0000   1.0000   1.0000   1.0000   1.0000   1.0000
     1.0000   1.0000   1.0000   1.0000   1.0000   1.0000   1.0000   1.0000
     1.0000   1.0000   1.0000   1.0000   1.0000   1.0000   1.0000   1.0000
     1.0000   1.0000   1.0000   1.0000   1.0000   1.0000   1.0000   1.0000
     1.0000   1.0000   1.0000   1.0000   1.0000   1.0000   1.0000   1.0000
     1.0000   1.0000   1.0000   1.0000   1.0000   1.0000   1.0000   1.0000
     1.0000   1.0000   1.0000   1.0000   1.0000   1.0000   1.0000   1.0000
     1.0000   1.0000   1.0000   1.0000   1.0000   1.0000   1.0000   1.0000
     1.0000   1.0000   1.0000   1.0000   1.0000   1.0000   1.0000   0.1049
     0.0000   0.0000   0.0000   0.0000   0.0000   0.0000   0.0000   0.0000
     0.0000   0.0000   0.0000   0.0000   0.0000   0.0000   0.0000   0.0000

          k = 0.0000-0.9320-0.5381 ( 33372 PWs)   bands (ev):

  -127.4165-127.4163-127.4163-127.4161-127.4159-127.4158-127.4155-127.4154
   -81.6032 -81.6030 -81.6029 -81.6028 -81.6027 -81.6025 -81.6022 -81.6021
   -81.5644 -81.5643 -81.5613 -81.5611 -81.5607 -81.5607 -81.5570 -81.5569
   -81.5489 -81.5488 -81.5480 -81.5478 -81.5476 -81.5474 -81.5472 -81.5471
    -8.5951  -8.5951  -8.5951  -8.5950  -8.5731  -8.5730  -8.5120  -8.5119
    -8.5110  -8.5110  -8.4314  -8.4312  -8.4312  -8.4311  -8.4252  -8.4252
    -8.3651  -8.3651  -8.3080  -8.3079  -8.3075  -8.3075  -8.2870  -8.2870
    -8.2171  -8.2170  -8.2170  -8.2169  -8.2136  -8.2136  -8.1744  -8.1744
    -8.1666  -8.1666  -8.0785  -8.0784  -8.0784  -8.0783  -8.0581  -8.0581
    -6.7493  -6.7492  -5.1287  -5.1287  -5.1286  -5.1285  -1.6006  -1.6006
     0.0318   0.0318   0.8959   0.8959   0.8961   0.8961   0.9271   0.9271
     2.7244   2.7244   3.8787   3.8787   4.1493   4.1493   4.6041   4.6041

     occupation numbers 
     1.0000   1.0000   1.0000   1.0000   1.0000   1.0000   1.0000   1.0000
     1.0000   1.0000   1.0000   1.0000   1.0000   1.0000   1.0000   1.0000
     1.0000   1.0000   1.0000   1.0000   1.0000   1.0000   1.0000   1.0000
     1.0000   1.0000   1.0000   1.0000   1.0000   1.0000   1.0000   1.0000
     1.0000   1.0000   1.0000   1.0000   1.0000   1.0000   1.0000   1.0000
     1.0000   1.0000   1.0000   1.0000   1.0000   1.0000   1.0000   1.0000
     1.0000   1.0000   1.0000   1.0000   1.0000   1.0000   1.0000   1.0000
     1.0000   1.0000   1.0000   1.0000   1.0000   1.0000   1.0000   1.0000
     1.0000   1.0000   1.0000   1.0000   1.0000   1.0000   1.0000   1.0000
     1.0000   1.0000   1.0000   1.0000   1.0000   1.0000   0.8289   0.8288
     0.0000   0.0000   0.0000   0.0000   0.0000   0.0000   0.0000   0.0000
     0.0000   0.0000   0.0000   0.0000   0.0000   0.0000   0.0000   0.0000

          k = 0.0000-0.9320-0.3883 ( 33416 PWs)   bands (ev):

  -127.4165-127.4163-127.4163-127.4161-127.4159-127.4158-127.4155-127.4154
   -81.6032 -81.6030 -81.6029 -81.6028 -81.6027 -81.6025 -81.6022 -81.6021
   -81.5644 -81.5643 -81.5613 -81.5611 -81.5607 -81.5607 -81.5570 -81.5569
   -81.5490 -81.5488 -81.5480 -81.5478 -81.5476 -81.5474 -81.5472 -81.5471
    -8.5951  -8.5951  -8.5951  -8.5950  -8.5731  -8.5730  -8.5120  -8.5119
    -8.5110  -8.5110  -8.4314  -8.4312  -8.4312  -8.4311  -8.4252  -8.4252
    -8.3651  -8.3651  -8.3080  -8.3079  -8.3075  -8.3075  -8.2870  -8.2870
    -8.2171  -8.2170  -8.2170  -8.2169  -8.2136  -8.2136  -8.1744  -8.1744
    -8.1666  -8.1666  -8.0785  -8.0784  -8.0784  -8.0783  -8.0581  -8.0581
    -6.7493  -6.7492  -5.1287  -5.1287  -5.1286  -5.1285  -1.6006  -1.6006
     0.0318   0.0318   0.8959   0.8959   0.8960   0.8961   0.9270   0.9271
     2.7266   2.7400   3.6834   3.8331   4.2111   4.4870   4.6089   4.6090

     occupation numbers 
     1.0000   1.0000   1.0000   1.0000   1.0000   1.0000   1.0000   1.0000
     1.0000   1.0000   1.0000   1.0000   1.0000   1.0000   1.0000   1.0000
     1.0000   1.0000   1.0000   1.0000   1.0000   1.0000   1.0000   1.0000
     1.0000   1.0000   1.0000   1.0000   1.0000   1.0000   1.0000   1.0000
     1.0000   1.0000   1.0000   1.0000   1.0000   1.0000   1.0000   1.0000
     1.0000   1.0000   1.0000   1.0000   1.0000   1.0000   1.0000   1.0000
     1.0000   1.0000   1.0000   1.0000   1.0000   1.0000   1.0000   1.0000
     1.0000   1.0000   1.0000   1.0000   1.0000   1.0000   1.0000   1.0000
     1.0000   1.0000   1.0000   1.0000   1.0000   1.0000   1.0000   1.0000
     1.0000   1.0000   1.0000   1.0000   1.0000   1.0000   0.8289   0.8288
     0.0000   0.0000   0.0000   0.0000   0.0000   0.0000   0.0000   0.0000
     0.0000   0.0000   0.0000   0.0000   0.0000   0.0000   0.0000   0.0000

          k = 0.0000-0.9320-0.8377 ( 33444 PWs)   bands (ev):

  -127.4165-127.4163-127.4163-127.4161-127.4159-127.4158-127.4155-127.4154
   -81.6032 -81.6030 -81.6029 -81.6028 -81.6027 -81.6025 -81.6023 -81.6021
   -81.5644 -81.5643 -81.5613 -81.5611 -81.5607 -81.5607 -81.5570 -81.5569
   -81.5490 -81.5488 -81.5480 -81.5478 -81.5476 -81.5474 -81.5472 -81.5471
    -8.5951  -8.5951  -8.5951  -8.5950  -8.5731  -8.5730  -8.5120  -8.5119
    -8.5110  -8.5110  -8.4314  -8.4312  -8.4312  -8.4311  -8.4252  -8.4252
    -8.3651  -8.3651  -8.3080  -8.3079  -8.3075  -8.3075  -8.2870  -8.2870
    -8.2171  -8.2170  -8.2170  -8.2169  -8.2136  -8.2136  -8.1744  -8.1744
    -8.1666  -8.1666  -8.0785  -8.0784  -8.0784  -8.0783  -8.0581  -8.0581
    -6.7493  -6.7492  -5.1287  -5.1287  -5.1286  -5.1285  -1.6006  -1.6006
     0.0318   0.0318   0.8959   0.8959   0.8960   0.8960   0.9270   0.9270
     2.7424   2.7424   3.6652   3.6652   4.5367   4.5367   4.6473   4.6473

     occupation numbers 
     1.0000   1.0000   1.0000   1.0000   1.0000   1.0000   1.0000   1.0000
     1.0000   1.0000   1.0000   1.0000   1.0000   1.0000   1.0000   1.0000
     1.0000   1.0000   1.0000   1.0000   1.0000   1.0000   1.0000   1.0000
     1.0000   1.0000   1.0000   1.0000   1.0000   1.0000   1.0000   1.0000
     1.0000   1.0000   1.0000   1.0000   1.0000   1.0000   1.0000   1.0000
     1.0000   1.0000   1.0000   1.0000   1.0000   1.0000   1.0000   1.0000
     1.0000   1.0000   1.0000   1.0000   1.0000   1.0000   1.0000   1.0000
     1.0000   1.0000   1.0000   1.0000   1.0000   1.0000   1.0000   1.0000
     1.0000   1.0000   1.0000   1.0000   1.0000   1.0000   1.0000   1.0000
     1.0000   1.0000   1.0000   1.0000   1.0000   1.0000   0.8289   0.8288
     0.0000   0.0000   0.0000   0.0000   0.0000   0.0000   0.0000   0.0000
     0.0000   0.0000   0.0000   0.0000   0.0000   0.0000   0.0000   0.0000

          k = 0.2500 0.0000 0.0000 ( 33379 PWs)   bands (ev):

  -127.4173-127.4172-127.4166-127.4164-127.4154-127.4154-127.4148-127.4147
   -81.6040 -81.6039 -81.6035 -81.6033 -81.6020 -81.6020 -81.6015 -81.6013
   -81.5665 -81.5635 -81.5628 -81.5627 -81.5612 -81.5611 -81.5595 -81.5587
   -81.5586 -81.5571 -81.5571 -81.5567 -81.5370 -81.5364 -81.5353 -81.5347
    -9.1266  -8.9990  -8.9909  -8.9639  -8.7793  -8.7790  -8.7138  -8.7135
    -8.5921  -8.5917  -8.5718  -8.5507  -8.5502  -8.5309  -8.5189  -8.3685
    -8.3677  -8.2497  -8.2492  -8.2208  -8.2204  -8.2093  -8.1843  -8.1691
    -8.1549  -8.1546  -8.1325  -8.1322  -8.1292  -8.1125  -8.0526  -8.0286
    -8.0222  -7.9907  -7.9141  -7.8982  -7.8977  -7.8457  -7.8036  -7.8032
    -7.6487  -7.0982  -5.5935  -3.4384  -2.3304  -2.3304  -1.9816  -1.6882
    -1.6881  -1.3048   0.2001   0.3048   0.3049   0.6958   1.3232   2.1247
     2.1249   2.5192   2.6338   2.7737   3.3278   3.4937   3.7147   3.9746

     occupation numbers 
     1.0000   1.0000   1.0000   1.0000   1.0000   1.0000   1.0000   1.0000
     1.0000   1.0000   1.0000   1.0000   1.0000   1.0000   1.0000   1.0000
     1.0000   1.0000   1.0000   1.0000   1.0000   1.0000   1.0000   1.0000
     1.0000   1.0000   1.0000   1.0000   1.0000   1.0000   1.0000   1.0000
     1.0000   1.0000   1.0000   1.0000   1.0000   1.0000   1.0000   1.0000
     1.0000   1.0000   1.0000   1.0000   1.0000   1.0000   1.0000   1.0000
     1.0000   1.0000   1.0000   1.0000   1.0000   1.0000   1.0000   1.0000
     1.0000   1.0000   1.0000   1.0000   1.0000   1.0000   1.0000   1.0000
     1.0000   1.0000   1.0000   1.0000   1.0000   1.0000   1.0000   1.0000
     1.0000   1.0000   1.0000   1.0000   1.0004   1.0004   1.0419   0.9972
     0.9971   0.1384   0.0000   0.0000   0.0000   0.0000   0.0000   0.0000
     0.0000   0.0000   0.0000   0.0000   0.0000   0.0000   0.0000   0.0000

          k = 0.2500 0.0000 0.1498 ( 33370 PWs)   bands (ev):

  -127.4173-127.4172-127.4166-127.4164-127.4154-127.4154-127.4148-127.4147
   -81.6040 -81.6039 -81.6035 -81.6033 -81.6020 -81.6020 -81.6015 -81.6013
   -81.5665 -81.5635 -81.5628 -81.5627 -81.5612 -81.5611 -81.5595 -81.5587
   -81.5586 -81.5571 -81.5571 -81.5567 -81.5370 -81.5364 -81.5353 -81.5347
    -9.1266  -8.9990  -8.9909  -8.9639  -8.7793  -8.7790  -8.7138  -8.7135
    -8.5921  -8.5917  -8.5718  -8.5507  -8.5502  -8.5309  -8.5189  -8.3685
    -8.3677  -8.2497  -8.2492  -8.2208  -8.2204  -8.2093  -8.1843  -8.1691
    -8.1550  -8.1546  -8.1325  -8.1322  -8.1292  -8.1126  -8.0526  -8.0286
    -8.0222  -7.9907  -7.9141  -7.8982  -7.8977  -7.8457  -7.8036  -7.8032
    -7.6487  -7.0982  -5.5935  -3.4384  -2.3304  -2.3304  -1.9816  -1.6882
    -1.6881  -1.3048   0.2001   0.3048   0.3049   0.6956   1.3301   2.1247
     2.1249   2.4341   2.6645   2.8137   3.2657   3.4891   3.9746   3.9747

     occupation numbers 
     1.0000   1.0000   1.0000   1.0000   1.0000   1.0000   1.0000   1.0000
     1.0000   1.0000   1.0000   1.0000   1.0000   1.0000   1.0000   1.0000
     1.0000   1.0000   1.0000   1.0000   1.0000   1.0000   1.0000   1.0000
     1.0000   1.0000   1.0000   1.0000   1.0000   1.0000   1.0000   1.0000
     1.0000   1.0000   1.0000   1.0000   1.0000   1.0000   1.0000   1.0000
     1.0000   1.0000   1.0000   1.0000   1.0000   1.0000   1.0000   1.0000
     1.0000   1.0000   1.0000   1.0000   1.0000   1.0000   1.0000   1.0000
     1.0000   1.0000   1.0000   1.0000   1.0000   1.0000   1.0000   1.0000
     1.0000   1.0000   1.0000   1.0000   1.0000   1.0000   1.0000   1.0000
     1.0000   1.0000   1.0000   1.0000   1.0004   1.0004   1.0419   0.9972
     0.9971   0.1384   0.0000   0.0000   0.0000   0.0000   0.0000   0.0000
     0.0000   0.0000   0.0000   0.0000   0.0000   0.0000   0.0000   0.0000

          k = 0.2500 0.0000-0.2996 ( 33366 PWs)   bands (ev):

  -127.4173-127.4172-127.4166-127.4164-127.4154-127.4154-127.4148-127.4147
   -81.6040 -81.6039 -81.6035 -81.6033 -81.6020 -81.6020 -81.6015 -81.6014
   -81.5665 -81.5636 -81.5628 -81.5627 -81.5612 -81.5611 -81.5595 -81.5587
   -81.5586 -81.5571 -81.5571 -81.5567 -81.5370 -81.5364 -81.5353 -81.5347
    -9.1266  -8.9990  -8.9909  -8.9639  -8.7793  -8.7790  -8.7138  -8.7135
    -8.5921  -8.5917  -8.5718  -8.5507  -8.5502  -8.5309  -8.5189  -8.3685
    -8.3677  -8.2497  -8.2492  -8.2208  -8.2204  -8.2093  -8.1843  -8.1691
    -8.1550  -8.1546  -8.1325  -8.1322  -8.1292  -8.1125  -8.0526  -8.0286
    -8.0222  -7.9907  -7.9141  -7.8982  -7.8977  -7.8457  -7.8036  -7.8032
    -7.6487  -7.0982  -5.5935  -3.4384  -2.3304  -2.3304  -1.9816  -1.6882
    -1.6881  -1.3048   0.2001   0.3048   0.3049   0.6954   1.3373   2.1247
     2.1248   2.3717   2.7047   2.8333   3.1315   3.7550   3.9746   3.9747

     occupation numbers 
     1.0000   1.0000   1.0000   1.0000   1.0000   1.0000   1.0000   1.0000
     1.0000   1.0000   1.0000   1.0000   1.0000   1.0000   1.0000   1.0000
     1.0000   1.0000   1.0000   1.0000   1.0000   1.0000   1.0000   1.0000
     1.0000   1.0000   1.0000   1.0000   1.0000   1.0000   1.0000   1.0000
     1.0000   1.0000   1.0000   1.0000   1.0000   1.0000   1.0000   1.0000
     1.0000   1.0000   1.0000   1.0000   1.0000   1.0000   1.0000   1.0000
     1.0000   1.0000   1.0000   1.0000   1.0000   1.0000   1.0000   1.0000
     1.0000   1.0000   1.0000   1.0000   1.0000   1.0000   1.0000   1.0000
     1.0000   1.0000   1.0000   1.0000   1.0000   1.0000   1.0000   1.0000
     1.0000   1.0000   1.0000   1.0000   1.0004   1.0004   1.0419   0.9972
     0.9971   0.1384   0.0000   0.0000   0.0000   0.0000   0.0000   0.0000
     0.0000   0.0000   0.0000   0.0000   0.0000   0.0000   0.0000   0.0000

          k = 0.2500 0.4660 0.2690 ( 33371 PWs)   bands (ev):

  -127.4171-127.4169-127.4164-127.4162-127.4156-127.4156-127.4151-127.4149
   -81.6037 -81.6036 -81.6032 -81.6030 -81.6023 -81.6023 -81.6018 -81.6016
   -81.5658 -81.5632 -81.5621 -81.5620 -81.5608 -81.5595 -81.5586 -81.5569
   -81.5568 -81.5557 -81.5555 -81.5548 -81.5404 -81.5399 -81.5389 -81.5384
    -8.8868  -8.8452  -8.7987  -8.7963  -8.7207  -8.7148  -8.6659  -8.6418
    -8.5464  -8.5430  -8.5207  -8.5199  -8.4833  -8.4823  -8.4815  -8.4024
    -8.3823  -8.3383  -8.2878  -8.2606  -8.2469  -8.2232  -8.1955  -8.1799
    -8.1596  -8.1559  -8.1513  -8.1477  -8.1345  -8.1319  -8.1173  -8.0908
    -8.0850  -8.0502  -8.0457  -8.0318  -7.9558  -7.9486  -7.9445  -7.8955
    -7.4580  -6.7936  -5.2412  -4.9043  -4.1063  -3.0956  -2.5059  -1.5479
    -0.9053  -0.4636   0.5849   1.0345   1.1037   1.5591   1.6970   1.8521
     2.0773   2.7202   3.0360   3.1872   3.2086   3.4833   3.6256   3.7543

     occupation numbers 
     1.0000   1.0000   1.0000   1.0000   1.0000   1.0000   1.0000   1.0000
     1.0000   1.0000   1.0000   1.0000   1.0000   1.0000   1.0000   1.0000
     1.0000   1.0000   1.0000   1.0000   1.0000   1.0000   1.0000   1.0000
     1.0000   1.0000   1.0000   1.0000   1.0000   1.0000   1.0000   1.0000
     1.0000   1.0000   1.0000   1.0000   1.0000   1.0000   1.0000   1.0000
     1.0000   1.0000   1.0000   1.0000   1.0000   1.0000   1.0000   1.0000
     1.0000   1.0000   1.0000   1.0000   1.0000   1.0000   1.0000   1.0000
     1.0000   1.0000   1.0000   1.0000   1.0000   1.0000   1.0000   1.0000
     1.0000   1.0000   1.0000   1.0000   1.0000   1.0000   1.0000   1.0000
     1.0000   1.0000   1.0000   1.0000   1.0000   1.0000   1.0000   0.6936
     0.0004   0.0000   0.0000   0.0000   0.0000   0.0000   0.0000   0.0000
     0.0000   0.0000   0.0000   0.0000   0.0000   0.0000   0.0000   0.0000

          k = 0.2500 0.4660 0.4189 ( 33381 PWs)   bands (ev):

  -127.4171-127.4169-127.4164-127.4162-127.4156-127.4156-127.4151-127.4149
   -81.6037 -81.6036 -81.6032 -81.6031 -81.6023 -81.6023 -81.6018 -81.6016
   -81.5658 -81.5632 -81.5621 -81.5620 -81.5608 -81.5595 -81.5586 -81.5569
   -81.5568 -81.5557 -81.5555 -81.5548 -81.5404 -81.5399 -81.5389 -81.5384
    -8.8868  -8.8452  -8.7987  -8.7963  -8.7207  -8.7148  -8.6659  -8.6418
    -8.5464  -8.5430  -8.5207  -8.5199  -8.4833  -8.4823  -8.4815  -8.4025
    -8.3823  -8.3383  -8.2878  -8.2606  -8.2469  -8.2232  -8.1955  -8.1799
    -8.1596  -8.1559  -8.1513  -8.1477  -8.1345  -8.1319  -8.1173  -8.0908
    -8.0850  -8.0502  -8.0457  -8.0318  -7.9558  -7.9486  -7.9445  -7.8955
    -7.4580  -6.7936  -5.2412  -4.9043  -4.1063  -3.0956  -2.5059  -1.5479
    -0.9053  -0.4636   0.5849   1.0346   1.1037   1.5591   1.6922   1.8521
     2.0774   2.7599   3.0103   3.1746   3.2086   3.5652   3.6256   3.7545

     occupation numbers 
     1.0000   1.0000   1.0000   1.0000   1.0000   1.0000   1.0000   1.0000
     1.0000   1.0000   1.0000   1.0000   1.0000   1.0000   1.0000   1.0000
     1.0000   1.0000   1.0000   1.0000   1.0000   1.0000   1.0000   1.0000
     1.0000   1.0000   1.0000   1.0000   1.0000   1.0000   1.0000   1.0000
     1.0000   1.0000   1.0000   1.0000   1.0000   1.0000   1.0000   1.0000
     1.0000   1.0000   1.0000   1.0000   1.0000   1.0000   1.0000   1.0000
     1.0000   1.0000   1.0000   1.0000   1.0000   1.0000   1.0000   1.0000
     1.0000   1.0000   1.0000   1.0000   1.0000   1.0000   1.0000   1.0000
     1.0000   1.0000   1.0000   1.0000   1.0000   1.0000   1.0000   1.0000
     1.0000   1.0000   1.0000   1.0000   1.0000   1.0000   1.0000   0.6936
     0.0004   0.0000   0.0000   0.0000   0.0000   0.0000   0.0000   0.0000
     0.0000   0.0000   0.0000   0.0000   0.0000   0.0000   0.0000   0.0000

          k = 0.2500 0.4660-0.0306 ( 33401 PWs)   bands (ev):

  -127.4171-127.4169-127.4164-127.4162-127.4156-127.4156-127.4151-127.4149
   -81.6037 -81.6036 -81.6032 -81.6031 -81.6023 -81.6023 -81.6018 -81.6016
   -81.5658 -81.5632 -81.5621 -81.5620 -81.5607 -81.5595 -81.5586 -81.5569
   -81.5568 -81.5557 -81.5555 -81.5548 -81.5404 -81.5399 -81.5389 -81.5384
    -8.8868  -8.8452  -8.7987  -8.7964  -8.7207  -8.7148  -8.6659  -8.6418
    -8.5464  -8.5430  -8.5207  -8.5199  -8.4833  -8.4823  -8.4815  -8.4025
    -8.3823  -8.3383  -8.2878  -8.2606  -8.2469  -8.2232  -8.1955  -8.1799
    -8.1596  -8.1559  -8.1513  -8.1477  -8.1345  -8.1319  -8.1173  -8.0908
    -8.0850  -8.0502  -8.0457  -8.0318  -7.9558  -7.9486  -7.9445  -7.8955
    -7.4580  -6.7936  -5.2412  -4.9043  -4.1063  -3.0956  -2.5059  -1.5479
    -0.9053  -0.4636   0.5849   1.0349   1.1037   1.5591   1.6829   1.8521
     2.0774   2.8665   2.9705   3.1245   3.2086   3.6256   3.6762   3.7545

     occupation numbers 
     1.0000   1.0000   1.0000   1.0000   1.0000   1.0000   1.0000   1.0000
     1.0000   1.0000   1.0000   1.0000   1.0000   1.0000   1.0000   1.0000
     1.0000   1.0000   1.0000   1.0000   1.0000   1.0000   1.0000   1.0000
     1.0000   1.0000   1.0000   1.0000   1.0000   1.0000   1.0000   1.0000
     1.0000   1.0000   1.0000   1.0000   1.0000   1.0000   1.0000   1.0000
     1.0000   1.0000   1.0000   1.0000   1.0000   1.0000   1.0000   1.0000
     1.0000   1.0000   1.0000   1.0000   1.0000   1.0000   1.0000   1.0000
     1.0000   1.0000   1.0000   1.0000   1.0000   1.0000   1.0000   1.0000
     1.0000   1.0000   1.0000   1.0000   1.0000   1.0000   1.0000   1.0000
     1.0000   1.0000   1.0000   1.0000   1.0000   1.0000   1.0000   0.6936
     0.0004   0.0000   0.0000   0.0000   0.0000   0.0000   0.0000   0.0000
     0.0000   0.0000   0.0000   0.0000   0.0000   0.0000   0.0000   0.0000

          k = 0.2500 0.4660 0.1192 ( 33407 PWs)   bands (ev):

  -127.4171-127.4169-127.4164-127.4162-127.4156-127.4156-127.4151-127.4149
   -81.6037 -81.6036 -81.6032 -81.6031 -81.6023 -81.6023 -81.6018 -81.6016
   -81.5658 -81.5632 -81.5621 -81.5620 -81.5607 -81.5595 -81.5586 -81.5569
   -81.5568 -81.5557 -81.5555 -81.5548 -81.5404 -81.5399 -81.5389 -81.5384
    -8.8868  -8.8452  -8.7987  -8.7963  -8.7207  -8.7148  -8.6659  -8.6418
    -8.5464  -8.5430  -8.5207  -8.5199  -8.4833  -8.4823  -8.4815  -8.4025
    -8.3823  -8.3383  -8.2878  -8.2606  -8.2469  -8.2232  -8.1955  -8.1799
    -8.1596  -8.1559  -8.1513  -8.1477  -8.1345  -8.1319  -8.1173  -8.0908
    -8.0850  -8.0502  -8.0457  -8.0318  -7.9558  -7.9486  -7.9445  -7.8955
    -7.4580  -6.7936  -5.2412  -4.9043  -4.1063  -3.0956  -2.5059  -1.5479
    -0.9053  -0.4636   0.5849   1.0347   1.1037   1.5590   1.6875   1.8521
     2.0773   2.8064   2.9890   3.1560   3.2086   3.6256   3.6618   3.7542

     occupation numbers 
     1.0000   1.0000   1.0000   1.0000   1.0000   1.0000   1.0000   1.0000
     1.0000   1.0000   1.0000   1.0000   1.0000   1.0000   1.0000   1.0000
     1.0000   1.0000   1.0000   1.0000   1.0000   1.0000   1.0000   1.0000
     1.0000   1.0000   1.0000   1.0000   1.0000   1.0000   1.0000   1.0000
     1.0000   1.0000   1.0000   1.0000   1.0000   1.0000   1.0000   1.0000
     1.0000   1.0000   1.0000   1.0000   1.0000   1.0000   1.0000   1.0000
     1.0000   1.0000   1.0000   1.0000   1.0000   1.0000   1.0000   1.0000
     1.0000   1.0000   1.0000   1.0000   1.0000   1.0000   1.0000   1.0000
     1.0000   1.0000   1.0000   1.0000   1.0000   1.0000   1.0000   1.0000
     1.0000   1.0000   1.0000   1.0000   1.0000   1.0000   1.0000   0.6936
     0.0004   0.0000   0.0000   0.0000   0.0000   0.0000   0.0000   0.0000
     0.0000   0.0000   0.0000   0.0000   0.0000   0.0000   0.0000   0.0000

          k = 0.2500-0.9320-0.5381 ( 33418 PWs)   bands (ev):

  -127.4165-127.4164-127.4163-127.4161-127.4159-127.4158-127.4155-127.4154
   -81.6032 -81.6030 -81.6029 -81.6028 -81.6027 -81.6025 -81.6022 -81.6021
   -81.5642 -81.5640 -81.5624 -81.5623 -81.5596 -81.5595 -81.5574 -81.5572
   -81.5488 -81.5487 -81.5482 -81.5480 -81.5475 -81.5474 -81.5471 -81.5470
    -8.5962  -8.5962  -8.5825  -8.5824  -8.5800  -8.5800  -8.5268  -8.5268
    -8.4974  -8.4974  -8.4466  -8.4466  -8.4331  -8.4331  -8.4291  -8.4290
    -8.3371  -8.3371  -8.3197  -8.3196  -8.2943  -8.2942  -8.2930  -8.2930
    -8.2557  -8.2556  -8.2505  -8.2505  -8.1680  -8.1679  -8.1654  -8.1654
    -8.1181  -8.1181  -8.1174  -8.1174  -8.0730  -8.0730  -8.0555  -8.0555
    -6.6536  -6.6536  -5.8469  -5.8469  -4.2183  -4.2183  -2.0912  -2.0912
    -0.3259  -0.3259   0.2433   0.2433   1.6949   1.6949   2.0573   2.0573
     2.7333   2.7333   3.8925   3.8925   3.9795   3.9795   4.1697   4.1697

     occupation numbers 
     1.0000   1.0000   1.0000   1.0000   1.0000   1.0000   1.0000   1.0000
     1.0000   1.0000   1.0000   1.0000   1.0000   1.0000   1.0000   1.0000
     1.0000   1.0000   1.0000   1.0000   1.0000   1.0000   1.0000   1.0000
     1.0000   1.0000   1.0000   1.0000   1.0000   1.0000   1.0000   1.0000
     1.0000   1.0000   1.0000   1.0000   1.0000   1.0000   1.0000   1.0000
     1.0000   1.0000   1.0000   1.0000   1.0000   1.0000   1.0000   1.0000
     1.0000   1.0000   1.0000   1.0000   1.0000   1.0000   1.0000   1.0000
     1.0000   1.0000   1.0000   1.0000   1.0000   1.0000   1.0000   1.0000
     1.0000   1.0000   1.0000   1.0000   1.0000   1.0000   1.0000   1.0000
     1.0000   1.0000   1.0000   1.0000   1.0000   1.0000   1.0146   1.0146
     0.0000   0.0000   0.0000   0.0000   0.0000   0.0000   0.0000   0.0000
     0.0000   0.0000   0.0000   0.0000   0.0000   0.0000   0.0000   0.0000

          k = 0.2500-0.9320-0.3883 ( 33417 PWs)   bands (ev):

  -127.4165-127.4163-127.4163-127.4161-127.4159-127.4158-127.4155-127.4154
   -81.6032 -81.6030 -81.6029 -81.6028 -81.6027 -81.6025 -81.6022 -81.6021
   -81.5642 -81.5640 -81.5624 -81.5622 -81.5596 -81.5595 -81.5574 -81.5572
   -81.5489 -81.5487 -81.5482 -81.5480 -81.5475 -81.5474 -81.5471 -81.5470
    -8.5962  -8.5962  -8.5824  -8.5824  -8.5800  -8.5800  -8.5268  -8.5268
    -8.4974  -8.4974  -8.4466  -8.4466  -8.4332  -8.4331  -8.4291  -8.4290
    -8.3371  -8.3371  -8.3197  -8.3196  -8.2943  -8.2942  -8.2930  -8.2930
    -8.2557  -8.2556  -8.2505  -8.2505  -8.1680  -8.1679  -8.1654  -8.1654
    -8.1181  -8.1181  -8.1174  -8.1174  -8.0730  -8.0730  -8.0555  -8.0555
    -6.6536  -6.6536  -5.8469  -5.8469  -4.2183  -4.2183  -2.0912  -2.0912
    -0.3259  -0.3259   0.2433   0.2433   1.6949   1.6949   2.0570   2.0573
     2.7349   2.7444   3.7765   3.8713   3.9851   4.0229   4.1816   4.2215

     occupation numbers 
     1.0000   1.0000   1.0000   1.0000   1.0000   1.0000   1.0000   1.0000
     1.0000   1.0000   1.0000   1.0000   1.0000   1.0000   1.0000   1.0000
     1.0000   1.0000   1.0000   1.0000   1.0000   1.0000   1.0000   1.0000
     1.0000   1.0000   1.0000   1.0000   1.0000   1.0000   1.0000   1.0000
     1.0000   1.0000   1.0000   1.0000   1.0000   1.0000   1.0000   1.0000
     1.0000   1.0000   1.0000   1.0000   1.0000   1.0000   1.0000   1.0000
     1.0000   1.0000   1.0000   1.0000   1.0000   1.0000   1.0000   1.0000
     1.0000   1.0000   1.0000   1.0000   1.0000   1.0000   1.0000   1.0000
     1.0000   1.0000   1.0000   1.0000   1.0000   1.0000   1.0000   1.0000
     1.0000   1.0000   1.0000   1.0000   1.0000   1.0000   1.0146   1.0146
     0.0000   0.0000   0.0000   0.0000   0.0000   0.0000   0.0000   0.0000
     0.0000   0.0000   0.0000   0.0000   0.0000   0.0000   0.0000   0.0000

          k = 0.2500-0.9320-0.8377 ( 33440 PWs)   bands (ev):

  -127.4165-127.4163-127.4163-127.4161-127.4159-127.4158-127.4155-127.4154
   -81.6032 -81.6030 -81.6029 -81.6028 -81.6027 -81.6025 -81.6022 -81.6021
   -81.5642 -81.5640 -81.5624 -81.5623 -81.5596 -81.5595 -81.5574 -81.5573
   -81.5489 -81.5487 -81.5482 -81.5480 -81.5475 -81.5474 -81.5471 -81.5471
    -8.5962  -8.5962  -8.5825  -8.5824  -8.5800  -8.5800  -8.5268  -8.5268
    -8.4974  -8.4974  -8.4466  -8.4466  -8.4332  -8.4331  -8.4291  -8.4290
    -8.3371  -8.3371  -8.3197  -8.3196  -8.2943  -8.2942  -8.2930  -8.2930
    -8.2557  -8.2556  -8.2505  -8.2505  -8.1680  -8.1679  -8.1654  -8.1654
    -8.1181  -8.1181  -8.1174  -8.1174  -8.0730  -8.0730  -8.0555  -8.0555
    -6.6536  -6.6536  -5.8469  -5.8469  -4.2183  -4.2183  -2.0912  -2.0912
    -0.3259  -0.3259   0.2433   0.2433   1.6949   1.6949   2.0570   2.0570
     2.7460   2.7460   3.7634   3.7634   4.0305   4.0305   4.2255   4.2255

     occupation numbers 
     1.0000   1.0000   1.0000   1.0000   1.0000   1.0000   1.0000   1.0000
     1.0000   1.0000   1.0000   1.0000   1.0000   1.0000   1.0000   1.0000
     1.0000   1.0000   1.0000   1.0000   1.0000   1.0000   1.0000   1.0000
     1.0000   1.0000   1.0000   1.0000   1.0000   1.0000   1.0000   1.0000
     1.0000   1.0000   1.0000   1.0000   1.0000   1.0000   1.0000   1.0000
     1.0000   1.0000   1.0000   1.0000   1.0000   1.0000   1.0000   1.0000
     1.0000   1.0000   1.0000   1.0000   1.0000   1.0000   1.0000   1.0000
     1.0000   1.0000   1.0000   1.0000   1.0000   1.0000   1.0000   1.0000
     1.0000   1.0000   1.0000   1.0000   1.0000   1.0000   1.0000   1.0000
     1.0000   1.0000   1.0000   1.0000   1.0000   1.0000   1.0146   1.0146
     0.0000   0.0000   0.0000   0.0000   0.0000   0.0000   0.0000   0.0000
     0.0000   0.0000   0.0000   0.0000   0.0000   0.0000   0.0000   0.0000

          k =-0.5000 0.0000 0.0000 ( 33338 PWs)   bands (ev):

  -127.4173-127.4172-127.4166-127.4164-127.4154-127.4154-127.4148-127.4147
   -81.6040 -81.6039 -81.6035 -81.6033 -81.6020 -81.6020 -81.6015 -81.6013
   -81.5653 -81.5652 -81.5622 -81.5621 -81.5621 -81.5620 -81.5580 -81.5579
   -81.5578 -81.5577 -81.5576 -81.5576 -81.5368 -81.5367 -81.5350 -81.5349
    -9.0549  -9.0548  -8.9819  -8.9818  -8.7543  -8.7543  -8.7541  -8.7540
    -8.5589  -8.5589  -8.5585  -8.5584  -8.5572  -8.5572  -8.4503  -8.4503
    -8.2740  -8.2740  -8.2486  -8.2486  -8.2481  -8.2481  -8.1558  -8.1557
    -8.1453  -8.1453  -8.1395  -8.1395  -8.1392  -8.1391  -8.0336  -8.0335
    -8.0148  -8.0147  -7.8742  -7.8741  -7.8465  -7.8465  -7.8462  -7.8461
    -7.4773  -7.4773  -4.5359  -4.5358  -2.0743  -2.0743  -2.0742  -2.0742
    -1.7889  -1.7889   1.0000   1.0001   1.1988   1.1988   1.1989   1.1989
     2.3396   2.3396   2.4488   2.4488   3.1192   3.1192   3.2862   3.2862

     occupation numbers 
     1.0000   1.0000   1.0000   1.0000   1.0000   1.0000   1.0000   1.0000
     1.0000   1.0000   1.0000   1.0000   1.0000   1.0000   1.0000   1.0000
     1.0000   1.0000   1.0000   1.0000   1.0000   1.0000   1.0000   1.0000
     1.0000   1.0000   1.0000   1.0000   1.0000   1.0000   1.0000   1.0000
     1.0000   1.0000   1.0000   1.0000   1.0000   1.0000   1.0000   1.0000
     1.0000   1.0000   1.0000   1.0000   1.0000   1.0000   1.0000   1.0000
     1.0000   1.0000   1.0000   1.0000   1.0000   1.0000   1.0000   1.0000
     1.0000   1.0000   1.0000   1.0000   1.0000   1.0000   1.0000   1.0000
     1.0000   1.0000   1.0000   1.0000   1.0000   1.0000   1.0000   1.0000
     1.0000   1.0000   1.0000   1.0000   1.0177   1.0177   1.0177   1.0177
     1.0787   1.0787   0.0000   0.0000   0.0000   0.0000   0.0000   0.0000
     0.0000   0.0000   0.0000   0.0000   0.0000   0.0000   0.0000   0.0000

          k =-0.5000 0.0000 0.1498 ( 33338 PWs)   bands (ev):

  -127.4173-127.4172-127.4166-127.4164-127.4154-127.4154-127.4148-127.4147
   -81.6040 -81.6039 -81.6035 -81.6033 -81.6020 -81.6020 -81.6015 -81.6013
   -81.5653 -81.5652 -81.5622 -81.5621 -81.5621 -81.5620 -81.5580 -81.5579
   -81.5578 -81.5577 -81.5576 -81.5576 -81.5368 -81.5367 -81.5350 -81.5349
    -9.0549  -9.0548  -8.9819  -8.9818  -8.7543  -8.7543  -8.7540  -8.7540
    -8.5589  -8.5589  -8.5585  -8.5584  -8.5572  -8.5572  -8.4503  -8.4503
    -8.2740  -8.2740  -8.2486  -8.2486  -8.2481  -8.2481  -8.1558  -8.1557
    -8.1453  -8.1453  -8.1395  -8.1395  -8.1392  -8.1391  -8.0336  -8.0335
    -8.0148  -8.0147  -7.8742  -7.8741  -7.8465  -7.8465  -7.8462  -7.8461
    -7.4773  -7.4773  -4.5359  -4.5358  -2.0743  -2.0743  -2.0742  -2.0742
    -1.7889  -1.7889   1.0007   1.0008   1.1988   1.1988   1.1989   1.1989
     2.3695   2.3695   2.4479   2.4479   2.8771   2.8771   3.6404   3.6404

     occupation numbers 
     1.0000   1.0000   1.0000   1.0000   1.0000   1.0000   1.0000   1.0000
     1.0000   1.0000   1.0000   1.0000   1.0000   1.0000   1.0000   1.0000
     1.0000   1.0000   1.0000   1.0000   1.0000   1.0000   1.0000   1.0000
     1.0000   1.0000   1.0000   1.0000   1.0000   1.0000   1.0000   1.0000
     1.0000   1.0000   1.0000   1.0000   1.0000   1.0000   1.0000   1.0000
     1.0000   1.0000   1.0000   1.0000   1.0000   1.0000   1.0000   1.0000
     1.0000   1.0000   1.0000   1.0000   1.0000   1.0000   1.0000   1.0000
     1.0000   1.0000   1.0000   1.0000   1.0000   1.0000   1.0000   1.0000
     1.0000   1.0000   1.0000   1.0000   1.0000   1.0000   1.0000   1.0000
     1.0000   1.0000   1.0000   1.0000   1.0177   1.0177   1.0177   1.0177
     1.0787   1.0787   0.0000   0.0000   0.0000   0.0000   0.0000   0.0000
     0.0000   0.0000   0.0000   0.0000   0.0000   0.0000   0.0000   0.0000

          k =-0.5000 0.0000-0.2996 ( 33332 PWs)   bands (ev):

  -127.4173-127.4172-127.4166-127.4164-127.4154-127.4154-127.4148-127.4147
   -81.6040 -81.6039 -81.6035 -81.6033 -81.6020 -81.6020 -81.6015 -81.6013
   -81.5653 -81.5652 -81.5622 -81.5621 -81.5621 -81.5620 -81.5580 -81.5579
   -81.5577 -81.5577 -81.5576 -81.5576 -81.5368 -81.5367 -81.5350 -81.5349
    -9.0549  -9.0548  -8.9819  -8.9818  -8.7543  -8.7543  -8.7540  -8.7540
    -8.5589  -8.5589  -8.5585  -8.5584  -8.5572  -8.5572  -8.4503  -8.4503
    -8.2740  -8.2740  -8.2486  -8.2486  -8.2481  -8.2481  -8.1558  -8.1558
    -8.1453  -8.1453  -8.1395  -8.1395  -8.1392  -8.1391  -8.0336  -8.0335
    -8.0148  -8.0147  -7.8742  -7.8741  -7.8465  -7.8465  -7.8462  -7.8460
    -7.4773  -7.4773  -4.5359  -4.5358  -2.0743  -2.0743  -2.0742  -2.0742
    -1.7889  -1.7889   1.0015   1.0015   1.1988   1.1988   1.1989   1.1989
     2.4144   2.4144   2.4435   2.4435   2.7422   2.7422   3.9852   3.9853

     occupation numbers 
     1.0000   1.0000   1.0000   1.0000   1.0000   1.0000   1.0000   1.0000
     1.0000   1.0000   1.0000   1.0000   1.0000   1.0000   1.0000   1.0000
     1.0000   1.0000   1.0000   1.0000   1.0000   1.0000   1.0000   1.0000
     1.0000   1.0000   1.0000   1.0000   1.0000   1.0000   1.0000   1.0000
     1.0000   1.0000   1.0000   1.0000   1.0000   1.0000   1.0000   1.0000
     1.0000   1.0000   1.0000   1.0000   1.0000   1.0000   1.0000   1.0000
     1.0000   1.0000   1.0000   1.0000   1.0000   1.0000   1.0000   1.0000
     1.0000   1.0000   1.0000   1.0000   1.0000   1.0000   1.0000   1.0000
     1.0000   1.0000   1.0000   1.0000   1.0000   1.0000   1.0000   1.0000
     1.0000   1.0000   1.0000   1.0000   1.0177   1.0177   1.0177   1.0177
     1.0787   1.0787   0.0000   0.0000   0.0000   0.0000   0.0000   0.0000
     0.0000   0.0000   0.0000   0.0000   0.0000   0.0000   0.0000   0.0000

          k =-0.5000 0.4660 0.2690 ( 33434 PWs)   bands (ev):

  -127.4170-127.4170-127.4163-127.4162-127.4156-127.4156-127.4151-127.4149
   -81.6037 -81.6037 -81.6032 -81.6031 -81.6023 -81.6023 -81.6018 -81.6016
   -81.5648 -81.5647 -81.5622 -81.5621 -81.5598 -81.5597 -81.5580 -81.5579
   -81.5561 -81.5561 -81.5552 -81.5551 -81.5402 -81.5402 -81.5387 -81.5386
    -8.8402  -8.8401  -8.8231  -8.8231  -8.7012  -8.7011  -8.6868  -8.6868
    -8.5134  -8.5133  -8.4980  -8.4980  -8.4875  -8.4875  -8.4593  -8.4593
    -8.3421  -8.3421  -8.3408  -8.3408  -8.2022  -8.2022  -8.1767  -8.1767
    -8.1722  -8.1721  -8.1615  -8.1615  -8.1313  -8.1313  -8.1013  -8.1013
    -8.0618  -8.0618  -7.9984  -7.9983  -7.9852  -7.9852  -7.9152  -7.9151
    -7.2316  -7.2315  -4.6084  -4.6084  -4.1822  -4.1821  -1.4710  -1.4710
    -1.3780  -1.3780   1.3795   1.3795   1.3868   1.3869   1.6401   1.6401
     2.7522   2.7522   2.7807   2.7807   3.0934   3.0934   3.9278   3.9278

     occupation numbers 
     1.0000   1.0000   1.0000   1.0000   1.0000   1.0000   1.0000   1.0000
     1.0000   1.0000   1.0000   1.0000   1.0000   1.0000   1.0000   1.0000
     1.0000   1.0000   1.0000   1.0000   1.0000   1.0000   1.0000   1.0000
     1.0000   1.0000   1.0000   1.0000   1.0000   1.0000   1.0000   1.0000
     1.0000   1.0000   1.0000   1.0000   1.0000   1.0000   1.0000   1.0000
     1.0000   1.0000   1.0000   1.0000   1.0000   1.0000   1.0000   1.0000
     1.0000   1.0000   1.0000   1.0000   1.0000   1.0000   1.0000   1.0000
     1.0000   1.0000   1.0000   1.0000   1.0000   1.0000   1.0000   1.0000
     1.0000   1.0000   1.0000   1.0000   1.0000   1.0000   1.0000   1.0000
     1.0000   1.0000   1.0000   1.0000   1.0000   1.0000   0.4825   0.4824
     0.2603   0.2603   0.0000   0.0000   0.0000   0.0000   0.0000   0.0000
     0.0000   0.0000   0.0000   0.0000   0.0000   0.0000   0.0000   0.0000

          k =-0.5000 0.4660 0.4189 ( 33390 PWs)   bands (ev):

  -127.4170-127.4170-127.4163-127.4162-127.4156-127.4156-127.4151-127.4149
   -81.6037 -81.6037 -81.6032 -81.6031 -81.6023 -81.6023 -81.6018 -81.6016
   -81.5648 -81.5647 -81.5622 -81.5621 -81.5598 -81.5597 -81.5580 -81.5579
   -81.5561 -81.5561 -81.5551 -81.5551 -81.5402 -81.5402 -81.5387 -81.5386
    -8.8402  -8.8401  -8.8231  -8.8231  -8.7012  -8.7011  -8.6868  -8.6868
    -8.5134  -8.5133  -8.4980  -8.4980  -8.4875  -8.4874  -8.4593  -8.4593
    -8.3421  -8.3421  -8.3408  -8.3408  -8.2022  -8.2022  -8.1767  -8.1767
    -8.1722  -8.1721  -8.1615  -8.1615  -8.1313  -8.1313  -8.1013  -8.1013
    -8.0618  -8.0618  -7.9983  -7.9983  -7.9852  -7.9852  -7.9152  -7.9151
    -7.2316  -7.2315  -4.6084  -4.6084  -4.1822  -4.1821  -1.4710  -1.4710
    -1.3780  -1.3780   1.3790   1.3790   1.3868   1.3869   1.6401   1.6402
     2.7198   2.7198   2.7872   2.7872   3.1756   3.1756   3.9273   3.9273

     occupation numbers 
     1.0000   1.0000   1.0000   1.0000   1.0000   1.0000   1.0000   1.0000
     1.0000   1.0000   1.0000   1.0000   1.0000   1.0000   1.0000   1.0000
     1.0000   1.0000   1.0000   1.0000   1.0000   1.0000   1.0000   1.0000
     1.0000   1.0000   1.0000   1.0000   1.0000   1.0000   1.0000   1.0000
     1.0000   1.0000   1.0000   1.0000   1.0000   1.0000   1.0000   1.0000
     1.0000   1.0000   1.0000   1.0000   1.0000   1.0000   1.0000   1.0000
     1.0000   1.0000   1.0000   1.0000   1.0000   1.0000   1.0000   1.0000
     1.0000   1.0000   1.0000   1.0000   1.0000   1.0000   1.0000   1.0000
     1.0000   1.0000   1.0000   1.0000   1.0000   1.0000   1.0000   1.0000
     1.0000   1.0000   1.0000   1.0000   1.0000   1.0000   0.4825   0.4824
     0.2603   0.2603   0.0000   0.0000   0.0000   0.0000   0.0000   0.0000
     0.0000   0.0000   0.0000   0.0000   0.0000   0.0000   0.0000   0.0000

          k =-0.5000 0.4660-0.0306 ( 33376 PWs)   bands (ev):

  -127.4170-127.4170-127.4163-127.4162-127.4156-127.4156-127.4151-127.4149
   -81.6037 -81.6036 -81.6032 -81.6030 -81.6023 -81.6023 -81.6018 -81.6016
   -81.5648 -81.5647 -81.5622 -81.5621 -81.5598 -81.5597 -81.5580 -81.5579
   -81.5561 -81.5561 -81.5551 -81.5551 -81.5402 -81.5402 -81.5387 -81.5385
    -8.8402  -8.8401  -8.8231  -8.8231  -8.7012  -8.7011  -8.6868  -8.6868
    -8.5134  -8.5133  -8.4980  -8.4980  -8.4875  -8.4874  -8.4593  -8.4593
    -8.3421  -8.3421  -8.3408  -8.3408  -8.2022  -8.2022  -8.1767  -8.1767
    -8.1722  -8.1721  -8.1615  -8.1615  -8.1313  -8.1313  -8.1013  -8.1013
    -8.0618  -8.0618  -7.9983  -7.9983  -7.9852  -7.9852  -7.9152  -7.9151
    -7.2316  -7.2315  -4.6084  -4.6084  -4.1822  -4.1821  -1.4710  -1.4710
    -1.3780  -1.3779   1.3780   1.3781   1.3868   1.3869   1.6401   1.6402
     2.6793   2.6793   2.7900   2.7900   3.4370   3.4370   3.6571   3.6571

     occupation numbers 
     1.0000   1.0000   1.0000   1.0000   1.0000   1.0000   1.0000   1.0000
     1.0000   1.0000   1.0000   1.0000   1.0000   1.0000   1.0000   1.0000
     1.0000   1.0000   1.0000   1.0000   1.0000   1.0000   1.0000   1.0000
     1.0000   1.0000   1.0000   1.0000   1.0000   1.0000   1.0000   1.0000
     1.0000   1.0000   1.0000   1.0000   1.0000   1.0000   1.0000   1.0000
     1.0000   1.0000   1.0000   1.0000   1.0000   1.0000   1.0000   1.0000
     1.0000   1.0000   1.0000   1.0000   1.0000   1.0000   1.0000   1.0000
     1.0000   1.0000   1.0000   1.0000   1.0000   1.0000   1.0000   1.0000
     1.0000   1.0000   1.0000   1.0000   1.0000   1.0000   1.0000   1.0000
     1.0000   1.0000   1.0000   1.0000   1.0000   1.0000   0.4825   0.4824
     0.2603   0.2602   0.0000   0.0000   0.0000   0.0000   0.0000   0.0000
     0.0000   0.0000   0.0000   0.0000   0.0000   0.0000   0.0000   0.0000

          k =-0.5000 0.4660 0.1192 ( 33426 PWs)   bands (ev):

  -127.4170-127.4170-127.4163-127.4162-127.4156-127.4156-127.4151-127.4149
   -81.6037 -81.6036 -81.6032 -81.6031 -81.6023 -81.6023 -81.6018 -81.6016
   -81.5648 -81.5647 -81.5622 -81.5621 -81.5598 -81.5597 -81.5580 -81.5579
   -81.5561 -81.5561 -81.5552 -81.5551 -81.5402 -81.5402 -81.5387 -81.5385
    -8.8402  -8.8401  -8.8231  -8.8231  -8.7012  -8.7011  -8.6868  -8.6868
    -8.5134  -8.5133  -8.4980  -8.4980  -8.4875  -8.4875  -8.4593  -8.4593
    -8.3421  -8.3421  -8.3408  -8.3408  -8.2022  -8.2022  -8.1767  -8.1767
    -8.1722  -8.1721  -8.1615  -8.1615  -8.1313  -8.1313  -8.1013  -8.1012
    -8.0618  -8.0618  -7.9984  -7.9983  -7.9852  -7.9852  -7.9152  -7.9151
    -7.2316  -7.2315  -4.6084  -4.6084  -4.1822  -4.1821  -1.4710  -1.4710
    -1.3780  -1.3780   1.3785   1.3786   1.3868   1.3869   1.6401   1.6401
     2.6975   2.6975   2.7891   2.7891   3.2722   3.2722   3.9279   3.9279

     occupation numbers 
     1.0000   1.0000   1.0000   1.0000   1.0000   1.0000   1.0000   1.0000
     1.0000   1.0000   1.0000   1.0000   1.0000   1.0000   1.0000   1.0000
     1.0000   1.0000   1.0000   1.0000   1.0000   1.0000   1.0000   1.0000
     1.0000   1.0000   1.0000   1.0000   1.0000   1.0000   1.0000   1.0000
     1.0000   1.0000   1.0000   1.0000   1.0000   1.0000   1.0000   1.0000
     1.0000   1.0000   1.0000   1.0000   1.0000   1.0000   1.0000   1.0000
     1.0000   1.0000   1.0000   1.0000   1.0000   1.0000   1.0000   1.0000
     1.0000   1.0000   1.0000   1.0000   1.0000   1.0000   1.0000   1.0000
     1.0000   1.0000   1.0000   1.0000   1.0000   1.0000   1.0000   1.0000
     1.0000   1.0000   1.0000   1.0000   1.0000   1.0000   0.4825   0.4824
     0.2603   0.2602   0.0000   0.0000   0.0000   0.0000   0.0000   0.0000
     0.0000   0.0000   0.0000   0.0000   0.0000   0.0000   0.0000   0.0000

          k =-0.5000-0.9320-0.5381 ( 33452 PWs)   bands (ev):

  -127.4165-127.4164-127.4163-127.4162-127.4159-127.4157-127.4155-127.4154
   -81.6032 -81.6030 -81.6029 -81.6028 -81.6027 -81.6025 -81.6023 -81.6021
   -81.5636 -81.5635 -81.5633 -81.5632 -81.5584 -81.5583 -81.5582 -81.5581
   -81.5487 -81.5485 -81.5484 -81.5483 -81.5475 -81.5473 -81.5471 -81.5470
    -8.5902  -8.5901  -8.5900  -8.5900  -8.5573  -8.5572  -8.5572  -8.5572
    -8.4714  -8.4713  -8.4713  -8.4713  -8.4335  -8.4334  -8.4333  -8.4333
    -8.3146  -8.3146  -8.3145  -8.3144  -8.3014  -8.3013  -8.3013  -8.3012
    -8.2653  -8.2652  -8.2651  -8.2651  -8.1541  -8.1541  -8.1540  -8.1540
    -8.1128  -8.1127  -8.1127  -8.1127  -8.0670  -8.0670  -8.0669  -8.0669
    -6.3567  -6.3566  -6.3566  -6.3566  -3.1550  -3.1550  -3.1550  -3.1550
    -0.2032  -0.2032  -0.2032  -0.2032   2.4676   2.4676   2.4676   2.4676
     3.6968   3.6968   3.6968   3.6968   3.8055   3.8055   3.8055   3.8055

     occupation numbers 
     1.0000   1.0000   1.0000   1.0000   1.0000   1.0000   1.0000   1.0000
     1.0000   1.0000   1.0000   1.0000   1.0000   1.0000   1.0000   1.0000
     1.0000   1.0000   1.0000   1.0000   1.0000   1.0000   1.0000   1.0000
     1.0000   1.0000   1.0000   1.0000   1.0000   1.0000   1.0000   1.0000
     1.0000   1.0000   1.0000   1.0000   1.0000   1.0000   1.0000   1.0000
     1.0000   1.0000   1.0000   1.0000   1.0000   1.0000   1.0000   1.0000
     1.0000   1.0000   1.0000   1.0000   1.0000   1.0000   1.0000   1.0000
     1.0000   1.0000   1.0000   1.0000   1.0000   1.0000   1.0000   1.0000
     1.0000   1.0000   1.0000   1.0000   1.0000   1.0000   1.0000   1.0000
     1.0000   1.0000   1.0000   1.0000   1.0000   1.0000   1.0000   1.0000
     0.0000   0.0000   0.0000   0.0000   0.0000   0.0000   0.0000   0.0000
     0.0000   0.0000   0.0000   0.0000   0.0000   0.0000   0.0000   0.0000

          k =-0.5000-0.9320-0.3883 ( 33438 PWs)   bands (ev):

  -127.4165-127.4164-127.4163-127.4162-127.4159-127.4157-127.4155-127.4154
   -81.6032 -81.6030 -81.6029 -81.6028 -81.6027 -81.6025 -81.6022 -81.6021
   -81.5636 -81.5634 -81.5633 -81.5632 -81.5584 -81.5583 -81.5582 -81.5581
   -81.5487 -81.5485 -81.5484 -81.5483 -81.5475 -81.5473 -81.5471 -81.5470
    -8.5902  -8.5901  -8.5900  -8.5900  -8.5573  -8.5572  -8.5572  -8.5572
    -8.4714  -8.4713  -8.4713  -8.4713  -8.4335  -8.4334  -8.4333  -8.4333
    -8.3146  -8.3146  -8.3145  -8.3144  -8.3014  -8.3013  -8.3013  -8.3012
    -8.2653  -8.2652  -8.2651  -8.2651  -8.1541  -8.1541  -8.1540  -8.1540
    -8.1128  -8.1127  -8.1127  -8.1127  -8.0670  -8.0670  -8.0669  -8.0669
    -6.3567  -6.3566  -6.3566  -6.3566  -3.1550  -3.1550  -3.1550  -3.1550
    -0.2032  -0.2032  -0.2032  -0.2032   2.4678   2.4678   2.4688   2.4689
     3.7024   3.7024   3.7461   3.7461   3.7984   3.7984   3.8050   3.8050

     occupation numbers 
     1.0000   1.0000   1.0000   1.0000   1.0000   1.0000   1.0000   1.0000
     1.0000   1.0000   1.0000   1.0000   1.0000   1.0000   1.0000   1.0000
     1.0000   1.0000   1.0000   1.0000   1.0000   1.0000   1.0000   1.0000
     1.0000   1.0000   1.0000   1.0000   1.0000   1.0000   1.0000   1.0000
     1.0000   1.0000   1.0000   1.0000   1.0000   1.0000   1.0000   1.0000
     1.0000   1.0000   1.0000   1.0000   1.0000   1.0000   1.0000   1.0000
     1.0000   1.0000   1.0000   1.0000   1.0000   1.0000   1.0000   1.0000
     1.0000   1.0000   1.0000   1.0000   1.0000   1.0000   1.0000   1.0000
     1.0000   1.0000   1.0000   1.0000   1.0000   1.0000   1.0000   1.0000
     1.0000   1.0000   1.0000   1.0000   1.0000   1.0000   1.0000   1.0000
     0.0000   0.0000   0.0000   0.0000   0.0000   0.0000   0.0000   0.0000
     0.0000   0.0000   0.0000   0.0000   0.0000   0.0000   0.0000   0.0000

          k =-0.5000-0.9320-0.8377 ( 33436 PWs)   bands (ev):

  -127.4165-127.4164-127.4163-127.4162-127.4159-127.4157-127.4155-127.4154
   -81.6032 -81.6030 -81.6029 -81.6028 -81.6027 -81.6025 -81.6022 -81.6021
   -81.5636 -81.5634 -81.5633 -81.5632 -81.5584 -81.5583 -81.5582 -81.5581
   -81.5487 -81.5485 -81.5484 -81.5483 -81.5475 -81.5473 -81.5471 -81.5470
    -8.5902  -8.5901  -8.5900  -8.5900  -8.5573  -8.5572  -8.5572  -8.5572
    -8.4714  -8.4713  -8.4713  -8.4713  -8.4335  -8.4334  -8.4333  -8.4333
    -8.3147  -8.3146  -8.3145  -8.3144  -8.3014  -8.3013  -8.3012  -8.3012
    -8.2653  -8.2652  -8.2651  -8.2651  -8.1542  -8.1541  -8.1540  -8.1540
    -8.1128  -8.1127  -8.1127  -8.1127  -8.0670  -8.0670  -8.0669  -8.0669
    -6.3567  -6.3566  -6.3566  -6.3566  -3.1550  -3.1550  -3.1550  -3.1550
    -0.2032  -0.2032  -0.2032  -0.2032   2.4690   2.4690   2.4690   2.4691
     3.7575   3.7575   3.7575   3.7575   3.7948   3.7948   3.7948   3.7948

     occupation numbers 
     1.0000   1.0000   1.0000   1.0000   1.0000   1.0000   1.0000   1.0000
     1.0000   1.0000   1.0000   1.0000   1.0000   1.0000   1.0000   1.0000
     1.0000   1.0000   1.0000   1.0000   1.0000   1.0000   1.0000   1.0000
     1.0000   1.0000   1.0000   1.0000   1.0000   1.0000   1.0000   1.0000
     1.0000   1.0000   1.0000   1.0000   1.0000   1.0000   1.0000   1.0000
     1.0000   1.0000   1.0000   1.0000   1.0000   1.0000   1.0000   1.0000
     1.0000   1.0000   1.0000   1.0000   1.0000   1.0000   1.0000   1.0000
     1.0000   1.0000   1.0000   1.0000   1.0000   1.0000   1.0000   1.0000
     1.0000   1.0000   1.0000   1.0000   1.0000   1.0000   1.0000   1.0000
     1.0000   1.0000   1.0000   1.0000   1.0000   1.0000   1.0000   1.0000
     0.0000   0.0000   0.0000   0.0000   0.0000   0.0000   0.0000   0.0000
     0.0000   0.0000   0.0000   0.0000   0.0000   0.0000   0.0000   0.0000

          k = 0.2500 0.0000-0.1498 ( 33370 PWs)   bands (ev):

  -127.4173-127.4172-127.4166-127.4164-127.4154-127.4154-127.4148-127.4147
   -81.6040 -81.6039 -81.6035 -81.6033 -81.6020 -81.6020 -81.6015 -81.6013
   -81.5665 -81.5635 -81.5628 -81.5627 -81.5612 -81.5611 -81.5595 -81.5587
   -81.5586 -81.5571 -81.5571 -81.5567 -81.5370 -81.5364 -81.5353 -81.5347
    -9.1266  -8.9990  -8.9909  -8.9639  -8.7793  -8.7790  -8.7138  -8.7135
    -8.5921  -8.5917  -8.5718  -8.5507  -8.5502  -8.5309  -8.5189  -8.3685
    -8.3677  -8.2497  -8.2492  -8.2208  -8.2204  -8.2093  -8.1843  -8.1691
    -8.1550  -8.1546  -8.1325  -8.1322  -8.1292  -8.1126  -8.0526  -8.0286
    -8.0222  -7.9907  -7.9141  -7.8982  -7.8977  -7.8457  -7.8036  -7.8032
    -7.6487  -7.0982  -5.5935  -3.4384  -2.3304  -2.3304  -1.9816  -1.6882
    -1.6881  -1.3048   0.2001   0.3048   0.3049   0.6956   1.3301   2.1247
     2.1249   2.4341   2.6645   2.8137   3.2657   3.4890   3.9746   3.9747

     occupation numbers 
     1.0000   1.0000   1.0000   1.0000   1.0000   1.0000   1.0000   1.0000
     1.0000   1.0000   1.0000   1.0000   1.0000   1.0000   1.0000   1.0000
     1.0000   1.0000   1.0000   1.0000   1.0000   1.0000   1.0000   1.0000
     1.0000   1.0000   1.0000   1.0000   1.0000   1.0000   1.0000   1.0000
     1.0000   1.0000   1.0000   1.0000   1.0000   1.0000   1.0000   1.0000
     1.0000   1.0000   1.0000   1.0000   1.0000   1.0000   1.0000   1.0000
     1.0000   1.0000   1.0000   1.0000   1.0000   1.0000   1.0000   1.0000
     1.0000   1.0000   1.0000   1.0000   1.0000   1.0000   1.0000   1.0000
     1.0000   1.0000   1.0000   1.0000   1.0000   1.0000   1.0000   1.0000
     1.0000   1.0000   1.0000   1.0000   1.0004   1.0004   1.0419   0.9972
     0.9971   0.1384   0.0000   0.0000   0.0000   0.0000   0.0000   0.0000
     0.0000   0.0000   0.0000   0.0000   0.0000   0.0000   0.0000   0.0000

          k = 0.2500-0.4660-0.2690 ( 33371 PWs)   bands (ev):

  -127.4171-127.4169-127.4164-127.4162-127.4156-127.4156-127.4151-127.4149
   -81.6037 -81.6036 -81.6032 -81.6030 -81.6023 -81.6023 -81.6018 -81.6016
   -81.5658 -81.5632 -81.5621 -81.5620 -81.5608 -81.5594 -81.5586 -81.5569
   -81.5568 -81.5557 -81.5555 -81.5548 -81.5404 -81.5399 -81.5389 -81.5384
    -8.8868  -8.8452  -8.7987  -8.7963  -8.7207  -8.7148  -8.6659  -8.6418
    -8.5464  -8.5430  -8.5207  -8.5199  -8.4833  -8.4823  -8.4815  -8.4024
    -8.3823  -8.3383  -8.2878  -8.2606  -8.2469  -8.2232  -8.1955  -8.1799
    -8.1596  -8.1559  -8.1513  -8.1477  -8.1345  -8.1319  -8.1173  -8.0908
    -8.0850  -8.0502  -8.0457  -8.0318  -7.9558  -7.9486  -7.9445  -7.8955
    -7.4580  -6.7936  -5.2412  -4.9043  -4.1063  -3.0956  -2.5059  -1.5479
    -0.9053  -0.4636   0.5849   1.0345   1.1037   1.5591   1.6970   1.8521
     2.0773   2.7202   3.0360   3.1872   3.2086   3.4833   3.6256   3.7543

     occupation numbers 
     1.0000   1.0000   1.0000   1.0000   1.0000   1.0000   1.0000   1.0000
     1.0000   1.0000   1.0000   1.0000   1.0000   1.0000   1.0000   1.0000
     1.0000   1.0000   1.0000   1.0000   1.0000   1.0000   1.0000   1.0000
[...]
    -9.1596  -8.9562  -8.9513  -8.8908  -8.8751  -8.8735  -8.7650  -8.6455
    -8.6254  -8.6164  -8.6124  -8.6084  -8.5683  -8.5586  -8.5442  -8.5047
    -8.4120  -8.4058  -8.3828  -8.3471  -8.3366  -8.2701  -8.2368  -8.2215
    -8.2158  -8.2065  -8.2059  -8.2058  -8.1972  -8.1881  -8.1785  -8.1751
    -8.1738  -8.1353  -8.1199  -8.0441  -8.0243  -7.9776  -7.9474  -7.8978
    -7.5516  -6.9574  -5.4128  -5.0727  -4.2940  -2.9209  -2.6115  -1.4935
    -0.6079  -0.1429   0.4919   0.9885   1.0616   1.4814   1.7453   2.2641
     2.2842   2.7971   3.0601   3.2984   3.3106   3.3367   3.5908   3.7643

     occupation numbers 
     1.0000   1.0000   1.0000   1.0000   1.0000   1.0000   1.0000   1.0000
     1.0000   1.0000   1.0000   1.0000   1.0000   1.0000   1.0000   1.0000
     1.0000   1.0000   1.0000   1.0000   1.0000   1.0000   1.0000   1.0000
     1.0000   1.0000   1.0000   1.0000   1.0000   1.0000   1.0000   1.0000
     1.0000   1.0000   1.0000   1.0000   1.0000   1.0000   1.0000   1.0000
     1.0000   1.0000   1.0000   1.0000   1.0000   1.0000   1.0000   1.0000
     1.0000   1.0000   1.0000   1.0000   1.0000   1.0000   1.0000   1.0000
     1.0000   1.0000   1.0000   1.0000   1.0000   1.0000   1.0000   1.0000
     1.0000   1.0000   1.0000   1.0000   1.0000   1.0000   1.0000   1.0000
     1.0000   1.0000   1.0000   1.0000   1.0000   1.0000   1.0000   0.6374
     0.0000   0.0000   0.0000   0.0000   0.0000   0.0000   0.0000   0.0000
     0.0000   0.0000   0.0000   0.0000   0.0000   0.0000   0.0000   0.0000

          k = 0.2500-0.4660 0.0306 ( 33401 PWs)   bands (ev):

  -127.4929-127.4923-127.4919-127.4914-127.4913-127.4909-127.4907-127.4903
   -81.6863 -81.6857 -81.6851 -81.6846 -81.6845 -81.6842 -81.6840 -81.6835
   -81.6355 -81.6349 -81.6344 -81.6330 -81.6302 -81.6260 -81.6240 -81.6208
   -81.6201 -81.6184 -81.6181 -81.6176 -81.6167 -81.6156 -81.6148 -81.6140
    -9.1596  -8.9562  -8.9513  -8.8908  -8.8751  -8.8735  -8.7650  -8.6455
    -8.6254  -8.6164  -8.6124  -8.6084  -8.5683  -8.5586  -8.5442  -8.5047
    -8.4120  -8.4058  -8.3828  -8.3471  -8.3366  -8.2701  -8.2368  -8.2215
    -8.2158  -8.2065  -8.2059  -8.2058  -8.1972  -8.1881  -8.1785  -8.1751
    -8.1739  -8.1353  -8.1199  -8.0441  -8.0243  -7.9776  -7.9474  -7.8978
    -7.5516  -6.9575  -5.4128  -5.0727  -4.2940  -2.9209  -2.6115  -1.4935
    -0.6079  -0.1429   0.4919   0.9885   1.0616   1.4814   1.7453   2.2359
     2.2641   3.0135   3.0690   3.2982   3.3106   3.3367   3.3419   3.7721

     occupation numbers 
     1.0000   1.0000   1.0000   1.0000   1.0000   1.0000   1.0000   1.0000
     1.0000   1.0000   1.0000   1.0000   1.0000   1.0000   1.0000   1.0000
     1.0000   1.0000   1.0000   1.0000   1.0000   1.0000   1.0000   1.0000
     1.0000   1.0000   1.0000   1.0000   1.0000   1.0000   1.0000   1.0000
     1.0000   1.0000   1.0000   1.0000   1.0000   1.0000   1.0000   1.0000
     1.0000   1.0000   1.0000   1.0000   1.0000   1.0000   1.0000   1.0000
     1.0000   1.0000   1.0000   1.0000   1.0000   1.0000   1.0000   1.0000
     1.0000   1.0000   1.0000   1.0000   1.0000   1.0000   1.0000   1.0000
     1.0000   1.0000   1.0000   1.0000   1.0000   1.0000   1.0000   1.0000
     1.0000   1.0000   1.0000   1.0000   1.0000   1.0000   1.0000   0.6374
     0.0000   0.0000   0.0000   0.0000   0.0000   0.0000   0.0000   0.0000
     0.0000   0.0000   0.0000   0.0000   0.0000   0.0000   0.0000   0.0000

          k = 0.2500-0.4660-0.1192 ( 33407 PWs)   bands (ev):

  -127.4929-127.4923-127.4919-127.4914-127.4913-127.4909-127.4907-127.4903
   -81.6863 -81.6857 -81.6851 -81.6846 -81.6845 -81.6842 -81.6839 -81.6835
   -81.6355 -81.6349 -81.6344 -81.6330 -81.6302 -81.6260 -81.6239 -81.6208
   -81.6201 -81.6184 -81.6181 -81.6176 -81.6167 -81.6156 -81.6148 -81.6140
    -9.1596  -8.9562  -8.9513  -8.8908  -8.8751  -8.8735  -8.7650  -8.6455
    -8.6254  -8.6164  -8.6124  -8.6084  -8.5683  -8.5586  -8.5442  -8.5047
    -8.4120  -8.4058  -8.3828  -8.3471  -8.3366  -8.2701  -8.2368  -8.2215
    -8.2158  -8.2065  -8.2059  -8.2058  -8.1972  -8.1881  -8.1785  -8.1751
    -8.1738  -8.1353  -8.1199  -8.0441  -8.0243  -7.9776  -7.9474  -7.8978
    -7.5516  -6.9575  -5.4128  -5.0727  -4.2940  -2.9209  -2.6115  -1.4935
    -0.6079  -0.1429   0.4919   0.9885   1.0616   1.4814   1.7453   2.2580
     2.2640   2.9019   3.0349   3.2984   3.3106   3.3367   3.5717   3.6954

     occupation numbers 
     1.0000   1.0000   1.0000   1.0000   1.0000   1.0000   1.0000   1.0000
     1.0000   1.0000   1.0000   1.0000   1.0000   1.0000   1.0000   1.0000
     1.0000   1.0000   1.0000   1.0000   1.0000   1.0000   1.0000   1.0000
     1.0000   1.0000   1.0000   1.0000   1.0000   1.0000   1.0000   1.0000
     1.0000   1.0000   1.0000   1.0000   1.0000   1.0000   1.0000   1.0000
     1.0000   1.0000   1.0000   1.0000   1.0000   1.0000   1.0000   1.0000
     1.0000   1.0000   1.0000   1.0000   1.0000   1.0000   1.0000   1.0000
     1.0000   1.0000   1.0000   1.0000   1.0000   1.0000   1.0000   1.0000
     1.0000   1.0000   1.0000   1.0000   1.0000   1.0000   1.0000   1.0000
     1.0000   1.0000   1.0000   1.0000   1.0000   1.0000   1.0000   0.6374
     0.0000   0.0000   0.0000   0.0000   0.0000   0.0000   0.0000   0.0000
     0.0000   0.0000   0.0000   0.0000   0.0000   0.0000   0.0000   0.0000

          k = 0.2500 0.9320 0.3883 ( 33417 PWs)   bands (ev):

  -127.4921-127.4921-127.4916-127.4916-127.4913-127.4913-127.4908-127.4908
   -81.6855 -81.6854 -81.6849 -81.6849 -81.6845 -81.6845 -81.6840 -81.6840
   -81.6286 -81.6286 -81.6284 -81.6284 -81.6262 -81.6262 -81.6253 -81.6253
   -81.6240 -81.6240 -81.6213 -81.6213 -81.6176 -81.6176 -81.6157 -81.6156
    -8.8174  -8.8174  -8.8087  -8.8087  -8.6891  -8.6891  -8.6073  -8.6073
    -8.5354  -8.5354  -8.5262  -8.5261  -8.4822  -8.4822  -8.4602  -8.4602
    -8.4423  -8.4422  -8.4312  -8.4312  -8.3797  -8.3797  -8.3634  -8.3633
    -8.3466  -8.3465  -8.2717  -8.2717  -8.2423  -8.2423  -8.1878  -8.1878
    -8.1565  -8.1565  -8.1552  -8.1552  -8.0999  -8.0998  -8.0662  -8.0662
    -6.7908  -6.7907  -6.0278  -6.0277  -4.3393  -4.3392  -1.7926  -1.7926
    -0.3341  -0.3340   0.5097   0.5097   1.5388   1.5389   2.1335   2.1335
     3.2592   3.3067   3.7906   3.9964   4.0328   4.0777   4.3511   4.3511

     occupation numbers 
     1.0000   1.0000   1.0000   1.0000   1.0000   1.0000   1.0000   1.0000
     1.0000   1.0000   1.0000   1.0000   1.0000   1.0000   1.0000   1.0000
     1.0000   1.0000   1.0000   1.0000   1.0000   1.0000   1.0000   1.0000
     1.0000   1.0000   1.0000   1.0000   1.0000   1.0000   1.0000   1.0000
     1.0000   1.0000   1.0000   1.0000   1.0000   1.0000   1.0000   1.0000
     1.0000   1.0000   1.0000   1.0000   1.0000   1.0000   1.0000   1.0000
     1.0000   1.0000   1.0000   1.0000   1.0000   1.0000   1.0000   1.0000
     1.0000   1.0000   1.0000   1.0000   1.0000   1.0000   1.0000   1.0000
     1.0000   1.0000   1.0000   1.0000   1.0000   1.0000   1.0000   1.0000
     1.0000   1.0000   1.0000   1.0000   1.0000   1.0000   1.0833   1.0833
     0.0000   0.0000   0.0000   0.0000   0.0000   0.0000   0.0000   0.0000
     0.0000   0.0000   0.0000   0.0000   0.0000   0.0000   0.0000   0.0000

     the Fermi energy is    -1.4057 ev

!    total energy              =   -3692.20129952 Ry
     estimated scf accuracy    <          2.0E-09 Ry
     smearing contrib. (-TS)   =       0.00050756 Ry
     internal energy E=F+TS    =   -3692.20180708 Ry

     The total energy is F=E-TS. E is the sum of the following terms:
     one-electron contribution =  -10453.99794644 Ry
     hartree contribution      =    5200.70616675 Ry
     xc contribution           =    -336.69732792 Ry
     ewald contribution        =    1897.78730052 Ry

     convergence has been achieved in   5 iterations

     Forces acting on atoms (cartesian axes, Ry/au):

     atom    1 type  1   force =     0.00007382    0.00000483   -0.00001380
     atom    2 type  1   force =     0.00007381   -0.00000416   -0.00001374
     atom    3 type  1   force =    -0.00009991   -0.00000422   -0.00001331
     atom    4 type  1   force =    -0.00009989    0.00000485   -0.00001339
     atom    5 type  1   force =     0.00001843    0.00000520    0.00001985
     atom    6 type  1   force =     0.00000965   -0.00000544    0.00000811
     atom    7 type  1   force =     0.00000437    0.00000467    0.00001913
     atom    8 type  1   force =     0.00001972   -0.00000573    0.00000715
     The non-local contrib.  to forces
     atom    1 type  1   force =    -0.00002777   -0.00000176   -0.00081168
     atom    2 type  1   force =    -0.00002759    0.00000943   -0.00081174
     atom    3 type  1   force =    -0.00014945    0.00000977   -0.00081024
     atom    4 type  1   force =    -0.00014962   -0.00000215   -0.00081036
     atom    5 type  1   force =     0.00075165    0.00001318    0.00074344
     atom    6 type  1   force =     0.00065617   -0.00001433    0.00085769
     atom    7 type  1   force =    -0.00060178    0.00000550    0.00075627
     atom    8 type  1   force =    -0.00045127   -0.00002039    0.00087245
     The ionic contribution  to forces
     atom    1 type  1   force =    -0.00791732    0.00260394    0.22575315
     atom    2 type  1   force =    -0.00793552   -0.00251538    0.22575514
     atom    3 type  1   force =    -0.00793869   -0.00252115    0.22554730
     atom    4 type  1   force =    -0.00792106    0.00260952    0.22554929
     atom    5 type  1   force =     0.06982432    0.00162380   -0.23562156
     atom    6 type  1   force =     0.06668573   -0.00165430   -0.21916335
     atom    7 type  1   force =    -0.05529249    0.00151977   -0.23239755
     atom    8 type  1   force =    -0.04950497   -0.00166619   -0.21542241
     The local contribution  to forces
     atom    1 type  1   force =     0.00784125   -0.00259687   -0.22497995
     atom    2 type  1   force =     0.00785924    0.00250218   -0.22498190
     atom    3 type  1   force =     0.00816547    0.00250764   -0.22477574
     atom    4 type  1   force =     0.00814807   -0.00260213   -0.22477767
     atom    5 type  1   force =    -0.07047045   -0.00163137    0.23491843
     atom    6 type  1   force =    -0.06724512    0.00166370    0.21833432
     atom    7 type  1   force =     0.05581215   -0.00152026    0.23168029
     atom    8 type  1   force =     0.04988938    0.00168138    0.21457702
     The core correction contribution to forces
     atom    1 type  1   force =     0.00000000    0.00000000    0.00000000
     atom    2 type  1   force =     0.00000000    0.00000000    0.00000000
     atom    3 type  1   force =     0.00000000    0.00000000    0.00000000
     atom    4 type  1   force =     0.00000000    0.00000000    0.00000000
     atom    5 type  1   force =     0.00000000    0.00000000    0.00000000
     atom    6 type  1   force =     0.00000000    0.00000000    0.00000000
     atom    7 type  1   force =     0.00000000    0.00000000    0.00000000
     atom    8 type  1   force =     0.00000000    0.00000000    0.00000000
     The Hubbard contrib.    to forces
     atom    1 type  1   force =     0.00000000    0.00000000    0.00000000
     atom    2 type  1   force =     0.00000000    0.00000000    0.00000000
     atom    3 type  1   force =     0.00000000    0.00000000    0.00000000
     atom    4 type  1   force =     0.00000000    0.00000000    0.00000000
     atom    5 type  1   force =     0.00000000    0.00000000    0.00000000
     atom    6 type  1   force =     0.00000000    0.00000000    0.00000000
     atom    7 type  1   force =     0.00000000    0.00000000    0.00000000
     atom    8 type  1   force =     0.00000000    0.00000000    0.00000000
     The SCF correction term to forces
     atom    1 type  1   force =     0.00000000    0.00000000    0.00000000
     atom    2 type  1   force =     0.00000000    0.00000000    0.00000000
     atom    3 type  1   force =    -0.00000000    0.00000000    0.00000000
     atom    4 type  1   force =    -0.00000000    0.00000000    0.00000000
     atom    5 type  1   force =    -0.00008709    0.00000009   -0.00001728
     atom    6 type  1   force =    -0.00008713   -0.00000002   -0.00001738
     atom    7 type  1   force =     0.00008649    0.00000015   -0.00001670
     atom    8 type  1   force =     0.00008657   -0.00000005   -0.00001673

     Total force =     0.000043     Total SCF correction =     0.000177
     SCF correction compared to forces is large: reduce conv_thr to get better values


     Computing stress (Cartesian axis) and pressure

          total   stress  (Ry/bohr**3)                   (kbar)     P=      -12.53
  -0.00017669  -0.00000000   0.00000000          -25.99       -0.00        0.00
  -0.00000000  -0.00007087  -0.00000000           -0.00      -10.42       -0.00
   0.00000000  -0.00000000  -0.00000808            0.00       -0.00       -1.19

     kinetic stress (kbar)   5618.16      0.00      0.00
                                0.00   5623.67      0.00
                                0.00      0.00   5662.29

     local   stress (kbar)-195955.68     -0.00      0.01
                               -0.00-198474.06     -0.00
                                0.01     -0.00 201146.10

     nonloc. stress (kbar)   -598.60     -0.00     -0.00
                               -0.00   -594.83     -0.00
                               -0.00     -0.00   -645.33

     hartree stress (kbar) 109984.88      0.00     -0.01
                                0.00 111040.08      0.00
                               -0.01      0.00 -84243.52

     exc-cor stress (kbar)  -2835.39      0.00     -0.00
                                0.00  -2834.50      0.00
                               -0.00      0.00  -2843.73

     corecor stress (kbar)      0.00      0.00      0.00
                                0.00      0.00      0.00
                                0.00      0.00      0.00

     ewald   stress (kbar)  83760.63      0.00     -0.01
                                0.00  85229.22      0.00
                               -0.01      0.00-119076.99

     hubbard stress (kbar)      0.00      0.00      0.00
                                0.00      0.00      0.00
                                0.00      0.00      0.00

     DFT-D   stress (kbar)      0.00      0.00      0.00
                                0.00      0.00      0.00
                                0.00      0.00      0.00

     XDM     stress (kbar)      0.00      0.00      0.00
                                0.00      0.00      0.00
                                0.00      0.00      0.00

     dft-nl  stress (kbar)      0.00      0.00      0.00
                                0.00      0.00      0.00
                                0.00      0.00      0.00

     TS-vdW  stress (kbar)      0.00      0.00      0.00
                                0.00      0.00      0.00
                                0.00      0.00      0.00

     MDB     stress (kbar)      0.00      0.00      0.00
                                0.00      0.00      0.00
                                0.00      0.00      0.00

     3D-RISM stress (kbar)      0.00      0.00      0.00
                                0.00      0.00      0.00
                                0.00      0.00      0.00

     Energy error            =      5.6E-07 Ry
     Gradient error          =      2.0E-05 Ry/Bohr

     bfgs converged in  21 scf cycles and  20 bfgs steps
     (criteria: energy <  1.0E-05 Ry, force <  5.0E-04 Ry/Bohr)

     End of BFGS Geometry Optimization

     Final energy             =   -3692.2012995236 Ry

     File ./tmp/Zn100_2x4x2_relax.bfgs deleted, as requested
Begin final coordinates

ATOMIC_POSITIONS (angstrom)
Zn               1.2182902100        1.3071799410        0.7547006760    0   0   0
Zn               1.2182902100        3.9215397970        0.7547006760    0   0   0
Zn               6.0914510490        1.3071799410        0.7547006760    0   0   0
Zn               6.0914510490        3.9215397970        0.7547006760    0   0   0
Zn               3.6541045545       -0.0000118935        0.7506212851
Zn               3.6541854014        2.6143770776        0.7507593486
Zn               8.5285907781       -0.0000012801        0.7506634237
Zn               8.5284314599        2.6143868514        0.7508058040
End final coordinates



     Writing all to output data dir ./tmp/Zn100_2x4x2_relax.save/ :
     XML data file, charge density, pseudopotentials, collected wavefunctions

     init_run     :     15.90s CPU     16.33s WALL (       1 calls)
     electrons    :   7836.11s CPU   7958.79s WALL (      21 calls)
     update_pot   :      8.04s CPU      8.44s WALL (      20 calls)
     forces       :    194.76s CPU    195.93s WALL (      21 calls)
     stress       :    612.67s CPU    618.72s WALL (      21 calls)

     Called by init_run:
     wfcinit      :     14.88s CPU     15.20s WALL (       1 calls)
     wfcinit:atom :      0.05s CPU      0.07s WALL (       9 calls)
     wfcinit:wfcr :     14.20s CPU     14.46s WALL (       9 calls)
     potinit      :      0.40s CPU      0.45s WALL (       1 calls)
     hinit0       :      0.14s CPU      0.15s WALL (       1 calls)

     Called by electrons:
     c_bands      :   7055.86s CPU   7152.33s WALL (     139 calls)
     sum_band     :    690.22s CPU    709.72s WALL (     139 calls)
     v_of_rho     :     49.02s CPU     52.02s WALL (     143 calls)
     v_h          :      3.01s CPU      3.59s WALL (     143 calls)
     v_xc         :     46.01s CPU     48.42s WALL (     143 calls)
     newd         :     46.71s CPU     50.62s WALL (     143 calls)
     mix_rho      :      3.59s CPU      3.80s WALL (     139 calls)

     Called by c_bands:
     init_us_2    :     24.86s CPU     24.96s WALL (    2889 calls)
     cegterg      :   6728.31s CPU   6823.57s WALL (    1251 calls)

     Called by sum_band:
     sum_band:wei :      0.14s CPU      0.14s WALL (     139 calls)
     sum_band:loo :    643.88s CPU    659.16s WALL (     139 calls)
     sum_band:buf :      3.17s CPU      3.24s WALL (    1251 calls)
     sum_band:ini :      9.80s CPU      9.83s WALL (    1251 calls)
     sum_band:cal :    276.13s CPU    276.90s WALL (    1251 calls)
     sum_band:bec :      0.59s CPU      0.60s WALL (    1251 calls)
     addusdens    :     39.04s CPU     42.87s WALL (     139 calls)
                                        0.00s GPU  (     139 calls)
     addusd:skk   :      0.16s CPU      0.16s WALL (     139 calls)
                                        0.00s GPU  (     139 calls)

     Called by *egterg:
     cdiaghg      :     84.73s CPU     84.97s WALL (    4988 calls)
     cegterg:over :   1045.25s CPU   1048.45s WALL (    4070 calls)
     cegterg:upda :    454.88s CPU    456.37s WALL (    4070 calls)
     cegterg:last :   1343.83s CPU   1347.06s WALL (    2853 calls)
     h_psi        :   2824.93s CPU   2902.15s WALL (    5330 calls)
     s_psi        :    575.58s CPU    576.97s WALL (    5330 calls)
     g_psi        :      5.43s CPU      5.46s WALL (    4070 calls)

     Called by h_psi:
     h_psi:calbec :    720.46s CPU    722.75s WALL (    5330 calls)
     vloc_psi     :   1534.96s CPU   1601.72s WALL (    5330 calls)
     add_vuspsi   :    562.73s CPU    564.09s WALL (    5330 calls)

     General routines
     calbec       :   1207.15s CPU   1210.82s WALL (    7526 calls)
     fft          :     31.92s CPU     34.46s WALL (    2022 calls)
     ffts         :      1.26s CPU      1.35s WALL (     282 calls)
     fftw         :   1504.89s CPU   1572.84s WALL (  749960 calls)
     interpolate  :      3.31s CPU      3.49s WALL (     143 calls)

     Parallel routines

     PWSCF        :      2h24m CPU      2h26m WALL


   This run was terminated on:   1:54: 3  19Jan1998            

=------------------------------------------------------------------------------=
   JOB DONE.
=------------------------------------------------------------------------------=
