--------------------------------------------------------------------------
By default, for Open MPI 4.0 and later, infiniband ports on a device
are not used by default.  The intent is to use UCX for these devices.
You can override this policy by setting the btl_openib_allow_ib MCA parameter
to true.

  Local host:              psid09
  Local adapter:           mlx4_0
  Local port:              1

--------------------------------------------------------------------------
--------------------------------------------------------------------------
WARNING: There was an error initializing an OpenFabrics device.

  Local host:   psid09
  Local device: mlx4_0
--------------------------------------------------------------------------

     Program PWSCF v.7.3.1 starts on 11Apr2025 at  1: 4:21 

     This program is part of the open-source Quantum ESPRESSO suite
     for quantum simulation of materials; please cite
         "P. Giannozzi et al., J. Phys.:Condens. Matter 21 395502 (2009);
         "P. Giannozzi et al., J. Phys.:Condens. Matter 29 465901 (2017);
         "P. Giannozzi et al., J. Chem. Phys. 152 154105 (2020);
          URL http://www.quantum-espresso.org", 
     in publications or presentations arising from this work. More details at
     http://www.quantum-espresso.org/quote

     Parallel version (MPI), running on    31 processors

     MPI processes distributed on     1 nodes
     15716 MiB available memory on the printing compute node when the environment starts

     Waiting for input...
     Reading input from standard input
Warning: card &CELL ignored
Warning: card   CELL_DOFREE = 'ALL' ignored
Warning: card / ignored

     Current dimensions of program PWSCF are:
     Max number of different atomic species (ntypx) = 10
     Max number of k-points (npk) =  40000
     Max angular momentum in pseudopotentials (lmaxx) =  4
     file C.pbe-n-kjpaw_psl.1.0.0.UPF: wavefunction(s)  2S 2P renormalized

     R & G space division:  proc/nbgrp/npool/nimage =      31
     Subspace diagonalization in iterative solution of the eigenvalue problem:
     one sub-group per band group will be used
     custom distributed-memory algorithm (size of sub-group:  5*  5 procs)


     Parallelization info
     --------------------
     sticks:   dense  smooth     PW     G-vecs:    dense   smooth      PW
     Min         288     164     47                42996    18570    2894
     Max         289     165     48                43005    18578    2903
     Sum        8941    5109   1485              1332973   575857   89907

     Using Slab Decomposition



     bravais-lattice index     =            0
     lattice parameter (alat)  =      20.9009  a.u.
     unit-cell volume          =   16846.7507 (a.u.)^3
     number of atoms/cell      =           62
     number of atomic types    =            4
     number of electrons       =       996.00
     number of Kohn-Sham states=          598
     kinetic-energy cutoff     =      40.0000  Ry
     charge density cutoff     =     280.0000  Ry
     scf convergence threshold =      1.0E-06
     mixing beta               =       0.4000
     number of iterations used =            8  plain     mixing
     energy convergence thresh.=      5.0E-05
     force convergence thresh. =      1.0E-03
     Exchange-correlation= PBE
                           (   1   4   3   4   0   0   0)
     nstep                     =          300


     celldm(1)=  20.900943  celldm(2)=   0.000000  celldm(3)=   0.000000
     celldm(4)=   0.000000  celldm(5)=   0.000000  celldm(6)=   0.000000

     crystal axes: (cart. coord. in units of alat)
               a(1) = (   1.000000   0.000000   0.000000 )  
               a(2) = (  -0.223489   0.918700   0.000000 )  
               a(3) = (  -4.200249  -1.021781   2.008375 )  

     reciprocal axes: (cart. coord. in units 2 pi/alat)
               b(1) = (  1.000000  0.243267  2.215131 )  
               b(2) = ( -0.000000  1.088495  0.553783 )  
               b(3) = (  0.000000 -0.000000  0.497915 )  


     PseudoPot. # 1 for Zn read from file:
     /home/ys/qepseudo/SSSP_1.3.0_PBE_efficiency/Zn_pbe_v1.uspp.F.UPF
     MD5 check sum: df62231357ef9e81f77b2b3087fa5675
     Pseudo is Ultrasoft, Zval = 20.0
     Generated by new atomic code, or converted to UPF format
     Using radial grid of  943 points,  6 beta functions with: 
                l(1) =   0
                l(2) =   0
                l(3) =   1
                l(4) =   1
                l(5) =   2
                l(6) =   2
     Q(r) pseudized with  8 coefficients,  rinner =    1.100   1.100   1.100
                                                       1.100   1.100

     PseudoPot. # 2 for N  read from file:
     /home/ys/qepseudo/SSSP_1.3.0_PBE_efficiency/N.pbe-n-radius_5.UPF
     MD5 check sum: 16739722b17309cd8fe442a2ace49922
     Pseudo is Ultrasoft + core correction, Zval =  5.0
     Generated using "atomic" code by A. Dal Corso  v.5.1
     Using radial grid of 1085 points,  4 beta functions with: 
                l(1) =   0
                l(2) =   0
                l(3) =   1
                l(4) =   1
     Q(r) pseudized with 0 coefficients 


     PseudoPot. # 3 for C  read from file:
     /home/ys/qepseudo/SSSP_1.3.0_PBE_efficiency/C.pbe-n-kjpaw_psl.1.0.0.UPF
     MD5 check sum: 5d2aebdfa2cae82b50a7e79e9516da0f
     Pseudo is Projector augmented-wave + core cor, Zval =  4.0
     Generated using "atomic" code by A. Dal Corso  v.5.1
     Shape of augmentation charge: PSQ
     Using radial grid of 1073 points,  4 beta functions with: 
                l(1) =   0
                l(2) =   0
                l(3) =   1
                l(4) =   1
     Q(r) pseudized with 0 coefficients 


     PseudoPot. # 4 for H  read from file:
     /home/ys/qepseudo/SSSP_1.3.0_PBE_efficiency/H.pbe-rrkjus_psl.1.0.0.UPF
     MD5 check sum: f52b6d4d1c606e5624b1dc7b2218f220
     Pseudo is Ultrasoft, Zval =  1.0
     Generated using "atomic" code by A. Dal Corso  v.5.1
     Using radial grid of  929 points,  2 beta functions with: 
                l(1) =   0
                l(2) =   0
     Q(r) pseudized with 0 coefficients 


     atomic species   valence    mass     pseudopotential
     Zn               20.00    65.38000     Zn( 1.00)
     N                 5.00    14.00674     N ( 1.00)
     C                 4.00    12.01070     C ( 1.00)
     H                 1.00     1.00794     H ( 1.00)

     No symmetry found


                                    s                        frac. trans.

      isym =  1     identity                                     

 cryst.   s( 1) = (     1          0          0      )
                  (     0          1          0      )
                  (     0          0          1      )

 cart.    s( 1) = (  1.0000000  0.0000000  0.0000000 )
                  (  0.0000000  1.0000000  0.0000000 )
                  (  0.0000000  0.0000000  1.0000000 )


   Cartesian axes

     site n.     atom                  positions (alat units)
         1        Zn     tau(   1) = (  -0.0970639   0.0980210   0.1082940  )
         2        Zn     tau(   2) = (  -0.2088085   0.5573710   0.1082940  )
         3        Zn     tau(   3) = (  -0.4468161   0.0140803   0.3487582  )
         4        Zn     tau(   4) = (  -0.5595135   0.4737838   0.3446153  )
         5        Zn     tau(   5) = (  -0.8215674  -0.0786223   0.5247076  )
         6        Zn     tau(   6) = (  -0.9357206   0.3836160   0.5249526  )
         7        Zn     tau(   7) = (  -0.1529361   0.3276960   0.1082940  )
         8        Zn     tau(   8) = (  -0.2646808   0.7870460   0.1082940  )
         9        Zn     tau(   9) = (  -0.5044749   0.2429609   0.3455257  )
        10        Zn     tau(  10) = (  -0.6144010   0.7035146   0.3485392  )
        11        Zn     tau(  11) = (  -0.8788330   0.1531256   0.5207318  )
        12        Zn     tau(  12) = (  -0.9913647   0.6117555   0.5259122  )
        13        Zn     tau(  13) = (   0.4029362   0.0980210   0.1082940  )
        14        Zn     tau(  14) = (   0.2911915   0.5573710   0.1082940  )
        15        Zn     tau(  15) = (   0.0349775   0.0098970   0.3105069  )
        16        Zn     tau(  16) = (  -0.0766660   0.4700750   0.3098570  )
        17        Zn     tau(  17) = (  -0.2728276  -0.0649023   0.5059187  )
        18        Zn     tau(  18) = (  -0.3899561   0.3933054   0.5057162  )
        19        Zn     tau(  19) = (   0.3470638   0.3276960   0.1082940  )
        20        Zn     tau(  20) = (   0.2353192   0.7870460   0.1082940  )
        21        Zn     tau(  21) = (  -0.0207240   0.2398144   0.3116796  )
        22        Zn     tau(  22) = (  -0.1332552   0.6985835   0.3098113  )
        23        Zn     tau(  23) = (  -0.3309584   0.1639022   0.5061306  )
        24        Zn     tau(  24) = (  -0.4434447   0.6235835   0.5057193  )
        25        Zn     tau(  25) = (   0.1529361   0.0372043   0.0773528  )
        26        Zn     tau(  26) = (   0.0411915   0.4965543   0.0773528  )
        27        Zn     tau(  27) = (  -0.2140140  -0.0518673   0.2625810  )
        28        Zn     tau(  28) = (  -0.3252057   0.4068572   0.2642608  )
        29        Zn     tau(  29) = (  -0.6004097  -0.1455734   0.4586282  )
        30        Zn     tau(  30) = (  -0.7117665   0.3150926   0.4622130  )
        31        Zn     tau(  31) = (   0.0970639   0.2668793   0.0773528  )
        32        Zn     tau(  32) = (  -0.0146808   0.7262293   0.0773528  )
        33        Zn     tau(  33) = (  -0.2695320   0.1779412   0.2633975  )
        34        Zn     tau(  34) = (  -0.3815634   0.6368399   0.2636185  )
        35        Zn     tau(  35) = (  -0.6560470   0.0850197   0.4614000  )
        36        Zn     tau(  36) = (  -0.7684135   0.5454167   0.4594212  )
        37        Zn     tau(  37) = (   0.6529362   0.0372043   0.0773528  )
        38        Zn     tau(  38) = (   0.5411915   0.4965543   0.0773528  )
        39        Zn     tau(  39) = (   0.2793713  -0.0530339   0.2662548  )
        40        Zn     tau(  40) = (   0.1684228   0.4058705   0.2664054  )
        41        Zn     tau(  41) = (  -0.0476535  -0.1323506   0.5029273  )
        42        Zn     tau(  42) = (  -0.1623583   0.3277038   0.5005833  )
        43        Zn     tau(  43) = (   0.5970639   0.2668793   0.0773528  )
        44        Zn     tau(  44) = (   0.4853193   0.7262293   0.0773528  )
        45        Zn     tau(  45) = (   0.2238639   0.1766744   0.2678946  )
        46        Zn     tau(  46) = (   0.1115001   0.6358241   0.2642209  )
        47        Zn     tau(  47) = (  -0.1047210   0.0983692   0.5077854  )
        48        Zn     tau(  48) = (  -0.2185235   0.5561284   0.4972020  )
        49        C      tau(  49) = (  -0.9010841   0.2277313   1.0154091  )
        50        N      tau(  50) = (  -0.8956730   0.1425966   0.8130227  )
        51        C      tau(  51) = (  -0.8848060   0.2144833   1.1396423  )
        52        C      tau(  52) = (  -0.8833824   0.1290264   0.9380345  )
        53        H      tau(  53) = (  -0.9226578   0.3157521   0.9761229  )
        54        H      tau(  54) = (  -0.8815746   0.2285546   0.7827873  )
        55        C      tau(  55) = (  -0.8539256   0.1025547   1.1894143  )
        56        C      tau(  56) = (  -0.8532269   0.0163003   0.9873971  )
        57        C      tau(  57) = (  -0.8373289   0.0040412   1.1118014  )
        58        H      tau(  58) = (  -0.8942412   0.2941696   1.1969117  )
        59        H      tau(  59) = (  -0.8475486   0.0802310   0.7649828  )
        60        H      tau(  60) = (  -0.8423275   0.0926830   1.2868538  )
        61        H      tau(  61) = (  -0.8379669  -0.0601978   0.9264974  )
        62        H      tau(  62) = (  -0.8092342  -0.0834791   1.1473621  )

     --------------------------------------------
     DFT-D3 Dispersion Correction (3-body terms):
     --------------------------------------------
       Reference C6 values for interpolation: 

         atom   Coordination number   C6
         H          0.912             6.05
         H          0.000            15.18
         C          0.000            98.23
         C          0.987            86.49
         C          1.998            58.72
         C          2.999            51.56
         C          3.984            36.41
         N          0.000            50.54
         N          0.994            44.25
         N          2.014            39.35
         N          2.990            31.16
         Zn         0.000           681.04
         Zn         1.942           306.91

       Values used:

         atom   Coordination number  R0_AB[au]  C6      C8
         Zn         6.131            3.053    306.91  23930.67
         Zn         6.158            3.053    306.91  23930.67
         Zn         6.545            3.053    306.91  23930.67
         Zn         6.579            3.053    306.91  23930.67
         Zn         5.349            3.053    306.91  23930.67
         Zn         5.342            3.053    306.91  23930.67
         Zn         6.130            3.053    306.91  23930.67
         Zn         6.154            3.053    306.91  23930.67
         Zn         6.553            3.053    306.91  23930.67
         Zn         6.578            3.053    306.91  23930.67
         Zn         5.544            3.053    306.91  23930.67
         Zn         5.300            3.053    306.91  23930.67
         Zn         5.119            3.053    306.91  23930.67
         Zn         5.151            3.053    306.91  23930.67
         Zn         7.251            3.053    306.91  23930.67
         Zn         7.365            3.053    306.91  23930.67
         Zn         5.722            3.053    306.91  23930.67
         Zn         5.684            3.053    306.91  23930.67
         Zn         5.147            3.053    306.91  23930.67
         Zn         5.127            3.053    306.91  23930.67
         Zn         7.280            3.053    306.91  23930.67
         Zn         7.350            3.053    306.91  23930.67
         Zn         5.697            3.053    306.91  23930.67
         Zn         5.712            3.053    306.91  23930.67
         Zn         5.492            3.053    306.91  23930.67
         Zn         5.534            3.053    306.91  23930.67
         Zn         7.497            3.053    306.91  23930.67
         Zn         7.533            3.053    306.91  23930.67
         Zn         6.420            3.053    306.91  23930.67
         Zn         6.318            3.053    306.91  23930.67
         Zn         5.477            3.053    306.91  23930.67
         Zn         5.536            3.053    306.91  23930.67
         Zn         7.490            3.053    306.91  23930.67
         Zn         7.552            3.053    306.91  23930.67
         Zn         6.367            3.053    306.91  23930.67
         Zn         6.367            3.053    306.91  23930.67
         Zn         5.164            3.053    306.91  23930.67
         Zn         5.171            3.053    306.91  23930.67
         Zn         7.820            3.053    306.91  23930.67
         Zn         7.811            3.053    306.91  23930.67
         Zn         5.933            3.053    306.91  23930.67
         Zn         5.997            3.053    306.91  23930.67
         Zn         5.168            3.053    306.91  23930.67
         Zn         5.164            3.053    306.91  23930.67
         Zn         7.851            3.053    306.91  23930.67
         Zn         7.850            3.053    306.91  23930.67
         Zn         5.812            3.053    306.91  23930.67
         Zn         6.090            3.053    306.91  23930.67
         C          3.165            2.750     50.40   1457.74
         N          3.096            2.478     31.24    689.11
         C          3.134            2.750     50.66   1465.20
         C          3.151            2.750     50.52   1461.27
         H          1.003            2.062      6.18     74.69
         H          1.011            2.062      6.17     74.61
         C          3.123            2.750     50.74   1467.38
         C          3.165            2.750     50.41   1457.81
         C          3.134            2.750     50.66   1465.18
         H          1.003            2.062      6.18     74.69
         H          1.014            2.062      6.17     74.57
         H          1.002            2.062      6.18     74.69
         H          1.003            2.062      6.18     74.69
         H          1.003            2.062      6.18     74.69

         Molecular C6 ( Ry / a.u.^6 ) =    819935.34


   Crystallographic axes

     site n.     atom                  positions (cryst. coord.)
         1        Zn     tau(   1) = (  0.1666667  0.1666667  0.0539212  )
         2        Zn     tau(   2) = (  0.1666668  0.6666667  0.0539212  )
         3        Zn     tau(   3) = (  0.3291545  0.2084627  0.1736520  )
         4        Zn     tau(   4) = (  0.3191107  0.7065532  0.1715891  )
         5        Zn     tau(   5) = (  0.3216027  0.2049941  0.2612598  )
         6        Zn     tau(   6) = (  0.3204395  0.7082737  0.2613818  )
         7        Zn     tau(   7) = (  0.1666668  0.4166667  0.0539212  )
         8        Zn     tau(   8) = (  0.1666667  0.9166667  0.0539212  )
         9        Zn     tau(   9) = (  0.3200143  0.4558078  0.1720424  )
        10        Zn     tau(  10) = (  0.3288008  0.9587868  0.1735429  )
        11        Zn     tau(  11) = (  0.3119067  0.4550487  0.2592801  )
        12        Zn     tau(  12) = (  0.3224197  0.9571337  0.2618596  )
        13        Zn     tau(  13) = (  0.6666668  0.1666667  0.0539212  )
        14        Zn     tau(  14) = (  0.6666667  0.6666667  0.0539212  )
        15        Zn     tau(  15) = (  0.7251988  0.1827262  0.1546061  )
        16        Zn     tau(  16) = (  0.7240616  0.6832675  0.1542824  )
        17        Zn     tau(  17) = (  0.8320603  0.2095233  0.2519045  )
        18        Zn     tau(  18) = (  0.8259499  0.7081677  0.2518037  )
        19        Zn     tau(  19) = (  0.6666668  0.4166667  0.0539212  )
        20        Zn     tau(  20) = (  0.6666668  0.9166667  0.0539212  )
        21        Zn     tau(  21) = (  0.7280261  0.4336394  0.1551899  )
        22        Zn     tau(  22) = (  0.7229597  0.9319725  0.1542597  )
        23        Zn     tau(  23) = (  0.8300593  0.4586931  0.2520100  )
        24        Zn     tau(  24) = (  0.8284873  0.9588260  0.2518052  )
        25        Zn     tau(  25) = (  0.3333333  0.0833333  0.0385151  )
        26        Zn     tau(  26) = (  0.3333333  0.5833333  0.0385151  )
        27        Zn     tau(  27) = (  0.3550197  0.0889556  0.1307430  )
        28        Zn     tau(  28) = (  0.3591415  0.5892050  0.1315794  )
        29        Zn     tau(  29) = (  0.3800989  0.0955245  0.2283579  )
        30        Zn     tau(  30) = (  0.3887477  0.5989423  0.2301428  )
        31        Zn     tau(  31) = (  0.3333333  0.3333333  0.0385151  )
        32        Zn     tau(  32) = (  0.3333333  0.8333333  0.0385151  )
        33        Zn     tau(  33) = (  0.3572154  0.3395531  0.1311496  )
        34        Zn     tau(  34) = (  0.3573081  0.8391842  0.1312596  )
        35        Zn     tau(  35) = (  0.3866971  0.3480588  0.2297380  )
        36        Zn     tau(  36) = (  0.3819466  0.8481027  0.2287527  )
        37        Zn     tau(  37) = (  0.8333333  0.0833333  0.0385151  )
        38        Zn     tau(  38) = (  0.8333333  0.5833333  0.0385151  )
        39        Zn     tau(  39) = (  0.8562592  0.0897202  0.1325723  )
        40        Zn     tau(  40) = (  0.8572806  0.5893185  0.1326472  )
        41        Zn     tau(  41) = (  1.0342000  0.1344496  0.2504151  )
        42        Zn     tau(  42) = (  1.0262190  0.6339183  0.2492479  )
        43        Zn     tau(  43) = (  0.8333333  0.3333333  0.0385151  )
        44        Zn     tau(  44) = (  0.8333333  0.8333333  0.0385151  )
        45        Zn     tau(  45) = (  0.8602647  0.3406645  0.1333888  )
        46        Zn     tau(  46) = (  0.8514591  0.8384121  0.1315596  )
        47        Zn     tau(  47) = (  1.0440204  0.3882771  0.2528340  )
        48        Zn     tau(  48) = (  1.0181318  0.8806847  0.2475643  )
        49        C      tau(  49) = (  1.4035799  0.8102004  0.5055874  )
        50        N      tau(  50) = (  0.9399681  0.6054536  0.4048162  )
        51        C      tau(  51) = (  1.6918281  0.8645782  0.5674450  )
        52        C      tau(  52) = (  1.2258752  0.6599119  0.4670615  )
        53        H      tau(  53) = (  1.3163946  0.8842545  0.4860262  )
        54        H      tau(  54) = (  0.9080019  0.6822746  0.3897615  )
        55        C      tau(  55) = (  1.8057315  0.7703074  0.5922272  )
        56        C      tau(  56) = (  1.3379525  0.5645463  0.4916398  )
        57        C      tau(  57) = (  1.6264403  0.6200953  0.5535826  )
        58        H      tau(  58) = (  1.8286372  0.9830312  0.5959603  )
        59        H      tau(  59) = (  0.8665062  0.5109653  0.3808964  )
        60        H      tau(  60) = (  2.0307693  0.8135225  0.6407438  )
        61        H      tau(  61) = (  1.1997025  0.4475534  0.4613170  )
        62        H      tau(  62) = (  1.7120158  0.5445229  0.5712888  )

     number of k points=     4  Marzari-Vanderbilt smearing, width (Ry)=  0.0200
                       cart. coord. in units 2pi/alat
        k(    1) = (   0.0000000   0.0000000   0.0000000), wk =   0.5000000
        k(    2) = (   0.0000000  -0.5442473  -0.2768914), wk =   0.5000000
        k(    3) = (  -0.5000000  -0.1216334  -1.1075657), wk =   0.5000000
        k(    4) = (  -0.5000000  -0.6658807  -1.3844571), wk =   0.5000000

                       cryst. coord.
        k(    1) = (   0.0000000   0.0000000   0.0000000), wk =   0.5000000
        k(    2) = (   0.0000000  -0.5000000   0.0000000), wk =   0.5000000
        k(    3) = (  -0.5000000   0.0000000   0.0000000), wk =   0.5000000
        k(    4) = (  -0.5000000  -0.5000000   0.0000000), wk =   0.5000000

     Dense  grid:  1332973 G-vectors     FFT dimensions: ( 120, 108, 540)

     Smooth grid:   575857 G-vectors     FFT dimensions: (  90,  80, 405)

     Dynamical RAM for                 wfc:      21.18 MB

     Dynamical RAM for     wfc (w. buffer):     105.89 MB

     Dynamical RAM for           str. fact:       2.62 MB

     Dynamical RAM for           local pot:       0.00 MB

     Dynamical RAM for          nlocal pot:      33.08 MB

     Dynamical RAM for                qrad:       5.37 MB

     Dynamical RAM for          rho,v,vnew:       7.31 MB

     Dynamical RAM for               rhoin:       2.44 MB

     Dynamical RAM for            rho*nmix:      10.50 MB

     Dynamical RAM for           G-vectors:       2.60 MB

     Dynamical RAM for          h,s,v(r/c):       2.61 MB

     Dynamical RAM for          <psi|beta>:       8.52 MB

     Dynamical RAM for                 psi:      42.36 MB

     Dynamical RAM for                hpsi:      42.36 MB

     Dynamical RAM for                spsi:      42.36 MB

     Dynamical RAM for      wfcinit/wfcrot:      56.62 MB

     Dynamical RAM for           addusdens:     153.54 MB

     Dynamical RAM for          addusforce:     215.74 MB

     Dynamical RAM for         addusstress:     131.89 MB

     Estimated static dynamical RAM per process >     171.50 MB

     Estimated max dynamical RAM per process >     397.74 MB

     Estimated total dynamical RAM >      12.04 GB

     Initial potential from superposition of free atoms

     starting charge     995.9929, renormalised to     996.0000

     negative rho (up, down):  2.111E-03 0.000E+00
     Starting wfcs are  659 randomized atomic wfcs
[psid09:100429] 30 more processes have sent help message help-mpi-btl-openib.txt / ib port not selected
[psid09:100429] Set MCA parameter "orte_base_help_aggregate" to 0 to see all help / error messages
[psid09:100429] 30 more processes have sent help message help-mpi-btl-openib.txt / error in device init
     Checking if some PAW data can be deallocated... 
       PAW data deallocated on   27 nodes for type:  3

     total cpu time spent up to now is       69.1 secs

     Self-consistent Calculation

     iteration #  1     ecut=    40.00 Ry     beta= 0.40
     Davidson diagonalization with overlap

---- Real-time Memory Report at c_bands before calling an iterative solver
           250 MiB given to the printing process from OS
             0 MiB allocation reported by mallinfo(arena+hblkhd)
          9751 MiB available memory on the node where the printing process lives
------------------
     ethr =  1.00E-02,  avg # of iterations =  7.5

     negative rho (up, down):  2.611E-03 0.000E+00

     total cpu time spent up to now is      329.5 secs

     total energy              =  -22288.17865052 Ry
     estimated scf accuracy    <      11.24502135 Ry

     iteration #  2     ecut=    40.00 Ry     beta= 0.40
     Davidson diagonalization with overlap

---- Real-time Memory Report at c_bands before calling an iterative solver
           360 MiB given to the printing process from OS
             0 MiB allocation reported by mallinfo(arena+hblkhd)
          8433 MiB available memory on the node where the printing process lives
------------------
     ethr =  1.13E-03,  avg # of iterations = 10.2

     negative rho (up, down):  3.815E-03 0.000E+00

     total cpu time spent up to now is      591.1 secs

     total energy              =  -22276.68698769 Ry
     estimated scf accuracy    <     237.85216194 Ry

     iteration #  3     ecut=    40.00 Ry     beta= 0.40
     Davidson diagonalization with overlap

---- Real-time Memory Report at c_bands before calling an iterative solver
           376 MiB given to the printing process from OS
             0 MiB allocation reported by mallinfo(arena+hblkhd)
          8413 MiB available memory on the node where the printing process lives
------------------
     ethr =  1.13E-03,  avg # of iterations =  8.5

     negative rho (up, down):  3.720E-03 0.000E+00

     total cpu time spent up to now is      894.0 secs

     total energy              =  -22292.89577389 Ry
     estimated scf accuracy    <       6.71447353 Ry

     iteration #  4     ecut=    40.00 Ry     beta= 0.40
     Davidson diagonalization with overlap

---- Real-time Memory Report at c_bands before calling an iterative solver
           376 MiB given to the printing process from OS
             0 MiB allocation reported by mallinfo(arena+hblkhd)
          8388 MiB available memory on the node where the printing process lives
------------------
     ethr =  6.74E-04,  avg # of iterations =  3.0

     negative rho (up, down):  3.634E-03 0.000E+00

     total cpu time spent up to now is     1104.8 secs

     total energy              =  -22293.38757974 Ry
     estimated scf accuracy    <       3.91741990 Ry

     iteration #  5     ecut=    40.00 Ry     beta= 0.40
     Davidson diagonalization with overlap

---- Real-time Memory Report at c_bands before calling an iterative solver
           377 MiB given to the printing process from OS
             0 MiB allocation reported by mallinfo(arena+hblkhd)
          8364 MiB available memory on the node where the printing process lives
------------------
     ethr =  3.93E-04,  avg # of iterations =  2.0

     negative rho (up, down):  3.638E-03 0.000E+00

     total cpu time spent up to now is     1307.6 secs

     total energy              =  -22293.61659415 Ry
     estimated scf accuracy    <       0.27858820 Ry

     iteration #  6     ecut=    40.00 Ry     beta= 0.40
     Davidson diagonalization with overlap

---- Real-time Memory Report at c_bands before calling an iterative solver
           378 MiB given to the printing process from OS
             0 MiB allocation reported by mallinfo(arena+hblkhd)
          8345 MiB available memory on the node where the printing process lives
------------------
     ethr =  2.80E-05,  avg # of iterations = 12.0

     negative rho (up, down):  3.745E-03 0.000E+00

     total cpu time spent up to now is     1541.5 secs

     total energy              =  -22293.61537022 Ry
     estimated scf accuracy    <       0.13419611 Ry

     iteration #  7     ecut=    40.00 Ry     beta= 0.40
     Davidson diagonalization with overlap

---- Real-time Memory Report at c_bands before calling an iterative solver
           379 MiB given to the printing process from OS
             0 MiB allocation reported by mallinfo(arena+hblkhd)
          8318 MiB available memory on the node where the printing process lives
------------------
     c_bands:  1 eigenvalues not converged
     ethr =  1.35E-05,  avg # of iterations = 10.8

     negative rho (up, down):  3.804E-03 0.000E+00

     total cpu time spent up to now is     1760.2 secs

     total energy              =  -22293.61499598 Ry
     estimated scf accuracy    <       0.05327594 Ry

     iteration #  8     ecut=    40.00 Ry     beta= 0.40
     Davidson diagonalization with overlap

---- Real-time Memory Report at c_bands before calling an iterative solver
           380 MiB given to the printing process from OS
             0 MiB allocation reported by mallinfo(arena+hblkhd)
          8296 MiB available memory on the node where the printing process lives
------------------
     c_bands:  1 eigenvalues not converged
     ethr =  5.35E-06,  avg # of iterations = 11.0

     negative rho (up, down):  3.839E-03 0.000E+00

     total cpu time spent up to now is     1983.6 secs

     total energy              =  -22293.61411204 Ry
     estimated scf accuracy    <       0.04053992 Ry

     iteration #  9     ecut=    40.00 Ry     beta= 0.40
     Davidson diagonalization with overlap

---- Real-time Memory Report at c_bands before calling an iterative solver
           380 MiB given to the printing process from OS
             0 MiB allocation reported by mallinfo(arena+hblkhd)
          8274 MiB available memory on the node where the printing process lives
------------------
     c_bands:  2 eigenvalues not converged
     ethr =  4.07E-06,  avg # of iterations =  9.2

     negative rho (up, down):  3.863E-03 0.000E+00

     total cpu time spent up to now is     2197.3 secs

     total energy              =  -22293.61225032 Ry
     estimated scf accuracy    <       0.02578446 Ry

     iteration # 10     ecut=    40.00 Ry     beta= 0.40
     Davidson diagonalization with overlap

---- Real-time Memory Report at c_bands before calling an iterative solver
           381 MiB given to the printing process from OS
             0 MiB allocation reported by mallinfo(arena+hblkhd)
          8252 MiB available memory on the node where the printing process lives
------------------
     ethr =  2.59E-06,  avg # of iterations = 15.2

     negative rho (up, down):  3.891E-03 0.000E+00

     total cpu time spent up to now is     2424.0 secs

     total energy              =  -22293.60834657 Ry
     estimated scf accuracy    <       0.02045765 Ry

     iteration # 11     ecut=    40.00 Ry     beta= 0.40
     Davidson diagonalization with overlap

---- Real-time Memory Report at c_bands before calling an iterative solver
           382 MiB given to the printing process from OS
             0 MiB allocation reported by mallinfo(arena+hblkhd)
          8252 MiB available memory on the node where the printing process lives
------------------
     c_bands:  1 eigenvalues not converged
     c_bands:  1 eigenvalues not converged
     ethr =  2.05E-06,  avg # of iterations = 14.8

     negative rho (up, down):  3.981E-03 0.000E+00

     total cpu time spent up to now is     2651.8 secs

     total energy              =  -22293.59830841 Ry
     estimated scf accuracy    <       0.01377495 Ry

     iteration # 12     ecut=    40.00 Ry     beta= 0.40
     Davidson diagonalization with overlap

---- Real-time Memory Report at c_bands before calling an iterative solver
           382 MiB given to the printing process from OS
             0 MiB allocation reported by mallinfo(arena+hblkhd)
          8245 MiB available memory on the node where the printing process lives
------------------
     c_bands:  2 eigenvalues not converged
     ethr =  1.38E-06,  avg # of iterations = 18.0

     negative rho (up, down):  3.969E-03 0.000E+00

     total cpu time spent up to now is     2934.3 secs

     total energy              =  -22293.60029694 Ry
     estimated scf accuracy    <       0.00209957 Ry

     iteration # 13     ecut=    40.00 Ry     beta= 0.40
     Davidson diagonalization with overlap

---- Real-time Memory Report at c_bands before calling an iterative solver
           382 MiB given to the printing process from OS
             0 MiB allocation reported by mallinfo(arena+hblkhd)
          8251 MiB available memory on the node where the printing process lives
------------------
     ethr =  2.11E-07,  avg # of iterations =  2.2

     negative rho (up, down):  3.965E-03 0.000E+00

     total cpu time spent up to now is     3142.6 secs

     total energy              =  -22293.60018015 Ry
     estimated scf accuracy    <       0.00052734 Ry

     iteration # 14     ecut=    40.00 Ry     beta= 0.40
     Davidson diagonalization with overlap

---- Real-time Memory Report at c_bands before calling an iterative solver
           382 MiB given to the printing process from OS
             0 MiB allocation reported by mallinfo(arena+hblkhd)
          8245 MiB available memory on the node where the printing process lives
------------------
     c_bands:  2 eigenvalues not converged
     c_bands:  1 eigenvalues not converged
     ethr =  5.29E-08,  avg # of iterations = 16.5

     negative rho (up, down):  3.967E-03 0.000E+00

     total cpu time spent up to now is     3386.4 secs

     total energy              =  -22293.59954772 Ry
     estimated scf accuracy    <       0.00224458 Ry

     iteration # 15     ecut=    40.00 Ry     beta= 0.40
     Davidson diagonalization with overlap

---- Real-time Memory Report at c_bands before calling an iterative solver
           382 MiB given to the printing process from OS
             0 MiB allocation reported by mallinfo(arena+hblkhd)
          8251 MiB available memory on the node where the printing process lives
------------------
     ethr =  5.29E-08,  avg # of iterations =  4.8

     negative rho (up, down):  3.970E-03 0.000E+00

     total cpu time spent up to now is     3594.3 secs

     total energy              =  -22293.59932273 Ry
     estimated scf accuracy    <       0.00177823 Ry

     iteration # 16     ecut=    40.00 Ry     beta= 0.40
     Davidson diagonalization with overlap

---- Real-time Memory Report at c_bands before calling an iterative solver
           382 MiB given to the printing process from OS
             0 MiB allocation reported by mallinfo(arena+hblkhd)
          8253 MiB available memory on the node where the printing process lives
------------------
     ethr =  5.29E-08,  avg # of iterations =  2.0

     negative rho (up, down):  3.968E-03 0.000E+00

     total cpu time spent up to now is     3800.8 secs

     total energy              =  -22293.59895176 Ry
     estimated scf accuracy    <       0.00095701 Ry

     iteration # 17     ecut=    40.00 Ry     beta= 0.40
     Davidson diagonalization with overlap

---- Real-time Memory Report at c_bands before calling an iterative solver
           382 MiB given to the printing process from OS
             0 MiB allocation reported by mallinfo(arena+hblkhd)
          8252 MiB available memory on the node where the printing process lives
------------------
     c_bands:  2 eigenvalues not converged
     c_bands:  1 eigenvalues not converged
     ethr =  5.29E-08,  avg # of iterations = 18.0

     negative rho (up, down):  3.957E-03 0.000E+00

     total cpu time spent up to now is     4041.1 secs

     total energy              =  -22293.59809595 Ry
     estimated scf accuracy    <       0.01603971 Ry

     iteration # 18     ecut=    40.00 Ry     beta= 0.40
     Davidson diagonalization with overlap

---- Real-time Memory Report at c_bands before calling an iterative solver
           382 MiB given to the printing process from OS
             0 MiB allocation reported by mallinfo(arena+hblkhd)
          8253 MiB available memory on the node where the printing process lives
------------------
     c_bands:  1 eigenvalues not converged
     ethr =  5.29E-08,  avg # of iterations = 10.8

     negative rho (up, down):  3.954E-03 0.000E+00

     total cpu time spent up to now is     4261.3 secs

     total energy              =  -22293.59925649 Ry
     estimated scf accuracy    <       0.00024146 Ry

     iteration # 19     ecut=    40.00 Ry     beta= 0.40
     Davidson diagonalization with overlap

---- Real-time Memory Report at c_bands before calling an iterative solver
           382 MiB given to the printing process from OS
             0 MiB allocation reported by mallinfo(arena+hblkhd)
          8252 MiB available memory on the node where the printing process lives
------------------
     ethr =  2.42E-08,  avg # of iterations =  2.0

     negative rho (up, down):  3.951E-03 0.000E+00

     total cpu time spent up to now is     4466.2 secs

     total energy              =  -22293.59927584 Ry
     estimated scf accuracy    <       0.00002241 Ry

     iteration # 20     ecut=    40.00 Ry     beta= 0.40
     Davidson diagonalization with overlap

---- Real-time Memory Report at c_bands before calling an iterative solver
           382 MiB given to the printing process from OS
             0 MiB allocation reported by mallinfo(arena+hblkhd)
          8251 MiB available memory on the node where the printing process lives
------------------
     ethr =  2.25E-09,  avg # of iterations =  2.0

     negative rho (up, down):  3.950E-03 0.000E+00

     total cpu time spent up to now is     4673.2 secs

     total energy              =  -22293.59927511 Ry
     estimated scf accuracy    <       0.00004762 Ry

     iteration # 21     ecut=    40.00 Ry     beta= 0.40
     Davidson diagonalization with overlap

---- Real-time Memory Report at c_bands before calling an iterative solver
           382 MiB given to the printing process from OS
             0 MiB allocation reported by mallinfo(arena+hblkhd)
          8253 MiB available memory on the node where the printing process lives
------------------
     ethr =  2.25E-09,  avg # of iterations =  2.0

     negative rho (up, down):  3.949E-03 0.000E+00

     total cpu time spent up to now is     4878.2 secs

     total energy              =  -22293.59927849 Ry
     estimated scf accuracy    <       0.00000179 Ry

     iteration # 22     ecut=    40.00 Ry     beta= 0.40
     Davidson diagonalization with overlap

---- Real-time Memory Report at c_bands before calling an iterative solver
           382 MiB given to the printing process from OS
             0 MiB allocation reported by mallinfo(arena+hblkhd)
          8252 MiB available memory on the node where the printing process lives
------------------
     ethr =  1.79E-10,  avg # of iterations =  2.0

     negative rho (up, down):  3.948E-03 0.000E+00

     total cpu time spent up to now is     5085.4 secs

     total energy              =  -22293.59927809 Ry
     estimated scf accuracy    <       0.00000200 Ry

     iteration # 23     ecut=    40.00 Ry     beta= 0.40
     Davidson diagonalization with overlap

---- Real-time Memory Report at c_bands before calling an iterative solver
           382 MiB given to the printing process from OS
             0 MiB allocation reported by mallinfo(arena+hblkhd)
          8252 MiB available memory on the node where the printing process lives
------------------
     ethr =  1.79E-10,  avg # of iterations =  2.0

     negative rho (up, down):  3.948E-03 0.000E+00

     total cpu time spent up to now is     5292.6 secs

     total energy              =  -22293.59927810 Ry
     estimated scf accuracy    <       0.00000566 Ry

     iteration # 24     ecut=    40.00 Ry     beta= 0.40
     Davidson diagonalization with overlap

---- Real-time Memory Report at c_bands before calling an iterative solver
           382 MiB given to the printing process from OS
             0 MiB allocation reported by mallinfo(arena+hblkhd)
          8252 MiB available memory on the node where the printing process lives
------------------
     ethr =  1.79E-10,  avg # of iterations =  2.0

     negative rho (up, down):  3.948E-03 0.000E+00

     total cpu time spent up to now is     5497.6 secs

     End of self-consistent calculation

          k = 0.0000 0.0000 0.0000 ( 71933 PWs)   bands (ev):

  -125.4223-125.4203-125.4172-125.4154-125.4090-125.3999-125.3994-125.3986
  -125.3348-125.3333-125.3193-125.3157-125.2677-125.2666-125.2611-125.2602
  -125.2538-125.2492-125.2433-125.2423-125.2410-125.2373-125.2312-125.2266
  -125.2262-125.2248-125.2235-125.2211-125.2091-125.2045-125.1991-125.1944
  -125.1445-125.1420-125.1375-125.1367-125.1045-125.1044-125.1036-125.0991
  -125.0981-125.0798-125.0747-125.0742-125.0725-125.0694-125.0685-125.0658
   -79.5873 -79.5811 -79.5790 -79.5758 -79.5748 -79.5744 -79.5738 -79.5690
   -79.5654 -79.5643 -79.5627 -79.5616 -79.5588 -79.5576 -79.5571 -79.5562
   -79.5556 -79.5546 -79.5531 -79.5528 -79.5448 -79.5435 -79.5427 -79.5412
   -79.4969 -79.4884 -79.4867 -79.4841 -79.4820 -79.4806 -79.4765 -79.4728
   -79.4690 -79.4671 -79.4641 -79.4630 -79.4339 -79.4220 -79.4198 -79.4189
   -79.4177 -79.4150 -79.4149 -79.4138 -79.4130 -79.4119 -79.4098 -79.4093
   -79.4086 -79.4071 -79.4069 -79.4069 -79.4024 -79.3995 -79.3989 -79.3982
   -79.3972 -79.3969 -79.3949 -79.3939 -79.3928 -79.3911 -79.3907 -79.3879
   -79.3879 -79.3868 -79.3857 -79.3852 -79.3848 -79.3842 -79.3835 -79.3822
   -79.3816 -79.3807 -79.3806 -79.3792 -79.3777 -79.3776 -79.3773 -79.3757
   -79.3750 -79.3742 -79.3736 -79.3728 -79.3718 -79.3700 -79.3684 -79.3660
   -79.3550 -79.3499 -79.3461 -79.3426 -79.3411 -79.3397 -79.3362 -79.3275
   -79.3106 -79.3080 -79.3058 -79.3035 -79.3026 -79.2936 -79.2921 -79.2895
   -79.2871 -79.2826 -79.2815 -79.2799 -79.2670 -79.2665 -79.2661 -79.2655
   -79.2609 -79.2600 -79.2589 -79.2554 -79.2543 -79.2528 -79.2517 -79.2488
   -79.2477 -79.2463 -79.2460 -79.2439 -79.2410 -79.2407 -79.2404 -79.2371
   -79.2351 -79.2336 -79.2288 -79.2278 -79.2268 -79.2259 -79.2231 -79.2226
   -79.2208 -79.2197 -79.2180 -79.2145 -79.2140 -79.2127 -79.2062 -79.2004
   -17.2088 -14.9256 -12.5472 -12.0565  -9.2651  -8.8837  -8.3420  -7.4955
    -7.2168  -7.2049  -7.1257  -7.0942  -7.0914  -7.0536  -7.0457  -6.9827
    -6.9571  -6.9394  -6.9248  -6.9052  -6.8777  -6.8679  -6.8622  -6.8619
    -6.8493  -6.8455  -6.8401  -6.8100  -6.8069  -6.7980  -6.7582  -6.7562
    -6.7398  -6.7346  -6.7306  -6.7219  -6.7208  -6.7116  -6.6993  -6.6988
    -6.6967  -6.6906  -6.6887  -6.6700  -6.6692  -6.6600  -6.6569  -6.6541
    -6.6513  -6.6469  -6.6367  -6.6344  -6.6274  -6.6216  -6.6049  -6.6021
    -6.5991  -6.5882  -6.5680  -6.5671  -6.5485  -6.5482  -6.5461  -6.5431
    -6.5411  -6.5252  -6.5229  -6.5213  -6.5049  -6.5017  -6.4975  -6.4937
    -6.4815  -6.4806  -6.4692  -6.4664  -6.4612  -6.4594  -6.4530  -6.4317
    -6.4227  -6.4190  -6.4153  -6.4128  -6.3835  -6.3827  -6.3782  -6.3752
    -6.3657  -6.3627  -6.3467  -6.3423  -6.3406  -6.3226  -6.3215  -6.3211
    -6.3173  -6.3076  -6.3048  -6.2986  -6.2878  -6.2811  -6.2809  -6.2757
    -6.2742  -6.2698  -6.2558  -6.2530  -6.2353  -6.2321  -6.2277  -6.2050
    -6.2030  -6.2002  -6.1953  -6.1941  -6.1917  -6.1845  -6.1774  -6.1749
    -6.1716  -6.1659  -6.1637  -6.1520  -6.1479  -6.1471  -6.1419  -6.1347
    -6.1253  -6.1189  -6.1187  -6.1117  -6.1004  -6.0994  -6.0988  -6.0965
    -6.0957  -6.0906  -6.0844  -6.0835  -6.0800  -6.0784  -6.0775  -6.0721
    -6.0532  -6.0508  -6.0479  -6.0407  -6.0390  -6.0364  -6.0264  -6.0256
    -6.0200  -6.0178  -6.0173  -6.0102  -6.0072  -6.0027  -6.0011  -5.9927
    -5.9916  -5.9751  -5.9727  -5.9682  -5.9666  -5.9631  -5.9622  -5.9555
    -5.9523  -5.9504  -5.9488  -5.9457  -5.9452  -5.9399  -5.9313  -5.9289
    -5.9268  -5.9242  -5.9217  -5.9108  -5.9098  -5.9085  -5.8951  -5.8934
    -5.8862  -5.8860  -5.8835  -5.8749  -5.8718  -5.8707  -5.8701  -5.8684
    -5.8636  -5.8551  -5.8503  -5.8480  -5.8392  -5.8381  -5.8318  -5.8263
    -5.8227  -5.8197  -5.8179  -5.8163  -5.8158  -5.8130  -5.8103  -5.8078
    -5.8014  -5.7936  -5.7932  -5.7916  -5.7833  -5.7794  -5.7762  -5.7759
    -5.7707  -5.7685  -5.7663  -5.7648  -5.7611  -5.7542  -5.7534  -5.7486
    -5.7463  -5.7452  -5.7389  -5.7381  -5.7263  -5.7237  -5.7205  -5.7197
    -5.7142  -5.6959  -5.6939  -5.6934  -5.6828  -5.6796  -5.6652  -5.6634
    -5.6610  -5.6504  -5.6375  -5.6367  -5.6297  -5.6166  -5.6145  -5.5990
    -5.5963  -5.5766  -5.5706  -5.5333  -5.4953  -5.4917  -5.4323  -5.3689
    -5.3672  -4.8573  -4.6503  -4.6147  -4.5756  -4.5507  -4.3800  -4.2881
    -4.1540  -4.1477  -3.8904  -3.8876  -3.6267  -2.9824  -2.7356  -2.5772
    -2.5711  -2.4701  -2.3159  -2.2803  -2.1513  -2.1479  -1.9601  -1.8649
    -1.8156  -1.8083  -1.6761  -1.6639  -1.6077  -1.5260  -1.4669  -1.0788
    -1.0732  -0.5747  -0.5697  -0.4324  -0.4093  -0.3062  -0.2108  -0.2069
     0.0783   0.1535   0.1780   0.2282   0.4348   0.4533   0.4593   0.5663
     0.5814   0.7488   1.2092   1.4258   1.4530   1.6578   1.6750   1.8843
     2.0776   2.2002   2.2269   2.2274   2.3152   2.4148   2.4196   2.4557
     2.6611   2.7300   2.7549   2.7606   2.9946   3.0548   3.4633   3.5767
     3.7109   3.8591   3.8645   3.9483   3.9610   3.9802   4.2419   4.6381
     4.6418   4.8061   4.8413   4.8841   4.9984   5.0393   5.1058   5.1238
     5.1914   5.2062   5.2844   5.2950   5.3285   5.3897   5.4421   5.5853
     5.6459   5.6905   5.7004   5.7218   5.9160   5.9462   5.9516   5.9677
     5.9746   6.0608   6.0753   6.1040   6.1152   6.1270   6.1823   6.2266
     6.3075   6.3514   6.3986   6.4240   6.4457   6.5451   6.6793   6.7134
     6.7761   6.7994   6.8313   6.8782   6.8882   6.9540   6.9658   7.0270
     7.0743   7.1291   7.3050   7.3112   7.3294   7.3518   7.3957   7.4211
     7.5083   7.5750   7.5870   7.6731   7.7175   7.7725   7.7842   7.8008
     7.8392   7.8943   7.9181   7.9655   8.0756   8.1018

     occupation numbers 
     1.0000   1.0000   1.0000   1.0000   1.0000   1.0000   1.0000   1.0000
     1.0000   1.0000   1.0000   1.0000   1.0000   1.0000   1.0000   1.0000
     1.0000   1.0000   1.0000   1.0000   1.0000   1.0000   1.0000   1.0000
     1.0000   1.0000   1.0000   1.0000   1.0000   1.0000   1.0000   1.0000
     1.0000   1.0000   1.0000   1.0000   1.0000   1.0000   1.0000   1.0000
     1.0000   1.0000   1.0000   1.0000   1.0000   1.0000   1.0000   1.0000
     1.0000   1.0000   1.0000   1.0000   1.0000   1.0000   1.0000   1.0000
     1.0000   1.0000   1.0000   1.0000   1.0000   1.0000   1.0000   1.0000
     1.0000   1.0000   1.0000   1.0000   1.0000   1.0000   1.0000   1.0000
     1.0000   1.0000   1.0000   1.0000   1.0000   1.0000   1.0000   1.0000
     1.0000   1.0000   1.0000   1.0000   1.0000   1.0000   1.0000   1.0000
     1.0000   1.0000   1.0000   1.0000   1.0000   1.0000   1.0000   1.0000
     1.0000   1.0000   1.0000   1.0000   1.0000   1.0000   1.0000   1.0000
     1.0000   1.0000   1.0000   1.0000   1.0000   1.0000   1.0000   1.0000
     1.0000   1.0000   1.0000   1.0000   1.0000   1.0000   1.0000   1.0000
     1.0000   1.0000   1.0000   1.0000   1.0000   1.0000   1.0000   1.0000
     1.0000   1.0000   1.0000   1.0000   1.0000   1.0000   1.0000   1.0000
     1.0000   1.0000   1.0000   1.0000   1.0000   1.0000   1.0000   1.0000
     1.0000   1.0000   1.0000   1.0000   1.0000   1.0000   1.0000   1.0000
     1.0000   1.0000   1.0000   1.0000   1.0000   1.0000   1.0000   1.0000
     1.0000   1.0000   1.0000   1.0000   1.0000   1.0000   1.0000   1.0000
     1.0000   1.0000   1.0000   1.0000   1.0000   1.0000   1.0000   1.0000
     1.0000   1.0000   1.0000   1.0000   1.0000   1.0000   1.0000   1.0000
     1.0000   1.0000   1.0000   1.0000   1.0000   1.0000   1.0000   1.0000
     1.0000   1.0000   1.0000   1.0000   1.0000   1.0000   1.0000   1.0000
     1.0000   1.0000   1.0000   1.0000   1.0000   1.0000   1.0000   1.0000
     1.0000   1.0000   1.0000   1.0000   1.0000   1.0000   1.0000   1.0000
     1.0000   1.0000   1.0000   1.0000   1.0000   1.0000   1.0000   1.0000
     1.0000   1.0000   1.0000   1.0000   1.0000   1.0000   1.0000   1.0000
     1.0000   1.0000   1.0000   1.0000   1.0000   1.0000   1.0000   1.0000
     1.0000   1.0000   1.0000   1.0000   1.0000   1.0000   1.0000   1.0000
     1.0000   1.0000   1.0000   1.0000   1.0000   1.0000   1.0000   1.0000
     1.0000   1.0000   1.0000   1.0000   1.0000   1.0000   1.0000   1.0000
     1.0000   1.0000   1.0000   1.0000   1.0000   1.0000   1.0000   1.0000
     1.0000   1.0000   1.0000   1.0000   1.0000   1.0000   1.0000   1.0000
     1.0000   1.0000   1.0000   1.0000   1.0000   1.0000   1.0000   1.0000
     1.0000   1.0000   1.0000   1.0000   1.0000   1.0000   1.0000   1.0000
     1.0000   1.0000   1.0000   1.0000   1.0000   1.0000   1.0000   1.0000
     1.0000   1.0000   1.0000   1.0000   1.0000   1.0000   1.0000   1.0000
     1.0000   1.0000   1.0000   1.0000   1.0000   1.0000   1.0000   1.0000
     1.0000   1.0000   1.0000   1.0000   1.0000   1.0000   1.0000   1.0000
     1.0000   1.0000   1.0000   1.0000   1.0000   1.0000   1.0000   1.0000
     1.0000   1.0000   1.0000   1.0000   1.0000   1.0000   1.0000   1.0000
     1.0000   1.0000   1.0000   1.0000   1.0000   1.0000   1.0000   1.0000
     1.0000   1.0000   1.0000   1.0000   1.0000   1.0000   1.0000   1.0000
     1.0000   1.0000   1.0000   1.0000   1.0000   1.0000   1.0000   1.0000
     1.0000   1.0000   1.0000   1.0000   1.0000   1.0000   1.0000   1.0000
     1.0000   1.0000   1.0000   1.0000   1.0000   1.0000   1.0000   1.0000
     1.0000   1.0000   1.0000   1.0000   1.0000   1.0000   1.0000   1.0000
     1.0000   1.0000   1.0000   1.0000   1.0000   1.0000   1.0000   1.0000
     1.0000   1.0000   1.0000   1.0000   1.0000   1.0000   1.0000   1.0000
     1.0000   1.0000   1.0000   1.0000   1.0000   1.0000   1.0000   1.0000
     1.0000   1.0000   1.0000   1.0000   1.0000   1.0000   1.0000   1.0000
     1.0000   1.0000   1.0000   1.0000   1.0000   1.0000   1.0000   1.0000
     1.0000   1.0000   1.0000   1.0000   1.0000   1.0000   1.0000   1.0000
     1.0000   1.0000   1.0000   1.0000   1.0000   1.0000   1.0000   1.0000
     1.0000   1.0000   1.0000   1.0000   1.0000   1.0000   1.0000   1.0000
     1.0000   1.0000   1.0000   1.0000   1.0000   1.0000   1.0000   1.0000
     1.0000   1.0000   1.0000   1.0000   1.0000   1.0000   1.0000   1.0000
     1.0000   1.0000   1.0000   1.0000   1.0000   1.0000   1.0000   1.0000
     1.0000   1.0000   1.0000   1.0000   1.0000   1.0000   1.0000   1.0000
     1.0001   1.0004   1.0006   1.0014   1.0220   1.0265   1.0280   1.0623
     1.0673   1.0529   0.1073   0.0065   0.0042   0.0001   0.0001   0.0000
     0.0000   0.0000   0.0000   0.0000   0.0000   0.0000   0.0000   0.0000
     0.0000   0.0000   0.0000   0.0000   0.0000   0.0000   0.0000   0.0000
     0.0000   0.0000   0.0000   0.0000   0.0000   0.0000   0.0000   0.0000
     0.0000   0.0000   0.0000   0.0000   0.0000   0.0000   0.0000   0.0000
     0.0000   0.0000   0.0000   0.0000   0.0000   0.0000   0.0000   0.0000
     0.0000   0.0000   0.0000   0.0000   0.0000   0.0000   0.0000   0.0000
     0.0000   0.0000   0.0000   0.0000   0.0000   0.0000   0.0000   0.0000
     0.0000   0.0000   0.0000   0.0000   0.0000   0.0000   0.0000   0.0000
     0.0000   0.0000   0.0000   0.0000   0.0000   0.0000   0.0000   0.0000
     0.0000   0.0000   0.0000   0.0000   0.0000   0.0000   0.0000   0.0000
     0.0000   0.0000   0.0000   0.0000   0.0000   0.0000   0.0000   0.0000
     0.0000   0.0000   0.0000   0.0000   0.0000   0.0000

          k = 0.0000-0.5442-0.2769 ( 71974 PWs)   bands (ev):

  -125.4223-125.4203-125.4172-125.4154-125.4090-125.3999-125.3994-125.3986
  -125.3348-125.3333-125.3193-125.3157-125.2677-125.2666-125.2611-125.2602
  -125.2538-125.2492-125.2433-125.2423-125.2410-125.2373-125.2312-125.2265
  -125.2263-125.2248-125.2236-125.2211-125.2091-125.2045-125.1991-125.1944
  -125.1445-125.1420-125.1375-125.1367-125.1045-125.1044-125.1036-125.0990
  -125.0981-125.0798-125.0747-125.0742-125.0725-125.0694-125.0685-125.0658
   -79.5850 -79.5818 -79.5811 -79.5790 -79.5758 -79.5738 -79.5678 -79.5675
   -79.5654 -79.5641 -79.5638 -79.5625 -79.5617 -79.5589 -79.5576 -79.5563
   -79.5555 -79.5546 -79.5530 -79.5480 -79.5453 -79.5434 -79.5428 -79.5425
   -79.4962 -79.4884 -79.4867 -79.4863 -79.4822 -79.4807 -79.4740 -79.4728
   -79.4690 -79.4671 -79.4646 -79.4633 -79.4322 -79.4272 -79.4195 -79.4181
   -79.4150 -79.4147 -79.4139 -79.4135 -79.4131 -79.4115 -79.4098 -79.4094
   -79.4087 -79.4083 -79.4070 -79.4063 -79.4024 -79.3999 -79.3993 -79.3991
   -79.3986 -79.3980 -79.3969 -79.3937 -79.3906 -79.3882 -79.3878 -79.3874
   -79.3874 -79.3869 -79.3859 -79.3857 -79.3851 -79.3850 -79.3840 -79.3834
   -79.3823 -79.3822 -79.3816 -79.3808 -79.3777 -79.3773 -79.3756 -79.3751
   -79.3742 -79.3736 -79.3728 -79.3721 -79.3700 -79.3699 -79.3693 -79.3684
   -79.3540 -79.3498 -79.3473 -79.3459 -79.3406 -79.3363 -79.3355 -79.3286
   -79.3106 -79.3080 -79.3038 -79.3035 -79.3026 -79.2997 -79.2895 -79.2872
   -79.2857 -79.2827 -79.2818 -79.2815 -79.2665 -79.2661 -79.2656 -79.2646
   -79.2615 -79.2609 -79.2599 -79.2589 -79.2537 -79.2523 -79.2486 -79.2480
   -79.2471 -79.2461 -79.2458 -79.2439 -79.2429 -79.2408 -79.2404 -79.2371
   -79.2351 -79.2336 -79.2288 -79.2279 -79.2274 -79.2252 -79.2230 -79.2226
   -79.2210 -79.2202 -79.2178 -79.2178 -79.2142 -79.2069 -79.2067 -79.2022
   -17.2088 -14.9256 -12.5472 -12.0565  -9.2651  -8.8836  -7.9825  -7.9662
    -7.2723  -7.2712  -7.1219  -6.9948  -6.9833  -6.9592  -6.9382  -6.9080
    -6.9047  -6.8974  -6.8935  -6.8907  -6.8818  -6.8766  -6.8691  -6.8420
    -6.8387  -6.8361  -6.8304  -6.8170  -6.8107  -6.8010  -6.8004  -6.7899
    -6.7881  -6.7860  -6.7834  -6.7698  -6.7675  -6.7630  -6.7622  -6.7445
    -6.7385  -6.7359  -6.7312  -6.7307  -6.6885  -6.6825  -6.6784  -6.6769
    -6.6693  -6.6655  -6.6419  -6.6402  -6.6243  -6.6202  -6.6195  -6.6169
    -6.6109  -6.6060  -6.5888  -6.5829  -6.5766  -6.5718  -6.5696  -6.5665
    -6.5548  -6.5528  -6.5373  -6.5339  -6.5037  -6.5024  -6.4686  -6.4674
    -6.4643  -6.4630  -6.4573  -6.4501  -6.4432  -6.4407  -6.4272  -6.4257
    -6.4190  -6.4160  -6.4141  -6.4098  -6.4005  -6.3980  -6.3893  -6.3870
    -6.3753  -6.3692  -6.3645  -6.3622  -6.3562  -6.3536  -6.3518  -6.3471
    -6.3373  -6.3320  -6.3175  -6.3164  -6.3127  -6.3115  -6.3049  -6.2994
    -6.2983  -6.2911  -6.2768  -6.2732  -6.2713  -6.2698  -6.2472  -6.2440
    -6.2389  -6.2366  -6.2266  -6.2218  -6.2146  -6.2031  -6.1880  -6.1834
    -6.1793  -6.1790  -6.1762  -6.1723  -6.1580  -6.1566  -6.1535  -6.1511
    -6.1359  -6.1331  -6.1310  -6.1280  -6.1251  -6.1238  -6.1053  -6.1018
    -6.0835  -6.0816  -6.0783  -6.0765  -6.0628  -6.0596  -6.0584  -6.0556
    -6.0542  -6.0497  -6.0331  -6.0294  -6.0234  -6.0221  -6.0168  -6.0120
    -5.9984  -5.9964  -5.9913  -5.9888  -5.9816  -5.9761  -5.9714  -5.9681
    -5.9616  -5.9591  -5.9507  -5.9498  -5.9461  -5.9430  -5.9396  -5.9387
    -5.9254  -5.9244  -5.9226  -5.9191  -5.9136  -5.9119  -5.9007  -5.8980
    -5.8928  -5.8901  -5.8846  -5.8833  -5.8753  -5.8744  -5.8731  -5.8711
    -5.8617  -5.8577  -5.8539  -5.8516  -5.8496  -5.8431  -5.8410  -5.8399
    -5.8386  -5.8378  -5.8368  -5.8267  -5.8258  -5.8243  -5.8220  -5.8187
    -5.8154  -5.8121  -5.8084  -5.8063  -5.8047  -5.7969  -5.7920  -5.7864
    -5.7849  -5.7833  -5.7824  -5.7713  -5.7690  -5.7622  -5.7620  -5.7557
    -5.7549  -5.7542  -5.7532  -5.7488  -5.7469  -5.7434  -5.7430  -5.7362
    -5.7334  -5.7332  -5.7310  -5.7293  -5.7264  -5.7250  -5.7202  -5.7154
    -5.7127  -5.7050  -5.7003  -5.6966  -5.6963  -5.6840  -5.6802  -5.6777
    -5.6744  -5.6736  -5.6728  -5.6583  -5.6555  -5.6328  -5.6310  -5.6062
    -5.6044  -5.5916  -5.5884  -5.5560  -5.5459  -5.3628  -5.3581  -5.3087
    -5.3034  -4.6562  -4.6254  -4.5967  -4.5752  -4.3805  -4.3782  -4.2886
    -4.0277  -4.0265  -3.8931  -3.8839  -3.6257  -2.8480  -2.8380  -2.7589
    -2.6920  -2.6617  -2.5843  -2.5603  -2.3922  -2.3880  -2.3118  -2.0807
    -2.0789  -1.8509  -1.8303  -1.7772  -1.2916  -1.2903  -1.0387  -1.0311
    -0.9878  -0.9788  -0.5890  -0.5854  -0.5116  -0.5056  -0.4094  -0.0408
    -0.0330   0.2664   0.2746   0.2944   0.3262   0.7257   0.7524   0.7811
     1.0784   1.0985   1.4057   1.4329   1.4716   1.4820   1.6783   1.6921
     2.0160   2.0216   2.5266   2.5434   2.5559   2.5624   2.9449   2.9563
     3.0516   3.0727   3.3026   3.3259   3.4334   3.4413   3.6455   3.6650
     3.7719   3.7768   3.8077   3.8264   3.9424   3.9524   4.0320   4.0503
     4.1930   4.1950   4.5054   4.5406   4.6508   4.8021   4.8234   4.9132
     4.9212   4.9806   4.9948   5.0158   5.0911   5.1316   5.1496   5.2026
     5.3623   5.3896   5.4331   5.4635   5.7172   5.7533   5.7555   5.7784
     5.8201   5.9021   5.9974   6.0106   6.0253   6.0838   6.1513   6.1784
     6.2252   6.2666   6.3369   6.3636   6.4297   6.4387   6.5183   6.5357
     6.5894   6.6845   6.8380   6.8715   6.9071   6.9202   7.0311   7.0614
     7.1176   7.1378   7.1870   7.2368   7.2810   7.4131   7.4984   7.5145
     7.5276   7.6041   7.6885   7.7229   7.7374   7.7930   7.8561   7.9850
     8.0153   8.0770   8.0860   8.1838   8.2422   8.2711

     occupation numbers 
     1.0000   1.0000   1.0000   1.0000   1.0000   1.0000   1.0000   1.0000
     1.0000   1.0000   1.0000   1.0000   1.0000   1.0000   1.0000   1.0000
     1.0000   1.0000   1.0000   1.0000   1.0000   1.0000   1.0000   1.0000
     1.0000   1.0000   1.0000   1.0000   1.0000   1.0000   1.0000   1.0000
     1.0000   1.0000   1.0000   1.0000   1.0000   1.0000   1.0000   1.0000
     1.0000   1.0000   1.0000   1.0000   1.0000   1.0000   1.0000   1.0000
     1.0000   1.0000   1.0000   1.0000   1.0000   1.0000   1.0000   1.0000
     1.0000   1.0000   1.0000   1.0000   1.0000   1.0000   1.0000   1.0000
     1.0000   1.0000   1.0000   1.0000   1.0000   1.0000   1.0000   1.0000
     1.0000   1.0000   1.0000   1.0000   1.0000   1.0000   1.0000   1.0000
     1.0000   1.0000   1.0000   1.0000   1.0000   1.0000   1.0000   1.0000
     1.0000   1.0000   1.0000   1.0000   1.0000   1.0000   1.0000   1.0000
     1.0000   1.0000   1.0000   1.0000   1.0000   1.0000   1.0000   1.0000
     1.0000   1.0000   1.0000   1.0000   1.0000   1.0000   1.0000   1.0000
     1.0000   1.0000   1.0000   1.0000   1.0000   1.0000   1.0000   1.0000
     1.0000   1.0000   1.0000   1.0000   1.0000   1.0000   1.0000   1.0000
     1.0000   1.0000   1.0000   1.0000   1.0000   1.0000   1.0000   1.0000
     1.0000   1.0000   1.0000   1.0000   1.0000   1.0000   1.0000   1.0000
     1.0000   1.0000   1.0000   1.0000   1.0000   1.0000   1.0000   1.0000
     1.0000   1.0000   1.0000   1.0000   1.0000   1.0000   1.0000   1.0000
     1.0000   1.0000   1.0000   1.0000   1.0000   1.0000   1.0000   1.0000
     1.0000   1.0000   1.0000   1.0000   1.0000   1.0000   1.0000   1.0000
     1.0000   1.0000   1.0000   1.0000   1.0000   1.0000   1.0000   1.0000
     1.0000   1.0000   1.0000   1.0000   1.0000   1.0000   1.0000   1.0000
     1.0000   1.0000   1.0000   1.0000   1.0000   1.0000   1.0000   1.0000
     1.0000   1.0000   1.0000   1.0000   1.0000   1.0000   1.0000   1.0000
     1.0000   1.0000   1.0000   1.0000   1.0000   1.0000   1.0000   1.0000
     1.0000   1.0000   1.0000   1.0000   1.0000   1.0000   1.0000   1.0000
     1.0000   1.0000   1.0000   1.0000   1.0000   1.0000   1.0000   1.0000
     1.0000   1.0000   1.0000   1.0000   1.0000   1.0000   1.0000   1.0000
     1.0000   1.0000   1.0000   1.0000   1.0000   1.0000   1.0000   1.0000
     1.0000   1.0000   1.0000   1.0000   1.0000   1.0000   1.0000   1.0000
     1.0000   1.0000   1.0000   1.0000   1.0000   1.0000   1.0000   1.0000
     1.0000   1.0000   1.0000   1.0000   1.0000   1.0000   1.0000   1.0000
     1.0000   1.0000   1.0000   1.0000   1.0000   1.0000   1.0000   1.0000
     1.0000   1.0000   1.0000   1.0000   1.0000   1.0000   1.0000   1.0000
     1.0000   1.0000   1.0000   1.0000   1.0000   1.0000   1.0000   1.0000
     1.0000   1.0000   1.0000   1.0000   1.0000   1.0000   1.0000   1.0000
     1.0000   1.0000   1.0000   1.0000   1.0000   1.0000   1.0000   1.0000
     1.0000   1.0000   1.0000   1.0000   1.0000   1.0000   1.0000   1.0000
     1.0000   1.0000   1.0000   1.0000   1.0000   1.0000   1.0000   1.0000
     1.0000   1.0000   1.0000   1.0000   1.0000   1.0000   1.0000   1.0000
     1.0000   1.0000   1.0000   1.0000   1.0000   1.0000   1.0000   1.0000
     1.0000   1.0000   1.0000   1.0000   1.0000   1.0000   1.0000   1.0000
     1.0000   1.0000   1.0000   1.0000   1.0000   1.0000   1.0000   1.0000
     1.0000   1.0000   1.0000   1.0000   1.0000   1.0000   1.0000   1.0000
     1.0000   1.0000   1.0000   1.0000   1.0000   1.0000   1.0000   1.0000
     1.0000   1.0000   1.0000   1.0000   1.0000   1.0000   1.0000   1.0000
     1.0000   1.0000   1.0000   1.0000   1.0000   1.0000   1.0000   1.0000
     1.0000   1.0000   1.0000   1.0000   1.0000   1.0000   1.0000   1.0000
     1.0000   1.0000   1.0000   1.0000   1.0000   1.0000   1.0000   1.0000
     1.0000   1.0000   1.0000   1.0000   1.0000   1.0000   1.0000   1.0000
     1.0000   1.0000   1.0000   1.0000   1.0000   1.0000   1.0000   1.0000
     1.0000   1.0000   1.0000   1.0000   1.0000   1.0000   1.0000   1.0000
     1.0000   1.0000   1.0000   1.0000   1.0000   1.0000   1.0000   1.0000
     1.0000   1.0000   1.0000   1.0000   1.0000   1.0000   1.0000   1.0000
     1.0000   1.0000   1.0000   1.0000   1.0000   1.0000   1.0000   1.0000
     1.0000   1.0000   1.0000   1.0000   1.0000   1.0000   1.0000   1.0000
     1.0000   1.0000   1.0000   1.0000   1.0000   1.0000   1.0000   1.0000
     1.0000   1.0000   1.0000   1.0000   1.0000   1.0000   1.0000   1.0000
     1.0000   1.0000   1.0000   1.0000   1.0000   1.0000   1.0000   1.0000
     1.0000   1.0026   1.0029   1.0039   1.0061   1.0681   1.0501   1.0213
     0.3285   0.2842   0.0089   0.0058   0.0031   0.0026   0.0001   0.0000
     0.0000   0.0000   0.0000   0.0000   0.0000   0.0000   0.0000   0.0000
     0.0000   0.0000   0.0000   0.0000   0.0000   0.0000   0.0000   0.0000
     0.0000   0.0000   0.0000   0.0000   0.0000   0.0000   0.0000   0.0000
     0.0000   0.0000   0.0000   0.0000   0.0000   0.0000   0.0000   0.0000
     0.0000   0.0000   0.0000   0.0000   0.0000   0.0000   0.0000   0.0000
     0.0000   0.0000   0.0000   0.0000   0.0000   0.0000   0.0000   0.0000
     0.0000   0.0000   0.0000   0.0000   0.0000   0.0000   0.0000   0.0000
     0.0000   0.0000   0.0000   0.0000   0.0000   0.0000   0.0000   0.0000
     0.0000   0.0000   0.0000   0.0000   0.0000   0.0000   0.0000   0.0000
     0.0000   0.0000   0.0000   0.0000   0.0000   0.0000   0.0000   0.0000
     0.0000   0.0000   0.0000   0.0000   0.0000   0.0000   0.0000   0.0000
     0.0000   0.0000   0.0000   0.0000   0.0000   0.0000

          k =-0.5000-0.1216-1.1076 ( 71976 PWs)   bands (ev):

  -125.4223-125.4203-125.4172-125.4154-125.4090-125.3999-125.3994-125.3986
  -125.3348-125.3333-125.3193-125.3157-125.2677-125.2666-125.2611-125.2602
  -125.2538-125.2492-125.2433-125.2423-125.2410-125.2373-125.2312-125.2266
  -125.2262-125.2248-125.2235-125.2211-125.2091-125.2045-125.1991-125.1944
  -125.1445-125.1420-125.1375-125.1367-125.1045-125.1044-125.1036-125.0991
  -125.0981-125.0798-125.0747-125.0742-125.0725-125.0694-125.0685-125.0658
   -79.5873 -79.5811 -79.5790 -79.5758 -79.5748 -79.5744 -79.5738 -79.5690
   -79.5654 -79.5643 -79.5627 -79.5616 -79.5588 -79.5576 -79.5571 -79.5562
   -79.5556 -79.5546 -79.5531 -79.5528 -79.5448 -79.5435 -79.5427 -79.5412
   -79.4969 -79.4884 -79.4867 -79.4841 -79.4820 -79.4806 -79.4765 -79.4728
   -79.4690 -79.4671 -79.4641 -79.4630 -79.4339 -79.4220 -79.4198 -79.4189
   -79.4177 -79.4150 -79.4149 -79.4138 -79.4130 -79.4119 -79.4098 -79.4093
   -79.4086 -79.4071 -79.4069 -79.4069 -79.4024 -79.3995 -79.3989 -79.3982
   -79.3972 -79.3969 -79.3949 -79.3939 -79.3928 -79.3911 -79.3907 -79.3879
   -79.3878 -79.3868 -79.3857 -79.3852 -79.3848 -79.3842 -79.3835 -79.3822
   -79.3816 -79.3807 -79.3807 -79.3792 -79.3777 -79.3776 -79.3773 -79.3757
   -79.3750 -79.3742 -79.3736 -79.3728 -79.3718 -79.3700 -79.3684 -79.3660
   -79.3550 -79.3499 -79.3461 -79.3426 -79.3411 -79.3397 -79.3362 -79.3275
   -79.3106 -79.3080 -79.3058 -79.3035 -79.3026 -79.2936 -79.2921 -79.2895
   -79.2871 -79.2826 -79.2815 -79.2799 -79.2670 -79.2665 -79.2661 -79.2655
   -79.2609 -79.2600 -79.2589 -79.2554 -79.2543 -79.2528 -79.2517 -79.2488
   -79.2477 -79.2463 -79.2460 -79.2439 -79.2410 -79.2407 -79.2404 -79.2371
   -79.2351 -79.2336 -79.2288 -79.2278 -79.2268 -79.2259 -79.2231 -79.2226
   -79.2208 -79.2197 -79.2180 -79.2145 -79.2140 -79.2127 -79.2062 -79.2004
   -17.2088 -14.9256 -12.5472 -12.0565  -9.2651  -8.8837  -8.1358  -7.9454
    -7.1858  -7.1263  -7.0949  -7.0934  -7.0908  -7.0682  -7.0393  -6.9697
    -6.9538  -6.9321  -6.9275  -6.8993  -6.8906  -6.8905  -6.8784  -6.8635
    -6.8607  -6.8339  -6.8310  -6.8127  -6.8001  -6.7834  -6.7572  -6.7562
    -6.7411  -6.7323  -6.7240  -6.7218  -6.7170  -6.7002  -6.6989  -6.6974
    -6.6941  -6.6905  -6.6883  -6.6862  -6.6593  -6.6580  -6.6574  -6.6532
    -6.6493  -6.6423  -6.6372  -6.6347  -6.6319  -6.6290  -6.6058  -6.6023
    -6.5959  -6.5689  -6.5684  -6.5670  -6.5605  -6.5491  -6.5469  -6.5424
    -6.5408  -6.5238  -6.5229  -6.5125  -6.5056  -6.5015  -6.5006  -6.4924
    -6.4896  -6.4823  -6.4819  -6.4639  -6.4627  -6.4604  -6.4511  -6.4307
    -6.4168  -6.4140  -6.4122  -6.4110  -6.3900  -6.3837  -6.3820  -6.3722
    -6.3673  -6.3648  -6.3621  -6.3428  -6.3415  -6.3352  -6.3309  -6.3140
    -6.3071  -6.3062  -6.2956  -6.2875  -6.2805  -6.2787  -6.2757  -6.2753
    -6.2697  -6.2565  -6.2548  -6.2534  -6.2455  -6.2361  -6.2335  -6.2042
    -6.2032  -6.2015  -6.1958  -6.1940  -6.1924  -6.1814  -6.1803  -6.1760
    -6.1740  -6.1679  -6.1645  -6.1629  -6.1486  -6.1462  -6.1378  -6.1346
    -6.1304  -6.1283  -6.1186  -6.1173  -6.1008  -6.1002  -6.0983  -6.0968
    -6.0957  -6.0906  -6.0875  -6.0858  -6.0831  -6.0812  -6.0781  -6.0760
    -6.0505  -6.0463  -6.0410  -6.0394  -6.0388  -6.0329  -6.0250  -6.0240
    -6.0182  -6.0171  -6.0155  -6.0135  -6.0125  -6.0047  -6.0042  -5.9995
    -5.9948  -5.9927  -5.9910  -5.9748  -5.9690  -5.9679  -5.9648  -5.9608
    -5.9578  -5.9527  -5.9512  -5.9480  -5.9470  -5.9451  -5.9402  -5.9309
    -5.9291  -5.9270  -5.9263  -5.9215  -5.9108  -5.9094  -5.9056  -5.8943
    -5.8856  -5.8831  -5.8782  -5.8755  -5.8717  -5.8703  -5.8680  -5.8620
    -5.8563  -5.8535  -5.8509  -5.8486  -5.8378  -5.8359  -5.8337  -5.8303
    -5.8273  -5.8204  -5.8171  -5.8163  -5.8129  -5.8098  -5.8071  -5.8049
    -5.7963  -5.7935  -5.7928  -5.7914  -5.7812  -5.7769  -5.7753  -5.7739
    -5.7697  -5.7670  -5.7651  -5.7609  -5.7525  -5.7490  -5.7479  -5.7466
    -5.7456  -5.7400  -5.7393  -5.7383  -5.7380  -5.7213  -5.7197  -5.7037
    -5.6945  -5.6933  -5.6888  -5.6861  -5.6840  -5.6659  -5.6644  -5.6585
    -5.6471  -5.6458  -5.6384  -5.6379  -5.6230  -5.6091  -5.6082  -5.5757
    -5.5575  -5.5562  -5.5373  -5.4831  -5.4807  -5.4279  -5.3698  -5.3664
    -5.2637  -4.7170  -4.6522  -4.6149  -4.5762  -4.5507  -4.5197  -4.2881
    -4.1524  -4.1494  -3.8927  -3.8853  -3.6283  -3.2033  -3.1146  -2.8478
    -2.7122  -2.5779  -2.5703  -2.3157  -2.1502  -2.1480  -2.0263  -2.0171
    -2.0096  -1.8126  -1.6748  -1.6636  -1.0803  -1.0736  -0.9730  -0.9575
    -0.6576  -0.6027  -0.5949  -0.4093  -0.3958  -0.2931  -0.2125  -0.2066
    -0.1634   0.1012   0.4536   0.4563   0.5121   0.5647   0.5816   0.6041
     0.7542   0.7619   0.8300   1.0987   1.1014   1.1286   1.6558   1.6775
     2.2230   2.2246   2.2795   2.3459   2.4150   2.4188   2.6139   2.7472
     2.7536   2.7635   3.0759   3.1892   3.3163   3.4307   3.4528   3.5117
     3.6827   3.7582   3.7667   3.8645   3.8667   3.9613   3.9705   4.0693
     4.2651   4.4018   4.6399   4.7183   4.8071   4.8447   4.8788   4.9817
     5.0364   5.1815   5.1974   5.2163   5.2826   5.2925   5.3632   5.3879
     5.4342   5.4504   5.5824   5.6430   5.6554   5.6852   5.7030   5.7183
     5.9541   5.9595   6.1054   6.1146   6.1234   6.1849   6.1925   6.2316
     6.3081   6.4413   6.4954   6.5211   6.6754   6.8081   6.8161   6.8912
     6.9396   6.9499   6.9605   6.9810   7.0323   7.0914   7.1215   7.1647
     7.2842   7.3082   7.3210   7.3914   7.4049   7.4529   7.5162   7.5830
     7.6044   7.6589   7.6867   7.7156   7.7352   7.7921   7.8189   7.9509
     7.9615   7.9784   8.0116   8.0891   8.1036   8.1566

     occupation numbers 
     1.0000   1.0000   1.0000   1.0000   1.0000   1.0000   1.0000   1.0000
     1.0000   1.0000   1.0000   1.0000   1.0000   1.0000   1.0000   1.0000
     1.0000   1.0000   1.0000   1.0000   1.0000   1.0000   1.0000   1.0000
     1.0000   1.0000   1.0000   1.0000   1.0000   1.0000   1.0000   1.0000
     1.0000   1.0000   1.0000   1.0000   1.0000   1.0000   1.0000   1.0000
     1.0000   1.0000   1.0000   1.0000   1.0000   1.0000   1.0000   1.0000
     1.0000   1.0000   1.0000   1.0000   1.0000   1.0000   1.0000   1.0000
     1.0000   1.0000   1.0000   1.0000   1.0000   1.0000   1.0000   1.0000
     1.0000   1.0000   1.0000   1.0000   1.0000   1.0000   1.0000   1.0000
     1.0000   1.0000   1.0000   1.0000   1.0000   1.0000   1.0000   1.0000
     1.0000   1.0000   1.0000   1.0000   1.0000   1.0000   1.0000   1.0000
     1.0000   1.0000   1.0000   1.0000   1.0000   1.0000   1.0000   1.0000
     1.0000   1.0000   1.0000   1.0000   1.0000   1.0000   1.0000   1.0000
     1.0000   1.0000   1.0000   1.0000   1.0000   1.0000   1.0000   1.0000
     1.0000   1.0000   1.0000   1.0000   1.0000   1.0000   1.0000   1.0000
     1.0000   1.0000   1.0000   1.0000   1.0000   1.0000   1.0000   1.0000
     1.0000   1.0000   1.0000   1.0000   1.0000   1.0000   1.0000   1.0000
     1.0000   1.0000   1.0000   1.0000   1.0000   1.0000   1.0000   1.0000
     1.0000   1.0000   1.0000   1.0000   1.0000   1.0000   1.0000   1.0000
     1.0000   1.0000   1.0000   1.0000   1.0000   1.0000   1.0000   1.0000
     1.0000   1.0000   1.0000   1.0000   1.0000   1.0000   1.0000   1.0000
     1.0000   1.0000   1.0000   1.0000   1.0000   1.0000   1.0000   1.0000
     1.0000   1.0000   1.0000   1.0000   1.0000   1.0000   1.0000   1.0000
     1.0000   1.0000   1.0000   1.0000   1.0000   1.0000   1.0000   1.0000
     1.0000   1.0000   1.0000   1.0000   1.0000   1.0000   1.0000   1.0000
     1.0000   1.0000   1.0000   1.0000   1.0000   1.0000   1.0000   1.0000
     1.0000   1.0000   1.0000   1.0000   1.0000   1.0000   1.0000   1.0000
     1.0000   1.0000   1.0000   1.0000   1.0000   1.0000   1.0000   1.0000
     1.0000   1.0000   1.0000   1.0000   1.0000   1.0000   1.0000   1.0000
     1.0000   1.0000   1.0000   1.0000   1.0000   1.0000   1.0000   1.0000
     1.0000   1.0000   1.0000   1.0000   1.0000   1.0000   1.0000   1.0000
     1.0000   1.0000   1.0000   1.0000   1.0000   1.0000   1.0000   1.0000
     1.0000   1.0000   1.0000   1.0000   1.0000   1.0000   1.0000   1.0000
     1.0000   1.0000   1.0000   1.0000   1.0000   1.0000   1.0000   1.0000
     1.0000   1.0000   1.0000   1.0000   1.0000   1.0000   1.0000   1.0000
     1.0000   1.0000   1.0000   1.0000   1.0000   1.0000   1.0000   1.0000
     1.0000   1.0000   1.0000   1.0000   1.0000   1.0000   1.0000   1.0000
     1.0000   1.0000   1.0000   1.0000   1.0000   1.0000   1.0000   1.0000
     1.0000   1.0000   1.0000   1.0000   1.0000   1.0000   1.0000   1.0000
     1.0000   1.0000   1.0000   1.0000   1.0000   1.0000   1.0000   1.0000
     1.0000   1.0000   1.0000   1.0000   1.0000   1.0000   1.0000   1.0000
     1.0000   1.0000   1.0000   1.0000   1.0000   1.0000   1.0000   1.0000
     1.0000   1.0000   1.0000   1.0000   1.0000   1.0000   1.0000   1.0000
     1.0000   1.0000   1.0000   1.0000   1.0000   1.0000   1.0000   1.0000
     1.0000   1.0000   1.0000   1.0000   1.0000   1.0000   1.0000   1.0000
     1.0000   1.0000   1.0000   1.0000   1.0000   1.0000   1.0000   1.0000
     1.0000   1.0000   1.0000   1.0000   1.0000   1.0000   1.0000   1.0000
     1.0000   1.0000   1.0000   1.0000   1.0000   1.0000   1.0000   1.0000
     1.0000   1.0000   1.0000   1.0000   1.0000   1.0000   1.0000   1.0000
     1.0000   1.0000   1.0000   1.0000   1.0000   1.0000   1.0000   1.0000
     1.0000   1.0000   1.0000   1.0000   1.0000   1.0000   1.0000   1.0000
     1.0000   1.0000   1.0000   1.0000   1.0000   1.0000   1.0000   1.0000
     1.0000   1.0000   1.0000   1.0000   1.0000   1.0000   1.0000   1.0000
     1.0000   1.0000   1.0000   1.0000   1.0000   1.0000   1.0000   1.0000
     1.0000   1.0000   1.0000   1.0000   1.0000   1.0000   1.0000   1.0000
     1.0000   1.0000   1.0000   1.0000   1.0000   1.0000   1.0000   1.0000
     1.0000   1.0000   1.0000   1.0000   1.0000   1.0000   1.0000   1.0000
     1.0000   1.0000   1.0000   1.0000   1.0000   1.0000   1.0000   1.0000
     1.0000   1.0000   1.0000   1.0000   1.0000   1.0000   1.0000   1.0000
     1.0000   1.0000   1.0000   1.0000   1.0000   1.0000   1.0000   1.0000
     1.0000   1.0000   1.0000   1.0000   1.0000   1.0000   1.0000   1.0000
     1.0000   1.0001   1.0265   1.0272   1.0438   1.0618   1.0674   1.0741
     1.0485   1.0416   0.9491   0.2838   0.2782   0.2246   0.0001   0.0001
     0.0000   0.0000   0.0000   0.0000   0.0000   0.0000   0.0000   0.0000
     0.0000   0.0000   0.0000   0.0000   0.0000   0.0000   0.0000   0.0000
     0.0000   0.0000   0.0000   0.0000   0.0000   0.0000   0.0000   0.0000
     0.0000   0.0000   0.0000   0.0000   0.0000   0.0000   0.0000   0.0000
     0.0000   0.0000   0.0000   0.0000   0.0000   0.0000   0.0000   0.0000
     0.0000   0.0000   0.0000   0.0000   0.0000   0.0000   0.0000   0.0000
     0.0000   0.0000   0.0000   0.0000   0.0000   0.0000   0.0000   0.0000
     0.0000   0.0000   0.0000   0.0000   0.0000   0.0000   0.0000   0.0000
     0.0000   0.0000   0.0000   0.0000   0.0000   0.0000   0.0000   0.0000
     0.0000   0.0000   0.0000   0.0000   0.0000   0.0000   0.0000   0.0000
     0.0000   0.0000   0.0000   0.0000   0.0000   0.0000   0.0000   0.0000
     0.0000   0.0000   0.0000   0.0000   0.0000   0.0000

          k =-0.5000-0.6659-1.3845 ( 72036 PWs)   bands (ev):

  -125.4223-125.4203-125.4172-125.4154-125.4090-125.3999-125.3994-125.3986
  -125.3348-125.3333-125.3193-125.3157-125.2677-125.2666-125.2611-125.2602
  -125.2538-125.2492-125.2433-125.2423-125.2410-125.2373-125.2312-125.2265
  -125.2263-125.2248-125.2236-125.2211-125.2091-125.2045-125.1991-125.1944
  -125.1445-125.1420-125.1375-125.1367-125.1045-125.1044-125.1036-125.0990
  -125.0981-125.0798-125.0747-125.0742-125.0725-125.0694-125.0685-125.0658
   -79.5850 -79.5818 -79.5811 -79.5790 -79.5758 -79.5738 -79.5678 -79.5675
   -79.5654 -79.5641 -79.5638 -79.5625 -79.5617 -79.5589 -79.5576 -79.5563
   -79.5555 -79.5546 -79.5530 -79.5480 -79.5453 -79.5434 -79.5428 -79.5425
   -79.4962 -79.4884 -79.4867 -79.4863 -79.4822 -79.4807 -79.4740 -79.4728
   -79.4690 -79.4671 -79.4646 -79.4633 -79.4322 -79.4272 -79.4195 -79.4180
   -79.4150 -79.4147 -79.4138 -79.4135 -79.4131 -79.4115 -79.4098 -79.4094
   -79.4087 -79.4083 -79.4070 -79.4063 -79.4024 -79.3999 -79.3993 -79.3991
   -79.3986 -79.3980 -79.3969 -79.3938 -79.3906 -79.3882 -79.3878 -79.3874
   -79.3874 -79.3869 -79.3859 -79.3857 -79.3851 -79.3850 -79.3840 -79.3834
   -79.3823 -79.3822 -79.3816 -79.3808 -79.3777 -79.3773 -79.3756 -79.3751
   -79.3742 -79.3736 -79.3728 -79.3721 -79.3700 -79.3699 -79.3693 -79.3684
   -79.3540 -79.3498 -79.3473 -79.3459 -79.3406 -79.3363 -79.3355 -79.3286
   -79.3106 -79.3080 -79.3038 -79.3035 -79.3026 -79.2997 -79.2895 -79.2872
   -79.2857 -79.2827 -79.2818 -79.2815 -79.2665 -79.2661 -79.2656 -79.2646
   -79.2615 -79.2609 -79.2599 -79.2589 -79.2537 -79.2523 -79.2486 -79.2480
   -79.2471 -79.2461 -79.2458 -79.2439 -79.2429 -79.2408 -79.2404 -79.2371
   -79.2351 -79.2336 -79.2288 -79.2279 -79.2274 -79.2252 -79.2230 -79.2226
   -79.2210 -79.2202 -79.2178 -79.2178 -79.2142 -79.2069 -79.2067 -79.2022
   -17.2088 -14.9256 -12.5472 -12.0566  -9.2651  -8.8836  -7.8585  -7.8405
    -7.5380  -7.5290  -7.1217  -6.9895  -6.9817  -6.9224  -6.9207  -6.8996
    -6.8941  -6.8922  -6.8910  -6.8859  -6.8814  -6.8726  -6.8668  -6.8549
    -6.8519  -6.8310  -6.8243  -6.8223  -6.8202  -6.8081  -6.8018  -6.8009
    -6.7973  -6.7730  -6.7719  -6.7664  -6.7653  -6.7589  -6.7519  -6.7454
    -6.7395  -6.7322  -6.7121  -6.7061  -6.6855  -6.6813  -6.6787  -6.6767
    -6.6668  -6.6588  -6.6403  -6.6357  -6.6286  -6.6245  -6.6200  -6.6159
    -6.6011  -6.5966  -6.5900  -6.5849  -6.5761  -6.5725  -6.5689  -6.5622
    -6.5528  -6.5467  -6.5326  -6.5298  -6.5063  -6.5033  -6.4875  -6.4831
    -6.4736  -6.4671  -6.4611  -6.4559  -6.4358  -6.4345  -6.4300  -6.4280
    -6.4223  -6.4194  -6.4169  -6.4147  -6.4081  -6.3969  -6.3811  -6.3784
    -6.3660  -6.3611  -6.3587  -6.3552  -6.3512  -6.3445  -6.3421  -6.3407
    -6.3283  -6.3265  -6.3253  -6.3213  -6.3116  -6.3106  -6.3067  -6.3057
    -6.3027  -6.3015  -6.2870  -6.2850  -6.2627  -6.2623  -6.2412  -6.2401
    -6.2385  -6.2370  -6.2063  -6.2049  -6.1979  -6.1974  -6.1946  -6.1908
    -6.1879  -6.1853  -6.1691  -6.1649  -6.1606  -6.1597  -6.1482  -6.1456
    -6.1342  -6.1323  -6.1284  -6.1263  -6.1141  -6.1106  -6.1072  -6.1069
    -6.0918  -6.0887  -6.0870  -6.0847  -6.0759  -6.0743  -6.0712  -6.0677
    -6.0511  -6.0466  -6.0392  -6.0356  -6.0329  -6.0313  -6.0259  -6.0224
    -6.0151  -6.0107  -6.0009  -5.9983  -5.9796  -5.9766  -5.9659  -5.9656
    -5.9613  -5.9558  -5.9509  -5.9500  -5.9491  -5.9450  -5.9431  -5.9390
    -5.9372  -5.9333  -5.9287  -5.9242  -5.9082  -5.9038  -5.9022  -5.8989
    -5.8874  -5.8864  -5.8843  -5.8840  -5.8826  -5.8787  -5.8781  -5.8765
    -5.8676  -5.8639  -5.8580  -5.8578  -5.8534  -5.8484  -5.8466  -5.8442
    -5.8412  -5.8374  -5.8362  -5.8338  -5.8325  -5.8263  -5.8238  -5.8129
    -5.8098  -5.8040  -5.8013  -5.7994  -5.7968  -5.7957  -5.7940  -5.7879
    -5.7873  -5.7781  -5.7763  -5.7760  -5.7739  -5.7704  -5.7687  -5.7677
    -5.7667  -5.7609  -5.7553  -5.7512  -5.7504  -5.7481  -5.7473  -5.7391
    -5.7384  -5.7362  -5.7317  -5.7277  -5.7255  -5.7187  -5.7178  -5.7057
    -5.7030  -5.7019  -5.7005  -5.6930  -5.6900  -5.6850  -5.6826  -5.6810
    -5.6784  -5.6759  -5.6747  -5.6612  -5.6575  -5.6343  -5.6294  -5.6288
    -5.6271  -5.5859  -5.5844  -5.5341  -5.5251  -5.2962  -5.2904  -4.9420
    -4.9380  -4.6938  -4.6854  -4.6378  -4.5856  -4.4967  -4.4929  -4.2889
    -3.7381  -3.7366  -3.6291  -3.6073  -3.6033  -3.1957  -3.1862  -2.9765
    -2.9683  -2.8549  -2.8536  -2.7500  -2.5877  -2.5721  -2.3934  -2.3596
    -2.3073  -1.9729  -1.9657  -1.8022  -1.5573  -1.5482  -1.2203  -1.2198
    -0.4096  -0.1770  -0.1707  -0.1307  -0.1211   0.0316   0.0454   0.0909
     0.0941   0.6197   0.6369   0.7098   0.7465   0.7607   0.7677   0.8176
     1.2061   1.2175   1.2796   1.3002   1.3035   1.3103   1.7125   1.7176
     1.9066   1.9338   2.0078   2.0257   2.2186   2.2336   2.5329   2.5351
     2.9416   2.9652   3.1410   3.1546   3.1595   3.1714   3.4325   3.4430
     3.7401   3.7491   3.7687   3.7796   3.9565   3.9788   4.0252   4.0492
     4.1988   4.2192   4.2744   4.2938   4.5759   4.5824   4.6201   4.6338
     4.6593   4.9919   5.0021   5.0303   5.0512   5.0888   5.2828   5.3545
     5.4174   5.4223   5.6610   5.7321   5.7995   5.8032   5.8747   5.8822
     5.9076   5.9125   5.9525   5.9806   6.0426   6.0504   6.2677   6.2876
[...]

     total energy              =  -22293.65245409 Ry
     estimated scf accuracy    <       0.00000351 Ry

     iteration #179     ecut=    40.00 Ry     beta= 0.40
     Davidson diagonalization with overlap

---- Real-time Memory Report at c_bands before calling an iterative solver
           466 MiB given to the printing process from OS
             0 MiB allocation reported by mallinfo(arena+hblkhd)
          7276 MiB available memory on the node where the printing process lives
------------------
     ethr =  1.38E-10,  avg # of iterations =  3.0

     negative rho (up, down):  3.942E-03 0.000E+00

     total cpu time spent up to now is   121923.9 secs

     total energy              =  -22293.65245336 Ry
     estimated scf accuracy    <       0.00000161 Ry

     iteration #180     ecut=    40.00 Ry     beta= 0.40
     Davidson diagonalization with overlap

---- Real-time Memory Report at c_bands before calling an iterative solver
           466 MiB given to the printing process from OS
             0 MiB allocation reported by mallinfo(arena+hblkhd)
          7280 MiB available memory on the node where the printing process lives
------------------
     ethr =  1.38E-10,  avg # of iterations =  2.0

     negative rho (up, down):  3.942E-03 0.000E+00

     total cpu time spent up to now is   122127.6 secs

     total energy              =  -22293.65245462 Ry
     estimated scf accuracy    <       0.00000141 Ry

     iteration #181     ecut=    40.00 Ry     beta= 0.40
     Davidson diagonalization with overlap

---- Real-time Memory Report at c_bands before calling an iterative solver
           466 MiB given to the printing process from OS
             0 MiB allocation reported by mallinfo(arena+hblkhd)
          7277 MiB available memory on the node where the printing process lives
------------------
     ethr =  1.38E-10,  avg # of iterations =  3.0

     negative rho (up, down):  3.942E-03 0.000E+00

     total cpu time spent up to now is   122335.0 secs

     total energy              =  -22293.65245585 Ry
     estimated scf accuracy    <       0.00000145 Ry

     iteration #182     ecut=    40.00 Ry     beta= 0.40
     Davidson diagonalization with overlap

---- Real-time Memory Report at c_bands before calling an iterative solver
           466 MiB given to the printing process from OS
             0 MiB allocation reported by mallinfo(arena+hblkhd)
          7281 MiB available memory on the node where the printing process lives
------------------
     ethr =  1.38E-10,  avg # of iterations =  3.0

     negative rho (up, down):  3.942E-03 0.000E+00

     total cpu time spent up to now is   122542.9 secs

     total energy              =  -22293.65245590 Ry
     estimated scf accuracy    <       0.00000209 Ry

     iteration #183     ecut=    40.00 Ry     beta= 0.40
     Davidson diagonalization with overlap

---- Real-time Memory Report at c_bands before calling an iterative solver
           466 MiB given to the printing process from OS
             0 MiB allocation reported by mallinfo(arena+hblkhd)
          7280 MiB available memory on the node where the printing process lives
------------------
     ethr =  1.38E-10,  avg # of iterations =  1.0

     negative rho (up, down):  3.942E-03 0.000E+00

     total cpu time spent up to now is   122711.0 secs

     total energy              =  -22293.65245581 Ry
     estimated scf accuracy    <       0.00000231 Ry

     iteration #184     ecut=    40.00 Ry     beta= 0.40
     Davidson diagonalization with overlap

---- Real-time Memory Report at c_bands before calling an iterative solver
           466 MiB given to the printing process from OS
             0 MiB allocation reported by mallinfo(arena+hblkhd)
          7280 MiB available memory on the node where the printing process lives
------------------
     ethr =  1.38E-10,  avg # of iterations =  1.0

     negative rho (up, down):  3.942E-03 0.000E+00

     total cpu time spent up to now is   122878.7 secs

     total energy              =  -22293.65245587 Ry
     estimated scf accuracy    <       0.00000226 Ry

     iteration #185     ecut=    40.00 Ry     beta= 0.40
     Davidson diagonalization with overlap

---- Real-time Memory Report at c_bands before calling an iterative solver
           466 MiB given to the printing process from OS
             0 MiB allocation reported by mallinfo(arena+hblkhd)
          7285 MiB available memory on the node where the printing process lives
------------------
     ethr =  1.38E-10,  avg # of iterations =  1.0

     negative rho (up, down):  3.942E-03 0.000E+00

     total cpu time spent up to now is   123046.3 secs

     total energy              =  -22293.65245901 Ry
     estimated scf accuracy    <       0.00000230 Ry

     iteration #186     ecut=    40.00 Ry     beta= 0.40
     Davidson diagonalization with overlap

---- Real-time Memory Report at c_bands before calling an iterative solver
           466 MiB given to the printing process from OS
             0 MiB allocation reported by mallinfo(arena+hblkhd)
          7280 MiB available memory on the node where the printing process lives
------------------
     ethr =  1.38E-10,  avg # of iterations =  3.0

     negative rho (up, down):  3.942E-03 0.000E+00

     total cpu time spent up to now is   123256.6 secs

     total energy              =  -22293.65245452 Ry
     estimated scf accuracy    <       0.00000606 Ry

     iteration #187     ecut=    40.00 Ry     beta= 0.40
     Davidson diagonalization with overlap

---- Real-time Memory Report at c_bands before calling an iterative solver
           466 MiB given to the printing process from OS
             0 MiB allocation reported by mallinfo(arena+hblkhd)
          7281 MiB available memory on the node where the printing process lives
------------------
     ethr =  1.38E-10,  avg # of iterations =  4.2

     negative rho (up, down):  3.942E-03 0.000E+00

     total cpu time spent up to now is   123484.5 secs

     total energy              =  -22293.65245167 Ry
     estimated scf accuracy    <       0.00000159 Ry

     iteration #188     ecut=    40.00 Ry     beta= 0.40
     Davidson diagonalization with overlap

---- Real-time Memory Report at c_bands before calling an iterative solver
           466 MiB given to the printing process from OS
             0 MiB allocation reported by mallinfo(arena+hblkhd)
          7281 MiB available memory on the node where the printing process lives
------------------
     ethr =  1.38E-10,  avg # of iterations =  4.0

     negative rho (up, down):  3.942E-03 0.000E+00

     total cpu time spent up to now is   123700.8 secs

     total energy              =  -22293.65244497 Ry
     estimated scf accuracy    <       0.00000499 Ry

     iteration #189     ecut=    40.00 Ry     beta= 0.40
     Davidson diagonalization with overlap

---- Real-time Memory Report at c_bands before calling an iterative solver
           466 MiB given to the printing process from OS
             0 MiB allocation reported by mallinfo(arena+hblkhd)
          7280 MiB available memory on the node where the printing process lives
------------------
     ethr =  1.38E-10,  avg # of iterations =  4.0

     negative rho (up, down):  3.942E-03 0.000E+00

     total cpu time spent up to now is   123922.3 secs

     total energy              =  -22293.65246256 Ry
     estimated scf accuracy    <       0.00002245 Ry

     iteration #190     ecut=    40.00 Ry     beta= 0.40
     Davidson diagonalization with overlap

---- Real-time Memory Report at c_bands before calling an iterative solver
           466 MiB given to the printing process from OS
             0 MiB allocation reported by mallinfo(arena+hblkhd)
          7275 MiB available memory on the node where the printing process lives
------------------
     ethr =  1.38E-10,  avg # of iterations =  4.2

     negative rho (up, down):  3.942E-03 0.000E+00

     total cpu time spent up to now is   124150.4 secs

     total energy              =  -22293.65245534 Ry
     estimated scf accuracy    <       0.00000311 Ry

     iteration #191     ecut=    40.00 Ry     beta= 0.40
     Davidson diagonalization with overlap

---- Real-time Memory Report at c_bands before calling an iterative solver
           466 MiB given to the printing process from OS
             0 MiB allocation reported by mallinfo(arena+hblkhd)
          7281 MiB available memory on the node where the printing process lives
------------------
     ethr =  1.38E-10,  avg # of iterations =  3.5

     negative rho (up, down):  3.942E-03 0.000E+00

     total cpu time spent up to now is   124363.7 secs

     total energy              =  -22293.65245274 Ry
     estimated scf accuracy    <       0.00000141 Ry

     iteration #192     ecut=    40.00 Ry     beta= 0.40
     Davidson diagonalization with overlap

---- Real-time Memory Report at c_bands before calling an iterative solver
           466 MiB given to the printing process from OS
             0 MiB allocation reported by mallinfo(arena+hblkhd)
          7276 MiB available memory on the node where the printing process lives
------------------
     ethr =  1.38E-10,  avg # of iterations =  2.0

     negative rho (up, down):  3.942E-03 0.000E+00

     total cpu time spent up to now is   124565.1 secs

     total energy              =  -22293.65245429 Ry
     estimated scf accuracy    <       0.00000160 Ry

     iteration #193     ecut=    40.00 Ry     beta= 0.40
     Davidson diagonalization with overlap

---- Real-time Memory Report at c_bands before calling an iterative solver
           466 MiB given to the printing process from OS
             0 MiB allocation reported by mallinfo(arena+hblkhd)
          7281 MiB available memory on the node where the printing process lives
------------------
     ethr =  1.38E-10,  avg # of iterations =  2.0

     negative rho (up, down):  3.942E-03 0.000E+00

     total cpu time spent up to now is   124770.7 secs

     total energy              =  -22293.65245435 Ry
     estimated scf accuracy    <       0.00000138 Ry

     iteration #194     ecut=    40.00 Ry     beta= 0.40
     Davidson diagonalization with overlap

---- Real-time Memory Report at c_bands before calling an iterative solver
           466 MiB given to the printing process from OS
             0 MiB allocation reported by mallinfo(arena+hblkhd)
          7275 MiB available memory on the node where the printing process lives
------------------
     ethr =  1.38E-10,  avg # of iterations =  2.0

     negative rho (up, down):  3.942E-03 0.000E+00

     total cpu time spent up to now is   124972.2 secs

     total energy              =  -22293.65245475 Ry
     estimated scf accuracy    <       0.00000145 Ry

     iteration #195     ecut=    40.00 Ry     beta= 0.40
     Davidson diagonalization with overlap

---- Real-time Memory Report at c_bands before calling an iterative solver
           466 MiB given to the printing process from OS
             0 MiB allocation reported by mallinfo(arena+hblkhd)
          7279 MiB available memory on the node where the printing process lives
------------------
     ethr =  1.38E-10,  avg # of iterations =  2.0

     negative rho (up, down):  3.942E-03 0.000E+00

     total cpu time spent up to now is   125173.0 secs

     total energy              =  -22293.65245554 Ry
     estimated scf accuracy    <       0.00000159 Ry

     iteration #196     ecut=    40.00 Ry     beta= 0.40
     Davidson diagonalization with overlap

---- Real-time Memory Report at c_bands before calling an iterative solver
           466 MiB given to the printing process from OS
             0 MiB allocation reported by mallinfo(arena+hblkhd)
          7279 MiB available memory on the node where the printing process lives
------------------
     ethr =  1.38E-10,  avg # of iterations =  2.0

     negative rho (up, down):  3.942E-03 0.000E+00

     total cpu time spent up to now is   125375.4 secs

     total energy              =  -22293.65245505 Ry
     estimated scf accuracy    <       0.00000199 Ry

     iteration #197     ecut=    40.00 Ry     beta= 0.40
     Davidson diagonalization with overlap

---- Real-time Memory Report at c_bands before calling an iterative solver
           466 MiB given to the printing process from OS
             0 MiB allocation reported by mallinfo(arena+hblkhd)
          7281 MiB available memory on the node where the printing process lives
------------------
     ethr =  1.38E-10,  avg # of iterations =  2.0

     negative rho (up, down):  3.942E-03 0.000E+00

     total cpu time spent up to now is   125575.7 secs

     total energy              =  -22293.65245517 Ry
     estimated scf accuracy    <       0.00000176 Ry

     iteration #198     ecut=    40.00 Ry     beta= 0.40
     Davidson diagonalization with overlap

---- Real-time Memory Report at c_bands before calling an iterative solver
           466 MiB given to the printing process from OS
             0 MiB allocation reported by mallinfo(arena+hblkhd)
          7280 MiB available memory on the node where the printing process lives
------------------
     ethr =  1.38E-10,  avg # of iterations =  1.0

     negative rho (up, down):  3.942E-03 0.000E+00

     total cpu time spent up to now is   125743.2 secs

     total energy              =  -22293.65245836 Ry
     estimated scf accuracy    <       0.00000182 Ry

     iteration #199     ecut=    40.00 Ry     beta= 0.40
     Davidson diagonalization with overlap

---- Real-time Memory Report at c_bands before calling an iterative solver
           466 MiB given to the printing process from OS
             0 MiB allocation reported by mallinfo(arena+hblkhd)
          7280 MiB available memory on the node where the printing process lives
------------------
     ethr =  1.38E-10,  avg # of iterations =  4.8

     negative rho (up, down):  3.942E-03 0.000E+00

     total cpu time spent up to now is   125987.7 secs

     total energy              =  -22293.65246444 Ry
     estimated scf accuracy    <       0.00000889 Ry

     iteration #200     ecut=    40.00 Ry     beta= 0.40
     Davidson diagonalization with overlap

---- Real-time Memory Report at c_bands before calling an iterative solver
           466 MiB given to the printing process from OS
             0 MiB allocation reported by mallinfo(arena+hblkhd)
          7280 MiB available memory on the node where the printing process lives
------------------
     ethr =  1.38E-10,  avg # of iterations =  4.2

     negative rho (up, down):  3.942E-03 0.000E+00

     total cpu time spent up to now is   126217.7 secs

     total energy              =  -22293.65245578 Ry
     estimated scf accuracy    <       0.00000140 Ry

     End of self-consistent calculation

     convergence NOT achieved after 200 iterations: stopping

     Writing config to output data dir ./tmp/Zn101_3layer_aniline_relax.save/ :
     XML data file, charge density

     init_run     :     67.57s CPU     68.87s WALL (       1 calls)
     electrons    : 117974.45s CPU 119675.64s WALL (      32 calls)
     update_pot   :     10.22s CPU     10.58s WALL (      31 calls)
     forces       :   1623.66s CPU   1639.35s WALL (      31 calls)
     force_dftd3  :      8.07s CPU      8.91s WALL (      31 calls)
     stress       :   4374.34s CPU   4402.12s WALL (      31 calls)
     stres_dftd3  :      8.04s CPU      8.90s WALL (      31 calls)

     Called by init_run:
     wfcinit      :     65.70s CPU     66.84s WALL (       1 calls)
     wfcinit:atom :      0.03s CPU      0.06s WALL (       4 calls)
     wfcinit:wfcr :     65.17s CPU     66.13s WALL (       4 calls)
     potinit      :      0.29s CPU      0.32s WALL (       1 calls)
     hinit0       :      0.11s CPU      0.12s WALL (       1 calls)

     Called by electrons:
     c_bands      : 107371.78s CPU 108789.28s WALL (     541 calls)
     sum_band     :   9851.63s CPU  10088.94s WALL (     541 calls)
     v_of_rho     :    109.81s CPU    114.14s WALL (     558 calls)
     v_h          :      7.41s CPU      7.96s WALL (     558 calls)
     v_xc         :    113.72s CPU    118.23s WALL (     620 calls)
     newd         :    617.31s CPU    656.47s WALL (     558 calls)
     PAW_pot      :     38.65s CPU     38.81s WALL (     589 calls)
     mix_rho      :     14.64s CPU     16.03s WALL (     541 calls)
     energy_dftd3 :      4.13s CPU      4.14s WALL (      32 calls)

     Called by c_bands:
     init_us_2    :    100.24s CPU    102.06s WALL (    4704 calls)
     cegterg      : 107176.44s CPU 108581.92s WALL (    2164 calls)

     Called by sum_band:
     sum_band:wei :      1.09s CPU      1.15s WALL (     541 calls)
     sum_band:loo :   9297.99s CPU   9495.96s WALL (     541 calls)
     sum_band:buf :     17.44s CPU     22.07s WALL (    2164 calls)
     sum_band:ini :     46.39s CPU     46.81s WALL (    2164 calls)
     sum_band:cal :   6854.94s CPU   6888.71s WALL (    2288 calls)
     sum_band:bec :     51.93s CPU     52.11s WALL (    2288 calls)
     addusdens    :    540.20s CPU    578.25s WALL (     541 calls)
                                        0.00s GPU  (     541 calls)
     addusd:skk   :      5.70s CPU      7.46s WALL (    2164 calls)
                                        0.00s GPU  (    2164 calls)

     Called by *egterg:
     cdiaghg      :   4504.48s CPU   4686.14s WALL (    8377 calls)
     cegterg:over :  15832.58s CPU  15887.48s WALL (    6397 calls)
     cegterg:upda :   7085.38s CPU   7132.49s WALL (    6397 calls)
     cegterg:last :  25568.26s CPU  25682.77s WALL (    4405 calls)
     cdiaghg:chol :    331.40s CPU    332.36s WALL (    8377 calls)
     cdiaghg:inve :     47.14s CPU     47.31s WALL (    8377 calls)
     cdiaghg:para :   1237.28s CPU   1263.24s WALL (   16754 calls)
     h_psi        :  36754.03s CPU  37578.20s WALL (    8565 calls)
     s_psi        :  12754.59s CPU  12786.88s WALL (    8565 calls)
     g_psi        :     12.09s CPU     12.27s WALL (    6397 calls)

     Called by h_psi:
     h_psi:calbec :  14293.67s CPU  14368.00s WALL (    8565 calls)
     vloc_psi     :   9572.20s CPU  10249.75s WALL (    8565 calls)
     add_vuspsi   :  12871.03s CPU  12905.41s WALL (    8565 calls)

     General routines
     calbec       :  23028.55s CPU  23145.86s WALL (   11473 calls)
     fft          :     76.33s CPU     83.24s WALL (    8013 calls)
     ffts         :      3.35s CPU      3.77s WALL (    1099 calls)
     fftw         :   9345.79s CPU  10038.59s WALL ( 6996462 calls)
     interpolate  :      8.11s CPU      8.70s WALL (     558 calls)
     davcio       :      0.00s CPU      0.06s WALL (      22 calls)

     Parallel routines

     PAW routines
     PAW_pot      :     38.65s CPU     38.81s WALL (     589 calls)

     PWSCF        :   1d10h34m CPU   1d11h 3m WALL


   This run was terminated on:  12: 8: 2  12Apr2025            

=------------------------------------------------------------------------------=
   JOB DONE.
=------------------------------------------------------------------------------=
Note: The following floating-point exceptions are signalling: IEEE_DENORMAL
Note: The following floating-point exceptions are signalling: IEEE_DENORMAL
Note: The following floating-point exceptions are signalling: IEEE_DENORMAL
Note: The following floating-point exceptions are signalling: IEEE_DENORMAL
Note: The following floating-point exceptions are signalling: IEEE_DENORMAL
Note: The following floating-point exceptions are signalling: IEEE_DENORMAL
Note: The following floating-point exceptions are signalling: IEEE_DENORMAL
Note: The following floating-point exceptions are signalling: IEEE_DENORMAL
Note: The following floating-point exceptions are signalling: IEEE_DENORMAL
Note: The following floating-point exceptions are signalling: IEEE_DENORMAL
Note: The following floating-point exceptions are signalling: IEEE_DENORMAL
Note: The following floating-point exceptions are signalling: IEEE_DENORMAL
