
     Program PWSCF v.7.3.1 starts on 12Apr2025 at  2: 3:16 

     This program is part of the open-source Quantum ESPRESSO suite
     for quantum simulation of materials; please cite
         "P. Giannozzi et al., J. Phys.:Condens. Matter 21 395502 (2009);
         "P. Giannozzi et al., J. Phys.:Condens. Matter 29 465901 (2017);
         "P. Giannozzi et al., J. Chem. Phys. 152 154105 (2020);
          URL http://www.quantum-espresso.org", 
     in publications or presentations arising from this work. More details at
     http://www.quantum-espresso.org/quote

     Parallel version (MPI), running on    33 processors

     MPI processes distributed on     1 nodes
     25012 MiB available memory on the printing compute node when the environment starts

     Waiting for input...
     Reading input from standard input
Warning: card &CELL ignored
Warning: card   CELL_DOFREE = 'ALL' ignored
Warning: card / ignored

     Current dimensions of program PWSCF are:
     Max number of different atomic species (ntypx) = 10
     Max number of k-points (npk) =  40000
     Max angular momentum in pseudopotentials (lmaxx) =  4
     file C.pbe-n-kjpaw_psl.1.0.0.UPF: wavefunction(s)  2S 2P renormalized

     R & G space division:  proc/nbgrp/npool/nimage =      33
     Subspace diagonalization in iterative solution of the eigenvalue problem:
     one sub-group per band group will be used
     custom distributed-memory algorithm (size of sub-group:  5*  5 procs)


     Parallelization info
     --------------------
     sticks:   dense  smooth     PW     G-vecs:    dense   smooth      PW
     Min         245     140     36                38015    16424    2211
     Max         246     141     37                38023    16429    2226
     Sum        8103    4637   1215              1254623   542067   73181

     Using Slab Decomposition



     bravais-lattice index     =            0
     lattice parameter (alat)  =      18.4179  a.u.
     unit-cell volume          =   15858.2170 (a.u.)^3
     number of atoms/cell      =           65
     number of atomic types    =            4
     number of electrons       =      1002.00
     number of Kohn-Sham states=          601
     kinetic-energy cutoff     =      40.0000  Ry
     charge density cutoff     =     280.0000  Ry
     scf convergence threshold =      1.0E-06
     mixing beta               =       0.4000
     number of iterations used =            8  plain     mixing
     energy convergence thresh.=      5.0E-05
     force convergence thresh. =      1.0E-03
     Exchange-correlation= PBE
                           (   1   4   3   4   0   0   0)
     nstep                     =          300


     celldm(1)=  18.417879  celldm(2)=   0.000000  celldm(3)=   0.000000
     celldm(4)=   0.000000  celldm(5)=   0.000000  celldm(6)=   0.000000

     crystal axes: (cart. coord. in units of alat)
               a(1) = (   1.000000   0.000000   0.000000 )  
               a(2) = (   0.000000   1.072963   0.000000 )  
               a(3) = (   0.000000  -1.365810   2.365652 )  

     reciprocal axes: (cart. coord. in units 2 pi/alat)
               b(1) = (  1.000000  0.000000 -0.000000 )  
               b(2) = ( -0.000000  0.931999  0.538090 )  
               b(3) = (  0.000000  0.000000  0.422716 )  


     PseudoPot. # 1 for Zn read from file:
     /home/ys/qepseudo/SSSP_1.3.0_PBE_efficiency/Zn_pbe_v1.uspp.F.UPF
     MD5 check sum: df62231357ef9e81f77b2b3087fa5675
     Pseudo is Ultrasoft, Zval = 20.0
     Generated by new atomic code, or converted to UPF format
     Using radial grid of  943 points,  6 beta functions with: 
                l(1) =   0
                l(2) =   0
                l(3) =   1
                l(4) =   1
                l(5) =   2
                l(6) =   2
     Q(r) pseudized with  8 coefficients,  rinner =    1.100   1.100   1.100
                                                       1.100   1.100

     PseudoPot. # 2 for N  read from file:
     /home/ys/qepseudo/SSSP_1.3.0_PBE_efficiency/N.pbe-n-radius_5.UPF
     MD5 check sum: 16739722b17309cd8fe442a2ace49922
     Pseudo is Ultrasoft + core correction, Zval =  5.0
     Generated using "atomic" code by A. Dal Corso  v.5.1
     Using radial grid of 1085 points,  4 beta functions with: 
                l(1) =   0
                l(2) =   0
                l(3) =   1
                l(4) =   1
     Q(r) pseudized with 0 coefficients 


     PseudoPot. # 3 for C  read from file:
     /home/ys/qepseudo/SSSP_1.3.0_PBE_efficiency/C.pbe-n-kjpaw_psl.1.0.0.UPF
     MD5 check sum: 5d2aebdfa2cae82b50a7e79e9516da0f
     Pseudo is Projector augmented-wave + core cor, Zval =  4.0
     Generated using "atomic" code by A. Dal Corso  v.5.1
     Shape of augmentation charge: PSQ
     Using radial grid of 1073 points,  4 beta functions with: 
                l(1) =   0
                l(2) =   0
                l(3) =   1
                l(4) =   1
     Q(r) pseudized with 0 coefficients 


     PseudoPot. # 4 for H  read from file:
     /home/ys/qepseudo/SSSP_1.3.0_PBE_efficiency/H.pbe-rrkjus_psl.1.0.0.UPF
     MD5 check sum: f52b6d4d1c606e5624b1dc7b2218f220
     Pseudo is Ultrasoft, Zval =  1.0
     Generated using "atomic" code by A. Dal Corso  v.5.1
     Using radial grid of  929 points,  2 beta functions with: 
                l(1) =   0
                l(2) =   0
     Q(r) pseudized with 0 coefficients 


     atomic species   valence    mass     pseudopotential
     Zn               20.00    65.38000     Zn( 1.00)
     N                 5.00    14.00674     N ( 1.00)
     C                 4.00    12.01070     C ( 1.00)
     H                 1.00     1.00794     H ( 1.00)

     No symmetry found


                                    s                        frac. trans.

      isym =  1     identity                                     

 cryst.   s( 1) = (     1          0          0      )
                  (     0          1          0      )
                  (     0          0          1      )

 cart.    s( 1) = (  1.0000000  0.0000000  0.0000000 )
                  (  0.0000000  1.0000000 -0.0000000 )
                  (  0.0000000  0.0000000  1.0000000 )


   Cartesian axes

     site n.     atom                  positions (alat units)
         1        Zn     tau(   1) = (   0.1250000   0.1341203   0.0774344  )
         2        Zn     tau(   2) = (   0.1250000   0.6706017   0.0774344  )
         3        Zn     tau(   3) = (   0.1246467  -0.0000682   0.3680871  )
         4        Zn     tau(   4) = (   0.1246687   0.5365376   0.3677909  )
         5        Zn     tau(   5) = (   0.1249937  -0.1341499   0.6433208  )
         6        Zn     tau(   6) = (   0.1249499   0.4022150   0.6434049  )
         7        Zn     tau(   7) = (   0.1250000   0.4023610   0.0774344  )
         8        Zn     tau(   8) = (   0.1250000   0.9388424   0.0774344  )
         9        Zn     tau(   9) = (   0.1244230   0.2681663   0.3667977  )
        10        Zn     tau(  10) = (   0.1248783   0.8046588   0.3675495  )
        11        Zn     tau(  11) = (   0.1250033   0.1341627   0.6435827  )
        12        Zn     tau(  12) = (   0.1250252   0.6705085   0.6432644  )
        13        Zn     tau(  13) = (   0.6250000   0.1341203   0.0774344  )
        14        Zn     tau(  14) = (   0.6250000   0.6706017   0.0774344  )
        15        Zn     tau(  15) = (   0.6256948  -0.0001006   0.3680721  )
        16        Zn     tau(  16) = (   0.6257002   0.5365017   0.3683976  )
        17        Zn     tau(  17) = (   0.6253054  -0.1341371   0.6430719  )
        18        Zn     tau(  18) = (   0.6250301   0.4021358   0.6435596  )
        19        Zn     tau(  19) = (   0.6250000   0.4023610   0.0774344  )
        20        Zn     tau(  20) = (   0.6250000   0.9388424   0.0774344  )
        21        Zn     tau(  21) = (   0.6259662   0.2682198   0.3669128  )
        22        Zn     tau(  22) = (   0.6254548   0.8046649   0.3677413  )
        23        Zn     tau(  23) = (   0.6251935   0.1341441   0.6431064  )
        24        Zn     tau(  24) = (   0.6252555   0.6704878   0.6431992  )
        25        Zn     tau(  25) = (   0.3750000  -0.0000000   0.1548688  )
        26        Zn     tau(  26) = (   0.3750000   0.5364814   0.1548688  )
        27        Zn     tau(  27) = (   0.3753544  -0.1342540   0.3941166  )
        28        Zn     tau(  28) = (   0.3754040   0.4026161   0.3932177  )
        29        Zn     tau(  29) = (   0.3754110  -0.2683619   0.6406262  )
        30        Zn     tau(  30) = (   0.3752010   0.2680205   0.6377739  )
        31        Zn     tau(  31) = (   0.3750000   0.2682407   0.1548688  )
        32        Zn     tau(  32) = (   0.3750000   0.8047221   0.1548688  )
        33        Zn     tau(  33) = (   0.3753532   0.1337141   0.3931765  )
        34        Zn     tau(  34) = (   0.3753162   0.6707316   0.3940858  )
        35        Zn     tau(  35) = (   0.3753707  -0.0000217   0.6405551  )
        36        Zn     tau(  36) = (   0.3753375   0.5363453   0.6407877  )
        37        Zn     tau(  37) = (   0.8750000  -0.0000000   0.1548688  )
        38        Zn     tau(  38) = (   0.8750000   0.5364814   0.1548688  )
        39        Zn     tau(  39) = (   0.8750207  -0.1341758   0.3953654  )
        40        Zn     tau(  40) = (   0.8751018   0.4023430   0.3953901  )
        41        Zn     tau(  41) = (   0.8749104  -0.2683001   0.6428122  )
        42        Zn     tau(  42) = (   0.8747795   0.2681717   0.6437952  )
        43        Zn     tau(  43) = (   0.8750000   0.2682407   0.1548688  )
        44        Zn     tau(  44) = (   0.8750000   0.8047221   0.1548688  )
        45        Zn     tau(  45) = (   0.8750283   0.1339942   0.3954252  )
        46        Zn     tau(  46) = (   0.8750772   0.6706981   0.3953507  )
        47        Zn     tau(  47) = (   0.8748977  -0.0000217   0.6432117  )
        48        Zn     tau(  48) = (   0.8748272   0.5364209   0.6433152  )
        49        C      tau(  49) = (   0.3117958   0.3765925   1.3615783  )
        50        C      tau(  50) = (   0.3733679   0.2673487   1.4330460  )
        51        C      tau(  51) = (   0.3128620   0.3797161   1.2186659  )
        52        C      tau(  52) = (   0.4309019   0.1599880   1.3560497  )
        53        C      tau(  53) = (   0.3733416   0.2751387   1.1405335  )
        54        C      tau(  54) = (   0.4307576   0.1650939   1.2128472  )
        55        C      tau(  55) = (   0.3770091   0.2818772   0.9858536  )
        56        N      tau(  56) = (   0.3842534   0.2698299   1.5760111  )
        57        H      tau(  57) = (   0.3140320   0.3284844   1.6256696  )
        58        H      tau(  58) = (   0.4320253   0.3735951   0.9485269  )
        59        H      tau(  59) = (   0.2639628   0.4606195   1.4186995  )
        60        H      tau(  60) = (   0.3985433   0.1774843   1.6217028  )
        61        H      tau(  61) = (   0.2658305   0.4669273   1.1664127  )
        62        H      tau(  62) = (   0.4776139   0.0723677   1.4084285  )
        63        H      tau(  63) = (   0.4781979   0.0812091   1.1558775  )
        64        H      tau(  64) = (   0.4289330   0.1917696   0.9418169  )
        65        H      tau(  65) = (   0.2731161   0.2860817   0.9409298  )

     --------------------------------------------
     DFT-D3 Dispersion Correction (3-body terms):
     --------------------------------------------
       Reference C6 values for interpolation: 

         atom   Coordination number   C6
         H          0.912             6.05
         H          0.000            15.18
         C          0.000            98.23
         C          0.987            86.49
         C          1.998            58.72
         C          2.999            51.56
         C          3.984            36.41
         N          0.000            50.54
         N          0.994            44.25
         N          2.014            39.35
         N          2.990            31.16
         Zn         0.000           681.04
         Zn         1.942           306.91

       Values used:

         atom   Coordination number  R0_AB[au]  C6      C8
         Zn         4.518            3.053    306.91  23930.67
         Zn         4.514            3.053    306.91  23930.67
         Zn         6.255            3.053    306.91  23930.67
         Zn         6.256            3.053    306.91  23930.67
         Zn         5.477            3.053    306.91  23930.67
         Zn         5.465            3.053    306.91  23930.67
         Zn         4.520            3.053    306.91  23930.67
         Zn         4.512            3.053    306.91  23930.67
         Zn         6.247            3.053    306.91  23930.67
         Zn         6.258            3.053    306.91  23930.67
         Zn         5.466            3.053    306.91  23930.67
         Zn         5.476            3.053    306.91  23930.67
         Zn         4.517            3.053    306.91  23930.67
         Zn         4.508            3.053    306.91  23930.67
         Zn         6.279            3.053    306.91  23930.67
         Zn         6.270            3.053    306.91  23930.67
         Zn         5.508            3.053    306.91  23930.67
         Zn         5.491            3.053    306.91  23930.67
         Zn         4.514            3.053    306.91  23930.67
         Zn         4.510            3.053    306.91  23930.67
         Zn         6.266            3.053    306.91  23930.67
         Zn         6.276            3.053    306.91  23930.67
         Zn         5.501            3.053    306.91  23930.67
         Zn         5.509            3.053    306.91  23930.67
         Zn         5.988            3.053    306.91  23930.67
         Zn         5.988            3.053    306.91  23930.67
         Zn         7.735            3.053    306.91  23930.67
         Zn         7.737            3.053    306.91  23930.67
         Zn         6.082            3.053    306.91  23930.67
         Zn         6.144            3.053    306.91  23930.67
         Zn         6.000            3.053    306.91  23930.67
         Zn         5.986            3.053    306.91  23930.67
         Zn         7.743            3.053    306.91  23930.67
         Zn         7.733            3.053    306.91  23930.67
         Zn         6.078            3.053    306.91  23930.67
         Zn         6.073            3.053    306.91  23930.67
         Zn         5.968            3.053    306.91  23930.67
         Zn         5.967            3.053    306.91  23930.67
         Zn         7.722            3.053    306.91  23930.67
         Zn         7.713            3.053    306.91  23930.67
         Zn         6.071            3.053    306.91  23930.67
         Zn         6.048            3.053    306.91  23930.67
         Zn         5.979            3.053    306.91  23930.67
         Zn         5.970            3.053    306.91  23930.67
         Zn         7.717            3.053    306.91  23930.67
         Zn         7.720            3.053    306.91  23930.67
         Zn         6.063            3.053    306.91  23930.67
         Zn         6.057            3.053    306.91  23930.67
         C          3.161            2.750     50.44   1458.88
         C          3.140            2.750     50.61   1463.77
         C          3.167            2.750     50.39   1457.27
         C          3.160            2.750     50.45   1459.00
         C          3.128            2.750     50.70   1466.37
         C          3.167            2.750     50.39   1457.31
         C          4.055            2.750     36.57   1057.63
         N          3.071            2.478     31.25    689.46
         H          1.006            2.062      6.18     74.65
         H          1.000            2.062      6.18     74.72
         H          1.002            2.062      6.18     74.69
         H          1.006            2.062      6.18     74.65
         H          1.004            2.062      6.18     74.68
         H          1.002            2.062      6.18     74.69
         H          1.004            2.062      6.18     74.68
         H          1.002            2.062      6.18     74.70
         H          1.001            2.062      6.18     74.71

         Molecular C6 ( Ry / a.u.^6 ) =    839479.01


   Crystallographic axes

     site n.     atom                  positions (cryst. coord.)
         1        Zn     tau(   1) = (  0.1250000  0.1666667  0.0327328  )
         2        Zn     tau(   2) = (  0.1250000  0.6666667  0.0327328  )
         3        Zn     tau(   3) = (  0.1246467  0.1980003  0.1555965  )
         4        Zn     tau(   4) = (  0.1246687  0.6979569  0.1554712  )
         5        Zn     tau(   5) = (  0.1249937  0.2211369  0.2719423  )
         6        Zn     tau(   6) = (  0.1249499  0.7210735  0.2719778  )
         7        Zn     tau(   7) = (  0.1250000  0.4166667  0.0327328  )
         8        Zn     tau(   8) = (  0.1250000  0.9166667  0.0327328  )
         9        Zn     tau(   9) = (  0.1244230  0.4473008  0.1550514  )
        10        Zn     tau(  10) = (  0.1248783  0.9477157  0.1553692  )
        11        Zn     tau(  11) = (  0.1250033  0.4713448  0.2720530  )
        12        Zn     tau(  12) = (  0.1250252  0.9710472  0.2719184  )
        13        Zn     tau(  13) = (  0.6250000  0.1666667  0.0327328  )
        14        Zn     tau(  14) = (  0.6250000  0.6666667  0.0327328  )
        15        Zn     tau(  15) = (  0.6256948  0.1979620  0.1555901  )
        16        Zn     tau(  16) = (  0.6257002  0.6982500  0.1557277  )
        17        Zn     tau(  17) = (  0.6253054  0.2210149  0.2718370  )
        18        Zn     tau(  18) = (  0.6250301  0.7210829  0.2720432  )
        19        Zn     tau(  19) = (  0.6250000  0.4166667  0.0327328  )
        20        Zn     tau(  20) = (  0.6250000  0.9166667  0.0327328  )
        21        Zn     tau(  21) = (  0.6259662  0.4474126  0.1551000  )
        22        Zn     tau(  22) = (  0.6254548  0.9478246  0.1554503  )
        23        Zn     tau(  23) = (  0.6251935  0.4710712  0.2718516  )
        24        Zn     tau(  24) = (  0.6252555  0.9709928  0.2718909  )
        25        Zn     tau(  25) = (  0.3750000  0.0833333  0.0654656  )
        26        Zn     tau(  26) = (  0.3750000  0.5833333  0.0654656  )
        27        Zn     tau(  27) = (  0.3753544  0.0869456  0.1665996  )
        28        Zn     tau(  28) = (  0.3754040  0.5868242  0.1662196  )
        29        Zn     tau(  29) = (  0.3754110  0.0946014  0.2708032  )
        30        Zn     tau(  30) = (  0.3752010  0.5929744  0.2695975  )
        31        Zn     tau(  31) = (  0.3750000  0.3333333  0.0654656  )
        32        Zn     tau(  32) = (  0.3750000  0.8333334  0.0654656  )
        33        Zn     tau(  33) = (  0.3753532  0.3361857  0.1662022  )
        34        Zn     tau(  34) = (  0.3753162  0.8371746  0.1665865  )
        35        Zn     tau(  35) = (  0.3753707  0.3446559  0.2707731  )
        36        Zn     tau(  36) = (  0.3753375  0.8446745  0.2708715  )
        37        Zn     tau(  37) = (  0.8750000  0.0833333  0.0654656  )
        38        Zn     tau(  38) = (  0.8750000  0.5833333  0.0654656  )
        39        Zn     tau(  39) = (  0.8750207  0.0876905  0.1671275  )
        40        Zn     tau(  40) = (  0.8751018  0.5877386  0.1671379  )
        41        Zn     tau(  41) = (  0.8749104  0.0958353  0.2717273  )
        42        Zn     tau(  42) = (  0.8747795  0.5963554  0.2721428  )
        43        Zn     tau(  43) = (  0.8750000  0.3333333  0.0654656  )
        44        Zn     tau(  44) = (  0.8750000  0.8333334  0.0654656  )
        45        Zn     tau(  45) = (  0.8750283  0.3376567  0.1671527  )
        46        Zn     tau(  46) = (  0.8750772  0.8378241  0.1671212  )
        47        Zn     tau(  47) = (  0.8748977  0.3460855  0.2718961  )
        48        Zn     tau(  48) = (  0.8748272  0.8461050  0.2719399  )
        49        C      tau(  49) = (  0.3117958  1.0836352  0.5755615  )
        50        C      tau(  50) = (  0.3733679  1.0202761  0.6057720  )
        51        C      tau(  51) = (  0.3128620  1.0096467  0.5151500  )
        52        C      tau(  52) = (  0.4309019  0.8787851  0.5732244  )
        53        C      tau(  53) = (  0.3733416  0.8701384  0.4821222  )
        54        C      tau(  54) = (  0.4307576  0.8064881  0.5126904  )
        55        C      tau(  55) = (  0.3770091  0.7931870  0.4167365  )
        56        N      tau(  56) = (  0.3842534  1.0995167  0.6662057  )
        57        H      tau(  57) = (  0.3140320  1.1809033  0.6871972  )
        58        H      tau(  58) = (  0.4320253  0.8585829  0.4009579  )
        59        H      tau(  59) = (  0.2639628  1.1926846  0.5997075  )
        60        H      tau(  60) = (  0.3985433  1.0380369  0.6855203  )
        61        H      tau(  61) = (  0.2658305  1.0628105  0.4930618  )
        62        H      tau(  62) = (  0.4776139  0.8253076  0.5953658  )
        63        H      tau(  63) = (  0.4781979  0.6976527  0.4886084  )
        64        H      tau(  64) = (  0.4289330  0.6855111  0.3981214  )
        65        H      tau(  65) = (  0.2731161  0.7729325  0.3977465  )

     number of k points=     5  Marzari-Vanderbilt smearing, width (Ry)=  0.0200
                       cart. coord. in units 2pi/alat
        k(    1) = (   0.0000000   0.0000000   0.0000000), wk =   0.2222222
        k(    2) = (   0.0000000   0.3106663   0.1793633), wk =   0.4444444
        k(    3) = (   0.3333333   0.0000000   0.0000000), wk =   0.4444444
        k(    4) = (   0.3333333   0.3106663   0.1793633), wk =   0.4444444
        k(    5) = (   0.3333333  -0.3106663  -0.1793633), wk =   0.4444444

                       cryst. coord.
        k(    1) = (   0.0000000   0.0000000   0.0000000), wk =   0.2222222
        k(    2) = (   0.0000000   0.3333333  -0.0000000), wk =   0.4444444
        k(    3) = (   0.3333333   0.0000000   0.0000000), wk =   0.4444444
        k(    4) = (   0.3333333   0.3333333  -0.0000000), wk =   0.4444444
        k(    5) = (   0.3333333  -0.3333333   0.0000000), wk =   0.4444444

     Dense  grid:  1254623 G-vectors     FFT dimensions: ( 100, 108, 270)

     Smooth grid:   542067 G-vectors     FFT dimensions: (  75,  80, 216)

     Dynamical RAM for                 wfc:      18.82 MB

     Dynamical RAM for     wfc (w. buffer):     112.91 MB

     Dynamical RAM for           str. fact:       2.32 MB

     Dynamical RAM for           local pot:       0.00 MB

     Dynamical RAM for          nlocal pot:      29.62 MB

     Dynamical RAM for                qrad:       5.37 MB

     Dynamical RAM for          rho,v,vnew:       3.97 MB

     Dynamical RAM for               rhoin:       1.32 MB

     Dynamical RAM for            rho*nmix:       9.28 MB

     Dynamical RAM for           G-vectors:       2.30 MB

     Dynamical RAM for          h,s,v(r/c):       2.64 MB

     Dynamical RAM for          <psi|beta>:       8.68 MB

     Dynamical RAM for                 psi:      37.64 MB

     Dynamical RAM for                hpsi:      37.64 MB

     Dynamical RAM for                spsi:      37.64 MB

     Dynamical RAM for      wfcinit/wfcrot:      51.77 MB

     Dynamical RAM for           addusdens:     135.76 MB

     Dynamical RAM for          addusforce:     190.77 MB

     Dynamical RAM for         addusstress:     116.61 MB

     Estimated static dynamical RAM per process >     164.42 MB

     Estimated max dynamical RAM per process >     364.47 MB

     Estimated total dynamical RAM >      11.75 GB

     Initial potential from superposition of free atoms

     starting charge    1001.9928, renormalised to    1002.0000

     negative rho (up, down):  1.353E-03 0.000E+00
     Starting wfcs are  665 randomized atomic wfcs
     Checking if some PAW data can be deallocated... 
       PAW data deallocated on   29 nodes for type:  3

     total cpu time spent up to now is       73.7 secs

     Self-consistent Calculation

     iteration #  1     ecut=    40.00 Ry     beta= 0.40
     Davidson diagonalization with overlap

---- Real-time Memory Report at c_bands before calling an iterative solver
           241 MiB given to the printing process from OS
             0 MiB allocation reported by mallinfo(arena+hblkhd)
         18970 MiB available memory on the node where the printing process lives
------------------
     ethr =  1.00E-02,  avg # of iterations =  7.6

     negative rho (up, down):  1.805E-03 0.000E+00

     total cpu time spent up to now is      359.4 secs

     total energy              =  -22309.05347140 Ry
     estimated scf accuracy    <      11.76186135 Ry

     iteration #  2     ecut=    40.00 Ry     beta= 0.40
     Davidson diagonalization with overlap

---- Real-time Memory Report at c_bands before calling an iterative solver
           339 MiB given to the printing process from OS
             0 MiB allocation reported by mallinfo(arena+hblkhd)
         17623 MiB available memory on the node where the printing process lives
------------------
     ethr =  1.17E-03,  avg # of iterations = 10.6

     negative rho (up, down):  2.824E-03 0.000E+00

     total cpu time spent up to now is      647.6 secs

     total energy              =  -22293.77624162 Ry
     estimated scf accuracy    <     317.91385469 Ry

     iteration #  3     ecut=    40.00 Ry     beta= 0.40
     Davidson diagonalization with overlap

---- Real-time Memory Report at c_bands before calling an iterative solver
           355 MiB given to the printing process from OS
             0 MiB allocation reported by mallinfo(arena+hblkhd)
         17596 MiB available memory on the node where the printing process lives
------------------
     ethr =  1.17E-03,  avg # of iterations =  8.0

     negative rho (up, down):  2.704E-03 0.000E+00

     total cpu time spent up to now is     1019.2 secs

     total energy              =  -22313.70844276 Ry
     estimated scf accuracy    <       9.48046476 Ry

     iteration #  4     ecut=    40.00 Ry     beta= 0.40
     Davidson diagonalization with overlap

---- Real-time Memory Report at c_bands before calling an iterative solver
           356 MiB given to the printing process from OS
             0 MiB allocation reported by mallinfo(arena+hblkhd)
         17574 MiB available memory on the node where the printing process lives
------------------
     ethr =  9.46E-04,  avg # of iterations =  3.8

     negative rho (up, down):  2.623E-03 0.000E+00

     total cpu time spent up to now is     1254.1 secs

     total energy              =  -22314.28919980 Ry
     estimated scf accuracy    <       6.26446637 Ry

     iteration #  5     ecut=    40.00 Ry     beta= 0.40
     Davidson diagonalization with overlap

---- Real-time Memory Report at c_bands before calling an iterative solver
           357 MiB given to the printing process from OS
             0 MiB allocation reported by mallinfo(arena+hblkhd)
         17555 MiB available memory on the node where the printing process lives
------------------
     ethr =  6.25E-04,  avg # of iterations =  2.0

     negative rho (up, down):  2.670E-03 0.000E+00

     total cpu time spent up to now is     1478.3 secs

     total energy              =  -22314.64824971 Ry
     estimated scf accuracy    <       0.45753384 Ry

     iteration #  6     ecut=    40.00 Ry     beta= 0.40
     Davidson diagonalization with overlap

---- Real-time Memory Report at c_bands before calling an iterative solver
           358 MiB given to the printing process from OS
             0 MiB allocation reported by mallinfo(arena+hblkhd)
         17530 MiB available memory on the node where the printing process lives
------------------
     ethr =  4.57E-05,  avg # of iterations = 10.6

     negative rho (up, down):  2.816E-03 0.000E+00

     total cpu time spent up to now is     1735.3 secs

     total energy              =  -22314.66754471 Ry
     estimated scf accuracy    <       0.17518700 Ry

     iteration #  7     ecut=    40.00 Ry     beta= 0.40
     Davidson diagonalization with overlap

---- Real-time Memory Report at c_bands before calling an iterative solver
           358 MiB given to the printing process from OS
             0 MiB allocation reported by mallinfo(arena+hblkhd)
         17509 MiB available memory on the node where the printing process lives
------------------
     c_bands:  1 eigenvalues not converged
     ethr =  1.75E-05,  avg # of iterations = 11.6

     negative rho (up, down):  2.925E-03 0.000E+00

     total cpu time spent up to now is     1980.5 secs

     total energy              =  -22314.66633815 Ry
     estimated scf accuracy    <       0.05718467 Ry

     iteration #  8     ecut=    40.00 Ry     beta= 0.40
     Davidson diagonalization with overlap

---- Real-time Memory Report at c_bands before calling an iterative solver
           359 MiB given to the printing process from OS
             0 MiB allocation reported by mallinfo(arena+hblkhd)
         17485 MiB available memory on the node where the printing process lives
------------------
     ethr =  5.71E-06,  avg # of iterations = 14.4

     negative rho (up, down):  2.970E-03 0.000E+00

     total cpu time spent up to now is     2242.3 secs

     total energy              =  -22314.66367349 Ry
     estimated scf accuracy    <       0.06080835 Ry

     iteration #  9     ecut=    40.00 Ry     beta= 0.40
     Davidson diagonalization with overlap

---- Real-time Memory Report at c_bands before calling an iterative solver
           360 MiB given to the printing process from OS
             0 MiB allocation reported by mallinfo(arena+hblkhd)
         17462 MiB available memory on the node where the printing process lives
------------------
     ethr =  5.71E-06,  avg # of iterations =  3.6

     negative rho (up, down):  3.002E-03 0.000E+00

     total cpu time spent up to now is     2469.2 secs

     total energy              =  -22314.66301565 Ry
     estimated scf accuracy    <       0.03145314 Ry

     iteration # 10     ecut=    40.00 Ry     beta= 0.40
     Davidson diagonalization with overlap

---- Real-time Memory Report at c_bands before calling an iterative solver
           360 MiB given to the printing process from OS
             0 MiB allocation reported by mallinfo(arena+hblkhd)
         17442 MiB available memory on the node where the printing process lives
------------------
     ethr =  3.14E-06,  avg # of iterations = 12.8

     negative rho (up, down):  3.031E-03 0.000E+00

     total cpu time spent up to now is     2717.1 secs

     total energy              =  -22314.65878076 Ry
     estimated scf accuracy    <       0.02539251 Ry

     iteration # 11     ecut=    40.00 Ry     beta= 0.40
     Davidson diagonalization with overlap

---- Real-time Memory Report at c_bands before calling an iterative solver
           361 MiB given to the printing process from OS
             0 MiB allocation reported by mallinfo(arena+hblkhd)
         17439 MiB available memory on the node where the printing process lives
------------------
     c_bands:  1 eigenvalues not converged
     ethr =  2.53E-06,  avg # of iterations = 15.6

     negative rho (up, down):  3.137E-03 0.000E+00

     total cpu time spent up to now is     2974.3 secs

     total energy              =  -22314.64562670 Ry
     estimated scf accuracy    <       0.01797682 Ry

     iteration # 12     ecut=    40.00 Ry     beta= 0.40
     Davidson diagonalization with overlap

---- Real-time Memory Report at c_bands before calling an iterative solver
           361 MiB given to the printing process from OS
             0 MiB allocation reported by mallinfo(arena+hblkhd)
         17439 MiB available memory on the node where the printing process lives
------------------
     c_bands:  2 eigenvalues not converged
     c_bands:  1 eigenvalues not converged
     ethr =  1.79E-06,  avg # of iterations = 19.4

     negative rho (up, down):  3.105E-03 0.000E+00

     total cpu time spent up to now is     3298.6 secs

     total energy              =  -22314.64836947 Ry
     estimated scf accuracy    <       0.00098140 Ry

     iteration # 13     ecut=    40.00 Ry     beta= 0.40
     Davidson diagonalization with overlap

---- Real-time Memory Report at c_bands before calling an iterative solver
           361 MiB given to the printing process from OS
             0 MiB allocation reported by mallinfo(arena+hblkhd)
         17443 MiB available memory on the node where the printing process lives
------------------
     ethr =  9.79E-08,  avg # of iterations =  3.6

     negative rho (up, down):  3.094E-03 0.000E+00

     total cpu time spent up to now is     3529.8 secs

     total energy              =  -22314.64797394 Ry
     estimated scf accuracy    <       0.00121456 Ry

     iteration # 14     ecut=    40.00 Ry     beta= 0.40
     Davidson diagonalization with overlap

---- Real-time Memory Report at c_bands before calling an iterative solver
           361 MiB given to the printing process from OS
             0 MiB allocation reported by mallinfo(arena+hblkhd)
         17439 MiB available memory on the node where the printing process lives
------------------
     c_bands:  1 eigenvalues not converged
     c_bands:  1 eigenvalues not converged
     ethr =  9.79E-08,  avg # of iterations = 16.4

     negative rho (up, down):  3.095E-03 0.000E+00

     total cpu time spent up to now is     3789.9 secs

     total energy              =  -22314.64742285 Ry
     estimated scf accuracy    <       0.00380756 Ry

     iteration # 15     ecut=    40.00 Ry     beta= 0.40
     Davidson diagonalization with overlap

---- Real-time Memory Report at c_bands before calling an iterative solver
           361 MiB given to the printing process from OS
             0 MiB allocation reported by mallinfo(arena+hblkhd)
         17444 MiB available memory on the node where the printing process lives
------------------
     ethr =  9.79E-08,  avg # of iterations =  2.0

     negative rho (up, down):  3.096E-03 0.000E+00

     total cpu time spent up to now is     4011.0 secs

     total energy              =  -22314.64767133 Ry
     estimated scf accuracy    <       0.00369957 Ry

     iteration # 16     ecut=    40.00 Ry     beta= 0.40
     Davidson diagonalization with overlap

---- Real-time Memory Report at c_bands before calling an iterative solver
           361 MiB given to the printing process from OS
             0 MiB allocation reported by mallinfo(arena+hblkhd)
         17444 MiB available memory on the node where the printing process lives
------------------
     ethr =  9.79E-08,  avg # of iterations =  1.2

     negative rho (up, down):  3.100E-03 0.000E+00

     total cpu time spent up to now is     4201.9 secs

     total energy              =  -22314.64804837 Ry
     estimated scf accuracy    <       0.00361902 Ry

     iteration # 17     ecut=    40.00 Ry     beta= 0.40
     Davidson diagonalization with overlap

---- Real-time Memory Report at c_bands before calling an iterative solver
           361 MiB given to the printing process from OS
             0 MiB allocation reported by mallinfo(arena+hblkhd)
         17444 MiB available memory on the node where the printing process lives
------------------
     ethr =  9.79E-08,  avg # of iterations =  2.0

     negative rho (up, down):  3.095E-03 0.000E+00

     total cpu time spent up to now is     4424.0 secs

     total energy              =  -22314.65044806 Ry
     estimated scf accuracy    <       0.00226582 Ry

     iteration # 18     ecut=    40.00 Ry     beta= 0.40
     Davidson diagonalization with overlap

---- Real-time Memory Report at c_bands before calling an iterative solver
           361 MiB given to the printing process from OS
             0 MiB allocation reported by mallinfo(arena+hblkhd)
         17446 MiB available memory on the node where the printing process lives
------------------
     c_bands:  1 eigenvalues not converged
     c_bands:  1 eigenvalues not converged
     c_bands:  1 eigenvalues not converged
     ethr =  9.79E-08,  avg # of iterations = 18.4

     negative rho (up, down):  3.092E-03 0.000E+00

     total cpu time spent up to now is     4708.7 secs

     total energy              =  -22314.64916714 Ry
     estimated scf accuracy    <       0.00062685 Ry

     iteration # 19     ecut=    40.00 Ry     beta= 0.40
     Davidson diagonalization with overlap

---- Real-time Memory Report at c_bands before calling an iterative solver
           361 MiB given to the printing process from OS
             0 MiB allocation reported by mallinfo(arena+hblkhd)
         17444 MiB available memory on the node where the printing process lives
------------------
     ethr =  6.26E-08,  avg # of iterations =  3.0

     negative rho (up, down):  3.087E-03 0.000E+00

     total cpu time spent up to now is     4936.1 secs

     total energy              =  -22314.65017319 Ry
     estimated scf accuracy    <       0.00105469 Ry

     iteration # 20     ecut=    40.00 Ry     beta= 0.40
     Davidson diagonalization with overlap

---- Real-time Memory Report at c_bands before calling an iterative solver
           361 MiB given to the printing process from OS
             0 MiB allocation reported by mallinfo(arena+hblkhd)
         17443 MiB available memory on the node where the printing process lives
------------------
     c_bands:  1 eigenvalues not converged
     ethr =  6.26E-08,  avg # of iterations = 15.0

     negative rho (up, down):  3.084E-03 0.000E+00

     total cpu time spent up to now is     5204.6 secs

     total energy              =  -22314.64896975 Ry
     estimated scf accuracy    <       0.00285013 Ry

     iteration # 21     ecut=    40.00 Ry     beta= 0.40
     Davidson diagonalization with overlap

---- Real-time Memory Report at c_bands before calling an iterative solver
           362 MiB given to the printing process from OS
             0 MiB allocation reported by mallinfo(arena+hblkhd)
         17442 MiB available memory on the node where the printing process lives
------------------
     c_bands:  1 eigenvalues not converged
     c_bands:  2 eigenvalues not converged
     ethr =  6.26E-08,  avg # of iterations = 15.6

     negative rho (up, down):  3.075E-03 0.000E+00

     total cpu time spent up to now is     5470.0 secs

     total energy              =  -22314.64856493 Ry
     estimated scf accuracy    <       0.00073274 Ry

     iteration # 22     ecut=    40.00 Ry     beta= 0.40
     Davidson diagonalization with overlap

---- Real-time Memory Report at c_bands before calling an iterative solver
           362 MiB given to the printing process from OS
             0 MiB allocation reported by mallinfo(arena+hblkhd)
         17447 MiB available memory on the node where the printing process lives
------------------
     c_bands:  1 eigenvalues not converged
     c_bands:  2 eigenvalues not converged
     ethr =  6.26E-08,  avg # of iterations = 16.6

     negative rho (up, down):  3.070E-03 0.000E+00

     total cpu time spent up to now is     5747.5 secs

     total energy              =  -22314.64826506 Ry
     estimated scf accuracy    <       0.00043810 Ry

     iteration # 23     ecut=    40.00 Ry     beta= 0.40
     Davidson diagonalization with overlap

---- Real-time Memory Report at c_bands before calling an iterative solver
           362 MiB given to the printing process from OS
             0 MiB allocation reported by mallinfo(arena+hblkhd)
         17443 MiB available memory on the node where the printing process lives
------------------
     ethr =  4.37E-08,  avg # of iterations =  8.4

     negative rho (up, down):  3.068E-03 0.000E+00

     total cpu time spent up to now is     5987.9 secs

     total energy              =  -22314.64702758 Ry
     estimated scf accuracy    <       0.00232322 Ry

     iteration # 24     ecut=    40.00 Ry     beta= 0.40
     Davidson diagonalization with overlap

---- Real-time Memory Report at c_bands before calling an iterative solver
           362 MiB given to the printing process from OS
             0 MiB allocation reported by mallinfo(arena+hblkhd)
         17447 MiB available memory on the node where the printing process lives
------------------
     c_bands:  1 eigenvalues not converged
     ethr =  4.37E-08,  avg # of iterations = 14.2

     negative rho (up, down):  3.065E-03 0.000E+00

     total cpu time spent up to now is     6255.3 secs

     total energy              =  -22314.64686452 Ry
     estimated scf accuracy    <       0.00001368 Ry

     iteration # 25     ecut=    40.00 Ry     beta= 0.40
     Davidson diagonalization with overlap

---- Real-time Memory Report at c_bands before calling an iterative solver
           362 MiB given to the printing process from OS
             0 MiB allocation reported by mallinfo(arena+hblkhd)
         17444 MiB available memory on the node where the printing process lives
------------------
     c_bands:  1 eigenvalues not converged
     ethr =  1.37E-09,  avg # of iterations =  7.2

     negative rho (up, down):  3.062E-03 0.000E+00

     total cpu time spent up to now is     6495.0 secs

     total energy              =  -22314.64666142 Ry
     estimated scf accuracy    <       0.00147779 Ry

     iteration # 26     ecut=    40.00 Ry     beta= 0.40
     Davidson diagonalization with overlap

---- Real-time Memory Report at c_bands before calling an iterative solver
           362 MiB given to the printing process from OS
             0 MiB allocation reported by mallinfo(arena+hblkhd)
         17444 MiB available memory on the node where the printing process lives
------------------
     ethr =  1.37E-09,  avg # of iterations =  4.0

     negative rho (up, down):  3.062E-03 0.000E+00

     total cpu time spent up to now is     6731.5 secs

     total energy              =  -22314.64669280 Ry
     estimated scf accuracy    <       0.00080941 Ry

     iteration # 27     ecut=    40.00 Ry     beta= 0.40
     Davidson diagonalization with overlap

---- Real-time Memory Report at c_bands before calling an iterative solver
           362 MiB given to the printing process from OS
             0 MiB allocation reported by mallinfo(arena+hblkhd)
         17442 MiB available memory on the node where the printing process lives
------------------
     ethr =  1.37E-09,  avg # of iterations =  4.0

     negative rho (up, down):  3.060E-03 0.000E+00

     total cpu time spent up to now is     6970.5 secs

     total energy              =  -22314.64657403 Ry
     estimated scf accuracy    <       0.00288238 Ry

     iteration # 28     ecut=    40.00 Ry     beta= 0.40
     Davidson diagonalization with overlap

---- Real-time Memory Report at c_bands before calling an iterative solver
           362 MiB given to the printing process from OS
             0 MiB allocation reported by mallinfo(arena+hblkhd)
         17443 MiB available memory on the node where the printing process lives
------------------
     ethr =  1.37E-09,  avg # of iterations =  4.0

     negative rho (up, down):  3.059E-03 0.000E+00

     total cpu time spent up to now is     7208.4 secs

     total energy              =  -22314.64683356 Ry
     estimated scf accuracy    <       0.00055690 Ry

     iteration # 29     ecut=    40.00 Ry     beta= 0.40
     Davidson diagonalization with overlap

---- Real-time Memory Report at c_bands before calling an iterative solver
           362 MiB given to the printing process from OS
             0 MiB allocation reported by mallinfo(arena+hblkhd)
         17442 MiB available memory on the node where the printing process lives
------------------
     ethr =  1.37E-09,  avg # of iterations =  2.8

     negative rho (up, down):  3.058E-03 0.000E+00

     total cpu time spent up to now is     7434.9 secs

     total energy              =  -22314.64686910 Ry
     estimated scf accuracy    <       0.00000369 Ry

     iteration # 30     ecut=    40.00 Ry     beta= 0.40
     Davidson diagonalization with overlap

---- Real-time Memory Report at c_bands before calling an iterative solver
           362 MiB given to the printing process from OS
             0 MiB allocation reported by mallinfo(arena+hblkhd)
         17447 MiB available memory on the node where the printing process lives
------------------
     ethr =  3.68E-10,  avg # of iterations =  2.0

     negative rho (up, down):  3.057E-03 0.000E+00

     total cpu time spent up to now is     7655.4 secs

     total energy              =  -22314.64686826 Ry
     estimated scf accuracy    <       0.00001552 Ry

     iteration # 31     ecut=    40.00 Ry     beta= 0.40
     Davidson diagonalization with overlap

---- Real-time Memory Report at c_bands before calling an iterative solver
           362 MiB given to the printing process from OS
             0 MiB allocation reported by mallinfo(arena+hblkhd)
         17444 MiB available memory on the node where the printing process lives
------------------
     ethr =  3.68E-10,  avg # of iterations =  2.0

     negative rho (up, down):  3.057E-03 0.000E+00

     total cpu time spent up to now is     7877.3 secs

     total energy              =  -22314.64687003 Ry
     estimated scf accuracy    <       0.00000474 Ry

     iteration # 32     ecut=    40.00 Ry     beta= 0.40
     Davidson diagonalization with overlap

---- Real-time Memory Report at c_bands before calling an iterative solver
           362 MiB given to the printing process from OS
             0 MiB allocation reported by mallinfo(arena+hblkhd)
         17442 MiB available memory on the node where the printing process lives
------------------
     ethr =  3.68E-10,  avg # of iterations =  1.0

     negative rho (up, down):  3.057E-03 0.000E+00

     total cpu time spent up to now is     8060.4 secs

     total energy              =  -22314.64686999 Ry
     estimated scf accuracy    <       0.00000129 Ry

     iteration # 33     ecut=    40.00 Ry     beta= 0.40
     Davidson diagonalization with overlap

---- Real-time Memory Report at c_bands before calling an iterative solver
           362 MiB given to the printing process from OS
             0 MiB allocation reported by mallinfo(arena+hblkhd)
         17444 MiB available memory on the node where the printing process lives
------------------
     ethr =  1.29E-10,  avg # of iterations =  1.0

     negative rho (up, down):  3.057E-03 0.000E+00

     total cpu time spent up to now is     8246.7 secs

     End of self-consistent calculation

          k = 0.0000 0.0000 0.0000 ( 67685 PWs)   bands (ev):

  -124.7981-124.7967-124.7963-124.7960-124.7954-124.7952-124.7949-124.7942
  -124.6525-124.6478-124.6469-124.6466-124.6457-124.6445-124.6438-124.6434
  -124.6425-124.6425-124.6416-124.6403-124.6402-124.6397-124.6393-124.6388
  -124.5945-124.5925-124.5923-124.5890-124.5884-124.5882-124.5874-124.5868
  -124.5534-124.5525-124.5519-124.5509-124.5488-124.5474-124.5473-124.5463
  -124.5028-124.5025-124.5020-124.5017-124.5016-124.5014-124.5009-124.5006
   -78.9555 -78.9547 -78.9543 -78.9532 -78.9523 -78.9519 -78.9512 -78.9510
   -78.9507 -78.9499 -78.9464 -78.9453 -78.9449 -78.9444 -78.9442 -78.9440
   -78.9432 -78.9431 -78.9429 -78.9426 -78.9419 -78.9417 -78.9303 -78.9294
   -78.8172 -78.8060 -78.8059 -78.8057 -78.8051 -78.8050 -78.8049 -78.8047
   -78.8041 -78.8040 -78.8039 -78.8038 -78.8035 -78.8031 -78.8031 -78.8029
   -78.8026 -78.8021 -78.8020 -78.8020 -78.8019 -78.8015 -78.8011 -78.8008
   -78.8007 -78.7999 -78.7999 -78.7988 -78.7977 -78.7939 -78.7898 -78.7895
   -78.7881 -78.7877 -78.7874 -78.7873 -78.7873 -78.7867 -78.7862 -78.7859
   -78.7855 -78.7853 -78.7844 -78.7842 -78.7777 -78.7774 -78.7751 -78.7742
   -78.7542 -78.7529 -78.7520 -78.7519 -78.7489 -78.7481 -78.7476 -78.7474
   -78.7465 -78.7460 -78.7439 -78.7418 -78.7417 -78.7408 -78.7398 -78.7388
   -78.7379 -78.7379 -78.7370 -78.7370 -78.7363 -78.7361 -78.7276 -78.7242
   -78.7185 -78.7172 -78.7166 -78.7157 -78.7141 -78.7125 -78.7122 -78.7111
   -78.7074 -78.7041 -78.7033 -78.7027 -78.7027 -78.7016 -78.6992 -78.6982
   -78.6980 -78.6971 -78.6955 -78.6947 -78.6906 -78.6903 -78.6829 -78.6787
   -78.6784 -78.6782 -78.6778 -78.6775 -78.6775 -78.6773 -78.6766 -78.6764
   -78.6547 -78.6543 -78.6509 -78.6504 -78.6499 -78.6496 -78.6496 -78.6494
   -78.6487 -78.6484 -78.6425 -78.6423 -78.6421 -78.6420 -78.6301 -78.6298
   -16.7568 -14.7050 -12.5724 -12.1428 -10.5371  -8.9225  -8.1967  -7.6798
    -6.7466  -6.6583  -6.6334  -6.4946  -6.4752  -6.4156  -6.4142  -6.3870
    -6.3769  -6.3590  -6.3277  -6.3072  -6.2827  -6.2801  -6.2629  -6.2262
    -6.2224  -6.1833  -6.1775  -6.1723  -6.1615  -6.1431  -6.1360  -6.1194
    -6.1186  -6.1123  -6.1116  -6.0890  -6.0886  -6.0838  -6.0715  -6.0691
    -6.0652  -6.0642  -6.0188  -6.0169  -6.0154  -6.0148  -6.0144  -6.0082
    -6.0074  -6.0015  -6.0008  -5.9912  -5.9634  -5.9604  -5.9591  -5.9210
    -5.9165  -5.9041  -5.9017  -5.9003  -5.8861  -5.8852  -5.8790  -5.8712
    -5.8692  -5.8597  -5.8594  -5.8579  -5.8496  -5.8424  -5.8407  -5.8379
    -5.8377  -5.8282  -5.8185  -5.8082  -5.8077  -5.8046  -5.8005  -5.7845
    -5.7786  -5.7751  -5.7733  -5.7662  -5.7522  -5.7513  -5.7416  -5.7366
    -5.7362  -5.7346  -5.7317  -5.7293  -5.7291  -5.7286  -5.7218  -5.7211
    -5.7176  -5.7039  -5.6913  -5.6907  -5.6691  -5.6609  -5.6594  -5.6579
    -5.6577  -5.6554  -5.6551  -5.6358  -5.6329  -5.6077  -5.5998  -5.5974
    -5.5964  -5.5824  -5.5803  -5.5693  -5.5680  -5.5666  -5.5642  -5.5636
    -5.5561  -5.5559  -5.5495  -5.5485  -5.5464  -5.5419  -5.5390  -5.5389
    -5.5293  -5.5162  -5.5145  -5.5070  -5.5037  -5.5036  -5.5032  -5.4974
    -5.4914  -5.4826  -5.4819  -5.4741  -5.4727  -5.4645  -5.4567  -5.4413
    -5.4398  -5.4384  -5.4381  -5.4346  -5.4345  -5.4314  -5.4303  -5.4223
    -5.4214  -5.4190  -5.4188  -5.4169  -5.4159  -5.4157  -5.4008  -5.3946
    -5.3859  -5.3843  -5.3839  -5.3751  -5.3724  -5.3665  -5.3621  -5.3608
    -5.3575  -5.3573  -5.3572  -5.3562  -5.3522  -5.3517  -5.3489  -5.3473
    -5.3395  -5.3317  -5.3305  -5.3277  -5.3272  -5.3268  -5.3212  -5.3190
    -5.3181  -5.3101  -5.3087  -5.3038  -5.3037  -5.3031  -5.3017  -5.2981
    -5.2844  -5.2800  -5.2787  -5.2735  -5.2727  -5.2634  -5.2623  -5.2526
    -5.2494  -5.2482  -5.2458  -5.2446  -5.2437  -5.2426  -5.2424  -5.2403
    -5.2376  -5.2286  -5.2142  -5.2102  -5.2100  -5.2059  -5.2058  -5.2017
    -5.1989  -5.1680  -5.1639  -5.1635  -5.1634  -5.1619  -5.1616  -5.1560
    -5.1539  -5.1457  -5.1452  -5.1370  -5.1320  -5.1315  -5.1292  -5.1278
    -5.1247  -5.1197  -5.1186  -5.1183  -5.1183  -5.1046  -5.0972  -5.0903
    -5.0826  -5.0761  -5.0725  -5.0690  -5.0564  -5.0410  -5.0313  -5.0098
    -4.9943  -4.9910  -4.9695  -4.9524  -4.9413  -4.9287  -4.8912  -4.8768
    -4.6033  -4.2344  -4.1978  -4.1747  -4.1690  -4.1581  -4.1147  -4.0631
    -3.9531  -3.8954  -3.8371  -3.8340  -3.2466  -3.1180  -3.0631  -2.7313
    -2.7155  -2.5989  -2.5968  -2.3997  -2.1274  -2.1032  -2.0102  -1.8353
    -1.7693  -1.3974  -1.3458  -1.1912  -0.7841  -0.7771  -0.7241  -0.6038
    -0.4131  -0.4079  -0.4036  -0.2034  -0.0555  -0.0177   0.1064   0.1069
     0.1823   0.4321   0.6762   0.6804   0.7230   0.8224   0.9398   1.0845
     1.0876   1.1541   1.1822   1.1851   1.2576   1.4045   1.4469   1.7112
     2.0820   2.3907   2.3993   2.4962   2.5650   2.5999   2.6116   2.6139
     2.6737   2.9872   2.9940   3.0629   3.0772   3.5105   3.6081   3.6571
     3.9704   3.9749   3.9847   4.1131   4.1485   4.2579   4.2641   4.5365
     4.7266   4.7281   4.8314   4.8559   4.9531   5.0079   5.0590   5.3501
     5.3831   5.4429   5.4785   5.5067   5.5963   5.6221   5.8572   5.8603
     5.8911   5.9733   6.0920   6.1873   6.2903   6.3409   6.3574   6.3740
     6.4296   6.5261   6.6236   6.6326   6.6626   6.7353   6.7857   6.9639
     6.9758   6.9982   7.0622   7.1277   7.1786   7.2162   7.2384   7.2895
     7.2936   7.3094   7.3407   7.3933   7.4287   7.5403   7.5652   7.6424
     7.6509   7.6661   7.6872   7.7022   7.7700   7.8033   7.8178   7.9206
     7.9266   7.9715   8.0284   8.0950   8.1242   8.1326   8.1865   8.2111
     8.2397   8.3391   8.4182   8.4334   8.5338   8.5773   8.6274   8.6955
     8.7555

     occupation numbers 
     1.0000   1.0000   1.0000   1.0000   1.0000   1.0000   1.0000   1.0000
     1.0000   1.0000   1.0000   1.0000   1.0000   1.0000   1.0000   1.0000
     1.0000   1.0000   1.0000   1.0000   1.0000   1.0000   1.0000   1.0000
     1.0000   1.0000   1.0000   1.0000   1.0000   1.0000   1.0000   1.0000
     1.0000   1.0000   1.0000   1.0000   1.0000   1.0000   1.0000   1.0000
     1.0000   1.0000   1.0000   1.0000   1.0000   1.0000   1.0000   1.0000
     1.0000   1.0000   1.0000   1.0000   1.0000   1.0000   1.0000   1.0000
     1.0000   1.0000   1.0000   1.0000   1.0000   1.0000   1.0000   1.0000
     1.0000   1.0000   1.0000   1.0000   1.0000   1.0000   1.0000   1.0000
     1.0000   1.0000   1.0000   1.0000   1.0000   1.0000   1.0000   1.0000
     1.0000   1.0000   1.0000   1.0000   1.0000   1.0000   1.0000   1.0000
     1.0000   1.0000   1.0000   1.0000   1.0000   1.0000   1.0000   1.0000
     1.0000   1.0000   1.0000   1.0000   1.0000   1.0000   1.0000   1.0000
     1.0000   1.0000   1.0000   1.0000   1.0000   1.0000   1.0000   1.0000
     1.0000   1.0000   1.0000   1.0000   1.0000   1.0000   1.0000   1.0000
     1.0000   1.0000   1.0000   1.0000   1.0000   1.0000   1.0000   1.0000
     1.0000   1.0000   1.0000   1.0000   1.0000   1.0000   1.0000   1.0000
     1.0000   1.0000   1.0000   1.0000   1.0000   1.0000   1.0000   1.0000
     1.0000   1.0000   1.0000   1.0000   1.0000   1.0000   1.0000   1.0000
     1.0000   1.0000   1.0000   1.0000   1.0000   1.0000   1.0000   1.0000
     1.0000   1.0000   1.0000   1.0000   1.0000   1.0000   1.0000   1.0000
     1.0000   1.0000   1.0000   1.0000   1.0000   1.0000   1.0000   1.0000
     1.0000   1.0000   1.0000   1.0000   1.0000   1.0000   1.0000   1.0000
     1.0000   1.0000   1.0000   1.0000   1.0000   1.0000   1.0000   1.0000
     1.0000   1.0000   1.0000   1.0000   1.0000   1.0000   1.0000   1.0000
     1.0000   1.0000   1.0000   1.0000   1.0000   1.0000   1.0000   1.0000
     1.0000   1.0000   1.0000   1.0000   1.0000   1.0000   1.0000   1.0000
     1.0000   1.0000   1.0000   1.0000   1.0000   1.0000   1.0000   1.0000
     1.0000   1.0000   1.0000   1.0000   1.0000   1.0000   1.0000   1.0000
     1.0000   1.0000   1.0000   1.0000   1.0000   1.0000   1.0000   1.0000
     1.0000   1.0000   1.0000   1.0000   1.0000   1.0000   1.0000   1.0000
     1.0000   1.0000   1.0000   1.0000   1.0000   1.0000   1.0000   1.0000
     1.0000   1.0000   1.0000   1.0000   1.0000   1.0000   1.0000   1.0000
     1.0000   1.0000   1.0000   1.0000   1.0000   1.0000   1.0000   1.0000
     1.0000   1.0000   1.0000   1.0000   1.0000   1.0000   1.0000   1.0000
     1.0000   1.0000   1.0000   1.0000   1.0000   1.0000   1.0000   1.0000
     1.0000   1.0000   1.0000   1.0000   1.0000   1.0000   1.0000   1.0000
     1.0000   1.0000   1.0000   1.0000   1.0000   1.0000   1.0000   1.0000
     1.0000   1.0000   1.0000   1.0000   1.0000   1.0000   1.0000   1.0000
     1.0000   1.0000   1.0000   1.0000   1.0000   1.0000   1.0000   1.0000
     1.0000   1.0000   1.0000   1.0000   1.0000   1.0000   1.0000   1.0000
     1.0000   1.0000   1.0000   1.0000   1.0000   1.0000   1.0000   1.0000
     1.0000   1.0000   1.0000   1.0000   1.0000   1.0000   1.0000   1.0000
     1.0000   1.0000   1.0000   1.0000   1.0000   1.0000   1.0000   1.0000
     1.0000   1.0000   1.0000   1.0000   1.0000   1.0000   1.0000   1.0000
     1.0000   1.0000   1.0000   1.0000   1.0000   1.0000   1.0000   1.0000
     1.0000   1.0000   1.0000   1.0000   1.0000   1.0000   1.0000   1.0000
     1.0000   1.0000   1.0000   1.0000   1.0000   1.0000   1.0000   1.0000
     1.0000   1.0000   1.0000   1.0000   1.0000   1.0000   1.0000   1.0000
     1.0000   1.0000   1.0000   1.0000   1.0000   1.0000   1.0000   1.0000
     1.0000   1.0000   1.0000   1.0000   1.0000   1.0000   1.0000   1.0000
     1.0000   1.0000   1.0000   1.0000   1.0000   1.0000   1.0000   1.0000
     1.0000   1.0000   1.0000   1.0000   1.0000   1.0000   1.0000   1.0000
     1.0000   1.0000   1.0000   1.0000   1.0000   1.0000   1.0000   1.0000
     1.0000   1.0000   1.0000   1.0000   1.0000   1.0000   1.0000   1.0000
     1.0000   1.0000   1.0000   1.0000   1.0000   1.0000   1.0000   1.0000
     1.0000   1.0000   1.0000   1.0000   1.0000   1.0000   1.0000   1.0000
     1.0000   1.0000   1.0000   1.0000   1.0000   1.0000   1.0000   1.0000
     1.0000   1.0000   1.0000   1.0000   1.0000   1.0000   1.0000   1.0000
     1.0000   1.0000   1.0000   1.0000   1.0000   1.0000   1.0000   1.0000
     1.0000   1.0000   1.0000   1.0000   1.0000   1.0000   1.0000   1.0000
     1.0000   1.0000   1.0005   1.0006   1.0012   1.0056   1.0227   1.0676
     1.0686   1.0829   1.0824   1.0820   1.0474   0.7924   0.6810   0.1074
     0.0004   0.0000   0.0000   0.0000   0.0000   0.0000   0.0000   0.0000
     0.0000   0.0000   0.0000   0.0000   0.0000   0.0000   0.0000   0.0000
     0.0000   0.0000   0.0000   0.0000   0.0000   0.0000   0.0000   0.0000
     0.0000   0.0000   0.0000   0.0000   0.0000   0.0000   0.0000   0.0000
     0.0000   0.0000   0.0000   0.0000   0.0000   0.0000   0.0000   0.0000
     0.0000   0.0000   0.0000   0.0000   0.0000   0.0000   0.0000   0.0000
     0.0000   0.0000   0.0000   0.0000   0.0000   0.0000   0.0000   0.0000
     0.0000   0.0000   0.0000   0.0000   0.0000   0.0000   0.0000   0.0000
     0.0000   0.0000   0.0000   0.0000   0.0000   0.0000   0.0000   0.0000
     0.0000   0.0000   0.0000   0.0000   0.0000   0.0000   0.0000   0.0000
     0.0000   0.0000   0.0000   0.0000   0.0000   0.0000   0.0000   0.0000
     0.0000   0.0000   0.0000   0.0000   0.0000   0.0000   0.0000   0.0000
     0.0000

          k = 0.0000 0.3107 0.1794 ( 67822 PWs)   bands (ev):

  -124.7981-124.7967-124.7963-124.7959-124.7957-124.7950-124.7950-124.7943
  -124.6525-124.6477-124.6471-124.6464-124.6458-124.6444-124.6440-124.6432
  -124.6426-124.6425-124.6416-124.6403-124.6403-124.6396-124.6393-124.6388
  -124.5945-124.5925-124.5923-124.5890-124.5884-124.5883-124.5872-124.5869
  -124.5534-124.5526-124.5518-124.5509-124.5488-124.5476-124.5471-124.5463
  -124.5028-124.5024-124.5022-124.5019-124.5015-124.5012-124.5009-124.5006
   -78.9549 -78.9537 -78.9532 -78.9526 -78.9522 -78.9519 -78.9516 -78.9508
   -78.9507 -78.9499 -78.9490 -78.9480 -78.9464 -78.9452 -78.9450 -78.9446
   -78.9442 -78.9437 -78.9433 -78.9430 -78.9367 -78.9356 -78.9319 -78.9310
   -78.8172 -78.8059 -78.8059 -78.8053 -78.8050 -78.8049 -78.8049 -78.8045
   -78.8044 -78.8040 -78.8039 -78.8036 -78.8036 -78.8031 -78.8030 -78.8029
   -78.8026 -78.8022 -78.8021 -78.8019 -78.8014 -78.8013 -78.8007 -78.8005
   -78.8003 -78.8000 -78.7983 -78.7977 -78.7971 -78.7967 -78.7958 -78.7936
   -78.7926 -78.7881 -78.7872 -78.7861 -78.7853 -78.7852 -78.7844 -78.7842
   -78.7842 -78.7835 -78.7814 -78.7803 -78.7790 -78.7790 -78.7767 -78.7758
   -78.7542 -78.7521 -78.7518 -78.7514 -78.7481 -78.7476 -78.7476 -78.7472
   -78.7463 -78.7462 -78.7461 -78.7439 -78.7427 -78.7419 -78.7416 -78.7388
   -78.7380 -78.7379 -78.7368 -78.7364 -78.7344 -78.7304 -78.7290 -78.7259
   -78.7185 -78.7173 -78.7165 -78.7158 -78.7141 -78.7127 -78.7121 -78.7111
   -78.7058 -78.7040 -78.7034 -78.7026 -78.7016 -78.7012 -78.7011 -78.6992
   -78.6983 -78.6978 -78.6971 -78.6966 -78.6890 -78.6845 -78.6844 -78.6798
   -78.6786 -78.6783 -78.6781 -78.6778 -78.6772 -78.6770 -78.6767 -78.6765
   -78.6531 -78.6527 -78.6508 -78.6504 -78.6502 -78.6499 -78.6494 -78.6491
   -78.6488 -78.6486 -78.6485 -78.6482 -78.6363 -78.6359 -78.6318 -78.6314
   -16.7569 -14.7051 -12.5724 -12.1428 -10.5371  -8.9225  -8.1966  -7.5193
    -7.0566  -6.6556  -6.6167  -6.5250  -6.4751  -6.4083  -6.3293  -6.3148
    -6.3076  -6.2928  -6.2812  -6.2749  -6.2482  -6.2442  -6.2355  -6.2163
    -6.2124  -6.1928  -6.1861  -6.1812  -6.1651  -6.1605  -6.1564  -6.1443
    -6.1427  -6.1334  -6.1313  -6.1174  -6.1167  -6.1140  -6.1127  -6.1113
    -6.1038  -6.0956  -6.0646  -6.0546  -6.0404  -6.0316  -6.0223  -6.0213
    -5.9920  -5.9910  -5.9899  -5.9711  -5.9617  -5.9469  -5.9432  -5.9361
    -5.9329  -5.9326  -5.9178  -5.9031  -5.8991  -5.8925  -5.8923  -5.8810
    -5.8782  -5.8612  -5.8569  -5.8456  -5.8448  -5.8364  -5.8332  -5.8241
    -5.8215  -5.8202  -5.8194  -5.8176  -5.8148  -5.8125  -5.7992  -5.7966
    -5.7864  -5.7778  -5.7768  -5.7724  -5.7682  -5.7497  -5.7490  -5.7476
    -5.7458  -5.7454  -5.7419  -5.7371  -5.7317  -5.7300  -5.7292  -5.7188
    -5.7110  -5.7083  -5.7080  -5.7032  -5.6956  -5.6897  -5.6891  -5.6868
    -5.6847  -5.6820  -5.6789  -5.6662  -5.6614  -5.6541  -5.6514  -5.6473
    -5.6399  -5.6268  -5.6245  -5.6205  -5.6166  -5.6061  -5.6039  -5.5975
    -5.5849  -5.5838  -5.5753  -5.5747  -5.5717  -5.5664  -5.5603  -5.5534
    -5.5299  -5.5262  -5.5241  -5.5147  -5.5125  -5.5096  -5.4976  -5.4932
    -5.4900  -5.4782  -5.4737  -5.4725  -5.4582  -5.4527  -5.4484  -5.4481
    -5.4441  -5.4311  -5.4303  -5.4287  -5.4278  -5.4234  -5.4148  -5.4145
    -5.4124  -5.4105  -5.4051  -5.4047  -5.4016  -5.3803  -5.3775  -5.3749
    -5.3722  -5.3702  -5.3692  -5.3670  -5.3650  -5.3621  -5.3615  -5.3561
    -5.3453  -5.3369  -5.3314  -5.3269  -5.3217  -5.3195  -5.3176  -5.3163
    -5.3122  -5.3116  -5.3056  -5.3048  -5.2980  -5.2935  -5.2892  -5.2888
    -5.2863  -5.2854  -5.2799  -5.2790  -5.2777  -5.2709  -5.2609  -5.2571
    -5.2556  -5.2545  -5.2531  -5.2460  -5.2389  -5.2385  -5.2371  -5.2349
    -5.2346  -5.2338  -5.2304  -5.2216  -5.2202  -5.2114  -5.2108  -5.2105
    -5.2078  -5.2049  -5.2034  -5.1919  -5.1900  -5.1886  -5.1882  -5.1880
    -5.1852  -5.1795  -5.1744  -5.1732  -5.1669  -5.1661  -5.1631  -5.1590
    -5.1528  -5.1508  -5.1436  -5.1355  -5.1345  -5.1341  -5.1316  -5.1208
    -5.1195  -5.1164  -5.1135  -5.1095  -5.1008  -5.0997  -5.0984  -5.0869
    -5.0818  -5.0708  -5.0640  -5.0634  -5.0503  -5.0235  -5.0180  -5.0089
    -5.0039  -4.9819  -4.9772  -4.9573  -4.9477  -4.9314  -4.9140  -4.7281
    -4.6824  -4.6017  -4.5176  -4.5074  -4.2123  -4.1190  -3.9057  -3.8955
    -3.7966  -3.4566  -3.3467  -3.2319  -3.2003  -3.1482  -3.1365  -3.0797
    -3.0520  -2.7933  -2.7687  -2.3793  -1.8823  -1.8605  -1.8365  -1.7468
    -1.6782  -1.6124  -1.5386  -1.4740  -1.3845  -1.1910  -1.1509  -1.1415
    -0.4856  -0.4297  -0.3555  -0.1811  -0.0864  -0.0174   0.0295   0.1801
     0.1903   0.2074   0.3145   0.5909   0.7258   1.0369   1.2512   1.2883
     1.2987   1.3482   1.5810   1.5999   1.6222   1.6569   1.6995   2.0527
     2.1474   2.1609   2.1715   2.4680   2.7049   2.7337   2.8227   2.9632
     2.9960   3.0876   3.2647   3.3092   3.3576   3.6459   3.7170   3.8580
     3.9332   3.9987   4.0262   4.0589   4.1057   4.2552   4.2737   4.2999
     4.6898   4.7286   4.7429   4.8370   4.9251   4.9732   5.0690   5.0873
     5.1784   5.2226   5.3502   5.4032   5.4778   5.5154   5.5471   5.6122
     5.6249   5.6646   5.7221   5.7529   5.7911   5.9133   6.0381   6.1367
     6.2231   6.3152   6.3512   6.4807   6.5402   6.5521   6.5836   6.6934
     6.7653   6.8488   6.9376   7.0025   7.0183   7.0287   7.1135   7.1563
     7.2298   7.2413   7.2864   7.3288   7.3843   7.4110   7.4354   7.5242
     7.5838   7.7419   7.7852   7.8219   7.8492   7.9253   8.0072   8.0145
     8.0644   8.1297   8.1890   8.2360   8.3083   8.3290   8.3898   8.4126
     8.4203   8.4640   8.5088   8.5565   8.6339   8.6468   8.6926   8.7310
     8.7471

     occupation numbers 
     1.0000   1.0000   1.0000   1.0000   1.0000   1.0000   1.0000   1.0000
     1.0000   1.0000   1.0000   1.0000   1.0000   1.0000   1.0000   1.0000
     1.0000   1.0000   1.0000   1.0000   1.0000   1.0000   1.0000   1.0000
     1.0000   1.0000   1.0000   1.0000   1.0000   1.0000   1.0000   1.0000
     1.0000   1.0000   1.0000   1.0000   1.0000   1.0000   1.0000   1.0000
     1.0000   1.0000   1.0000   1.0000   1.0000   1.0000   1.0000   1.0000
     1.0000   1.0000   1.0000   1.0000   1.0000   1.0000   1.0000   1.0000
     1.0000   1.0000   1.0000   1.0000   1.0000   1.0000   1.0000   1.0000
     1.0000   1.0000   1.0000   1.0000   1.0000   1.0000   1.0000   1.0000
     1.0000   1.0000   1.0000   1.0000   1.0000   1.0000   1.0000   1.0000
     1.0000   1.0000   1.0000   1.0000   1.0000   1.0000   1.0000   1.0000
     1.0000   1.0000   1.0000   1.0000   1.0000   1.0000   1.0000   1.0000
     1.0000   1.0000   1.0000   1.0000   1.0000   1.0000   1.0000   1.0000
     1.0000   1.0000   1.0000   1.0000   1.0000   1.0000   1.0000   1.0000
     1.0000   1.0000   1.0000   1.0000   1.0000   1.0000   1.0000   1.0000
     1.0000   1.0000   1.0000   1.0000   1.0000   1.0000   1.0000   1.0000
     1.0000   1.0000   1.0000   1.0000   1.0000   1.0000   1.0000   1.0000
     1.0000   1.0000   1.0000   1.0000   1.0000   1.0000   1.0000   1.0000
     1.0000   1.0000   1.0000   1.0000   1.0000   1.0000   1.0000   1.0000
     1.0000   1.0000   1.0000   1.0000   1.0000   1.0000   1.0000   1.0000
     1.0000   1.0000   1.0000   1.0000   1.0000   1.0000   1.0000   1.0000
     1.0000   1.0000   1.0000   1.0000   1.0000   1.0000   1.0000   1.0000
     1.0000   1.0000   1.0000   1.0000   1.0000   1.0000   1.0000   1.0000
     1.0000   1.0000   1.0000   1.0000   1.0000   1.0000   1.0000   1.0000
     1.0000   1.0000   1.0000   1.0000   1.0000   1.0000   1.0000   1.0000
     1.0000   1.0000   1.0000   1.0000   1.0000   1.0000   1.0000   1.0000
     1.0000   1.0000   1.0000   1.0000   1.0000   1.0000   1.0000   1.0000
     1.0000   1.0000   1.0000   1.0000   1.0000   1.0000   1.0000   1.0000
     1.0000   1.0000   1.0000   1.0000   1.0000   1.0000   1.0000   1.0000
     1.0000   1.0000   1.0000   1.0000   1.0000   1.0000   1.0000   1.0000
     1.0000   1.0000   1.0000   1.0000   1.0000   1.0000   1.0000   1.0000
     1.0000   1.0000   1.0000   1.0000   1.0000   1.0000   1.0000   1.0000
     1.0000   1.0000   1.0000   1.0000   1.0000   1.0000   1.0000   1.0000
     1.0000   1.0000   1.0000   1.0000   1.0000   1.0000   1.0000   1.0000
     1.0000   1.0000   1.0000   1.0000   1.0000   1.0000   1.0000   1.0000
     1.0000   1.0000   1.0000   1.0000   1.0000   1.0000   1.0000   1.0000
     1.0000   1.0000   1.0000   1.0000   1.0000   1.0000   1.0000   1.0000
     1.0000   1.0000   1.0000   1.0000   1.0000   1.0000   1.0000   1.0000
     1.0000   1.0000   1.0000   1.0000   1.0000   1.0000   1.0000   1.0000
     1.0000   1.0000   1.0000   1.0000   1.0000   1.0000   1.0000   1.0000
     1.0000   1.0000   1.0000   1.0000   1.0000   1.0000   1.0000   1.0000
     1.0000   1.0000   1.0000   1.0000   1.0000   1.0000   1.0000   1.0000
     1.0000   1.0000   1.0000   1.0000   1.0000   1.0000   1.0000   1.0000
     1.0000   1.0000   1.0000   1.0000   1.0000   1.0000   1.0000   1.0000
     1.0000   1.0000   1.0000   1.0000   1.0000   1.0000   1.0000   1.0000
     1.0000   1.0000   1.0000   1.0000   1.0000   1.0000   1.0000   1.0000
     1.0000   1.0000   1.0000   1.0000   1.0000   1.0000   1.0000   1.0000
     1.0000   1.0000   1.0000   1.0000   1.0000   1.0000   1.0000   1.0000
     1.0000   1.0000   1.0000   1.0000   1.0000   1.0000   1.0000   1.0000
     1.0000   1.0000   1.0000   1.0000   1.0000   1.0000   1.0000   1.0000
     1.0000   1.0000   1.0000   1.0000   1.0000   1.0000   1.0000   1.0000
     1.0000   1.0000   1.0000   1.0000   1.0000   1.0000   1.0000   1.0000
     1.0000   1.0000   1.0000   1.0000   1.0000   1.0000   1.0000   1.0000
     1.0000   1.0000   1.0000   1.0000   1.0000   1.0000   1.0000   1.0000
     1.0000   1.0000   1.0000   1.0000   1.0000   1.0000   1.0000   1.0000
     1.0000   1.0000   1.0000   1.0000   1.0000   1.0000   1.0000   1.0000
     1.0000   1.0000   1.0000   1.0000   1.0000   1.0000   1.0000   1.0000
     1.0000   1.0000   1.0000   1.0000   1.0000   1.0000   1.0000   1.0000
     1.0000   1.0000   1.0000   1.0000   1.0000   1.0000   1.0000   1.0000
     1.0000   1.0000   1.0000   1.0000   1.0000   1.0000   1.0000   1.0000
     1.0000   1.0000   1.0000   1.0000   1.0000   1.0000   1.0000   1.0000
     1.0000   1.0000   1.0000   1.0001   1.0013   1.0515   1.0527   1.0152
     1.0017   0.9191   0.3275   0.2856   0.2405   0.1797   0.1208   0.0007
     0.0001   0.0001   0.0001   0.0000   0.0000   0.0000   0.0000   0.0000
     0.0000   0.0000   0.0000   0.0000   0.0000   0.0000   0.0000   0.0000
     0.0000   0.0000   0.0000   0.0000   0.0000   0.0000   0.0000   0.0000
     0.0000   0.0000   0.0000   0.0000   0.0000   0.0000   0.0000   0.0000
     0.0000   0.0000   0.0000   0.0000   0.0000   0.0000   0.0000   0.0000
     0.0000   0.0000   0.0000   0.0000   0.0000   0.0000   0.0000   0.0000
     0.0000   0.0000   0.0000   0.0000   0.0000   0.0000   0.0000   0.0000
     0.0000   0.0000   0.0000   0.0000   0.0000   0.0000   0.0000   0.0000
     0.0000   0.0000   0.0000   0.0000   0.0000   0.0000   0.0000   0.0000
     0.0000   0.0000   0.0000   0.0000   0.0000   0.0000   0.0000   0.0000
     0.0000   0.0000   0.0000   0.0000   0.0000   0.0000   0.0000   0.0000
     0.0000   0.0000   0.0000   0.0000   0.0000   0.0000   0.0000   0.0000
     0.0000

          k = 0.3333 0.0000 0.0000 ( 67745 PWs)   bands (ev):

  -124.7981-124.7967-124.7963-124.7960-124.7954-124.7952-124.7949-124.7942
  -124.6525-124.6478-124.6469-124.6466-124.6457-124.6445-124.6438-124.6434
  -124.6425-124.6425-124.6416-124.6403-124.6402-124.6397-124.6393-124.6388
  -124.5945-124.5925-124.5923-124.5890-124.5884-124.5882-124.5874-124.5868
  -124.5534-124.5525-124.5519-124.5509-124.5488-124.5474-124.5473-124.5463
  -124.5028-124.5025-124.5020-124.5017-124.5016-124.5014-124.5009-124.5006
   -78.9555 -78.9547 -78.9543 -78.9532 -78.9523 -78.9519 -78.9512 -78.9510
   -78.9507 -78.9499 -78.9464 -78.9453 -78.9449 -78.9444 -78.9443 -78.9440
   -78.9432 -78.9431 -78.9429 -78.9426 -78.9419 -78.9417 -78.9303 -78.9294
   -78.8172 -78.8060 -78.8059 -78.8057 -78.8051 -78.8050 -78.8049 -78.8047
   -78.8041 -78.8040 -78.8039 -78.8038 -78.8035 -78.8031 -78.8031 -78.8029
   -78.8027 -78.8021 -78.8020 -78.8020 -78.8019 -78.8015 -78.8011 -78.8008
   -78.8007 -78.7999 -78.7999 -78.7988 -78.7977 -78.7939 -78.7898 -78.7895
   -78.7880 -78.7877 -78.7875 -78.7873 -78.7873 -78.7867 -78.7862 -78.7859
   -78.7855 -78.7853 -78.7843 -78.7842 -78.7777 -78.7774 -78.7751 -78.7742
   -78.7542 -78.7529 -78.7520 -78.7519 -78.7489 -78.7481 -78.7476 -78.7474
   -78.7465 -78.7460 -78.7439 -78.7418 -78.7417 -78.7408 -78.7398 -78.7388
   -78.7379 -78.7379 -78.7370 -78.7370 -78.7363 -78.7361 -78.7276 -78.7242
   -78.7185 -78.7172 -78.7166 -78.7157 -78.7141 -78.7125 -78.7122 -78.7111
   -78.7074 -78.7040 -78.7033 -78.7027 -78.7027 -78.7016 -78.6993 -78.6982
   -78.6980 -78.6971 -78.6955 -78.6947 -78.6906 -78.6903 -78.6829 -78.6787
   -78.6784 -78.6782 -78.6778 -78.6775 -78.6775 -78.6773 -78.6766 -78.6764
   -78.6547 -78.6543 -78.6508 -78.6505 -78.6499 -78.6496 -78.6496 -78.6494
   -78.6487 -78.6485 -78.6425 -78.6423 -78.6421 -78.6420 -78.6301 -78.6298
   -16.7568 -14.7051 -12.5724 -12.1428 -10.5371  -8.9225  -8.1966  -7.5134
    -7.0719  -6.6552  -6.5424  -6.4751  -6.4598  -6.4336  -6.3676  -6.3527
    -6.3517  -6.3414  -6.3324  -6.2961  -6.2952  -6.2722  -6.2649  -6.2251
    -6.2225  -6.2220  -6.2156  -6.1781  -6.1677  -6.1650  -6.1648  -6.1593
    -6.1127  -6.1075  -6.1003  -6.0956  -6.0946  -6.0881  -6.0874  -6.0866
    -6.0546  -6.0544  -6.0355  -6.0292  -6.0280  -6.0255  -6.0251  -6.0248
    -6.0164  -6.0098  -6.0094  -5.9668  -5.9660  -5.9516  -5.9486  -5.9311
    -5.9286  -5.9281  -5.9272  -5.9269  -5.9265  -5.9172  -5.9126  -5.9009
    -5.8947  -5.8918  -5.8803  -5.8499  -5.8495  -5.8435  -5.8360  -5.8355
    -5.8253  -5.8226  -5.8163  -5.8156  -5.8137  -5.8136  -5.8072  -5.7995
    -5.7834  -5.7743  -5.7734  -5.7563  -5.7476  -5.7471  -5.7465  -5.7406
    -5.7314  -5.7189  -5.7186  -5.7177  -5.7129  -5.7050  -5.7042  -5.7011
    -5.7009  -5.7000  -5.6931  -5.6859  -5.6839  -5.6809  -5.6660  -5.6650
    -5.6639  -5.6636  -5.6378  -5.6357  -5.6162  -5.5994  -5.5979  -5.5839
    -5.5729  -5.5642  -5.5608  -5.5593  -5.5585  -5.5554  -5.5551  -5.5530
    -5.5446  -5.5444  -5.5412  -5.5374  -5.5359  -5.5296  -5.5231  -5.5221
    -5.5208  -5.5158  -5.5153  -5.5145  -5.5139  -5.5132  -5.5025  -5.4897
    -5.4866  -5.4855  -5.4847  -5.4746  -5.4733  -5.4705  -5.4701  -5.4487
    -5.4455  -5.4447  -5.4437  -5.4322  -5.4290  -5.4280  -5.4268  -5.4260
    -5.4156  -5.4151  -5.4052  -5.4031  -5.3981  -5.3936  -5.3921  -5.3705
    -5.3699  -5.3690  -5.3681  -5.3669  -5.3617  -5.3607  -5.3575  -5.3573
    -5.3556  -5.3552  -5.3511  -5.3471  -5.3466  -5.3447  -5.3436  -5.3422
    -5.3405  -5.3363  -5.3234  -5.3197  -5.3181  -5.3179  -5.3138  -5.3137
    -5.3127  -5.3104  -5.3098  -5.3017  -5.3011  -5.2989  -5.2880  -5.2828
    -5.2715  -5.2691  -5.2683  -5.2667  -5.2612  -5.2609  -5.2596  -5.2568
    -5.2543  -5.2476  -5.2449  -5.2433  -5.2429  -5.2424  -5.2379  -5.2378
    -5.2277  -5.2190  -5.2172  -5.2107  -5.2104  -5.2031  -5.1966  -5.1934
    -5.1910  -5.1861  -5.1859  -5.1835  -5.1800  -5.1798  -5.1789  -5.1696
    -5.1656  -5.1594  -5.1481  -5.1460  -5.1377  -5.1353  -5.1350  -5.1302
    -5.1093  -5.1071  -5.1066  -5.0960  -5.0931  -5.0913  -5.0882  -5.0828
    -5.0816  -5.0743  -5.0706  -5.0663  -5.0424  -5.0194  -5.0106  -4.9909
    -4.9848  -4.9843  -4.9771  -4.9644  -4.9563  -4.9321  -4.9143  -4.8619
    -4.8605  -4.7665  -4.6018  -4.2169  -4.1733  -4.1175  -4.0421  -4.0258
    -3.8956  -3.5613  -3.5542  -3.1469  -3.1023  -3.0601  -2.9011  -2.7230
    -2.7221  -2.5709  -2.5212  -2.3790  -1.9907  -1.9725  -1.8377  -1.5787
    -1.5712  -1.2686  -1.2640  -1.2561  -1.2339  -1.1900  -1.1684  -1.0528
    -1.0512  -0.8587  -0.7371  -0.6987  -0.0775  -0.0174   0.0729   0.2134
     0.2149   0.2397   0.4198   0.4981   0.6103   0.6350   0.6415   0.8449
     1.1308   1.2596   1.3081   1.5527   1.5629   1.6957   1.8990   2.0790
     2.1592   2.1696   2.3526   2.3556   2.5349   2.9948   3.0259   3.0685
     3.1352   3.3061   3.3088   3.3146   3.3162   3.3955   3.5385   3.6976
     4.1162   4.1218   4.3875   4.4160   4.5170   4.5312   4.5955   4.6670
     4.6860   4.6878   4.9458   4.9733   5.0450   5.0631   5.0763   5.1113
     5.1618   5.3630   5.4500   5.6458   5.7581   5.7976   5.8965   5.9259
     5.9657   5.9907   5.9956   6.0160   6.0221   6.0321   6.1773   6.2018
     6.4052   6.4338   6.4867   6.5265   6.5428   6.5491   6.5651   6.6256
     6.6756   6.6999   6.7282   6.7463   6.8331   6.8880   6.9435   7.0199
     7.1148   7.1853   7.2250   7.2793   7.3397   7.4219   7.4471   7.4808
     7.4886   7.4914   7.5286   7.5739   7.5858   7.6432   7.7417   7.8287
     7.8865   7.9375   8.0239   8.0282   8.1188   8.1557   8.1807   8.2297
     8.3087   8.3366   8.3713   8.4596   8.5312   8.5781   8.6273   8.7034
     8.7327

     occupation numbers 
     1.0000   1.0000   1.0000   1.0000   1.0000   1.0000   1.0000   1.0000
     1.0000   1.0000   1.0000   1.0000   1.0000   1.0000   1.0000   1.0000
     1.0000   1.0000   1.0000   1.0000   1.0000   1.0000   1.0000   1.0000
     1.0000   1.0000   1.0000   1.0000   1.0000   1.0000   1.0000   1.0000
     1.0000   1.0000   1.0000   1.0000   1.0000   1.0000   1.0000   1.0000
     1.0000   1.0000   1.0000   1.0000   1.0000   1.0000   1.0000   1.0000
     1.0000   1.0000   1.0000   1.0000   1.0000   1.0000   1.0000   1.0000
     1.0000   1.0000   1.0000   1.0000   1.0000   1.0000   1.0000   1.0000
     1.0000   1.0000   1.0000   1.0000   1.0000   1.0000   1.0000   1.0000
     1.0000   1.0000   1.0000   1.0000   1.0000   1.0000   1.0000   1.0000
     1.0000   1.0000   1.0000   1.0000   1.0000   1.0000   1.0000   1.0000
     1.0000   1.0000   1.0000   1.0000   1.0000   1.0000   1.0000   1.0000
     1.0000   1.0000   1.0000   1.0000   1.0000   1.0000   1.0000   1.0000
     1.0000   1.0000   1.0000   1.0000   1.0000   1.0000   1.0000   1.0000
     1.0000   1.0000   1.0000   1.0000   1.0000   1.0000   1.0000   1.0000
     1.0000   1.0000   1.0000   1.0000   1.0000   1.0000   1.0000   1.0000
     1.0000   1.0000   1.0000   1.0000   1.0000   1.0000   1.0000   1.0000
     1.0000   1.0000   1.0000   1.0000   1.0000   1.0000   1.0000   1.0000
     1.0000   1.0000   1.0000   1.0000   1.0000   1.0000   1.0000   1.0000
     1.0000   1.0000   1.0000   1.0000   1.0000   1.0000   1.0000   1.0000
     1.0000   1.0000   1.0000   1.0000   1.0000   1.0000   1.0000   1.0000
     1.0000   1.0000   1.0000   1.0000   1.0000   1.0000   1.0000   1.0000
     1.0000   1.0000   1.0000   1.0000   1.0000   1.0000   1.0000   1.0000
     1.0000   1.0000   1.0000   1.0000   1.0000   1.0000   1.0000   1.0000
     1.0000   1.0000   1.0000   1.0000   1.0000   1.0000   1.0000   1.0000
     1.0000   1.0000   1.0000   1.0000   1.0000   1.0000   1.0000   1.0000
     1.0000   1.0000   1.0000   1.0000   1.0000   1.0000   1.0000   1.0000
     1.0000   1.0000   1.0000   1.0000   1.0000   1.0000   1.0000   1.0000
     1.0000   1.0000   1.0000   1.0000   1.0000   1.0000   1.0000   1.0000
     1.0000   1.0000   1.0000   1.0000   1.0000   1.0000   1.0000   1.0000
     1.0000   1.0000   1.0000   1.0000   1.0000   1.0000   1.0000   1.0000
     1.0000   1.0000   1.0000   1.0000   1.0000   1.0000   1.0000   1.0000
     1.0000   1.0000   1.0000   1.0000   1.0000   1.0000   1.0000   1.0000
     1.0000   1.0000   1.0000   1.0000   1.0000   1.0000   1.0000   1.0000
     1.0000   1.0000   1.0000   1.0000   1.0000   1.0000   1.0000   1.0000
     1.0000   1.0000   1.0000   1.0000   1.0000   1.0000   1.0000   1.0000
     1.0000   1.0000   1.0000   1.0000   1.0000   1.0000   1.0000   1.0000
     1.0000   1.0000   1.0000   1.0000   1.0000   1.0000   1.0000   1.0000
     1.0000   1.0000   1.0000   1.0000   1.0000   1.0000   1.0000   1.0000
     1.0000   1.0000   1.0000   1.0000   1.0000   1.0000   1.0000   1.0000
     1.0000   1.0000   1.0000   1.0000   1.0000   1.0000   1.0000   1.0000
     1.0000   1.0000   1.0000   1.0000   1.0000   1.0000   1.0000   1.0000
     1.0000   1.0000   1.0000   1.0000   1.0000   1.0000   1.0000   1.0000
     1.0000   1.0000   1.0000   1.0000   1.0000   1.0000   1.0000   1.0000
     1.0000   1.0000   1.0000   1.0000   1.0000   1.0000   1.0000   1.0000
     1.0000   1.0000   1.0000   1.0000   1.0000   1.0000   1.0000   1.0000
     1.0000   1.0000   1.0000   1.0000   1.0000   1.0000   1.0000   1.0000
     1.0000   1.0000   1.0000   1.0000   1.0000   1.0000   1.0000   1.0000
     1.0000   1.0000   1.0000   1.0000   1.0000   1.0000   1.0000   1.0000
     1.0000   1.0000   1.0000   1.0000   1.0000   1.0000   1.0000   1.0000
     1.0000   1.0000   1.0000   1.0000   1.0000   1.0000   1.0000   1.0000
     1.0000   1.0000   1.0000   1.0000   1.0000   1.0000   1.0000   1.0000
     1.0000   1.0000   1.0000   1.0000   1.0000   1.0000   1.0000   1.0000
     1.0000   1.0000   1.0000   1.0000   1.0000   1.0000   1.0000   1.0000
     1.0000   1.0000   1.0000   1.0000   1.0000   1.0000   1.0000   1.0000
     1.0000   1.0000   1.0000   1.0000   1.0000   1.0000   1.0000   1.0000
     1.0000   1.0000   1.0000   1.0000   1.0000   1.0000   1.0000   1.0000
     1.0000   1.0000   1.0000   1.0000   1.0000   1.0000   1.0000   1.0000
     1.0000   1.0000   1.0000   1.0000   1.0000   1.0000   1.0000   1.0000
     1.0000   1.0000   1.0000   1.0000   1.0000   1.0000   1.0000   1.0000
     1.0000   1.0000   1.0000   1.0000   1.0000   1.0000   1.0000   1.0000
     1.0000   1.0000   1.0000   1.0000   1.0002   1.0003   1.0003   1.0075
     1.0798   1.0456   0.9883   0.3952   0.3702   0.1253   0.0102   0.0004
     0.0001   0.0001   0.0000   0.0000   0.0000   0.0000   0.0000   0.0000
[...]
     atom   32 type  1   force =     0.00000000    0.00000000   -0.00000000
     atom   33 type  1   force =    -0.00000136   -0.00001995   -0.00001127
     atom   34 type  1   force =    -0.00000208    0.00001847    0.00000346
     atom   35 type  1   force =    -0.00000668   -0.00000111   -0.00003312
     atom   36 type  1   force =    -0.00000654   -0.00000108   -0.00001011
     atom   37 type  1   force =    -0.00000000    0.00000000    0.00000000
     atom   38 type  1   force =    -0.00000000   -0.00000000   -0.00000000
     atom   39 type  1   force =    -0.00000130    0.00003639    0.00002981
     atom   40 type  1   force =    -0.00000492   -0.00003759    0.00003229
     atom   41 type  1   force =     0.00000881    0.00002647   -0.00000642
     atom   42 type  1   force =     0.00000711   -0.00002634   -0.00001677
     atom   43 type  1   force =    -0.00000000   -0.00000000    0.00000000
     atom   44 type  1   force =    -0.00000000    0.00000000    0.00000000
     atom   45 type  1   force =    -0.00000323   -0.00001514    0.00002609
     atom   46 type  1   force =    -0.00000290    0.00001606    0.00003719
     atom   47 type  1   force =     0.00000936    0.00000678   -0.00002105
     atom   48 type  1   force =     0.00000691   -0.00000734   -0.00000173
     atom   49 type  3   force =     0.00000043    0.00000118    0.00001080
     atom   50 type  3   force =    -0.00000212   -0.00000191    0.00000378
     atom   51 type  3   force =    -0.00000039    0.00000456    0.00000685
     atom   52 type  3   force =     0.00000014    0.00000349    0.00001049
     atom   53 type  3   force =    -0.00000100    0.00000102   -0.00000129
     atom   54 type  3   force =     0.00000486   -0.00000099    0.00000802
     atom   55 type  3   force =    -0.00000578   -0.00000425   -0.00000579
     atom   56 type  2   force =    -0.00001325   -0.00000483    0.00000202
     atom   57 type  4   force =     0.00000069   -0.00000184   -0.00000099
     atom   58 type  4   force =    -0.00000039    0.00000042   -0.00000086
     atom   59 type  4   force =     0.00000078   -0.00000105   -0.00000013
     atom   60 type  4   force =    -0.00000141    0.00000152   -0.00000072
     atom   61 type  4   force =    -0.00000068    0.00000179   -0.00000020
     atom   62 type  4   force =    -0.00000029    0.00000122    0.00000026
     atom   63 type  4   force =     0.00000169   -0.00000156   -0.00000066
     atom   64 type  4   force =    -0.00000055   -0.00000130   -0.00000093
     atom   65 type  4   force =    -0.00000084   -0.00000081   -0.00000064

     DFT-D3 dispersion contribution to forces:
     atom    1 type  1   force =     0.00000025   -0.00000140    0.00155491
     atom    2 type  1   force =     0.00000121    0.00000172    0.00155580
     atom    3 type  1   force =     0.00002674   -0.00000644    0.00157094
     atom    4 type  1   force =     0.00002948    0.00000661    0.00159436
     atom    5 type  1   force =     0.00004446    0.00006450   -0.00105704
     atom    6 type  1   force =     0.00042485   -0.00020470   -0.00041980
     atom    7 type  1   force =     0.00000142    0.00000310    0.00155176
     atom    8 type  1   force =     0.00000064   -0.00000187    0.00155963
     atom    9 type  1   force =    -0.00001051    0.00000878    0.00158263
     atom   10 type  1   force =     0.00002398   -0.00001134    0.00157588
     atom   11 type  1   force =     0.00039986    0.00025618   -0.00047177
     atom   12 type  1   force =     0.00006306   -0.00010466   -0.00102629
     atom   13 type  1   force =    -0.00000005   -0.00000161    0.00155264
     atom   14 type  1   force =    -0.00000049    0.00000219    0.00155318
     atom   15 type  1   force =    -0.00002319   -0.00000839    0.00156855
     atom   16 type  1   force =    -0.00003183    0.00000465    0.00157813
     atom   17 type  1   force =    -0.00004885    0.00008437   -0.00102658
     atom   18 type  1   force =    -0.00043969   -0.00019622   -0.00042450
     atom   19 type  1   force =     0.00000005    0.00000255    0.00154837
     atom   20 type  1   force =    -0.00000048   -0.00000121    0.00155777
     atom   21 type  1   force =     0.00000646    0.00000950    0.00156956
     atom   22 type  1   force =    -0.00002221   -0.00001019    0.00156684
     atom   23 type  1   force =    -0.00041034    0.00021539   -0.00045018
     atom   24 type  1   force =    -0.00006163   -0.00010657   -0.00102368
     atom   25 type  1   force =    -0.00000974   -0.00000129    0.00272595
     atom   26 type  1   force =    -0.00001120    0.00000304    0.00272958
     atom   27 type  1   force =     0.00001216    0.00000019   -0.00245078
     atom   28 type  1   force =     0.00001802    0.00000705   -0.00238307
     atom   29 type  1   force =     0.00001649   -0.00002648   -0.00209754
     atom   30 type  1   force =     0.00001421    0.00003822   -0.00078091
     atom   31 type  1   force =    -0.00001101    0.00000019    0.00272209
     atom   32 type  1   force =    -0.00001005    0.00000122    0.00272777
     atom   33 type  1   force =     0.00000961    0.00000825   -0.00238691
     atom   34 type  1   force =     0.00001292   -0.00001169   -0.00245336
     atom   35 type  1   force =     0.00003697    0.00048920   -0.00146827
     atom   36 type  1   force =     0.00001153   -0.00052429   -0.00136439
     atom   37 type  1   force =    -0.00001178   -0.00000407    0.00272796
     atom   38 type  1   force =    -0.00001225    0.00000561    0.00273312
     atom   39 type  1   force =    -0.00001130   -0.00000512   -0.00245533
     atom   40 type  1   force =    -0.00001426    0.00000512   -0.00243499
     atom   41 type  1   force =    -0.00000251   -0.00001166   -0.00219359
     atom   42 type  1   force =     0.00001128    0.00001413   -0.00203574
     atom   43 type  1   force =    -0.00001230    0.00000042    0.00272287
     atom   44 type  1   force =    -0.00001120    0.00000093    0.00273585
     atom   45 type  1   force =    -0.00000817    0.00000850   -0.00243903
     atom   46 type  1   force =    -0.00001057   -0.00000522   -0.00245376
     atom   47 type  1   force =    -0.00000512    0.00003219   -0.00214700
     atom   48 type  1   force =     0.00000490   -0.00003598   -0.00213565
     atom   49 type  3   force =    -0.00008806    0.00018184   -0.00037908
     atom   50 type  3   force =     0.00003148    0.00000642    0.00012347
     atom   51 type  3   force =    -0.00005744    0.00009279   -0.00032806
     atom   52 type  3   force =     0.00009456   -0.00015262   -0.00039003
     atom   53 type  3   force =    -0.00000353   -0.00000655   -0.00048318
     atom   54 type  3   force =     0.00005310   -0.00011442   -0.00018321
     atom   55 type  3   force =     0.00000074    0.00000072   -0.00101332
     atom   56 type  2   force =     0.00000341    0.00000853   -0.00007105
     atom   57 type  4   force =     0.00002066   -0.00007419    0.00010748
     atom   58 type  4   force =     0.00005741    0.00007012   -0.00130691
     atom   59 type  4   force =     0.00001094   -0.00000947   -0.00000972
     atom   60 type  4   force =    -0.00004845    0.00004863    0.00011371
     atom   61 type  4   force =     0.00003263   -0.00004869   -0.00022659
     atom   62 type  4   force =    -0.00000672    0.00000765   -0.00001104
     atom   63 type  4   force =    -0.00002558    0.00003835   -0.00017051
     atom   64 type  4   force =     0.00003340   -0.00003996   -0.00166183
     atom   65 type  4   force =    -0.00008841   -0.00000257   -0.00139610

     Total force =     0.002926     Total SCF correction =     0.000192

     DFT-D3 dispersion Force =     0.013716


     Computing stress (Cartesian axis) and pressure


     negative rho (up, down):  3.052E-03 0.000E+00
          total   stress  (Ry/bohr**3)                   (kbar)     P=      -17.24
  -0.00019808  -0.00000023  -0.00000007          -29.14       -0.03       -0.01
  -0.00000023  -0.00013356   0.00000014           -0.03      -19.65        0.02
  -0.00000007   0.00000014  -0.00001988           -0.01        0.02       -2.92

     kinetic stress (kbar)  12408.04     25.96      4.12
                               25.96  12351.43      2.22
                                4.12      2.22  12401.60

     local   stress (kbar)-949799.15    669.25     26.64
                              669.25-962994.47     45.58
                               26.64     45.58 959535.75

     nonloc. stress (kbar)  -1196.05     -1.94      0.09
                               -1.94  -1165.89      0.02
                                0.09      0.02  -1213.79

     hartree stress (kbar) 501599.93   -247.63     -7.85
                             -247.63 507220.83    -18.14
                               -7.85    -18.14-446507.94

     exc-cor stress (kbar)  -6049.82     -1.31     -0.07
                               -1.31  -6044.82     -0.05
                               -0.07     -0.05  -6052.10

     corecor stress (kbar)    -75.93      0.40      0.00
                                0.40    -76.43     -0.00
                                0.00     -0.00    -76.57

     ewald   stress (kbar) 443089.86   -444.75    -22.95
                             -444.75 450698.41    -29.60
                              -22.95    -29.60-518086.60

     hubbard stress (kbar)      0.00      0.00      0.00
                                0.00      0.00      0.00
                                0.00      0.00      0.00

     DFT-D   stress (kbar)     -6.03     -0.00      0.01
                               -0.00     -8.71     -0.00
                                0.01     -0.00     -3.28

     XDM     stress (kbar)      0.00      0.00      0.00
                                0.00      0.00      0.00
                                0.00      0.00      0.00

     dft-nl  stress (kbar)      0.00      0.00      0.00
                                0.00      0.00      0.00
                                0.00      0.00      0.00

     TS-vdW  stress (kbar)      0.00      0.00      0.00
                                0.00      0.00      0.00
                                0.00      0.00      0.00

     MDB     stress (kbar)      0.00      0.00      0.00
                                0.00      0.00      0.00
                                0.00      0.00      0.00

     3D-RISM stress (kbar)      0.00      0.00      0.00
                                0.00      0.00      0.00
                                0.00      0.00      0.00

     Energy error            =      1.0E-05 Ry
     Gradient error          =      8.6E-04 Ry/Bohr

     bfgs converged in  27 scf cycles and  26 bfgs steps
     (criteria: energy <  5.0E-05 Ry, force <  1.0E-03 Ry/Bohr)

     End of BFGS Geometry Optimization

     Final energy             =  -22314.6566301204 Ry

     File ./tmp/Zn100_3layer_ptoluidine_relax.bfgs deleted, as requested
Begin final coordinates

ATOMIC_POSITIONS (angstrom)
Zn               1.2182900000        1.3071800000        0.7547010000    0   0   0
Zn               1.2182900000        6.5359000000        0.7547010000    0   0   0
Zn               1.2236406333       -0.0005909593        3.5723560778
Zn               1.2241691534        5.2289186784        3.5730305899
Zn               1.2202023226       -1.3083656388        6.1051816408
Zn               1.2210448485        3.9223377123        6.1108000508
Zn               1.2182900000        3.9215400000        0.7547010000    0   0   0
Zn               1.2182900000        9.1502600000        0.7547010000    0   0   0
Zn               1.2237358048        2.6149529867        3.5776623372
Zn               1.2242796706        7.8418202022        3.5719214824
Zn               1.2213594108        1.3073264094        6.1120319423
Zn               1.2202433920        6.5346977183        6.1050385264
Zn               6.0914510000        1.3071800000        0.7547010000    0   0   0
Zn               6.0914510000        6.5359000000        0.7547010000    0   0   0
Zn               6.0952692728       -0.0008353939        3.5734156955
Zn               6.0956228093        5.2287092739        3.5746964617
Zn               6.0945857012       -1.3082253539        6.1046640442
Zn               6.0910780558        3.9219479116        6.1138035229
Zn               6.0914510000        3.9215400000        0.7547010000    0   0   0
Zn               6.0914510000        9.1502600000        0.7547010000    0   0   0
Zn               6.0964105685        2.6152056719        3.5785605724
Zn               6.0943691256        7.8417250351        3.5729209855
Zn               6.0924978245        1.3070911688        6.1101076667
Zn               6.0938373456        6.5348503580        6.1060032371
Zn               3.6548710000       -0.0000000000        1.5094010000    0   0   0
Zn               3.6548710000        5.2287200000        1.5094010000    0   0   0
Zn               3.6612984253       -1.3077051260        3.7826786153
Zn               3.6624665138        3.9228490916        3.7822065492
Zn               3.6588111104       -2.6162341987        6.1532731640
Zn               3.6577970104        2.6144990588        6.1460027433
Zn               3.6548710000        2.6143600000        1.5094010000    0   0   0
Zn               3.6548710000        7.8430800000        1.5094010000    0   0   0
Zn               3.6617829030        1.3069556123        3.7829211703
Zn               3.6615792138        6.5344513164        3.7814951438
Zn               3.6587942113       -0.0005240947        6.1546083639
Zn               3.6584604247        5.2280050527        6.1578440427
Zn               8.5280310000       -0.0000000000        1.5094010000    0   0   0
Zn               8.5280310000        5.2287200000        1.5094010000    0   0   0
Zn               8.5315511588       -1.3078712485        3.7788181980
Zn               8.5328064719        3.9216910407        3.7797089422
Zn               8.5288550807       -2.6161164590        6.1461458981
Zn               8.5275506075        2.6153714849        6.1499825801
Zn               8.5280310000        2.6143600000        1.5094010000    0   0   0
Zn               8.5280310000        7.8430800000        1.5094010000    0   0   0
Zn               8.5320214916        1.3081487801        3.7809453005
Zn               8.5321132146        6.5347777938        3.7774760712
Zn               8.5290288854       -0.0002536875        6.1462063255
Zn               8.5277725927        5.2281906288        6.1472510789
C                3.0595927655        3.6837479139       13.2567162747
C                3.6467312358        2.6144097068       13.9552183412
C                3.0597949468        3.7115737469       11.8633840588
C                4.2228323052        1.5788006391       13.2041325351
C                3.6404904834        2.6848511173       11.1052285269
C                4.2162942164        1.6208788006       11.8089200220
C                3.6544894638        2.7364759975        9.5985920070
N                3.7167501019        2.6196666770       15.3553454991
H                2.9928491002        3.1628267817       15.8151471723
H                4.1901572110        3.6234213384        9.2208625741
H                2.6073382635        4.5072540482       13.8143571138
H                3.8173121274        1.7025401017       15.7787896810
H                2.5970336690        4.5601529051       11.3528905340
H                4.6914942471        0.7357130858       13.7173394922
H                4.6778581702        0.8001228508       11.2540426839
H                4.1498863023        1.8533477523        9.1695793671
H                2.6385657507        2.7785251687        9.1714356954
End final coordinates



     Writing all to output data dir ./tmp/Zn100_3layer_ptoluidine_relax.save/ :
     XML data file, charge density, pseudopotentials, collected wavefunctions

     init_run     :     71.97s CPU     73.35s WALL (       1 calls)
     electrons    :  70288.44s CPU  71269.97s WALL (      27 calls)
     update_pot   :      4.76s CPU      4.91s WALL (      26 calls)
     forces       :   1639.94s CPU   1652.93s WALL (      27 calls)
     force_dftd3  :      5.96s CPU      6.37s WALL (      27 calls)
     stress       :   4273.44s CPU   4299.96s WALL (      27 calls)
     stres_dftd3  :      5.97s CPU      6.33s WALL (      27 calls)

     Called by init_run:
     wfcinit      :     70.40s CPU     71.63s WALL (       1 calls)
     wfcinit:atom :      0.04s CPU      0.08s WALL (       5 calls)
     wfcinit:wfcr :     69.77s CPU     70.76s WALL (       5 calls)
     potinit      :      0.15s CPU      0.17s WALL (       1 calls)
     hinit0       :      0.08s CPU      0.09s WALL (       1 calls)

     Called by electrons:
     c_bands      :  64843.42s CPU  65683.68s WALL (     293 calls)
     sum_band     :   5132.84s CPU   5251.61s WALL (     293 calls)
     v_of_rho     :     22.63s CPU     23.67s WALL (     294 calls)
     v_h          :      1.57s CPU      1.70s WALL (     294 calls)
     v_xc         :     24.87s CPU     26.09s WALL (     348 calls)
     newd         :    290.22s CPU    310.86s WALL (     294 calls)
     PAW_pot      :     21.12s CPU     21.21s WALL (     320 calls)
     mix_rho      :      3.13s CPU      3.49s WALL (     293 calls)
     energy_dftd3 :      3.74s CPU      3.75s WALL (      27 calls)

     Called by c_bands:
     init_us_2    :     77.25s CPU     78.40s WALL (    3335 calls)
     cegterg      :  64704.73s CPU  65537.59s WALL (    1465 calls)

     Called by sum_band:
     sum_band:wei :      0.81s CPU      0.84s WALL (     293 calls)
     sum_band:loo :   4855.61s CPU   4953.90s WALL (     293 calls)
     sum_band:buf :     12.02s CPU     15.46s WALL (    1465 calls)
     sum_band:ini :     34.37s CPU     34.62s WALL (    1465 calls)
     sum_band:cal :   4544.31s CPU   4565.59s WALL (    1595 calls)
     sum_band:bec :     36.80s CPU     36.91s WALL (    1595 calls)
     addusdens    :    271.99s CPU    292.04s WALL (     293 calls)
                                        0.00s GPU  (     293 calls)
     addusd:skk   :      3.10s CPU      4.04s WALL (    1172 calls)
                                        0.00s GPU  (    1172 calls)

     Called by *egterg:
     cdiaghg      :   3204.07s CPU   3332.64s WALL (    5702 calls)
     cegterg:over :   9563.84s CPU   9597.26s WALL (    4497 calls)
     cegterg:upda :   4269.17s CPU   4302.82s WALL (    4497 calls)
     cegterg:last :  16005.23s CPU  16094.49s WALL (    2988 calls)
     cdiaghg:chol :    230.07s CPU    230.68s WALL (    5702 calls)
     cdiaghg:inve :     34.05s CPU     34.17s WALL (    5702 calls)
     cdiaghg:para :    873.78s CPU    890.98s WALL (   11404 calls)
     h_psi        :  20471.55s CPU  20900.42s WALL (    5967 calls)
     s_psi        :   8598.06s CPU   8619.68s WALL (    5967 calls)
     g_psi        :      7.55s CPU      7.65s WALL (    4497 calls)

     Called by h_psi:
     h_psi:calbec :   9202.89s CPU   9246.77s WALL (    5967 calls)
     vloc_psi     :   2500.76s CPU   2839.10s WALL (    5967 calls)
     add_vuspsi   :   8756.64s CPU   8779.45s WALL (    5967 calls)

     General routines
     calbec       :  15658.47s CPU  15732.46s WALL (    8237 calls)
     fft          :     15.88s CPU     17.76s WALL (    4495 calls)
     ffts         :      0.69s CPU      0.80s WALL (     587 calls)
     fftw         :   2759.05s CPU   3137.31s WALL ( 4761219 calls)
     interpolate  :      1.44s CPU      1.60s WALL (     294 calls)

     Parallel routines

     PAW routines
     PAW_pot      :     21.12s CPU     21.21s WALL (     320 calls)

     PWSCF        :     21h18m CPU     21h35m WALL


   This run was terminated on:  23:38:35  12Apr2025            

=------------------------------------------------------------------------------=
   JOB DONE.
=------------------------------------------------------------------------------=
