--------------------------------------------------------------------------
WARNING: There was an error initializing an OpenFabrics device.

  Local host:   ga02
  Local device: mlx5_0
--------------------------------------------------------------------------
--------------------------------------------------------------------------
WARNING: There is at least one non-excluded one OpenFabrics device found,
but there are no active ports detected (or Open MPI was unable to use
them).  This is most certainly not what you wanted.  Check your
cables, subnet manager configuration, etc.  The openib BTL will be
ignored for this job.

  Local host: ga02
--------------------------------------------------------------------------

     Program PWSCF v.7.3.1 starts on 31Mar2025 at  1:56:33 

     This program is part of the open-source Quantum ESPRESSO suite
     for quantum simulation of materials; please cite
         "P. Giannozzi et al., J. Phys.:Condens. Matter 21 395502 (2009);
         "P. Giannozzi et al., J. Phys.:Condens. Matter 29 465901 (2017);
         "P. Giannozzi et al., J. Chem. Phys. 152 154105 (2020);
          URL http://www.quantum-espresso.org", 
     in publications or presentations arising from this work. More details at
     http://www.quantum-espresso.org/quote

     Parallel version (MPI), running on    29 processors

     MPI processes distributed on     1 nodes
     219949 MiB available memory on the printing compute node when the environment starts

     Waiting for input...
     Reading input from standard input
Warning: card &CELL ignored
Warning: card   CELL_DOFREE = 'ALL' ignored
Warning: card / ignored

     Current dimensions of program PWSCF are:
     Max number of different atomic species (ntypx) = 10
     Max number of k-points (npk) =  40000
     Max angular momentum in pseudopotentials (lmaxx) =  4
     file C.pbe-n-kjpaw_psl.1.0.0.UPF: wavefunction(s)  2S 2P renormalized

     R & G space division:  proc/nbgrp/npool/nimage =      29
     Subspace diagonalization in iterative solution of the eigenvalue problem:
     a serial algorithm will be used


     Parallelization info
     --------------------
     sticks:   dense  smooth     PW     G-vecs:    dense   smooth      PW
     Min        1714     979    249               287676   124263   15993
     Max        1715     980    251               287679   124268   15995
     Sum       49717   28417   7237              8342671  3603727  463837

     Using Slab Decomposition



     bravais-lattice index     =            1
     lattice parameter (alat)  =      47.2432  a.u.
     unit-cell volume          =  105442.7265 (a.u.)^3
     number of atoms/cell      =           18
     number of atomic types    =            3
     number of electrons       =        42.00
     number of Kohn-Sham states=           25
     kinetic-energy cutoff     =      40.0000  Ry
     charge density cutoff     =     280.0000  Ry
     scf convergence threshold =      1.0E-06
     mixing beta               =       0.4000
     number of iterations used =            8  plain     mixing
     energy convergence thresh.=      1.0E-05
     force convergence thresh. =      5.0E-04
     Exchange-correlation= PBE
                           (   1   4   3   4   0   0   0)
     nstep                     =          100


     celldm(1)=  47.243153  celldm(2)=   0.000000  celldm(3)=   0.000000
     celldm(4)=   0.000000  celldm(5)=   0.000000  celldm(6)=   0.000000

     crystal axes: (cart. coord. in units of alat)
               a(1) = (   1.000000   0.000000   0.000000 )  
               a(2) = (   0.000000   1.000000   0.000000 )  
               a(3) = (   0.000000   0.000000   1.000000 )  

     reciprocal axes: (cart. coord. in units 2 pi/alat)
               b(1) = (  1.000000  0.000000  0.000000 )  
               b(2) = (  0.000000  1.000000  0.000000 )  
               b(3) = (  0.000000  0.000000  1.000000 )  


     PseudoPot. # 1 for N  read from file:
     /home/yongsang/Research/PSID_server_room/qe/[00]QE/qepseudo/SSSP_1.3.0_PBE_efficiency/N.pbe-n-radius_5.UPF
     MD5 check sum: 16739722b17309cd8fe442a2ace49922
     Pseudo is Ultrasoft + core correction, Zval =  5.0
     Generated using "atomic" code by A. Dal Corso  v.5.1
     Using radial grid of 1085 points,  4 beta functions with: 
                l(1) =   0
                l(2) =   0
                l(3) =   1
                l(4) =   1
     Q(r) pseudized with 0 coefficients 


     PseudoPot. # 2 for C  read from file:
     /home/yongsang/Research/PSID_server_room/qe/[00]QE/qepseudo/SSSP_1.3.0_PBE_efficiency/C.pbe-n-kjpaw_psl.1.0.0.UPF
     MD5 check sum: 5d2aebdfa2cae82b50a7e79e9516da0f
     Pseudo is Projector augmented-wave + core cor, Zval =  4.0
     Generated using "atomic" code by A. Dal Corso  v.5.1
     Shape of augmentation charge: PSQ
     Using radial grid of 1073 points,  4 beta functions with: 
                l(1) =   0
                l(2) =   0
                l(3) =   1
                l(4) =   1
     Q(r) pseudized with 0 coefficients 


     PseudoPot. # 3 for H  read from file:
     /home/yongsang/Research/PSID_server_room/qe/[00]QE/qepseudo/SSSP_1.3.0_PBE_efficiency/H.pbe-rrkjus_psl.1.0.0.UPF
     MD5 check sum: f52b6d4d1c606e5624b1dc7b2218f220
     Pseudo is Ultrasoft, Zval =  1.0
     Generated using "atomic" code by A. Dal Corso  v.5.1
     Using radial grid of  929 points,  2 beta functions with: 
                l(1) =   0
                l(2) =   0
     Q(r) pseudized with 0 coefficients 


     atomic species   valence    mass     pseudopotential
     N                 5.00    14.00674     N ( 1.00)
     C                 4.00    12.01070     C ( 1.00)
     H                 1.00     1.00794     H ( 1.00)

     No symmetry found


                                    s                        frac. trans.

      isym =  1     identity                                     

 cryst.   s( 1) = (     1          0          0      )
                  (     0          1          0      )
                  (     0          0          1      )

 cart.    s( 1) = (  1.0000000  0.0000000  0.0000000 )
                  (  0.0000000  1.0000000  0.0000000 )
                  (  0.0000000  0.0000000  1.0000000 )


     point group C_1 (1)    
     there are  1 classes
     the character table:

       E    
A      1.00

     the symmetry operations in each class and the name of the first element:

     E        1
          identity                                               

   Cartesian axes

     site n.     atom                  positions (alat units)
         1        N      tau(   1) = (  -0.1135085  -0.0005716   0.0036160  )
         2        C      tau(   2) = (   0.0559430  -0.0003946   0.0003856  )
         3        C      tau(   3) = (  -0.0566713  -0.0006312   0.0025981  )
         4        C      tau(   4) = (   0.0278217  -0.0487311   0.0054219  )
         5        C      tau(   5) = (   0.0274708   0.0477753  -0.0035329  )
         6        C      tau(   6) = (  -0.0281040  -0.0488421   0.0065373  )
         7        C      tau(   7) = (  -0.0284424   0.0476823  -0.0024673  )
         8        C      tau(   8) = (   0.1159321   0.0003093  -0.0008695  )
         9        H      tau(   9) = (   0.0490689  -0.0863548   0.0084805  )
        10        H      tau(  10) = (   0.0485950   0.0854016  -0.0074344  )
        11        H      tau(  11) = (  -0.0491101  -0.0865189   0.0104198  )
        12        H      tau(  12) = (  -0.0498601   0.0852029  -0.0055594  )
        13        H      tau(  13) = (   0.1312861   0.0246960   0.0329259  )
        14        H      tau(  14) = (   0.1328332  -0.0406421   0.0025466  )
        15        H      tau(  15) = (   0.1298484   0.0180831  -0.0391204  )
        16        H      tau(  16) = (  -0.1279763   0.0280118   0.0295627  )
        17        H      tau(  17) = (  -0.1308406  -0.0372624   0.0109223  )
        18        H      tau(  18) = (  -0.1272354   0.0137777  -0.0280429  )

     --------------------------------------------
     DFT-D3 Dispersion Correction (3-body terms):
     --------------------------------------------
       Reference C6 values for interpolation: 

         atom   Coordination number   C6
         H          0.912             6.05
         H          0.000            15.18
         C          0.000            98.23
         C          0.987            86.49
         C          1.998            58.72
         C          2.999            51.56
         C          3.984            36.41
         N          0.000            50.54
         N          0.994            44.25
         N          2.014            39.35
         N          2.990            31.16

       Values used:

         atom   Coordination number  R0_AB[au]  C6      C8
         N          4.060            2.478     31.16    687.49
         C          3.137            2.750     50.64   1464.55
         C          3.152            2.750     50.52   1461.10
         C          3.156            2.750     50.49   1460.17
         C          3.158            2.750     50.47   1459.54
         C          3.157            2.750     50.48   1459.84
         C          3.158            2.750     50.47   1459.56
         C          4.038            2.750     36.59   1058.27
         H          1.004            2.062      6.18     74.68
         H          1.004            2.062      6.18     74.68
         H          1.003            2.062      6.18     74.68
         H          1.003            2.062      6.18     74.68
         H          0.995            2.062      6.19     74.77
         H          0.995            2.062      6.19     74.78
         H          0.995            2.062      6.19     74.77
         H          1.006            2.062      6.18     74.66
         H          1.004            2.062      6.18     74.68
         H          1.015            2.062      6.17     74.56

         Molecular C6 ( Ry / a.u.^6 ) =      6245.59


   Crystallographic axes

     site n.     atom                  positions (cryst. coord.)
         1        N      tau(   1) = ( -0.1135085 -0.0005716  0.0036160  )
         2        C      tau(   2) = (  0.0559430 -0.0003946  0.0003856  )
         3        C      tau(   3) = ( -0.0566713 -0.0006312  0.0025981  )
         4        C      tau(   4) = (  0.0278217 -0.0487311  0.0054219  )
         5        C      tau(   5) = (  0.0274708  0.0477753 -0.0035329  )
         6        C      tau(   6) = ( -0.0281040 -0.0488421  0.0065373  )
         7        C      tau(   7) = ( -0.0284424  0.0476823 -0.0024673  )
         8        C      tau(   8) = (  0.1159321  0.0003093 -0.0008695  )
         9        H      tau(   9) = (  0.0490689 -0.0863548  0.0084805  )
        10        H      tau(  10) = (  0.0485950  0.0854016 -0.0074344  )
        11        H      tau(  11) = ( -0.0491101 -0.0865189  0.0104198  )
        12        H      tau(  12) = ( -0.0498601  0.0852029 -0.0055594  )
        13        H      tau(  13) = (  0.1312861  0.0246960  0.0329259  )
        14        H      tau(  14) = (  0.1328332 -0.0406421  0.0025466  )
        15        H      tau(  15) = (  0.1298484  0.0180831 -0.0391204  )
        16        H      tau(  16) = ( -0.1279763  0.0280118  0.0295627  )
        17        H      tau(  17) = ( -0.1308406 -0.0372624  0.0109223  )
        18        H      tau(  18) = ( -0.1272354  0.0137777 -0.0280429  )

     number of k points=     5  Marzari-Vanderbilt smearing, width (Ry)=  0.0200
                       cart. coord. in units 2pi/alat
        k(    1) = (   0.0000000   0.0000000   0.0000000), wk =   0.2222222
        k(    2) = (   0.0000000   0.3333333   0.0000000), wk =   0.4444444
        k(    3) = (   0.3333333   0.0000000   0.0000000), wk =   0.4444444
        k(    4) = (   0.3333333   0.3333333   0.0000000), wk =   0.4444444
        k(    5) = (   0.3333333  -0.3333333   0.0000000), wk =   0.4444444

                       cryst. coord.
        k(    1) = (   0.0000000   0.0000000   0.0000000), wk =   0.2222222
        k(    2) = (   0.0000000   0.3333333   0.0000000), wk =   0.4444444
        k(    3) = (   0.3333333   0.0000000   0.0000000), wk =   0.4444444
        k(    4) = (   0.3333333   0.3333333   0.0000000), wk =   0.4444444
        k(    5) = (   0.3333333  -0.3333333   0.0000000), wk =   0.4444444

     Dense  grid:  8342671 G-vectors     FFT dimensions: ( 256, 256, 256)

     Smooth grid:  3603727 G-vectors     FFT dimensions: ( 192, 192, 192)

     Dynamical RAM for                 wfc:       5.93 MB

     Dynamical RAM for     wfc (w. buffer):      35.55 MB

     Dynamical RAM for           str. fact:      13.17 MB

     Dynamical RAM for           local pot:       0.00 MB

     Dynamical RAM for          nlocal pot:      19.91 MB

     Dynamical RAM for                qrad:       1.15 MB

     Dynamical RAM for          rho,v,vnew:      26.67 MB

     Dynamical RAM for               rhoin:       8.89 MB

     Dynamical RAM for            rho*nmix:      70.23 MB

     Dynamical RAM for           G-vectors:      17.41 MB

     Dynamical RAM for          h,s,v(r/c):       0.11 MB

     Dynamical RAM for          <psi|beta>:       0.03 MB

     Dynamical RAM for                 psi:      11.85 MB

     Dynamical RAM for                hpsi:      11.85 MB

     Dynamical RAM for                spsi:      11.85 MB

     Dynamical RAM for      wfcinit/wfcrot:      19.95 MB

     Dynamical RAM for           addusdens:     232.65 MB

     Dynamical RAM for          addusforce:     313.87 MB

     Dynamical RAM for         addusstress:     219.48 MB

     Estimated static dynamical RAM per process >     162.81 MB

     Estimated max dynamical RAM per process >     546.91 MB

     Estimated total dynamical RAM >      15.49 GB
[ga02:483138] 27 more processes have sent help message help-mpi-btl-openib.txt / error in device init
[ga02:483138] Set MCA parameter "orte_base_help_aggregate" to 0 to see all help / error messages

     Initial potential from superposition of free atoms

     starting charge      42.9996, renormalised to      42.0000

     negative rho (up, down):  9.367E-03 0.000E+00
     Starting wfcs are   42 randomized atomic wfcs
     Checking if some PAW data can be deallocated... 
       PAW data deallocated on   15 nodes for type:  2

     total cpu time spent up to now is       11.2 secs

     Self-consistent Calculation

     iteration #  1     ecut=    40.00 Ry     beta= 0.40
     Davidson diagonalization with overlap

---- Real-time Memory Report at c_bands before calling an iterative solver
           488 MiB given to the printing process from OS
             0 MiB allocation reported by mallinfo(arena+hblkhd)
        213861 MiB available memory on the node where the printing process lives
------------------
     ethr =  1.00E-02,  avg # of iterations =  2.0

     negative rho (up, down):  1.067E-02 0.000E+00

     total cpu time spent up to now is       22.9 secs

     total energy              =    -160.36100408 Ry
     estimated scf accuracy    <       3.24187847 Ry

     iteration #  2     ecut=    40.00 Ry     beta= 0.40
     Davidson diagonalization with overlap

---- Real-time Memory Report at c_bands before calling an iterative solver
           570 MiB given to the printing process from OS
             0 MiB allocation reported by mallinfo(arena+hblkhd)
        212544 MiB available memory on the node where the printing process lives
------------------
     ethr =  7.72E-03,  avg # of iterations =  2.0

     negative rho (up, down):  1.156E-02 0.000E+00

     total cpu time spent up to now is       33.3 secs

     total energy              =    -160.60164424 Ry
     estimated scf accuracy    <       0.34577749 Ry

     iteration #  3     ecut=    40.00 Ry     beta= 0.40
     Davidson diagonalization with overlap

---- Real-time Memory Report at c_bands before calling an iterative solver
           575 MiB given to the printing process from OS
             0 MiB allocation reported by mallinfo(arena+hblkhd)
        212445 MiB available memory on the node where the printing process lives
------------------
     ethr =  8.23E-04,  avg # of iterations =  6.0

     negative rho (up, down):  1.195E-02 0.000E+00

     total cpu time spent up to now is       45.3 secs

     total energy              =    -160.63216678 Ry
     estimated scf accuracy    <       0.06459179 Ry

     iteration #  4     ecut=    40.00 Ry     beta= 0.40
     Davidson diagonalization with overlap

---- Real-time Memory Report at c_bands before calling an iterative solver
           578 MiB given to the printing process from OS
             0 MiB allocation reported by mallinfo(arena+hblkhd)
        212329 MiB available memory on the node where the printing process lives
------------------
     ethr =  1.54E-04,  avg # of iterations = 11.0

     negative rho (up, down):  1.264E-02 0.000E+00

     total cpu time spent up to now is       56.7 secs

     total energy              =    -160.63131086 Ry
     estimated scf accuracy    <       0.01609432 Ry

     iteration #  5     ecut=    40.00 Ry     beta= 0.40
     Davidson diagonalization with overlap

---- Real-time Memory Report at c_bands before calling an iterative solver
           582 MiB given to the printing process from OS
             0 MiB allocation reported by mallinfo(arena+hblkhd)
        212197 MiB available memory on the node where the printing process lives
------------------
     ethr =  3.83E-05,  avg # of iterations =  2.0

     negative rho (up, down):  1.265E-02 0.000E+00

     total cpu time spent up to now is       67.0 secs

     total energy              =    -160.63270248 Ry
     estimated scf accuracy    <       0.00191905 Ry

     iteration #  6     ecut=    40.00 Ry     beta= 0.40
     Davidson diagonalization with overlap

---- Real-time Memory Report at c_bands before calling an iterative solver
           586 MiB given to the printing process from OS
             0 MiB allocation reported by mallinfo(arena+hblkhd)
        212095 MiB available memory on the node where the printing process lives
------------------
     ethr =  4.57E-06,  avg # of iterations =  3.0

     negative rho (up, down):  1.266E-02 0.000E+00

     total cpu time spent up to now is       79.0 secs

     total energy              =    -160.63321589 Ry
     estimated scf accuracy    <       0.00032810 Ry

     iteration #  7     ecut=    40.00 Ry     beta= 0.40
     Davidson diagonalization with overlap

---- Real-time Memory Report at c_bands before calling an iterative solver
           590 MiB given to the printing process from OS
             0 MiB allocation reported by mallinfo(arena+hblkhd)
        211985 MiB available memory on the node where the printing process lives
------------------
     ethr =  7.81E-07,  avg # of iterations =  4.0

     negative rho (up, down):  1.270E-02 0.000E+00

     total cpu time spent up to now is       88.9 secs

     total energy              =    -160.63318347 Ry
     estimated scf accuracy    <       0.00008503 Ry

     iteration #  8     ecut=    40.00 Ry     beta= 0.40
     Davidson diagonalization with overlap

---- Real-time Memory Report at c_bands before calling an iterative solver
           594 MiB given to the printing process from OS
             0 MiB allocation reported by mallinfo(arena+hblkhd)
        211871 MiB available memory on the node where the printing process lives
------------------
     ethr =  2.02E-07,  avg # of iterations =  2.0

     negative rho (up, down):  1.271E-02 0.000E+00

     total cpu time spent up to now is      100.2 secs

     total energy              =    -160.63320939 Ry
     estimated scf accuracy    <       0.00001142 Ry

     iteration #  9     ecut=    40.00 Ry     beta= 0.40
     Davidson diagonalization with overlap

---- Real-time Memory Report at c_bands before calling an iterative solver
           598 MiB given to the printing process from OS
             0 MiB allocation reported by mallinfo(arena+hblkhd)
        211748 MiB available memory on the node where the printing process lives
------------------
     ethr =  2.72E-08,  avg # of iterations =  2.0

     negative rho (up, down):  1.273E-02 0.000E+00

     total cpu time spent up to now is      110.4 secs

     End of self-consistent calculation

          k = 0.0000 0.0000 0.0000 (450991 PWs)   bands (ev):

   -29.6259 -24.0013 -21.8328 -21.2655 -19.5924 -19.1138 -18.2070 -17.5612
   -17.1982 -16.3215 -13.9936 -13.8342 -13.0879 -12.9110 -12.2550 -11.2507
   -11.2395 -10.8313 -10.5292  -8.9680  -8.6629  -4.1633  -3.9567  -3.8687
    -2.6050

     occupation numbers 
     1.0000   1.0000   1.0000   1.0000   1.0000   1.0000   1.0000   1.0000
     1.0000   1.0000   1.0000   1.0000   1.0000   1.0000   1.0000   1.0000
     1.0000   1.0000   1.0000   1.0000   1.0000   0.0000   0.0000   0.0000
     0.0000

          k = 0.0000 0.3333 0.0000 (450515 PWs)   bands (ev):

   -29.6259 -24.0013 -21.8328 -21.2655 -19.5924 -19.1138 -18.2070 -17.5612
   -17.1982 -16.3215 -13.9936 -13.8342 -13.0879 -12.9110 -12.2550 -11.2507
   -11.2395 -10.8313 -10.5291  -8.9680  -8.6629  -4.1633  -3.9567  -3.8687
    -2.6049

     occupation numbers 
     1.0000   1.0000   1.0000   1.0000   1.0000   1.0000   1.0000   1.0000
     1.0000   1.0000   1.0000   1.0000   1.0000   1.0000   1.0000   1.0000
     1.0000   1.0000   1.0000   1.0000   1.0000   0.0000   0.0000   0.0000
     0.0000

          k = 0.3333 0.0000 0.0000 (450515 PWs)   bands (ev):

   -29.6259 -24.0013 -21.8328 -21.2655 -19.5924 -19.1138 -18.2070 -17.5612
   -17.1982 -16.3215 -13.9936 -13.8342 -13.0879 -12.9110 -12.2550 -11.2507
   -11.2395 -10.8313 -10.5291  -8.9680  -8.6629  -4.1633  -3.9567  -3.8687
    -2.6050

     occupation numbers 
     1.0000   1.0000   1.0000   1.0000   1.0000   1.0000   1.0000   1.0000
     1.0000   1.0000   1.0000   1.0000   1.0000   1.0000   1.0000   1.0000
     1.0000   1.0000   1.0000   1.0000   1.0000   0.0000   0.0000   0.0000
     0.0000

          k = 0.3333 0.3333 0.0000 (450333 PWs)   bands (ev):

   -29.6259 -24.0013 -21.8328 -21.2655 -19.5924 -19.1138 -18.2070 -17.5612
   -17.1982 -16.3215 -13.9936 -13.8341 -13.0879 -12.9109 -12.2550 -11.2507
   -11.2395 -10.8312 -10.5291  -8.9680  -8.6629  -4.1633  -3.9567  -3.8687
    -2.6049

     occupation numbers 
     1.0000   1.0000   1.0000   1.0000   1.0000   1.0000   1.0000   1.0000
     1.0000   1.0000   1.0000   1.0000   1.0000   1.0000   1.0000   1.0000
     1.0000   1.0000   1.0000   1.0000   1.0000   0.0000   0.0000   0.0000
     0.0000

          k = 0.3333-0.3333 0.0000 (450333 PWs)   bands (ev):

   -29.6259 -24.0013 -21.8328 -21.2655 -19.5924 -19.1138 -18.2070 -17.5612
   -17.1982 -16.3215 -13.9936 -13.8341 -13.0879 -12.9109 -12.2550 -11.2507
   -11.2395 -10.8312 -10.5291  -8.9680  -8.6629  -4.1633  -3.9567  -3.8687
    -2.6050

     occupation numbers 
     1.0000   1.0000   1.0000   1.0000   1.0000   1.0000   1.0000   1.0000
     1.0000   1.0000   1.0000   1.0000   1.0000   1.0000   1.0000   1.0000
     1.0000   1.0000   1.0000   1.0000   1.0000   0.0000   0.0000   0.0000
     0.0000

     the Fermi energy is    -5.9707 ev

!    total energy              =    -160.63321100 Ry
     estimated scf accuracy    <       0.00000043 Ry
     smearing contrib. (-TS)   =      -0.00000000 Ry
     internal energy E=F+TS    =    -160.63321100 Ry

     The total energy is F=E-TS. E is the sum of the following terms:
     one-electron contribution =    -669.46699964 Ry
     hartree contribution      =     334.76013219 Ry
     xc contribution           =     -44.51470962 Ry
     ewald contribution        =     261.76783717 Ry
     DFT-D3 Dispersion         =      -0.01288340 Ry
     one-center paw contrib.   =     -43.16658771 Ry
      -> PAW hartree energy AE =       0.00000000 Ry
      -> PAW hartree energy PS =       0.00000000 Ry
      -> PAW xc energy AE      =       0.00000000 Ry
      -> PAW xc energy PS      =       0.00000000 Ry
      -> total E_H with PAW    =     334.76013219 Ry
      -> total E_XC with PAW   =     -44.51470962 Ry

     convergence has been achieved in   9 iterations

     negative rho (up, down):  1.273E-02 0.000E+00

     Forces acting on atoms (cartesian axes, Ry/au):

     atom    1 type  1   force =    -0.00307298   -0.03084042    0.15086528
     atom    2 type  2   force =     0.01109013   -0.00824158    0.00011277
     atom    3 type  2   force =     0.12510762   -0.01614765    0.00399535
     atom    4 type  2   force =    -0.02014728    0.02227985   -0.00248601
     atom    5 type  2   force =    -0.02779690   -0.01757406    0.00118270
     atom    6 type  2   force =    -0.00947191    0.01480340   -0.00061081
     atom    7 type  2   force =    -0.00500914   -0.00975541    0.00095875
     atom    8 type  2   force =     0.01052449   -0.00712603    0.00077113
     atom    9 type  3   force =     0.00525634   -0.00710274    0.00066290
     atom   10 type  3   force =     0.00407112    0.00807851   -0.00073805
     atom   11 type  3   force =    -0.00772343   -0.01247980    0.00174314
     atom   12 type  3   force =    -0.00632201    0.01375674   -0.00063817
     atom   13 type  3   force =     0.00050145   -0.00577100   -0.01389427
     atom   14 type  3   force =    -0.00522574    0.01728708   -0.00141880
     atom   15 type  3   force =     0.00094979   -0.00314163    0.01474414
     atom   16 type  3   force =    -0.00109037   -0.01386346    0.03361865
     atom   17 type  3   force =     0.00275755    0.00322973    0.00450040
     atom   18 type  3   force =    -0.07439871    0.05260847   -0.19336909
     The non-local contrib.  to forces
     atom    1 type  1   force =    -0.17536537    0.10229166    0.08027251
     atom    2 type  2   force =    -0.01247200    0.00001786    0.00131246
     atom    3 type  2   force =    -0.58109009   -0.00448852    0.01535761
     atom    4 type  2   force =    -0.11465399    0.03575881   -0.00158901
     atom    5 type  2   force =    -0.11429435   -0.02824564    0.00371767
     atom    6 type  2   force =    -0.11790079    0.08341625   -0.00864732
     atom    7 type  2   force =    -0.12558127   -0.08314337    0.00576753
     atom    8 type  2   force =    -0.12100268    0.00781954    0.00200845
     atom    9 type  3   force =    -0.04009361    0.07061976   -0.00573042
     atom   10 type  3   force =    -0.03988142   -0.07057479    0.00732846
     atom   11 type  3   force =     0.03634569    0.07108771   -0.00720133
     atom   12 type  3   force =     0.03713889   -0.07072405    0.00597534
     atom   13 type  3   force =    -0.02616201   -0.03952601   -0.05572323
     atom   14 type  3   force =    -0.02946298    0.06701624   -0.00554971
     atom   15 type  3   force =    -0.02380286   -0.02862455    0.06297143
     atom   16 type  3   force =     0.03391319   -0.06994342   -0.06135839
     atom   17 type  3   force =     0.04141775    0.08898663   -0.01760662
     atom   18 type  3   force =     0.04894183   -0.05389685    0.11441659
     The ionic contribution  to forces
     atom    1 type  1   force =    -8.87293867   -0.72034802    0.81486555
     atom    2 type  2   force =     4.36236275   -0.06836524   -0.07581635
     atom    3 type  2   force =    -2.44630510   -0.09534609    0.08619039
     atom    4 type  2   force =     2.95884265   -6.87733400    0.58253298
     atom    5 type  2   force =     2.88350216    6.88721165   -0.69223972
     atom    6 type  2   force =    -2.29107247   -7.08632221    0.71139842
     atom    7 type  2   force =    -2.30062825    7.06299729   -0.61686690
     atom    8 type  2   force =     7.20615867    0.01049018   -0.14284518
     atom    9 type  3   force =     1.54433779   -3.26182016    0.27166241
     atom   10 type  3   force =     1.53166487    3.26796666   -0.33283805
     atom   11 type  3   force =    -1.44587335   -3.33617592    0.33619378
     atom   12 type  3   force =    -1.47204096    3.33395987   -0.28516780
     atom   13 type  3   force =     2.01731869    1.42113178    2.05756283
     atom   14 type  3   force =     2.14407845   -2.35179715    0.17284160
     atom   15 type  3   force =     1.92987485    1.01546496   -2.35952883
     atom   16 type  3   force =    -2.40029585    2.38644392    2.38292793
     atom   17 type  3   force =    -2.62876915   -3.07835303    0.66045264
     atom   18 type  3   force =    -2.72021708    1.49019551   -3.57132571
     The local contribution  to forces
     atom    1 type  1   force =     9.04561056    0.58709683   -0.74234106
     atom    2 type  2   force =    -4.33645632    0.06011377    0.07478916
     atom    3 type  2   force =     3.13938402    0.08365180   -0.09737638
     atom    4 type  2   force =    -2.86548307    6.86342257   -0.58316194
     atom    5 type  2   force =    -2.79824718   -6.87594849    0.68980690
     atom    6 type  2   force =     2.39662333    7.01854247   -0.70375734
     atom    7 type  2   force =     2.41822883   -6.99047819    0.61234611
     atom    8 type  2   force =    -7.07727922   -0.02517698    0.14153643
     atom    9 type  3   force =    -1.49895321    3.18403511   -0.26527884
     atom   10 type  3   force =    -1.48775037   -3.18927730    0.32475230
     atom   11 type  3   force =     1.40179985    3.25258640   -0.32725888
     atom   12 type  3   force =     1.42864887   -3.24946813    0.27853771
     atom   13 type  3   force =    -1.99049947   -1.38740299   -2.01581386
     atom   14 type  3   force =    -2.11994888    2.30207670   -0.16872541
     atom   15 type  3   force =    -1.90496372   -0.98999599    2.31134515
     atom   16 type  3   force =     2.36534305   -2.33038547   -2.28804172
     atom   17 type  3   force =     2.59033360    2.99259049   -0.63837991
     atom   18 type  3   force =     2.59685521   -1.38366556    3.26358303
     The core correction contribution to forces
     atom    1 type  1   force =     0.00042521    0.00006218   -0.00194909
     atom    2 type  2   force =    -0.00223427    0.00003649   -0.00019181
     atom    3 type  2   force =     0.01290380    0.00004114   -0.00015317
     atom    4 type  2   force =     0.00112938    0.00065546   -0.00029990
     atom    5 type  2   force =     0.00109337   -0.00080798   -0.00009311
     atom    6 type  2   force =     0.00248795   -0.00032876    0.00034826
     atom    7 type  2   force =     0.00257452    0.00030587   -0.00023538
     atom    8 type  2   force =     0.00261816   -0.00024082    0.00005977
     atom    9 type  3   force =     0.00000000    0.00000000    0.00000000
     atom   10 type  3   force =     0.00000000    0.00000000    0.00000000
     atom   11 type  3   force =     0.00000000    0.00000000    0.00000000
     atom   12 type  3   force =     0.00000000    0.00000000    0.00000000
     atom   13 type  3   force =     0.00000000    0.00000000    0.00000000
     atom   14 type  3   force =     0.00000000    0.00000000    0.00000000
     atom   15 type  3   force =     0.00000000    0.00000000    0.00000000
     atom   16 type  3   force =     0.00000000    0.00000000    0.00000000
     atom   17 type  3   force =     0.00000000    0.00000000    0.00000000
     atom   18 type  3   force =     0.00000000    0.00000000    0.00000000
     The Hubbard contrib.    to forces
     atom    1 type  1   force =     0.00000000    0.00000000    0.00000000
     atom    2 type  2   force =     0.00000000    0.00000000    0.00000000
     atom    3 type  2   force =     0.00000000    0.00000000    0.00000000
     atom    4 type  2   force =     0.00000000    0.00000000    0.00000000
     atom    5 type  2   force =     0.00000000    0.00000000    0.00000000
     atom    6 type  2   force =     0.00000000    0.00000000    0.00000000
     atom    7 type  2   force =     0.00000000    0.00000000    0.00000000
     atom    8 type  2   force =     0.00000000    0.00000000    0.00000000
     atom    9 type  3   force =     0.00000000    0.00000000    0.00000000
     atom   10 type  3   force =     0.00000000    0.00000000    0.00000000
     atom   11 type  3   force =     0.00000000    0.00000000    0.00000000
     atom   12 type  3   force =     0.00000000    0.00000000    0.00000000
     atom   13 type  3   force =     0.00000000    0.00000000    0.00000000
     atom   14 type  3   force =     0.00000000    0.00000000    0.00000000
     atom   15 type  3   force =     0.00000000    0.00000000    0.00000000
     atom   16 type  3   force =     0.00000000    0.00000000    0.00000000
     atom   17 type  3   force =     0.00000000    0.00000000    0.00000000
     atom   18 type  3   force =     0.00000000    0.00000000    0.00000000
     The SCF correction term to forces
     atom    1 type  1   force =    -0.00073820    0.00005342    0.00000285
     atom    2 type  2   force =     0.00012076   -0.00005508   -0.00000074
     atom    3 type  2   force =     0.00016055   -0.00001575   -0.00003013
     atom    4 type  2   force =     0.00013622   -0.00016432    0.00000785
     atom    5 type  2   force =     0.00017428    0.00012700   -0.00001802
     atom    6 type  2   force =     0.00023335   -0.00037297    0.00003088
     atom    7 type  2   force =     0.00013775    0.00034180   -0.00004109
     atom    8 type  2   force =     0.00002824   -0.00000978   -0.00000588
     atom    9 type  3   force =    -0.00000091    0.00001589   -0.00000342
     atom   10 type  3   force =     0.00001338   -0.00000134   -0.00000047
     atom   11 type  3   force =     0.00001053   -0.00004369    0.00000507
     atom   12 type  3   force =    -0.00000654    0.00004862   -0.00000288
     atom   13 type  3   force =    -0.00001353   -0.00000855   -0.00001463
     atom   14 type  3   force =    -0.00002294    0.00000893   -0.00000101
     atom   15 type  3   force =    -0.00001370   -0.00000648    0.00001681
     atom   16 type  3   force =    -0.00008303    0.00005440    0.00003098
     atom   17 type  3   force =    -0.00007725   -0.00005840    0.00001266
     atom   18 type  3   force =    -0.00009114    0.00004007   -0.00005168

     DFT-D3 dispersion contribution to forces:
     atom    1 type  1   force =    -0.00005508   -0.00000528   -0.00000179
     atom    2 type  2   force =    -0.00021936    0.00000182    0.00000372
     atom    3 type  2   force =     0.00006587    0.00000096   -0.00000929
     atom    4 type  2   force =    -0.00010705   -0.00006747    0.00000768
     atom    5 type  2   force =    -0.00001375    0.00008061   -0.00000735
     atom    6 type  2   force =     0.00016815   -0.00014018   -0.00000003
     atom    7 type  2   force =     0.00027071    0.00021240   -0.00002785
     atom    8 type  2   force =     0.00001274   -0.00001696    0.00000122
     atom    9 type  3   force =    -0.00002228    0.00003786   -0.00000315
     atom   10 type  3   force =     0.00003609   -0.00004351    0.00000339
     atom   11 type  3   force =     0.00000528    0.00005689   -0.00001182
     atom   12 type  3   force =    -0.00005083   -0.00006836    0.00000312
     atom   13 type  3   force =    -0.00013080    0.00002597    0.00007830
     atom   14 type  3   force =     0.00014203   -0.00002644   -0.00000060
     atom   15 type  3   force =    -0.00013335    0.00001163   -0.00007675
     atom   16 type  3   force =     0.00004370   -0.00004169    0.00004353
     atom   17 type  3   force =    -0.00013597    0.00005526    0.00000530
     atom   18 type  3   force =     0.00012389   -0.00007350   -0.00000764

     Total force =     0.301451     Total SCF correction =     0.001028

     DFT-D3 dispersion Force =     0.000615


     Computing stress (Cartesian axis) and pressure


     negative rho (up, down):  1.273E-02 0.000E+00
          total   stress  (Ry/bohr**3)                   (kbar)     P=        0.12
   0.00000116  -0.00000049   0.00000101            0.17       -0.07        0.15
  -0.00000049  -0.00000073  -0.00000092           -0.07       -0.11       -0.13
   0.00000101  -0.00000092   0.00000198            0.15       -0.13        0.29

     kinetic stress (kbar)     66.63      0.03      0.13
                                0.03     66.05      0.64
                                0.13      0.64     72.72

     local   stress (kbar)   -576.38      0.68      8.92
                                0.68   -354.83     24.01
                                8.92     24.01    -97.01

     nonloc. stress (kbar)     14.54      0.00     -0.00
                                0.00     14.45     -0.09
                               -0.00     -0.09     13.67

     hartree stress (kbar)    254.72     -0.18     -3.73
                               -0.18    155.51     -9.07
                               -3.73     -9.07     56.80

     exc-cor stress (kbar)     -5.60     -0.00     -0.01
                               -0.00     -5.61     -0.04
                               -0.01     -0.04     -6.06

     corecor stress (kbar)    -11.51      0.00      0.00
                                0.00    -11.55      0.02
                                0.00      0.02    -11.38

     ewald   stress (kbar)    257.77     -0.60     -5.16
                               -0.60    135.87    -15.61
                               -5.16    -15.61    -28.44

     hubbard stress (kbar)      0.00      0.00      0.00
                                0.00      0.00      0.00
                                0.00      0.00      0.00

     DFT-D   stress (kbar)     -0.00      0.00     -0.00
                                0.00      0.00      0.00
                               -0.00      0.00      0.00

     XDM     stress (kbar)      0.00      0.00      0.00
                                0.00      0.00      0.00
                                0.00      0.00      0.00

     dft-nl  stress (kbar)      0.00      0.00      0.00
                                0.00      0.00      0.00
                                0.00      0.00      0.00

     TS-vdW  stress (kbar)      0.00      0.00      0.00
                                0.00      0.00      0.00
                                0.00      0.00      0.00

     MDB     stress (kbar)      0.00      0.00      0.00
                                0.00      0.00      0.00
                                0.00      0.00      0.00

     3D-RISM stress (kbar)      0.00      0.00      0.00
                                0.00      0.00      0.00
                                0.00      0.00      0.00


     BFGS Geometry Optimization
     Energy error            =      0.0E+00 Ry
     Gradient error          =      1.9E-01 Ry/Bohr

     number of scf cycles    =   1
     number of bfgs steps    =   0

     energy             new  =    -160.6332110011 Ry

     new trust radius        =       0.2137625401 bohr
     new conv_thr            =       0.0000010000 Ry


ATOMIC_POSITIONS (angstrom)
N               -2.8393395034       -0.0306089973        0.1702351751
C                1.4044425853       -0.0142260553        0.0096997737
C               -1.3505789015       -0.0243237924        0.0670662127
C                0.6848822239       -1.2064872787        0.1342308398
C                0.6720595006        1.1850820049       -0.0876960368
C               -0.7076134073       -1.2132180644        0.1631098528
C               -0.7137102923        1.1868953985       -0.0611740884
C                2.9038721292        0.0039603532       -0.0213299689
H                1.2295041771       -2.1626291295        0.2123622449
H                1.2170291230        2.1393151532       -0.1862512421
H               -1.2318404065       -2.1695774067        0.2614181202
H               -1.2498475046        2.1373519484       -0.1393225142
H                3.2824176708        0.6143464439        0.8157953533
H                3.3180640644       -1.0069057949        0.0629149605
H                3.2467135428        0.4504153872       -0.9702074844
H               -3.1999844030        0.6929599176        0.7568576771
H               -3.2695549380       -0.9298518546        0.2754386862
H               -3.2202556825        0.3722807008       -0.8033999980



     Writing config-only to output data dir ./tmp/ptoluidine_protonated.save/ :
     XML data file
     NEW-OLD atomic charge density approx. for the potential

     negative rho (up, down):  1.183E-02 0.000E+00

     total cpu time spent up to now is      126.2 secs

     Self-consistent Calculation

     iteration #  1     ecut=    40.00 Ry     beta= 0.40
     Davidson diagonalization with overlap

---- Real-time Memory Report at c_bands before calling an iterative solver
           603 MiB given to the printing process from OS
             0 MiB allocation reported by mallinfo(arena+hblkhd)
        213516 MiB available memory on the node where the printing process lives
------------------
     ethr =  1.00E-06,  avg # of iterations = 20.0

     negative rho (up, down):  1.191E-02 0.000E+00

     total cpu time spent up to now is      152.1 secs

     total energy              =    -160.63900224 Ry
     estimated scf accuracy    <       0.01988371 Ry

     iteration #  2     ecut=    40.00 Ry     beta= 0.40
     Davidson diagonalization with overlap

---- Real-time Memory Report at c_bands before calling an iterative solver
           603 MiB given to the printing process from OS
             0 MiB allocation reported by mallinfo(arena+hblkhd)
        212108 MiB available memory on the node where the printing process lives
------------------
     ethr =  4.73E-05,  avg # of iterations =  2.0

     negative rho (up, down):  1.212E-02 0.000E+00

     total cpu time spent up to now is      161.9 secs

     total energy              =    -160.64026044 Ry
     estimated scf accuracy    <       0.00297542 Ry

     iteration #  3     ecut=    40.00 Ry     beta= 0.40
     Davidson diagonalization with overlap

---- Real-time Memory Report at c_bands before calling an iterative solver
           603 MiB given to the printing process from OS
             0 MiB allocation reported by mallinfo(arena+hblkhd)
        211997 MiB available memory on the node where the printing process lives
------------------
     ethr =  7.08E-06,  avg # of iterations =  2.0

     negative rho (up, down):  1.232E-02 0.000E+00

     total cpu time spent up to now is      171.8 secs

     total energy              =    -160.64055787 Ry
     estimated scf accuracy    <       0.00042041 Ry

     iteration #  4     ecut=    40.00 Ry     beta= 0.40
     Davidson diagonalization with overlap

---- Real-time Memory Report at c_bands before calling an iterative solver
           603 MiB given to the printing process from OS
             0 MiB allocation reported by mallinfo(arena+hblkhd)
        211883 MiB available memory on the node where the printing process lives
------------------
     ethr =  1.00E-06,  avg # of iterations =  7.0

     negative rho (up, down):  1.239E-02 0.000E+00

     total cpu time spent up to now is      182.7 secs

     total energy              =    -160.64060120 Ry
     estimated scf accuracy    <       0.00005180 Ry

     iteration #  5     ecut=    40.00 Ry     beta= 0.40
     Davidson diagonalization with overlap

---- Real-time Memory Report at c_bands before calling an iterative solver
           603 MiB given to the printing process from OS
             0 MiB allocation reported by mallinfo(arena+hblkhd)
        211769 MiB available memory on the node where the printing process lives
------------------
     ethr =  1.23E-07,  avg # of iterations =  2.0

     negative rho (up, down):  1.242E-02 0.000E+00

     total cpu time spent up to now is      191.9 secs

     total energy              =    -160.64060628 Ry
     estimated scf accuracy    <       0.00000676 Ry

     iteration #  6     ecut=    40.00 Ry     beta= 0.40
     Davidson diagonalization with overlap

---- Real-time Memory Report at c_bands before calling an iterative solver
           603 MiB given to the printing process from OS
             0 MiB allocation reported by mallinfo(arena+hblkhd)
        211659 MiB available memory on the node where the printing process lives
------------------
     ethr =  1.61E-08,  avg # of iterations =  2.0

     negative rho (up, down):  1.248E-02 0.000E+00

     total cpu time spent up to now is      201.6 secs

     End of self-consistent calculation

          k = 0.0000 0.0000 0.0000 (450991 PWs)   bands (ev):

   -28.7169 -24.2183 -21.7896 -21.3757 -19.4095 -18.9115 -17.4378 -17.3363
   -16.9510 -16.2645 -14.0089 -13.9296 -13.0343 -12.9329 -12.3325 -11.3888
   -11.2646 -10.8739 -10.5589  -9.0382  -8.6848  -4.2886  -3.9553  -3.8347
    -2.6090

     occupation numbers 
     1.0000   1.0000   1.0000   1.0000   1.0000   1.0000   1.0000   1.0000
     1.0000   1.0000   1.0000   1.0000   1.0000   1.0000   1.0000   1.0000
     1.0000   1.0000   1.0000   1.0000   1.0000   0.0000   0.0000   0.0000
     0.0000

          k = 0.0000 0.3333 0.0000 (450515 PWs)   bands (ev):

   -28.7169 -24.2183 -21.7895 -21.3757 -19.4095 -18.9115 -17.4378 -17.3363
   -16.9510 -16.2645 -14.0089 -13.9296 -13.0343 -12.9329 -12.3325 -11.3888
   -11.2646 -10.8739 -10.5589  -9.0382  -8.6848  -4.2886  -3.9553  -3.8347
    -2.6090

     occupation numbers 
     1.0000   1.0000   1.0000   1.0000   1.0000   1.0000   1.0000   1.0000
     1.0000   1.0000   1.0000   1.0000   1.0000   1.0000   1.0000   1.0000
     1.0000   1.0000   1.0000   1.0000   1.0000   0.0000   0.0000   0.0000
     0.0000

          k = 0.3333 0.0000 0.0000 (450515 PWs)   bands (ev):

   -28.7169 -24.2183 -21.7895 -21.3757 -19.4095 -18.9115 -17.4378 -17.3363
   -16.9510 -16.2645 -14.0089 -13.9296 -13.0343 -12.9329 -12.3325 -11.3888
   -11.2646 -10.8739 -10.5589  -9.0382  -8.6848  -4.2886  -3.9553  -3.8347
    -2.6090

     occupation numbers 
     1.0000   1.0000   1.0000   1.0000   1.0000   1.0000   1.0000   1.0000
     1.0000   1.0000   1.0000   1.0000   1.0000   1.0000   1.0000   1.0000
     1.0000   1.0000   1.0000   1.0000   1.0000   0.0000   0.0000   0.0000
     0.0000

          k = 0.3333 0.3333 0.0000 (450333 PWs)   bands (ev):

   -28.7169 -24.2183 -21.7895 -21.3757 -19.4095 -18.9115 -17.4378 -17.3363
   -16.9510 -16.2645 -14.0089 -13.9296 -13.0343 -12.9329 -12.3325 -11.3888
   -11.2646 -10.8739 -10.5589  -9.0381  -8.6848  -4.2886  -3.9553  -3.8347
    -2.6090

     occupation numbers 
     1.0000   1.0000   1.0000   1.0000   1.0000   1.0000   1.0000   1.0000
     1.0000   1.0000   1.0000   1.0000   1.0000   1.0000   1.0000   1.0000
     1.0000   1.0000   1.0000   1.0000   1.0000   0.0000   0.0000   0.0000
     0.0000

          k = 0.3333-0.3333 0.0000 (450333 PWs)   bands (ev):

   -28.7169 -24.2183 -21.7895 -21.3757 -19.4095 -18.9115 -17.4378 -17.3363
   -16.9510 -16.2645 -14.0089 -13.9296 -13.0343 -12.9329 -12.3325 -11.3888
   -11.2646 -10.8739 -10.5589  -9.0381  -8.6848  -4.2886  -3.9553  -3.8347
    -2.6090

     occupation numbers 
     1.0000   1.0000   1.0000   1.0000   1.0000   1.0000   1.0000   1.0000
     1.0000   1.0000   1.0000   1.0000   1.0000   1.0000   1.0000   1.0000
     1.0000   1.0000   1.0000   1.0000   1.0000   0.0000   0.0000   0.0000
     0.0000

     the Fermi energy is    -5.8035 ev

!    total energy              =    -160.64060702 Ry
     estimated scf accuracy    <       0.00000056 Ry
     smearing contrib. (-TS)   =      -0.00000000 Ry
     internal energy E=F+TS    =    -160.64060702 Ry

     The total energy is F=E-TS. E is the sum of the following terms:
     one-electron contribution =    -669.22604340 Ry
     hartree contribution      =     334.72701347 Ry
     xc contribution           =     -44.43951496 Ry
     ewald contribution        =     261.48165013 Ry
     DFT-D3 Dispersion         =      -0.01287719 Ry
     one-center paw contrib.   =     -43.17083507 Ry
      -> PAW hartree energy AE =       0.00000000 Ry
      -> PAW hartree energy PS =       0.00000000 Ry
      -> PAW xc energy AE      =       0.00000000 Ry
      -> PAW xc energy PS      =       0.00000000 Ry
      -> total E_H with PAW    =     334.72701347 Ry
      -> total E_XC with PAW   =     -44.43951496 Ry

     convergence has been achieved in   6 iterations

     negative rho (up, down):  1.248E-02 0.000E+00

     Forces acting on atoms (cartesian axes, Ry/au):

     atom    1 type  1   force =    -0.00406875    0.08100074   -0.17247234
     atom    2 type  2   force =    -0.00482269    0.00174217    0.00009424
     atom    3 type  2   force =    -0.05038659    0.00912661    0.01895274
     atom    4 type  2   force =     0.02057672   -0.01921093   -0.00126632
     atom    5 type  2   force =     0.02160536    0.01271768   -0.00357303
     atom    6 type  2   force =     0.02490600   -0.05340857    0.00473039
     atom    7 type  2   force =     0.01030127    0.03186413   -0.00269765
     atom    8 type  2   force =    -0.00377248    0.00322815   -0.00013442
     atom    9 type  3   force =    -0.00828204    0.01319847   -0.00128308
     atom   10 type  3   force =    -0.00929858   -0.01226201    0.00101934
     atom   11 type  3   force =    -0.00157068    0.00533080    0.00106871
     atom   12 type  3   force =    -0.00226949   -0.00363222    0.00132214
     atom   13 type  3   force =     0.00353242   -0.00178076   -0.00666996
     atom   14 type  3   force =     0.00203160    0.00092288   -0.00006130
     atom   15 type  3   force =     0.00367353   -0.00073792    0.00708004
     atom   16 type  3   force =    -0.01550884    0.01652159    0.06108271
     atom   17 type  3   force =    -0.01454346   -0.03561577    0.02059543
     atom   18 type  3   force =     0.02789672   -0.04900505    0.07221237
     The non-local contrib.  to forces
     atom    1 type  1   force =    -0.25613330    0.17971948   -0.29415964
     atom    2 type  2   force =    -0.02910381    0.01543884   -0.00207697
     atom    3 type  2   force =    -0.70470872    0.02259777    0.05418867
     atom    4 type  2   force =    -0.08121210   -0.00953366   -0.00074890
     atom    5 type  2   force =    -0.06383537    0.00300674   -0.00216768
     atom    6 type  2   force =    -0.07721739    0.01281794   -0.01021651
     atom    7 type  2   force =    -0.10865340   -0.04612724    0.00187237
     atom    8 type  2   force =    -0.14397214    0.01964181    0.00106143
     atom    9 type  3   force =    -0.03833339    0.06653420   -0.00544950
     atom   10 type  3   force =    -0.03839776   -0.06642278    0.00684168
     atom   11 type  3   force =     0.03439918    0.06930003   -0.00691316
     atom   12 type  3   force =     0.03535042   -0.06906964    0.00587210
     atom   13 type  3   force =    -0.02646428   -0.04070769   -0.05661407
     atom   14 type  3   force =    -0.03041529    0.06994108   -0.00578778
     atom   15 type  3   force =    -0.02403778   -0.02960287    0.06404002
     atom   16 type  3   force =     0.03906791   -0.08127749   -0.06298303
     atom   17 type  3   force =     0.04650833    0.09810304   -0.01023943
     atom   18 type  3   force =     0.02402588   -0.02768365    0.06522387
     The ionic contribution  to forces
     atom    1 type  1   force =    -8.59596673   -0.36429965    0.66612942
     atom    2 type  2   force =     4.50196657   -0.00632717   -0.09590156
     atom    3 type  2   force =    -3.20854264    0.04835954   -0.14792624
     atom    4 type  2   force =     3.03856596   -7.00157427    0.56993001
     atom    5 type  2   force =     3.03155658    6.95995188   -0.72371486
     atom    6 type  2   force =    -2.33699076   -7.52339045    0.68982979
     atom    7 type  2   force =    -2.52143700    7.38918639   -0.70536657
     atom    8 type  2   force =     7.18007084    0.02348455   -0.14606684
     atom    9 type  3   force =     1.51398719   -3.20200853    0.26541324
     atom   10 type  3   force =     1.50735723    3.20095357   -0.32713777
     atom   11 type  3   force =    -1.42284435   -3.31390840    0.32227053
     atom   12 type  3   force =    -1.46606862    3.29662335   -0.29082231
     atom   13 type  3   force =     2.02676380    1.44767748    2.07315165
     atom   14 type  3   force =     2.16673664   -2.40577609    0.17642606
     atom   15 type  3   force =     1.93760742    1.03800956   -2.38091516
     atom   16 type  3   force =    -2.45595709    2.55885636    2.33697288
     atom   17 type  3   force =    -2.69526323   -3.19411597    0.47476888
     atom   18 type  3   force =    -2.20154180    1.04829787   -2.75704117
     The local contribution  to forces
     atom    1 type  1   force =     8.84690687    0.26690611   -0.54720174
     atom    2 type  2   force =    -4.47531038   -0.00687429    0.09813251
     atom    3 type  2   force =     3.84646397   -0.06080654    0.11390385
     atom    4 type  2   force =    -2.93707171    6.99021477   -0.57010393
     atom    5 type  2   force =    -2.94590995   -6.94895852    0.72230832
     atom    6 type  2   force =     2.43732399    7.45475362   -0.67491401
     atom    7 type  2   force =     2.63767302   -7.31000059    0.70107741
     atom    8 type  2   force =    -7.04321346   -0.03935682    0.14477388
     atom    9 type  3   force =    -1.48399541    3.14865884   -0.26125956
     atom   10 type  3   force =    -1.47838113   -3.14679216    0.32130170
     atom   11 type  3   force =     1.38680927    3.24989737   -0.31425608
     atom   12 type  3   force =     1.42851127   -3.23113669    0.28629010
     atom   13 type  3   force =    -1.99673333   -1.40880634   -2.02332316
     atom   14 type  3   force =    -2.13452946    2.33680450   -0.17071802
     atom   15 type  3   force =    -1.90986195   -1.00918329    2.32404373
     atom   16 type  3   force =     2.40128168   -2.46103459   -2.21292711
     atom   17 type  3   force =     2.63430304    3.06031180   -0.44392564
     atom   18 type  3   force =     2.20520718   -1.06959334    2.76403015
     The core correction contribution to forces
     atom    1 type  1   force =     0.00133934   -0.00143830    0.00300257
     atom    2 type  2   force =    -0.00221892   -0.00049161   -0.00010589
     atom    3 type  2   force =     0.01634754   -0.00102254   -0.00079164
     atom    4 type  2   force =     0.00034050    0.00186240   -0.00035279
     atom    5 type  2   force =    -0.00031407   -0.00152469    0.00003700
     atom    6 type  2   force =     0.00156341    0.00251740    0.00024652
     atom    7 type  2   force =     0.00260268   -0.00142671   -0.00003625
     atom    8 type  2   force =     0.00312731   -0.00052565    0.00006770
     atom    9 type  3   force =     0.00000000    0.00000000    0.00000000
     atom   10 type  3   force =     0.00000000    0.00000000    0.00000000
     atom   11 type  3   force =     0.00000000    0.00000000    0.00000000
     atom   12 type  3   force =     0.00000000    0.00000000    0.00000000
     atom   13 type  3   force =     0.00000000    0.00000000    0.00000000
     atom   14 type  3   force =     0.00000000    0.00000000    0.00000000
     atom   15 type  3   force =     0.00000000    0.00000000    0.00000000
     atom   16 type  3   force =     0.00000000    0.00000000    0.00000000
     atom   17 type  3   force =     0.00000000    0.00000000    0.00000000
     atom   18 type  3   force =     0.00000000    0.00000000    0.00000000
     The Hubbard contrib.    to forces
     atom    1 type  1   force =     0.00000000    0.00000000    0.00000000
     atom    2 type  2   force =     0.00000000    0.00000000    0.00000000
     atom    3 type  2   force =     0.00000000    0.00000000    0.00000000
     atom    4 type  2   force =     0.00000000    0.00000000    0.00000000
     atom    5 type  2   force =     0.00000000    0.00000000    0.00000000
     atom    6 type  2   force =     0.00000000    0.00000000    0.00000000
     atom    7 type  2   force =     0.00000000    0.00000000    0.00000000
     atom    8 type  2   force =     0.00000000    0.00000000    0.00000000
     atom    9 type  3   force =     0.00000000    0.00000000    0.00000000
     atom   10 type  3   force =     0.00000000    0.00000000    0.00000000
     atom   11 type  3   force =     0.00000000    0.00000000    0.00000000
     atom   12 type  3   force =     0.00000000    0.00000000    0.00000000
     atom   13 type  3   force =     0.00000000    0.00000000    0.00000000
     atom   14 type  3   force =     0.00000000    0.00000000    0.00000000
     atom   15 type  3   force =     0.00000000    0.00000000    0.00000000
     atom   16 type  3   force =     0.00000000    0.00000000    0.00000000
     atom   17 type  3   force =     0.00000000    0.00000000    0.00000000
     atom   18 type  3   force =     0.00000000    0.00000000    0.00000000
     The SCF correction term to forces
     atom    1 type  1   force =    -0.00023862    0.00009869   -0.00028602
     atom    2 type  2   force =    -0.00001288   -0.00000857    0.00002367
     atom    3 type  2   force =    -0.00016049    0.00000304   -0.00044063
     atom    4 type  2   force =    -0.00002960   -0.00010945   -0.00001770
     atom    5 type  2   force =     0.00003185    0.00014261   -0.00004498
     atom    6 type  2   force =    -0.00001747    0.00001219   -0.00022307
     atom    7 type  2   force =    -0.00018754    0.00003194   -0.00021818
     atom    8 type  2   force =     0.00011938   -0.00001030    0.00001165
     atom    9 type  3   force =    -0.00000367   -0.00002004   -0.00000224
     atom   10 type  3   force =    -0.00000132    0.00002235   -0.00000539
     atom   11 type  3   force =    -0.00002003   -0.00001126   -0.00003612
     atom   12 type  3   force =    -0.00007064    0.00001946   -0.00003785
     atom   13 type  3   force =     0.00003393    0.00002358    0.00003008
     atom   14 type  3   force =     0.00003875   -0.00003956    0.00000309
     atom   15 type  3   force =     0.00003538    0.00001907   -0.00003841
     atom   16 type  3   force =    -0.00001040    0.00000229   -0.00005196
     atom   17 type  3   force =    -0.00001191    0.00003216   -0.00003972
     atom   18 type  3   force =     0.00002094   -0.00000351    0.00003281

     DFT-D3 dispersion contribution to forces:
     atom    1 type  1   force =    -0.00005164    0.00000523    0.00002652
     atom    2 type  2   force =    -0.00021861   -0.00000421    0.00000593
     atom    3 type  2   force =     0.00013841   -0.00001385    0.00000220
     atom    4 type  2   force =    -0.00009165   -0.00007990    0.00001044
     atom    5 type  2   force =     0.00000098    0.00009049   -0.00000738
     atom    6 type  2   force =     0.00016888   -0.00012846   -0.00000888
     atom    7 type  2   force =     0.00022818    0.00019116   -0.00004298
     atom    8 type  2   force =     0.00002026   -0.00001461    0.00000121
     atom    9 type  3   force =    -0.00001209    0.00002483   -0.00000157
     atom   10 type  3   force =     0.00004907   -0.00003217    0.00000257
     atom   11 type  3   force =     0.00000990    0.00004389   -0.00001302
     atom   12 type  3   force =    -0.00006726   -0.00007789    0.00000356
     atom   13 type  3   force =    -0.00014303    0.00002303    0.00006898
     atom   14 type  3   force =     0.00012562   -0.00001623   -0.00000120
     atom   15 type  3   force =    -0.00014489    0.00001043   -0.00006671
     atom   16 type  3   force =     0.00003372   -0.00003416    0.00005537
     atom   17 type  3   force =    -0.00015503    0.00004401    0.00001480
     atom   18 type  3   force =     0.00010918   -0.00003160   -0.00004984

     Total force =     0.246217     Total SCF correction =     0.000761

     DFT-D3 dispersion Force =     0.000601


     Computing stress (Cartesian axis) and pressure


     negative rho (up, down):  1.248E-02 0.000E+00
          total   stress  (Ry/bohr**3)                   (kbar)     P=        0.01
   0.00000086  -0.00000008  -0.00000069            0.13       -0.01       -0.10
  -0.00000008   0.00000092   0.00000087           -0.01        0.14        0.13
  -0.00000069   0.00000087  -0.00000150           -0.10        0.13       -0.22

     kinetic stress (kbar)     66.60     -0.01      0.18
                               -0.01     65.63      0.57
                                0.18      0.57     72.51

     local   stress (kbar)   -574.67      0.33     12.60
                                0.33   -356.30     23.62
                               12.60     23.62    -96.68

     nonloc. stress (kbar)     14.55      0.01     -0.04
                                0.01     14.56     -0.06
                               -0.04     -0.06     13.67

     hartree stress (kbar)    254.45     -0.07     -5.16
                               -0.07    155.60     -9.10
                               -5.16     -9.10     56.93

     exc-cor stress (kbar)     -5.57     -0.00     -0.01
                               -0.00     -5.57     -0.04
                               -0.01     -0.04     -6.02

     corecor stress (kbar)    -11.51      0.00      0.00
                                0.00    -11.56      0.02
                                0.00      0.02    -11.38

     ewald   stress (kbar)    256.29     -0.27     -7.68
                               -0.27    137.76    -14.87
                               -7.68    -14.87    -29.25

     hubbard stress (kbar)      0.00      0.00      0.00
                                0.00      0.00      0.00
                                0.00      0.00      0.00

     DFT-D   stress (kbar)     -0.00      0.00     -0.00
                                0.00      0.00      0.00
                               -0.00      0.00      0.00

     XDM     stress (kbar)      0.00      0.00      0.00
                                0.00      0.00      0.00
                                0.00      0.00      0.00

     dft-nl  stress (kbar)      0.00      0.00      0.00
                                0.00      0.00      0.00
                                0.00      0.00      0.00

     TS-vdW  stress (kbar)      0.00      0.00      0.00
                                0.00      0.00      0.00
                                0.00      0.00      0.00

     MDB     stress (kbar)      0.00      0.00      0.00
                                0.00      0.00      0.00
                                0.00      0.00      0.00

     3D-RISM stress (kbar)      0.00      0.00      0.00
                                0.00      0.00      0.00
                                0.00      0.00      0.00

     Energy error            =      7.4E-03 Ry
     Gradient error          =      1.7E-01 Ry/Bohr

     number of scf cycles    =   2
     number of bfgs steps    =   1

     energy             old  =    -160.6332110011 Ry
     energy             new  =    -160.6406070231 Ry

     CASE: energy            _new < energy            _old

     new trust radius        =       0.1013716278 bohr
     new conv_thr            =       0.0000010000 Ry


ATOMIC_POSITIONS (angstrom)
N               -2.8408694715       -0.0058158510        0.1226895116
C                1.4035361908       -0.0141593934        0.0097377728
C               -1.3594798277       -0.0223105294        0.0735576585
C                0.6904223582       -1.2114460468        0.1336604890
C                0.6774676149        1.1881908026       -0.0888006309
C               -0.6999893749       -1.2299062235        0.1646310389
C               -0.7106241507        1.1967948724       -0.0620040092
C                2.9032769841        0.0045853703       -0.0213267858
H                1.2270986460       -2.1587171813        0.2119802487
H                1.2142156415        2.1357718751       -0.1859607824
H               -1.2328335201       -2.1685891381        0.2618776148
H               -1.2509846102        2.1370020300       -0.1389261250
H                3.2836125746        0.6134043150        0.8127419487
H                3.3184117852       -1.0055373173        0.0628074045
H                3.2479825494        0.4499787927       -0.9669666238
H               -3.2051621272        0.6975506676        0.7790560093
H               -3.2741776294       -0.9413893824        0.2825025394
H               -3.2156436549        0.3593712714       -0.7915097157



     Writing config-only to output data dir ./tmp/ptoluidine_protonated.save/ :
     XML data file
     NEW-OLD atomic charge density approx. for the potential

     negative rho (up, down):  1.217E-02 0.000E+00

     total cpu time spent up to now is      217.4 secs

     Self-consistent Calculation

     iteration #  1     ecut=    40.00 Ry     beta= 0.40
     Davidson diagonalization with overlap

---- Real-time Memory Report at c_bands before calling an iterative solver
           603 MiB given to the printing process from OS
             0 MiB allocation reported by mallinfo(arena+hblkhd)
        213508 MiB available memory on the node where the printing process lives
------------------
     ethr =  1.00E-06,  avg # of iterations = 19.0

     negative rho (up, down):  1.224E-02 0.000E+00

     total cpu time spent up to now is      240.3 secs

     total energy              =    -160.66004885 Ry
     estimated scf accuracy    <       0.00319269 Ry

     iteration #  2     ecut=    40.00 Ry     beta= 0.40
     Davidson diagonalization with overlap

---- Real-time Memory Report at c_bands before calling an iterative solver
           603 MiB given to the printing process from OS
             0 MiB allocation reported by mallinfo(arena+hblkhd)
        212099 MiB available memory on the node where the printing process lives
------------------
     ethr =  7.60E-06,  avg # of iterations =  2.0

     negative rho (up, down):  1.234E-02 0.000E+00

     total cpu time spent up to now is      249.9 secs

     total energy              =    -160.66018095 Ry
     estimated scf accuracy    <       0.00053862 Ry

     iteration #  3     ecut=    40.00 Ry     beta= 0.40
     Davidson diagonalization with overlap

---- Real-time Memory Report at c_bands before calling an iterative solver
           603 MiB given to the printing process from OS
             0 MiB allocation reported by mallinfo(arena+hblkhd)
        211985 MiB available memory on the node where the printing process lives
------------------
     ethr =  1.28E-06,  avg # of iterations =  2.0

     negative rho (up, down):  1.242E-02 0.000E+00

     total cpu time spent up to now is      259.9 secs

     total energy              =    -160.66023985 Ry
     estimated scf accuracy    <       0.00007404 Ry

     iteration #  4     ecut=    40.00 Ry     beta= 0.40
     Davidson diagonalization with overlap

---- Real-time Memory Report at c_bands before calling an iterative solver
           603 MiB given to the printing process from OS
             0 MiB allocation reported by mallinfo(arena+hblkhd)
        211874 MiB available memory on the node where the printing process lives
------------------
     ethr =  1.76E-07,  avg # of iterations =  2.0

     negative rho (up, down):  1.247E-02 0.000E+00

     total cpu time spent up to now is      269.6 secs

     total energy              =    -160.66025084 Ry
     estimated scf accuracy    <       0.00001200 Ry

     iteration #  5     ecut=    40.00 Ry     beta= 0.40
     Davidson diagonalization with overlap

---- Real-time Memory Report at c_bands before calling an iterative solver
           603 MiB given to the printing process from OS
             0 MiB allocation reported by mallinfo(arena+hblkhd)
        211760 MiB available memory on the node where the printing process lives
------------------
     ethr =  2.86E-08,  avg # of iterations =  2.0

     negative rho (up, down):  1.250E-02 0.000E+00

     total cpu time spent up to now is      278.9 secs

     total energy              =    -160.66025191 Ry
     estimated scf accuracy    <       0.00000114 Ry

     iteration #  6     ecut=    40.00 Ry     beta= 0.40
     Davidson diagonalization with overlap

---- Real-time Memory Report at c_bands before calling an iterative solver
           603 MiB given to the printing process from OS
             0 MiB allocation reported by mallinfo(arena+hblkhd)
        211651 MiB available memory on the node where the printing process lives
------------------
     ethr =  2.70E-09,  avg # of iterations =  2.0

     negative rho (up, down):  1.254E-02 0.000E+00

     total cpu time spent up to now is      289.0 secs

     End of self-consistent calculation

          k = 0.0000 0.0000 0.0000 (450991 PWs)   bands (ev):

   -28.7057 -24.1044 -21.7315 -21.3492 -19.3962 -18.6663 -17.5806 -17.3606
   -17.0705 -16.2420 -14.0016 -13.9179 -13.0626 -12.9416 -12.3046 -11.3337
   -11.2622 -10.8724 -10.5812  -9.0312  -8.6595  -4.0816  -4.0229  -3.9002
    -2.5956

     occupation numbers 
     1.0000   1.0000   1.0000   1.0000   1.0000   1.0000   1.0000   1.0000
     1.0000   1.0000   1.0000   1.0000   1.0000   1.0000   1.0000   1.0000
     1.0000   1.0000   1.0000   1.0000   1.0000   0.0000   0.0000   0.0000
     0.0000

          k = 0.0000 0.3333 0.0000 (450515 PWs)   bands (ev):

   -28.7057 -24.1044 -21.7315 -21.3492 -19.3961 -18.6663 -17.5806 -17.3606
   -17.0705 -16.2420 -14.0016 -13.9179 -13.0626 -12.9416 -12.3046 -11.3336
   -11.2622 -10.8724 -10.5812  -9.0312  -8.6595  -4.0816  -4.0229  -3.9002
    -2.5956

     occupation numbers 
     1.0000   1.0000   1.0000   1.0000   1.0000   1.0000   1.0000   1.0000
     1.0000   1.0000   1.0000   1.0000   1.0000   1.0000   1.0000   1.0000
     1.0000   1.0000   1.0000   1.0000   1.0000   0.0000   0.0000   0.0000
     0.0000

          k = 0.3333 0.0000 0.0000 (450515 PWs)   bands (ev):

   -28.7057 -24.1044 -21.7315 -21.3492 -19.3961 -18.6663 -17.5806 -17.3606
   -17.0705 -16.2420 -14.0016 -13.9179 -13.0626 -12.9416 -12.3046 -11.3336
   -11.2622 -10.8724 -10.5812  -9.0312  -8.6595  -4.0816  -4.0229  -3.9002
    -2.5956

     occupation numbers 
     1.0000   1.0000   1.0000   1.0000   1.0000   1.0000   1.0000   1.0000
     1.0000   1.0000   1.0000   1.0000   1.0000   1.0000   1.0000   1.0000
     1.0000   1.0000   1.0000   1.0000   1.0000   0.0000   0.0000   0.0000
     0.0000

          k = 0.3333 0.3333 0.0000 (450333 PWs)   bands (ev):

   -28.7056 -24.1044 -21.7315 -21.3492 -19.3961 -18.6663 -17.5806 -17.3606
   -17.0705 -16.2420 -14.0015 -13.9179 -13.0626 -12.9416 -12.3046 -11.3336
   -11.2622 -10.8724 -10.5811  -9.0311  -8.6595  -4.0816  -4.0229  -3.9002
    -2.5956

     occupation numbers 
     1.0000   1.0000   1.0000   1.0000   1.0000   1.0000   1.0000   1.0000
     1.0000   1.0000   1.0000   1.0000   1.0000   1.0000   1.0000   1.0000
     1.0000   1.0000   1.0000   1.0000   1.0000   0.0000   0.0000   0.0000
     0.0000

          k = 0.3333-0.3333 0.0000 (450333 PWs)   bands (ev):

   -28.7056 -24.1044 -21.7315 -21.3492 -19.3961 -18.6663 -17.5806 -17.3606
   -17.0705 -16.2420 -14.0016 -13.9179 -13.0626 -12.9416 -12.3046 -11.3336
   -11.2622 -10.8724 -10.5811  -9.0311  -8.6595  -4.0816  -4.0229  -3.9002
    -2.5956

     occupation numbers 
     1.0000   1.0000   1.0000   1.0000   1.0000   1.0000   1.0000   1.0000
     1.0000   1.0000   1.0000   1.0000   1.0000   1.0000   1.0000   1.0000
     1.0000   1.0000   1.0000   1.0000   1.0000   0.0000   0.0000   0.0000
     0.0000

     the Fermi energy is    -5.7905 ev

!    total energy              =    -160.66025208 Ry
     estimated scf accuracy    <       0.00000009 Ry
     smearing contrib. (-TS)   =      -0.00000000 Ry
     internal energy E=F+TS    =    -160.66025208 Ry

     The total energy is F=E-TS. E is the sum of the following terms:
     one-electron contribution =    -668.25000886 Ry
     hartree contribution      =     334.24891494 Ry
     xc contribution           =     -44.42711628 Ry
     ewald contribution        =     260.95040908 Ry
     DFT-D3 Dispersion         =      -0.01288812 Ry
     one-center paw contrib.   =     -43.16956284 Ry
      -> PAW hartree energy AE =       0.00000000 Ry
      -> PAW hartree energy PS =       0.00000000 Ry
      -> PAW xc energy AE      =       0.00000000 Ry
      -> PAW xc energy PS      =       0.00000000 Ry
      -> total E_H with PAW    =     334.24891494 Ry
      -> total E_XC with PAW   =     -44.42711628 Ry

     convergence has been achieved in   6 iterations

     negative rho (up, down):  1.254E-02 0.000E+00

     Forces acting on atoms (cartesian axes, Ry/au):

     atom    1 type  1   force =    -0.03327243    0.01628582   -0.04978863
     atom    2 type  2   force =    -0.00160455    0.00261092   -0.00066227
     atom    3 type  2   force =    -0.01003516    0.00246815    0.00607920
     atom    4 type  2   force =     0.00938844   -0.00781706   -0.00052495
     atom    5 type  2   force =     0.00830593    0.00256660   -0.00133596
     atom    6 type  2   force =     0.00371130    0.00121354    0.00151390
     atom    7 type  2   force =     0.00751761   -0.00078331    0.00146422
     atom    8 type  2   force =    -0.00445480    0.00038041    0.00009671
     atom    9 type  3   force =     0.00096334    0.00174893   -0.00052441
     atom   10 type  3   force =    -0.00144241   -0.00269688   -0.00009899
     atom   11 type  3   force =    -0.00593473   -0.00909998    0.00167459
     atom   12 type  3   force =    -0.00475766    0.00491557    0.00011417
     atom   13 type  3   force =     0.00397203   -0.00010107   -0.00392596
     atom   14 type  3   force =     0.00200830    0.00037514    0.00000864
     atom   15 type  3   force =     0.00404239    0.00051461    0.00398488
     atom   16 type  3   force =     0.00142656   -0.01172956    0.02104425
     atom   17 type  3   force =     0.01118404    0.02144471    0.00441653
     atom   18 type  3   force =     0.00898179   -0.02229654    0.01646407
     The non-local contrib.  to forces
     atom    1 type  1   force =    -0.25239298    0.09084171   -0.10585679
     atom    2 type  2   force =    -0.02706228    0.01258830   -0.00154075
     atom    3 type  2   force =    -0.67236494    0.01628652    0.02231033
     atom    4 type  2   force =    -0.09152275    0.00470530   -0.00005277
     atom    5 type  2   force =    -0.07563105   -0.00891740    0.00062421
     atom    6 type  2   force =    -0.10266512    0.07077633   -0.00647326
     atom    7 type  2   force =    -0.10917701   -0.07236239    0.00935646
     atom    8 type  2   force =    -0.14338635    0.01639158    0.00130521
     atom    9 type  3   force =    -0.03919790    0.06883275   -0.00571667
     atom   10 type  3   force =    -0.03902658   -0.06844711    0.00699108
     atom   11 type  3   force =     0.03689883    0.07071466   -0.00717550
     atom   12 type  3   force =     0.03683753   -0.07000400    0.00588059
     atom   13 type  3   force =    -0.02686235   -0.04097525   -0.05688953
     atom   14 type  3   force =    -0.03052358    0.06994284   -0.00578272
     atom   15 type  3   force =    -0.02442107   -0.02981013    0.06438924
     atom   16 type  3   force =     0.03473035   -0.06934752   -0.06311587
     atom   17 type  3   force =     0.03934246    0.08606445   -0.01421522
     atom   18 type  3   force =     0.03173040   -0.03269366    0.08030014
     The ionic contribution  to forces
     atom    1 type  1   force =    -8.70296060   -0.32273380    0.48194057
     atom    2 type  2   force =     4.44278122   -0.01301767   -0.08568239
     atom    3 type  2   force =    -3.00599928   -0.08685129    0.09413822
     atom    4 type  2   force =     3.02373738   -6.91545811    0.55629315
     atom    5 type  2   force =     2.99407189    6.89113917   -0.72033722
     atom    6 type  2   force =    -2.41197581   -7.35296143    0.69128207
     atom    7 type  2   force =    -2.48711486    7.26774073   -0.68141371
     atom    8 type  2   force =     7.16324575    0.01796254   -0.14239962
     atom    9 type  3   force =     1.53579563   -3.24023780    0.27071031
     atom   10 type  3   force =     1.52257934    3.23437312   -0.32882812
     atom   11 type  3   force =    -1.46888939   -3.32607345    0.33047075
     atom   12 type  3   force =    -1.48257673    3.31023549   -0.28701734
     atom   13 type  3   force =     2.03471414    1.45221706    2.07824061
     atom   14 type  3   force =     2.16975738   -2.40621161    0.17683574
     atom   15 type  3   force =     1.94586992    1.04162933   -2.38654394
     atom   16 type  3   force =    -2.36763202    2.33056842    2.37951135
     atom   17 type  3   force =    -2.55850252   -2.99875603    0.57823140
     atom   18 type  3   force =    -2.34690142    1.11643535   -3.00543181
     The local contribution  to forces
     atom    1 type  1   force =     8.92049979    0.24872007   -0.42676177
     atom    2 type  2   force =    -4.41484457    0.00349702    0.08667792
     atom    3 type  2   force =     3.65289059    0.07366598   -0.11020097
     atom    4 type  2   force =    -2.92322100    6.90168873   -0.55645050
     atom    5 type  2   force =    -2.91007981   -6.87860625    0.71837407
     atom    6 type  2   force =     2.51594732    7.28276874   -0.68363796
     atom    7 type  2   force =     2.60094107   -7.19570311    0.67367799
     atom    8 type  2   force =    -7.02757327   -0.03351870    0.14112533
     atom    9 type  3   force =    -1.49563506    3.17309348   -0.26552994
     atom   10 type  3   force =    -1.48506822   -3.16860687    0.32172163
     atom   11 type  3   force =     1.42601172    3.24615671   -0.32163082
     atom   12 type  3   force =     1.44098492   -3.23526279    0.28122266
     atom   13 type  3   force =    -2.00379017   -1.41139012   -2.02537306
     atom   14 type  3   force =    -2.13740024    2.33665867   -0.17105824
     atom   15 type  3   force =    -1.91731332   -1.01133584    2.32620553
     atom   16 type  3   force =     2.33423383   -2.27293514   -2.29541670
     atom   17 type  3   force =     2.53043562    2.93408033   -0.55962466
     atom   18 type  3   force =     2.32398393   -1.10600556    2.94160983
     The core correction contribution to forces
     atom    1 type  1   force =     0.00146117   -0.00045596    0.00089190
     atom    2 type  2   force =    -0.00217107   -0.00040152   -0.00012865
     atom    3 type  2   force =     0.01526572   -0.00053542   -0.00037246
     atom    4 type  2   force =     0.00055329    0.00132662   -0.00033977
     atom    5 type  2   force =     0.00000955   -0.00111829   -0.00000299
     atom    6 type  2   force =     0.00227660    0.00076313    0.00025745
     atom    7 type  2   force =     0.00259773   -0.00058222   -0.00021116
     atom    8 type  2   force =     0.00318787   -0.00043224    0.00005642
     atom    9 type  3   force =     0.00000000    0.00000000    0.00000000
     atom   10 type  3   force =     0.00000000    0.00000000    0.00000000
     atom   11 type  3   force =     0.00000000    0.00000000    0.00000000
     atom   12 type  3   force =     0.00000000    0.00000000    0.00000000
     atom   13 type  3   force =     0.00000000    0.00000000    0.00000000
     atom   14 type  3   force =     0.00000000    0.00000000    0.00000000
     atom   15 type  3   force =     0.00000000    0.00000000    0.00000000
     atom   16 type  3   force =     0.00000000    0.00000000    0.00000000
     atom   17 type  3   force =     0.00000000    0.00000000    0.00000000
     atom   18 type  3   force =     0.00000000    0.00000000    0.00000000
     The Hubbard contrib.    to forces
     atom    1 type  1   force =     0.00000000    0.00000000    0.00000000
     atom    2 type  2   force =     0.00000000    0.00000000    0.00000000
     atom    3 type  2   force =     0.00000000    0.00000000    0.00000000
     atom    4 type  2   force =     0.00000000    0.00000000    0.00000000
     atom    5 type  2   force =     0.00000000    0.00000000    0.00000000
     atom    6 type  2   force =     0.00000000    0.00000000    0.00000000
     atom    7 type  2   force =     0.00000000    0.00000000    0.00000000
[...]

     Forces acting on atoms (cartesian axes, Ry/au):

     atom    1 type  1   force =     0.00015842    0.00007116   -0.00015074
     atom    2 type  2   force =    -0.00028841   -0.00008705    0.00000486
     atom    3 type  2   force =     0.00015495    0.00018301    0.00012310
     atom    4 type  2   force =     0.00009648    0.00001419    0.00001622
     atom    5 type  2   force =     0.00003449    0.00005775   -0.00006058
     atom    6 type  2   force =     0.00010961    0.00024569    0.00016739
     atom    7 type  2   force =     0.00001527   -0.00023064    0.00008192
     atom    8 type  2   force =     0.00013842    0.00007083    0.00007228
     atom    9 type  3   force =     0.00024513   -0.00013429   -0.00005348
     atom   10 type  3   force =    -0.00000356    0.00008982   -0.00013761
     atom   11 type  3   force =    -0.00004518    0.00013613   -0.00002394
     atom   12 type  3   force =    -0.00037384   -0.00006805   -0.00010755
     atom   13 type  3   force =     0.00013696   -0.00005097    0.00028910
     atom   14 type  3   force =    -0.00027607   -0.00001267   -0.00010452
     atom   15 type  3   force =     0.00002732   -0.00025525   -0.00018251
     atom   16 type  3   force =     0.00006626    0.00005992   -0.00005383
     atom   17 type  3   force =    -0.00003873   -0.00003554   -0.00007187
     atom   18 type  3   force =    -0.00015752   -0.00005404    0.00019175
     The non-local contrib.  to forces
     atom    1 type  1   force =    -0.20075885    0.00342029    0.00246071
     atom    2 type  2   force =    -0.02088158    0.00758302   -0.00009374
     atom    3 type  2   force =    -0.66725996    0.00738633    0.00876616
     atom    4 type  2   force =    -0.10143600    0.01465965    0.00085678
     atom    5 type  2   force =    -0.08594700   -0.01246256    0.00255530
     atom    6 type  2   force =    -0.10629464    0.06614886   -0.00494151
     atom    7 type  2   force =    -0.11219019   -0.07560855    0.00882030
     atom    8 type  2   force =    -0.13800094    0.01761622    0.00121127
     atom    9 type  3   force =    -0.03930697    0.06913915   -0.00582588
     atom   10 type  3   force =    -0.03970212   -0.06870155    0.00706795
     atom   11 type  3   force =     0.03634418    0.06880486   -0.00734007
     atom   12 type  3   force =     0.03636622   -0.06931191    0.00558008
     atom   13 type  3   force =    -0.02863752   -0.04107015   -0.05609527
     atom   14 type  3   force =    -0.03076637    0.06965337   -0.00584057
     atom   15 type  3   force =    -0.02643951   -0.03017045    0.06359159
     atom   16 type  3   force =     0.03428943   -0.06117302   -0.07050321
     atom   17 type  3   force =     0.03450032    0.09165935   -0.01959837
     atom   18 type  3   force =     0.03700567   -0.02874897    0.08746402
     The ionic contribution  to forces
     atom    1 type  1   force =    -8.57502091    0.08463027    0.13723425
     atom    2 type  2   force =     4.41449987   -0.06234466   -0.10966499
     atom    3 type  2   force =    -3.03800253    0.04248648    0.09810113
     atom    4 type  2   force =     2.92592307   -6.89455539    0.57391134
     atom    5 type  2   force =     2.97780427    6.83357974   -0.71489006
     atom    6 type  2   force =    -2.41913391   -7.23925706    0.74105879
     atom    7 type  2   force =    -2.45234385    7.25215381   -0.63679629
     atom    8 type  2   force =     7.05577388   -0.05187954   -0.14076501
     atom    9 type  3   force =     1.52007446   -3.24225576    0.27714540
     atom   10 type  3   force =     1.54370321    3.22877911   -0.32919749
     atom   11 type  3   force =    -1.45913090   -3.27746674    0.34425740
     atom   12 type  3   force =    -1.45988244    3.29054415   -0.27284817
     atom   13 type  3   force =     2.06239696    1.44334698    2.05665163
     atom   14 type  3   force =     2.15667245   -2.40928888    0.17900310
     atom   15 type  3   force =     1.97890125    1.03981835   -2.36016997
     atom   16 type  3   force =    -2.35354803    2.11732059    2.55518729
     atom   17 type  3   force =    -2.44032195   -3.13770849    0.71216542
     atom   18 type  3   force =    -2.43836491    0.98209705   -3.11038377
     The local contribution  to forces
     atom    1 type  1   force =     8.77505143   -0.08788677   -0.13989123
     atom    2 type  2   force =    -4.39142750    0.05487970    0.10983383
     atom    3 type  2   force =     3.68958305   -0.04944856   -0.10665924
     atom    4 type  2   force =    -2.82513102    6.87888408   -0.57445763
     atom    5 type  2   force =    -2.89227132   -6.82016673    0.71229878
     atom    6 type  2   force =     2.52302887    7.17274380   -0.73620152
     atom    7 type  2   force =     2.56179200   -7.17648144    0.62833368
     atom    8 type  2   force =    -6.92093612    0.03468233    0.13955421
     atom    9 type  3   force =    -1.48053068    3.17294546   -0.27138127
     atom   10 type  3   force =    -1.50407301   -3.15995171    0.32197913
     atom   11 type  3   force =     1.42268385    3.20875393   -0.33693965
     atom   12 type  3   force =     1.42318688   -3.22121672    0.26713996
     atom   13 type  3   force =    -2.03350971   -1.40235741   -2.00034178
     atom   14 type  3   force =    -2.12633063    2.33963995   -0.17327661
     atom   15 type  3   force =    -1.95232037   -1.00992203    2.29644832
     atom   16 type  3   force =     2.31919295   -2.05607041   -2.48478942
     atom   17 type  3   force =     2.40593473    3.04592991   -0.69266443
     atom   18 type  3   force =     2.40100821   -0.95337813    3.02312548
     The core correction contribution to forces
     atom    1 type  1   force =     0.00088539   -0.00008322    0.00001682
     atom    2 type  2   force =    -0.00229344   -0.00020353   -0.00008422
     atom    3 type  2   force =     0.01568357   -0.00024157   -0.00010395
     atom    4 type  2   force =     0.00080889    0.00110795   -0.00031845
     atom    5 type  2   force =     0.00040159   -0.00099814   -0.00002081
     atom    6 type  2   force =     0.00229556    0.00074105    0.00023676
     atom    7 type  2   force =     0.00262811   -0.00047364   -0.00024922
     atom    8 type  2   force =     0.00326861   -0.00033311    0.00006063
     atom    9 type  3   force =     0.00000000    0.00000000    0.00000000
     atom   10 type  3   force =     0.00000000    0.00000000    0.00000000
     atom   11 type  3   force =     0.00000000    0.00000000    0.00000000
     atom   12 type  3   force =     0.00000000    0.00000000    0.00000000
     atom   13 type  3   force =     0.00000000    0.00000000    0.00000000
     atom   14 type  3   force =     0.00000000    0.00000000    0.00000000
     atom   15 type  3   force =     0.00000000    0.00000000    0.00000000
     atom   16 type  3   force =     0.00000000    0.00000000    0.00000000
     atom   17 type  3   force =     0.00000000    0.00000000    0.00000000
     atom   18 type  3   force =     0.00000000    0.00000000    0.00000000
     The Hubbard contrib.    to forces
     atom    1 type  1   force =     0.00000000    0.00000000    0.00000000
     atom    2 type  2   force =     0.00000000    0.00000000    0.00000000
     atom    3 type  2   force =     0.00000000    0.00000000    0.00000000
     atom    4 type  2   force =     0.00000000    0.00000000    0.00000000
     atom    5 type  2   force =     0.00000000    0.00000000    0.00000000
     atom    6 type  2   force =     0.00000000    0.00000000    0.00000000
     atom    7 type  2   force =     0.00000000    0.00000000    0.00000000
     atom    8 type  2   force =     0.00000000    0.00000000    0.00000000
     atom    9 type  3   force =     0.00000000    0.00000000    0.00000000
     atom   10 type  3   force =     0.00000000    0.00000000    0.00000000
     atom   11 type  3   force =     0.00000000    0.00000000    0.00000000
     atom   12 type  3   force =     0.00000000    0.00000000    0.00000000
     atom   13 type  3   force =     0.00000000    0.00000000    0.00000000
     atom   14 type  3   force =     0.00000000    0.00000000    0.00000000
     atom   15 type  3   force =     0.00000000    0.00000000    0.00000000
     atom   16 type  3   force =     0.00000000    0.00000000    0.00000000
     atom   17 type  3   force =     0.00000000    0.00000000    0.00000000
     atom   18 type  3   force =     0.00000000    0.00000000    0.00000000
     The SCF correction term to forces
     atom    1 type  1   force =     0.00003108   -0.00001416    0.00001812
     atom    2 type  2   force =     0.00001363    0.00000036    0.00000020
     atom    3 type  2   force =    -0.00001560   -0.00000033    0.00000947
     atom    4 type  2   force =    -0.00000945   -0.00000883    0.00000543
     atom    5 type  2   force =    -0.00001195    0.00002282   -0.00000515
     atom    6 type  2   force =    -0.00001541    0.00000798    0.00000697
     atom    7 type  2   force =    -0.00001083    0.00001216   -0.00000277
     atom    8 type  2   force =    -0.00001754   -0.00000561    0.00000027
     atom    9 type  3   force =     0.00000034   -0.00000272    0.00000078
     atom   10 type  3   force =    -0.00000252    0.00000174   -0.00000065
     atom   11 type  3   force =    -0.00000172    0.00000218    0.00000131
     atom   12 type  3   force =     0.00000190   -0.00000106    0.00000027
     atom   13 type  3   force =    -0.00000336    0.00000137    0.00000191
     atom   14 type  3   force =    -0.00000185   -0.00000198    0.00000029
     atom   15 type  3   force =    -0.00000359    0.00000105   -0.00000204
     atom   16 type  3   force =     0.00000386   -0.00000181    0.00000017
     atom   17 type  3   force =     0.00000158    0.00000187    0.00000090
     atom   18 type  3   force =     0.00000147   -0.00000047    0.00000104

     DFT-D3 dispersion contribution to forces:
     atom    1 type  1   force =    -0.00006005    0.00000105    0.00000060
     atom    2 type  2   force =    -0.00022972   -0.00000564    0.00000379
     atom    3 type  2   force =     0.00013609   -0.00000303   -0.00000045
     atom    4 type  2   force =    -0.00008935   -0.00007697    0.00000876
     atom    5 type  2   force =     0.00002858    0.00007893   -0.00000863
     atom    6 type  2   force =     0.00019883   -0.00014263   -0.00000209
     atom    7 type  2   force =     0.00010970    0.00016333   -0.00003378
     atom    8 type  2   force =     0.00002020   -0.00001316    0.00000093
     atom    9 type  3   force =    -0.00002235    0.00003590   -0.00000249
     atom   10 type  3   force =     0.00004055   -0.00004146    0.00000346
     atom   11 type  3   force =     0.00002909    0.00003820   -0.00001292
     atom   12 type  3   force =    -0.00007673   -0.00008620    0.00001033
     atom   13 type  3   force =    -0.00013974    0.00002456    0.00006262
     atom   14 type  3   force =     0.00012000   -0.00001881   -0.00000072
     atom   15 type  3   force =    -0.00014079    0.00001414   -0.00006040
     atom   16 type  3   force =     0.00009772   -0.00001913    0.00004136
     atom   17 type  3   force =    -0.00018374    0.00007813    0.00001462
     atom   18 type  3   force =     0.00016172   -0.00002721   -0.00002500

     Total force =     0.001041     Total SCF correction =     0.000063

     DFT-D3 dispersion Force =     0.000599


     Computing stress (Cartesian axis) and pressure


     negative rho (up, down):  1.260E-02 0.000E+00
          total   stress  (Ry/bohr**3)                   (kbar)     P=       -0.10
  -0.00000067  -0.00000002   0.00000001           -0.10       -0.00        0.00
  -0.00000002  -0.00000066   0.00000000           -0.00       -0.10        0.00
   0.00000001   0.00000000  -0.00000068            0.00        0.00       -0.10

     kinetic stress (kbar)     66.40      0.01      0.13
                                0.01     65.90      0.59
                                0.13      0.59     72.09

     local   stress (kbar)   -573.02      0.91      9.49
                                0.91   -353.14     23.97
                                9.49     23.97    -97.29

     nonloc. stress (kbar)     14.51     -0.00     -0.02
                               -0.00     14.49     -0.08
                               -0.02     -0.08     13.66

     hartree stress (kbar)    253.72     -0.36     -3.90
                               -0.36    154.63     -9.15
                               -3.90     -9.15     56.63

     exc-cor stress (kbar)     -5.56     -0.00     -0.01
                               -0.00     -5.56     -0.04
                               -0.01     -0.04     -6.00

     corecor stress (kbar)    -11.50      0.00      0.00
                                0.00    -11.55      0.02
                                0.00      0.02    -11.38

     ewald   stress (kbar)    255.36     -0.56     -5.69
                               -0.56    135.13    -15.30
                               -5.69    -15.30    -27.80

     hubbard stress (kbar)      0.00      0.00      0.00
                                0.00      0.00      0.00
                                0.00      0.00      0.00

     DFT-D   stress (kbar)     -0.00     -0.00     -0.00
                               -0.00      0.00      0.00
                               -0.00      0.00      0.00

     XDM     stress (kbar)      0.00      0.00      0.00
                                0.00      0.00      0.00
                                0.00      0.00      0.00

     dft-nl  stress (kbar)      0.00      0.00      0.00
                                0.00      0.00      0.00
                                0.00      0.00      0.00

     TS-vdW  stress (kbar)      0.00      0.00      0.00
                                0.00      0.00      0.00
                                0.00      0.00      0.00

     MDB     stress (kbar)      0.00      0.00      0.00
                                0.00      0.00      0.00
                                0.00      0.00      0.00

     3D-RISM stress (kbar)      0.00      0.00      0.00
                                0.00      0.00      0.00
                                0.00      0.00      0.00

     Energy error            =      1.9E-06 Ry
     Gradient error          =      3.7E-04 Ry/Bohr

     bfgs converged in  24 scf cycles and  23 bfgs steps
     (criteria: energy <  1.0E-05 Ry, force <  5.0E-04 Ry/Bohr)

     End of BFGS Geometry Optimization

     Final energy             =    -160.6655945383 Ry

     File ./tmp/ptoluidine_protonated.bfgs deleted, as requested
Begin final coordinates

ATOMIC_POSITIONS (angstrom)
N               -2.8660972009        0.0087920040        0.0918732553
C                1.4063052248       -0.0119513021        0.0069145241
C               -1.3725902811        0.0022420805        0.0676314043
C                0.6850070483       -1.2078502182        0.1353839859
C                0.6883711544        1.1942428803       -0.0904483815
C               -0.7111422276       -1.2135094227        0.1675824698
C               -0.7035018549        1.2155560410       -0.0623450779
C                2.9078152748       -0.0034289845       -0.0225642191
H                1.2189673958       -2.1550448946        0.2152327732
H                1.2295313493        2.1363907380       -0.1874367556
H               -1.2544832351       -2.1558498944        0.2696406240
H               -1.2411079703        2.1629089363       -0.1373804814
H                3.3087682840        0.6044914629        0.8011855557
H                3.3254974720       -1.0130769167        0.0625622908
H                3.2764912893        0.4443987772       -0.9566689494
H               -3.2317971369        0.6424745595        0.8181795628
H               -3.2277027939       -0.9341314215        0.2927132143
H               -3.2620718140        0.3081245088       -0.8123082320
End final coordinates



     Writing all to output data dir ./tmp/ptoluidine_protonated.save/ :
     XML data file, charge density, pseudopotentials, collected wavefunctions

     init_run     :     10.75s CPU     11.14s WALL (       1 calls)
     electrons    :   1373.30s CPU   1426.30s WALL (      24 calls)
     update_pot   :     16.30s CPU     18.86s WALL (      23 calls)
     forces       :     66.72s CPU     74.98s WALL (      24 calls)
     force_dftd3  :      0.04s CPU      0.05s WALL (      24 calls)
     stress       :    223.97s CPU    237.12s WALL (      24 calls)
     stres_dftd3  :      0.04s CPU      0.04s WALL (      24 calls)

     Called by init_run:
     wfcinit      :      4.16s CPU      4.22s WALL (       1 calls)
     wfcinit:atom :      0.04s CPU      0.04s WALL (       5 calls)
     wfcinit:wfcr :      3.89s CPU      3.93s WALL (       5 calls)
     potinit      :      1.07s CPU      1.16s WALL (       1 calls)
     hinit0       :      0.52s CPU      0.56s WALL (       1 calls)

     Called by electrons:
     c_bands      :    892.92s CPU    897.54s WALL (     137 calls)
     sum_band     :    323.68s CPU    342.03s WALL (     137 calls)
     v_of_rho     :     75.03s CPU     80.33s WALL (     144 calls)
     v_h          :      7.09s CPU      7.85s WALL (     144 calls)
     v_xc         :     89.58s CPU     97.19s WALL (     192 calls)
     newd         :     77.64s CPU     95.50s WALL (     144 calls)
     PAW_pot      :      3.12s CPU      3.14s WALL (     167 calls)
     mix_rho      :     11.18s CPU     11.55s WALL (     137 calls)
     energy_dftd3 :      0.01s CPU      0.01s WALL (      24 calls)

     Called by c_bands:
     init_us_2    :     26.90s CPU     27.08s WALL (    1730 calls)
     cegterg      :    869.52s CPU    873.86s WALL (     685 calls)

     Called by sum_band:
     sum_band:wei :      0.00s CPU      0.00s WALL (     137 calls)
     sum_band:loo :    202.63s CPU    203.66s WALL (     137 calls)
     sum_band:buf :      1.97s CPU      2.04s WALL (     685 calls)
     sum_band:ini :     10.71s CPU     10.77s WALL (     685 calls)
     sum_band:cal :     25.41s CPU     25.48s WALL (     800 calls)
     sum_band:bec :      0.01s CPU      0.01s WALL (     800 calls)
     addusdens    :    112.31s CPU    129.08s WALL (     137 calls)
                                        0.00s GPU  (     137 calls)
     addusd:skk   :      5.18s CPU      6.01s WALL (     411 calls)
                                        0.00s GPU  (     411 calls)

     Called by *egterg:
     cdiaghg      :      1.33s CPU      1.34s WALL (    2335 calls)
     cegterg:over :     31.87s CPU     31.97s WALL (    1850 calls)
     cegterg:upda :     18.22s CPU     18.31s WALL (    1850 calls)
     cegterg:last :     44.70s CPU     44.92s WALL (    1435 calls)
     h_psi        :    714.46s CPU    718.19s WALL (    2540 calls)
     s_psi        :     40.41s CPU     40.53s WALL (    2540 calls)
     g_psi        :      1.81s CPU      1.83s WALL (    1850 calls)

     Called by h_psi:
     h_psi:calbec :     58.14s CPU     58.29s WALL (    2540 calls)
     vloc_psi     :    610.55s CPU    613.96s WALL (    2540 calls)
     add_vuspsi   :     40.39s CPU     40.51s WALL (    2540 calls)

     General routines
     calbec       :     98.93s CPU     99.21s WALL (    3940 calls)
     fft          :     81.99s CPU     91.08s WALL (    2464 calls)
     ffts         :      3.29s CPU      3.60s WALL (     281 calls)
     fftw         :    501.66s CPU    504.32s WALL (  103929 calls)
     interpolate  :      7.78s CPU      8.41s WALL (     144 calls)

     Parallel routines

     PAW routines
     PAW_pot      :      3.12s CPU      3.14s WALL (     167 calls)

     PWSCF        :  28m31.79s CPU  29m54.09s WALL


   This run was terminated on:   2:26:27  31Mar2025            

=------------------------------------------------------------------------------=
   JOB DONE.
=------------------------------------------------------------------------------=
