
     Program PWSCF v.7.3.1 starts on 31Mar2025 at  1:48:51 

     This program is part of the open-source Quantum ESPRESSO suite
     for quantum simulation of materials; please cite
         "P. Giannozzi et al., J. Phys.:Condens. Matter 21 395502 (2009);
         "P. Giannozzi et al., J. Phys.:Condens. Matter 29 465901 (2017);
         "P. Giannozzi et al., J. Chem. Phys. 152 154105 (2020);
          URL http://www.quantum-espresso.org", 
     in publications or presentations arising from this work. More details at
     http://www.quantum-espresso.org/quote

     Parallel version (MPI), running on    34 processors

     MPI processes distributed on     1 nodes
     79260 MiB available memory on the printing compute node when the environment starts

     Waiting for input...
     Reading input from standard input
Warning: card &CELL ignored
Warning: card   CELL_DOFREE = 'ALL' ignored
Warning: card / ignored

     Current dimensions of program PWSCF are:
     Max number of different atomic species (ntypx) = 10
     Max number of k-points (npk) =  40000
     Max angular momentum in pseudopotentials (lmaxx) =  4
     Message from routine input:
     WARNING: "startingwfc" set to atomic+random may spoil restart
     Message from routine input:
     WARNING: "startingpot" set to atomic may spoil restart
     file C.pbe-n-kjpaw_psl.1.0.0.UPF: wavefunction(s)  2S 2P renormalized

     R & G space division:  proc/nbgrp/npool/nimage =      34
     Subspace diagonalization in iterative solution of the eigenvalue problem:
     one sub-group per band group will be used
     custom distributed-memory algorithm (size of sub-group:  5*  5 procs)


     Parallelization info
     --------------------
     sticks:   dense  smooth     PW     G-vecs:    dense   smooth      PW
     Min         222     126     34                35322    15256    2100
     Max         223     127     35                35328    15267    2110
     Sum        7555    4303   1159              1201061   518755   71619

     Using Slab Decomposition



     bravais-lattice index     =            0
     lattice parameter (alat)  =      19.7617  a.u.
     unit-cell volume          =   15176.5939 (a.u.)^3
     number of atoms/cell      =           63
     number of atomic types    =            4
     number of electrons       =      1004.00
     number of Kohn-Sham states=          602
     kinetic-energy cutoff     =      40.0000  Ry
     charge density cutoff     =     280.0000  Ry
     scf convergence threshold =      1.0E-06
     mixing beta               =       0.4000
     number of iterations used =            8  plain     mixing
     energy convergence thresh.=      1.0E-05
     force convergence thresh. =      5.0E-04
     Exchange-correlation= PBE
                           (   1   4   3   4   0   0   0)
     nstep                     =          100


     celldm(1)=  19.761696  celldm(2)=   0.000000  celldm(3)=   0.000000
     celldm(4)=   0.000000  celldm(5)=   0.000000  celldm(6)=   0.000000

     crystal axes: (cart. coord. in units of alat)
               a(1) = (   1.000000   0.000000   0.000000 )  
               a(2) = (  -0.500000   0.866025   0.000000 )  
               a(3) = (   0.000000   0.000000   2.270759 )  

     reciprocal axes: (cart. coord. in units 2 pi/alat)
               b(1) = (  1.000000  0.577350 -0.000000 )  
               b(2) = (  0.000000  1.154701  0.000000 )  
               b(3) = (  0.000000 -0.000000  0.440381 )  


     PseudoPot. # 1 for Zn read from file:
     /home/ys/qepseudo/SSSP_1.3.0_PBE_efficiency/Zn_pbe_v1.uspp.F.UPF
     MD5 check sum: df62231357ef9e81f77b2b3087fa5675
     Pseudo is Ultrasoft, Zval = 20.0
     Generated by new atomic code, or converted to UPF format
     Using radial grid of  943 points,  6 beta functions with: 
                l(1) =   0
                l(2) =   0
                l(3) =   1
                l(4) =   1
                l(5) =   2
                l(6) =   2
     Q(r) pseudized with  8 coefficients,  rinner =    1.100   1.100   1.100
                                                       1.100   1.100

     PseudoPot. # 2 for N  read from file:
     /home/ys/qepseudo/SSSP_1.3.0_PBE_efficiency/N.pbe-n-radius_5.UPF
     MD5 check sum: 16739722b17309cd8fe442a2ace49922
     Pseudo is Ultrasoft + core correction, Zval =  5.0
     Generated using "atomic" code by A. Dal Corso  v.5.1
     Using radial grid of 1085 points,  4 beta functions with: 
                l(1) =   0
                l(2) =   0
                l(3) =   1
                l(4) =   1
     Q(r) pseudized with 0 coefficients 


     PseudoPot. # 3 for C  read from file:
     /home/ys/qepseudo/SSSP_1.3.0_PBE_efficiency/C.pbe-n-kjpaw_psl.1.0.0.UPF
     MD5 check sum: 5d2aebdfa2cae82b50a7e79e9516da0f
     Pseudo is Projector augmented-wave + core cor, Zval =  4.0
     Generated using "atomic" code by A. Dal Corso  v.5.1
     Shape of augmentation charge: PSQ
     Using radial grid of 1073 points,  4 beta functions with: 
                l(1) =   0
                l(2) =   0
                l(3) =   1
                l(4) =   1
     Q(r) pseudized with 0 coefficients 


     PseudoPot. # 4 for H  read from file:
     /home/ys/qepseudo/SSSP_1.3.0_PBE_efficiency/H.pbe-rrkjus_psl.1.0.0.UPF
     MD5 check sum: f52b6d4d1c606e5624b1dc7b2218f220
     Pseudo is Ultrasoft, Zval =  1.0
     Generated using "atomic" code by A. Dal Corso  v.5.1
     Using radial grid of  929 points,  2 beta functions with: 
                l(1) =   0
                l(2) =   0
     Q(r) pseudized with 0 coefficients 


     atomic species   valence    mass     pseudopotential
     Zn               20.00    65.38000     Zn( 1.00)
     N                 5.00    14.00674     N ( 1.00)
     C                 4.00    12.01070     C ( 1.00)
     H                 1.00     1.00794     H ( 1.00)

     No symmetry found


                                    s                        frac. trans.

      isym =  1     identity                                     

 cryst.   s( 1) = (     1          0          0      )
                  (     0          1          0      )
                  (     0          0          1      )

 cart.    s( 1) = (  1.0000000  0.0000000  0.0000000 )
                  (  0.0000000  1.0000000  0.0000000 )
                  (  0.0000000  0.0000000  1.0000000 )


   Cartesian axes

     site n.     atom                  positions (alat units)
         1        Zn     tau(   1) = (   0.0000000   0.1443375   0.1164998  )
         2        Zn     tau(   2) = (   0.5000000   0.1443375   0.1164998  )
         3        Zn     tau(   3) = (  -0.0017641   0.1455875   0.5875396  )
         4        Zn     tau(   4) = (   0.4977740   0.1457916   0.5932989  )
         5        Zn     tau(   5) = (  -0.1250000   0.3608439   0.1164998  )
         6        Zn     tau(   6) = (   0.3750000   0.3608439   0.1164998  )
         7        Zn     tau(   7) = (  -0.1270379   0.3616217   0.5875368  )
         8        Zn     tau(   8) = (   0.3725191   0.3622136   0.5886200  )
         9        Zn     tau(   9) = (  -0.2500000   0.5773502   0.1164998  )
        10        Zn     tau(  10) = (   0.2500000   0.5773502   0.1164998  )
        11        Zn     tau(  11) = (  -0.2526825   0.5780879   0.5865518  )
        12        Zn     tau(  12) = (   0.2480668   0.5781763   0.5921057  )
        13        Zn     tau(  13) = (  -0.3750000   0.7938567   0.1164998  )
        14        Zn     tau(  14) = (   0.1250000   0.7938567   0.1164998  )
        15        Zn     tau(  15) = (  -0.3771776   0.7952664   0.5871064  )
        16        Zn     tau(  16) = (   0.1231564   0.7948319   0.5884494  )
        17        Zn     tau(  17) = (   0.2500000   0.1443375   0.1164998  )
        18        Zn     tau(  18) = (   0.7500000   0.1443375   0.1164998  )
        19        Zn     tau(  19) = (   0.2481122   0.1458857   0.5875821  )
        20        Zn     tau(  20) = (   0.7478842   0.1454289   0.5886937  )
        21        Zn     tau(  21) = (   0.1250000   0.3608439   0.1164998  )
        22        Zn     tau(  22) = (   0.6250000   0.3608439   0.1164998  )
        23        Zn     tau(  23) = (   0.1231247   0.3618398   0.5901388  )
        24        Zn     tau(  24) = (   0.6226148   0.3620267   0.5926883  )
        25        Zn     tau(  25) = (   0.0000000   0.5773502   0.1164998  )
        26        Zn     tau(  26) = (   0.5000000   0.5773502   0.1164998  )
        27        Zn     tau(  27) = (  -0.0021915   0.5785663   0.5829764  )
        28        Zn     tau(  28) = (   0.4976371   0.5782411   0.5877246  )
        29        Zn     tau(  29) = (  -0.1250000   0.7938567   0.1164998  )
        30        Zn     tau(  30) = (   0.3750000   0.7938567   0.1164998  )
        31        Zn     tau(  31) = (  -0.1268576   0.7957948   0.5872188  )
        32        Zn     tau(  32) = (   0.3729204   0.7946610   0.5878611  )
        33        Zn     tau(  33) = (   0.1238022   0.0730538   0.3524352  )
        34        Zn     tau(  34) = (   0.6238080   0.0731571   0.3542345  )
        35        Zn     tau(  35) = (  -0.0009686   0.2893143   0.3517614  )
        36        Zn     tau(  36) = (   0.4987068   0.2893521   0.3535251  )
        37        Zn     tau(  37) = (  -0.1265378   0.5056880   0.3514437  )
        38        Zn     tau(  38) = (   0.3736354   0.5057686   0.3514092  )
        39        Zn     tau(  39) = (  -0.2516538   0.7229282   0.3534430  )
        40        Zn     tau(  40) = (   0.2488495   0.7224355   0.3517949  )
        41        Zn     tau(  41) = (   0.3740454   0.0735810   0.3526053  )
        42        Zn     tau(  42) = (   0.8739849   0.0727305   0.3534402  )
        43        Zn     tau(  43) = (   0.2490268   0.2895994   0.3513021  )
        44        Zn     tau(  44) = (   0.7485361   0.2890917   0.3540618  )
        45        Zn     tau(  45) = (   0.1243449   0.5059216   0.3525775  )
        46        Zn     tau(  46) = (   0.6232022   0.5055197   0.3527857  )
        47        Zn     tau(  47) = (  -0.0009792   0.7232351   0.3514123  )
        48        Zn     tau(  48) = (   0.4986392   0.7225187   0.3528154  )
        49        C      tau(  49) = (   0.4458839   0.3066474   0.9260345  )
        50        C      tau(  50) = (   0.3283021   0.3742756   0.9188180  )
        51        C      tau(  51) = (   0.2116161   0.3075542   0.9076730  )
        52        C      tau(  52) = (   0.3268190   0.5091128   0.9163494  )
        53        C      tau(  53) = (   0.0972361   0.3734258   0.8958081  )
        54        C      tau(  54) = (   0.2127421   0.5753391   0.9038564  )
        55        C      tau(  55) = (   0.0952889   0.5086995   0.8952636  )
        56        N      tau(  56) = (   0.5425641   0.2506168   0.9288755  )
        57        N      tau(  57) = (  -0.0170579   0.5732044   0.8823915  )
        58        H      tau(  58) = (  -0.0190318   0.6699774   0.8781028  )
        59        H      tau(  59) = (  -0.1006196   0.5259650   0.8693437  )
        60        H      tau(  60) = (   0.4169065   0.5612952   0.9216143  )
        61        H      tau(  61) = (   0.2118086   0.2032849   0.9064259  )
        62        H      tau(  62) = (   0.2131658   0.6796336   0.8994745  )
        63        H      tau(  63) = (   0.0078160   0.3209063   0.8840620  )

     --------------------------------------------
     DFT-D3 Dispersion Correction (3-body terms):
     --------------------------------------------
       Reference C6 values for interpolation: 

         atom   Coordination number   C6
         H          0.912             6.05
         H          0.000            15.18
         C          0.000            98.23
         C          0.987            86.49
         C          1.998            58.72
         C          2.999            51.56
         C          3.984            36.41
         N          0.000            50.54
         N          0.994            44.25
         N          2.014            39.35
         N          2.990            31.16
         Zn         0.000           681.04
         Zn         1.942           306.91

       Values used:

         atom   Coordination number  R0_AB[au]  C6      C8
         Zn         6.798            3.053    306.91  23930.67
         Zn         6.769            3.053    306.91  23930.67
         Zn         6.844            3.053    306.91  23930.67
         Zn         6.667            3.053    306.91  23930.67
         Zn         6.797            3.053    306.91  23930.67
         Zn         6.818            3.053    306.91  23930.67
         Zn         6.831            3.053    306.91  23930.67
         Zn         6.824            3.053    306.91  23930.67
         Zn         6.788            3.053    306.91  23930.67
         Zn         6.824            3.053    306.91  23930.67
         Zn         6.855            3.053    306.91  23930.67
         Zn         6.687            3.053    306.91  23930.67
         Zn         6.786            3.053    306.91  23930.67
         Zn         6.801            3.053    306.91  23930.67
         Zn         6.862            3.053    306.91  23930.67
         Zn         6.803            3.053    306.91  23930.67
         Zn         6.813            3.053    306.91  23930.67
         Zn         6.748            3.053    306.91  23930.67
         Zn         6.841            3.053    306.91  23930.67
         Zn         6.840            3.053    306.91  23930.67
         Zn         6.822            3.053    306.91  23930.67
         Zn         6.766            3.053    306.91  23930.67
         Zn         6.766            3.053    306.91  23930.67
         Zn         6.685            3.053    306.91  23930.67
         Zn         6.811            3.053    306.91  23930.67
         Zn         6.804            3.053    306.91  23930.67
         Zn         6.991            3.053    306.91  23930.67
         Zn         6.837            3.053    306.91  23930.67
         Zn         6.794            3.053    306.91  23930.67
         Zn         6.794            3.053    306.91  23930.67
         Zn         6.833            3.053    306.91  23930.67
         Zn         6.834            3.053    306.91  23930.67
         Zn         8.462            3.053    306.91  23930.67
         Zn         8.363            3.053    306.91  23930.67
         Zn         8.418            3.053    306.91  23930.67
         Zn         8.324            3.053    306.91  23930.67
         Zn         8.485            3.053    306.91  23930.67
         Zn         8.399            3.053    306.91  23930.67
         Zn         8.449            3.053    306.91  23930.67
         Zn         8.388            3.053    306.91  23930.67
         Zn         8.397            3.053    306.91  23930.67
         Zn         8.432            3.053    306.91  23930.67
         Zn         8.424            3.053    306.91  23930.67
         Zn         8.373            3.053    306.91  23930.67
         Zn         8.412            3.053    306.91  23930.67
         Zn         8.400            3.053    306.91  23930.67
         Zn         8.480            3.053    306.91  23930.67
         Zn         8.453            3.053    306.91  23930.67
         C          2.113            2.750     58.55   1693.41
         C          3.163            2.750     50.42   1458.28
         C          3.188            2.750     50.18   1451.30
         C          3.186            2.750     50.21   1452.17
         C          3.197            2.750     50.09   1448.66
         C          3.189            2.750     50.17   1451.04
         C          3.166            2.750     50.40   1457.57
         N          1.033            2.478     44.23    975.64
         N          3.118            2.478     31.23    688.86
         H          1.009            2.062      6.17     74.63
         H          1.009            2.062      6.17     74.62
         H          1.005            2.062      6.18     74.66
         H          1.006            2.062      6.18     74.66
         H          1.005            2.062      6.18     74.66
         H          1.006            2.062      6.18     74.65

         Molecular C6 ( Ry / a.u.^6 ) =    840811.09


   Crystallographic axes

     site n.     atom                  positions (cryst. coord.)
         1        Zn     tau(   1) = (  0.0833333  0.1666666  0.0513044  )
         2        Zn     tau(   2) = (  0.5833333  0.1666666  0.0513044  )
         3        Zn     tau(   3) = (  0.0822909  0.1681099  0.2587415  )
         4        Zn     tau(   4) = (  0.5819468  0.1683457  0.2612778  )
         5        Zn     tau(   5) = (  0.0833333  0.4166666  0.0513044  )
         6        Zn     tau(   6) = (  0.5833333  0.4166666  0.0513044  )
         7        Zn     tau(   7) = (  0.0817445  0.4175647  0.2587403  )
         8        Zn     tau(   8) = (  0.5816432  0.4182482  0.2592173  )
         9        Zn     tau(   9) = (  0.0833333  0.6666666  0.0513044  )
        10        Zn     tau(  10) = (  0.5833333  0.6666666  0.0513044  )
        11        Zn     tau(  11) = (  0.0810767  0.6675185  0.2583065  )
        12        Zn     tau(  12) = (  0.5818771  0.6676205  0.2607523  )
        13        Zn     tau(  13) = (  0.0833333  0.9166667  0.0513044  )
        14        Zn     tau(  14) = (  0.5833334  0.9166667  0.0513044  )
        15        Zn     tau(  15) = (  0.0819696  0.9182945  0.2585507  )
        16        Zn     tau(  16) = (  0.5820528  0.9177929  0.2591422  )
        17        Zn     tau(  17) = (  0.3333333  0.1666666  0.0513044  )
        18        Zn     tau(  18) = (  0.8333334  0.1666666  0.0513044  )
        19        Zn     tau(  19) = (  0.3323394  0.1684543  0.2587602  )
        20        Zn     tau(  20) = (  0.8318476  0.1679268  0.2592498  )
        21        Zn     tau(  21) = (  0.3333333  0.4166666  0.0513044  )
        22        Zn     tau(  22) = (  0.8333333  0.4166666  0.0513044  )
        23        Zn     tau(  23) = (  0.3320330  0.4178166  0.2598862  )
        24        Zn     tau(  24) = (  0.8316310  0.4180325  0.2610089  )
        25        Zn     tau(  25) = (  0.3333333  0.6666666  0.0513044  )
        26        Zn     tau(  26) = (  0.8333333  0.6666666  0.0513044  )
        27        Zn     tau(  27) = (  0.3318440  0.6680708  0.2567320  )
        28        Zn     tau(  28) = (  0.8314848  0.6676954  0.2588230  )
        29        Zn     tau(  29) = (  0.3333334  0.9166667  0.0513044  )
        30        Zn     tau(  30) = (  0.8333334  0.9166667  0.0513044  )
        31        Zn     tau(  31) = (  0.3325947  0.9189047  0.2586003  )
        32        Zn     tau(  32) = (  0.8317182  0.9175955  0.2588831  )
        33        Zn     tau(  33) = (  0.1659798  0.0843552  0.1552059  )
        34        Zn     tau(  34) = (  0.6660453  0.0844746  0.1559983  )
        35        Zn     tau(  35) = (  0.1660671  0.3340713  0.1549092  )
        36        Zn     tau(  36) = (  0.6657643  0.3341150  0.1556859  )
        37        Zn     tau(  37) = (  0.1654213  0.5839182  0.1547693  )
        38        Zn     tau(  38) = (  0.6656410  0.5840113  0.1547541  )
        39        Zn     tau(  39) = (  0.1657290  0.8347656  0.1556498  )
        40        Zn     tau(  40) = (  0.6659478  0.8341967  0.1549240  )
        41        Zn     tau(  41) = (  0.4165274  0.0849640  0.1552808  )
        42        Zn     tau(  42) = (  0.9159759  0.0839820  0.1556485  )
        43        Zn     tau(  43) = (  0.4162271  0.3344006  0.1547069  )
        44        Zn     tau(  44) = (  0.9154432  0.3338143  0.1559222  )
        45        Zn     tau(  45) = (  0.4164389  0.5841880  0.1552686  )
        46        Zn     tau(  46) = (  0.9150641  0.5837239  0.1553603  )
        47        Zn     tau(  47) = (  0.4165808  0.8351200  0.1547554  )
        48        Zn     tau(  48) = (  0.9157856  0.8342928  0.1553734  )
        49        C      tau(  49) = (  0.6229268  0.3540859  0.4078084  )
        50        C      tau(  50) = (  0.5443902  0.4321762  0.4046304  )
        51        C      tau(  51) = (  0.3891826  0.3551330  0.3997223  )
        52        C      tau(  52) = (  0.6207554  0.5878728  0.4035433  )
        53        C      tau(  53) = (  0.3128336  0.4311949  0.3944972  )
        54        C      tau(  54) = (  0.5449143  0.6643444  0.3980416  )
        55        C      tau(  55) = (  0.3889866  0.5873955  0.3942575  )
        56        N      tau(  56) = (  0.6872578  0.2893874  0.4090595  )
        57        N      tau(  57) = (  0.3138818  0.6618795  0.3885888  )
        58        H      tau(  58) = (  0.3677798  0.7736232  0.3867002  )
        59        H      tau(  59) = (  0.2030464  0.6073320  0.3828428  )
        60        H      tau(  60) = (  0.7409705  0.6481279  0.4058618  )
        61        H      tau(  61) = (  0.3291751  0.2347332  0.3991731  )
        62        H      tau(  62) = (  0.6055525  0.7847732  0.3961119  )
        63        H      tau(  63) = (  0.1930913  0.3705507  0.3893245  )

     number of k points=     5  Marzari-Vanderbilt smearing, width (Ry)=  0.0200
                       cart. coord. in units 2pi/alat
        k(    1) = (   0.0000000   0.0000000   0.0000000), wk =   0.2222222
        k(    2) = (   0.0000000   0.3849002   0.0000000), wk =   0.4444444
        k(    3) = (   0.3333333   0.1924501   0.0000000), wk =   0.4444444
        k(    4) = (   0.3333333   0.5773503   0.0000000), wk =   0.4444444
        k(    5) = (   0.3333333  -0.1924501   0.0000000), wk =   0.4444444

                       cryst. coord.
        k(    1) = (   0.0000000   0.0000000   0.0000000), wk =   0.2222222
        k(    2) = (   0.0000000   0.3333333   0.0000000), wk =   0.4444444
        k(    3) = (   0.3333333   0.0000000   0.0000000), wk =   0.4444444
        k(    4) = (   0.3333333   0.3333333   0.0000000), wk =   0.4444444
        k(    5) = (   0.3333333  -0.3333333   0.0000000), wk =   0.4444444

     Dense  grid:  1201061 G-vectors     FFT dimensions: ( 108, 108, 240)

     Smooth grid:   518755 G-vectors     FFT dimensions: (  80,  80, 192)

     Dynamical RAM for                 wfc:      17.51 MB

     Dynamical RAM for     wfc (w. buffer):     105.05 MB

     Dynamical RAM for           str. fact:       2.16 MB

     Dynamical RAM for           local pot:       0.00 MB

     Dynamical RAM for          nlocal pot:      27.57 MB

     Dynamical RAM for                qrad:       5.37 MB

     Dynamical RAM for          rho,v,vnew:       3.75 MB

     Dynamical RAM for               rhoin:       1.25 MB

     Dynamical RAM for            rho*nmix:       8.62 MB

     Dynamical RAM for           G-vectors:       2.14 MB

     Dynamical RAM for          h,s,v(r/c):       2.64 MB

     Dynamical RAM for          <psi|beta>:       8.71 MB

     Dynamical RAM for                 psi:      35.02 MB

     Dynamical RAM for                hpsi:      35.02 MB

     Dynamical RAM for                spsi:      35.02 MB

     Dynamical RAM for      wfcinit/wfcrot:      48.90 MB

     Dynamical RAM for           addusdens:     126.14 MB

     Dynamical RAM for          addusforce:     177.27 MB

     Dynamical RAM for         addusstress:     108.35 MB

     Estimated static dynamical RAM per process >     153.55 MB

     Estimated max dynamical RAM per process >     339.44 MB

     Estimated total dynamical RAM >      11.27 GB

     Atomic positions and unit cell read from directory:
     ./tmp/Zn002_3layer_ABN_relax.save/

     Cannot read rho : file not found

     Initial potential from superposition of free atoms

     starting charge    1003.9929, renormalised to    1004.0000

     negative rho (up, down):  3.154E-03 0.000E+00
     Starting wfcs are  666 randomized atomic wfcs
     Checking if some PAW data can be deallocated... 
       PAW data deallocated on   30 nodes for type:  3

     total cpu time spent up to now is       64.3 secs

     Self-consistent Calculation

     iteration #  1     ecut=    40.00 Ry     beta= 0.40
     Davidson diagonalization with overlap

---- Real-time Memory Report at c_bands before calling an iterative solver
           232 MiB given to the printing process from OS
             0 MiB allocation reported by mallinfo(arena+hblkhd)
         73479 MiB available memory on the node where the printing process lives
------------------
     c_bands:  1 eigenvalues not converged
     c_bands:  3 eigenvalues not converged
     c_bands:  3 eigenvalues not converged
     c_bands:  2 eigenvalues not converged
     ethr =  1.00E-05,  avg # of iterations = 19.6

     negative rho (up, down):  3.910E-03 0.000E+00

     total cpu time spent up to now is      691.4 secs

     total energy              =  -22327.15233618 Ry
     estimated scf accuracy    <      10.15131175 Ry

     iteration #  2     ecut=    40.00 Ry     beta= 0.40
     Davidson diagonalization with overlap

---- Real-time Memory Report at c_bands before calling an iterative solver
           323 MiB given to the printing process from OS
             0 MiB allocation reported by mallinfo(arena+hblkhd)
         72187 MiB available memory on the node where the printing process lives
------------------
     ethr =  1.01E-03,  avg # of iterations = 10.0

     negative rho (up, down):  5.250E-03 0.000E+00

     total cpu time spent up to now is      947.9 secs

     total energy              =  -22312.94495191 Ry
     estimated scf accuracy    <     279.46043165 Ry

     iteration #  3     ecut=    40.00 Ry     beta= 0.40
     Davidson diagonalization with overlap

---- Real-time Memory Report at c_bands before calling an iterative solver
           337 MiB given to the printing process from OS
             0 MiB allocation reported by mallinfo(arena+hblkhd)
         72163 MiB available memory on the node where the printing process lives
------------------
     ethr =  1.01E-03,  avg # of iterations =  6.8

     negative rho (up, down):  5.299E-03 0.000E+00

     total cpu time spent up to now is     1219.9 secs

     total energy              =  -22330.03103464 Ry
     estimated scf accuracy    <      20.20400600 Ry

     iteration #  4     ecut=    40.00 Ry     beta= 0.40
     Davidson diagonalization with overlap

---- Real-time Memory Report at c_bands before calling an iterative solver
           338 MiB given to the printing process from OS
             0 MiB allocation reported by mallinfo(arena+hblkhd)
         72139 MiB available memory on the node where the printing process lives
------------------
     ethr =  1.01E-03,  avg # of iterations =  5.2

     negative rho (up, down):  5.156E-03 0.000E+00

     total cpu time spent up to now is     1432.2 secs

     total energy              =  -22331.43196188 Ry
     estimated scf accuracy    <       2.13542491 Ry

     iteration #  5     ecut=    40.00 Ry     beta= 0.40
     Davidson diagonalization with overlap

---- Real-time Memory Report at c_bands before calling an iterative solver
           338 MiB given to the printing process from OS
             0 MiB allocation reported by mallinfo(arena+hblkhd)
         72115 MiB available memory on the node where the printing process lives
------------------
     ethr =  2.13E-04,  avg # of iterations =  4.6

     negative rho (up, down):  4.960E-03 0.000E+00

     total cpu time spent up to now is     1638.7 secs

     total energy              =  -22331.58047939 Ry
     estimated scf accuracy    <       0.26103299 Ry

     iteration #  6     ecut=    40.00 Ry     beta= 0.40
     Davidson diagonalization with overlap

---- Real-time Memory Report at c_bands before calling an iterative solver
           339 MiB given to the printing process from OS
             0 MiB allocation reported by mallinfo(arena+hblkhd)
         72092 MiB available memory on the node where the printing process lives
------------------
     ethr =  2.60E-05,  avg # of iterations = 12.8

     negative rho (up, down):  4.922E-03 0.000E+00

     total cpu time spent up to now is     1879.0 secs

     total energy              =  -22331.57721730 Ry
     estimated scf accuracy    <       0.14320287 Ry

     iteration #  7     ecut=    40.00 Ry     beta= 0.40
     Davidson diagonalization with overlap

---- Real-time Memory Report at c_bands before calling an iterative solver
           339 MiB given to the printing process from OS
             0 MiB allocation reported by mallinfo(arena+hblkhd)
         72067 MiB available memory on the node where the printing process lives
------------------
     ethr =  1.43E-05,  avg # of iterations =  4.6

     negative rho (up, down):  4.953E-03 0.000E+00

     total cpu time spent up to now is     2084.3 secs

     total energy              =  -22331.57909562 Ry
     estimated scf accuracy    <       0.04243276 Ry

     iteration #  8     ecut=    40.00 Ry     beta= 0.40
     Davidson diagonalization with overlap

---- Real-time Memory Report at c_bands before calling an iterative solver
           340 MiB given to the printing process from OS
             0 MiB allocation reported by mallinfo(arena+hblkhd)
         72045 MiB available memory on the node where the printing process lives
------------------
     ethr =  4.23E-06,  avg # of iterations = 13.8

     negative rho (up, down):  4.972E-03 0.000E+00

     total cpu time spent up to now is     2313.0 secs

     total energy              =  -22331.57831650 Ry
     estimated scf accuracy    <       0.02388906 Ry

     iteration #  9     ecut=    40.00 Ry     beta= 0.40
     Davidson diagonalization with overlap

---- Real-time Memory Report at c_bands before calling an iterative solver
           341 MiB given to the printing process from OS
             0 MiB allocation reported by mallinfo(arena+hblkhd)
         72017 MiB available memory on the node where the printing process lives
------------------
     c_bands:  1 eigenvalues not converged
     ethr =  2.38E-06,  avg # of iterations =  9.0

     negative rho (up, down):  4.988E-03 0.000E+00

     total cpu time spent up to now is     2524.7 secs

     total energy              =  -22331.57724910 Ry
     estimated scf accuracy    <       0.01505288 Ry

     iteration # 10     ecut=    40.00 Ry     beta= 0.40
     Davidson diagonalization with overlap

---- Real-time Memory Report at c_bands before calling an iterative solver
           342 MiB given to the printing process from OS
             0 MiB allocation reported by mallinfo(arena+hblkhd)
         71996 MiB available memory on the node where the printing process lives
------------------
     c_bands:  1 eigenvalues not converged
     c_bands:  1 eigenvalues not converged
     ethr =  1.50E-06,  avg # of iterations = 14.4

     negative rho (up, down):  5.000E-03 0.000E+00

     total cpu time spent up to now is     2747.4 secs

     total energy              =  -22331.57577930 Ry
     estimated scf accuracy    <       0.00930033 Ry

     iteration # 11     ecut=    40.00 Ry     beta= 0.40
     Davidson diagonalization with overlap

---- Real-time Memory Report at c_bands before calling an iterative solver
           342 MiB given to the printing process from OS
             0 MiB allocation reported by mallinfo(arena+hblkhd)
         71992 MiB available memory on the node where the printing process lives
------------------
     c_bands:  1 eigenvalues not converged
     ethr =  9.26E-07,  avg # of iterations =  9.6

     negative rho (up, down):  5.017E-03 0.000E+00

     total cpu time spent up to now is     2959.8 secs

     total energy              =  -22331.57358661 Ry
     estimated scf accuracy    <       0.00465991 Ry

     iteration # 12     ecut=    40.00 Ry     beta= 0.40
     Davidson diagonalization with overlap

---- Real-time Memory Report at c_bands before calling an iterative solver
           342 MiB given to the printing process from OS
             0 MiB allocation reported by mallinfo(arena+hblkhd)
         71992 MiB available memory on the node where the printing process lives
------------------
     c_bands:  2 eigenvalues not converged
     c_bands:  2 eigenvalues not converged
     ethr =  4.64E-07,  avg # of iterations = 14.4

     negative rho (up, down):  5.014E-03 0.000E+00

     total cpu time spent up to now is     3211.0 secs

     total energy              =  -22331.57443038 Ry
     estimated scf accuracy    <       0.00008988 Ry

     iteration # 13     ecut=    40.00 Ry     beta= 0.40
     Davidson diagonalization with overlap

---- Real-time Memory Report at c_bands before calling an iterative solver
           342 MiB given to the printing process from OS
             0 MiB allocation reported by mallinfo(arena+hblkhd)
         71987 MiB available memory on the node where the printing process lives
------------------
     ethr =  8.95E-09,  avg # of iterations =  4.0

     negative rho (up, down):  5.014E-03 0.000E+00

     total cpu time spent up to now is     3416.1 secs

     total energy              =  -22331.57443887 Ry
     estimated scf accuracy    <       0.00002432 Ry

     iteration # 14     ecut=    40.00 Ry     beta= 0.40
     Davidson diagonalization with overlap

---- Real-time Memory Report at c_bands before calling an iterative solver
           342 MiB given to the printing process from OS
             0 MiB allocation reported by mallinfo(arena+hblkhd)
         71982 MiB available memory on the node where the printing process lives
------------------
     ethr =  2.42E-09,  avg # of iterations =  2.0

     negative rho (up, down):  5.013E-03 0.000E+00

     total cpu time spent up to now is     3615.6 secs

     total energy              =  -22331.57444063 Ry
     estimated scf accuracy    <       0.00001933 Ry

     iteration # 15     ecut=    40.00 Ry     beta= 0.40
     Davidson diagonalization with overlap

---- Real-time Memory Report at c_bands before calling an iterative solver
           342 MiB given to the printing process from OS
             0 MiB allocation reported by mallinfo(arena+hblkhd)
         71974 MiB available memory on the node where the printing process lives
------------------
     ethr =  1.92E-09,  avg # of iterations =  2.0

     negative rho (up, down):  5.013E-03 0.000E+00

     total cpu time spent up to now is     3811.9 secs

     total energy              =  -22331.57444213 Ry
     estimated scf accuracy    <       0.00001578 Ry

     iteration # 16     ecut=    40.00 Ry     beta= 0.40
     Davidson diagonalization with overlap

---- Real-time Memory Report at c_bands before calling an iterative solver
           342 MiB given to the printing process from OS
             0 MiB allocation reported by mallinfo(arena+hblkhd)
         71984 MiB available memory on the node where the printing process lives
------------------
     ethr =  1.57E-09,  avg # of iterations =  1.6

     negative rho (up, down):  5.013E-03 0.000E+00

     total cpu time spent up to now is     3994.0 secs

     total energy              =  -22331.57444348 Ry
     estimated scf accuracy    <       0.00000286 Ry

     iteration # 17     ecut=    40.00 Ry     beta= 0.40
     Davidson diagonalization with overlap

---- Real-time Memory Report at c_bands before calling an iterative solver
           342 MiB given to the printing process from OS
             0 MiB allocation reported by mallinfo(arena+hblkhd)
         71979 MiB available memory on the node where the printing process lives
------------------
     ethr =  2.85E-10,  avg # of iterations =  2.0

     negative rho (up, down):  5.013E-03 0.000E+00

     total cpu time spent up to now is     4191.4 secs

     End of self-consistent calculation

          k = 0.0000 0.0000 0.0000 ( 64855 PWs)   bands (ev):

  -124.5901-124.5886-124.5878-124.5870-124.5861-124.5858-124.5850-124.5843
  -124.5827-124.5825-124.5814-124.5804-124.5793-124.5785-124.5776-124.5770
  -124.3987-124.3939-124.3910-124.3900-124.3892-124.3864-124.3855-124.3847
  -124.3839-124.3830-124.3781-124.3736-124.3734-124.3728-124.3723-124.3711
  -124.3710-124.3705-124.3701-124.3699-124.3696-124.3691-124.3683-124.3679
  -124.3674-124.3668-124.3662-124.3659-124.3653-124.3651-124.3574-124.3533
   -78.7556 -78.7552 -78.7546 -78.7496 -78.7482 -78.7478 -78.7474 -78.7470
   -78.7458 -78.7386 -78.7377 -78.7368 -78.7366 -78.7362 -78.7359 -78.7348
   -78.7347 -78.7342 -78.7337 -78.7332 -78.7331 -78.7325 -78.7321 -78.7320
   -78.7319 -78.7311 -78.7305 -78.7299 -78.7294 -78.7282 -78.7276 -78.7272
   -78.7269 -78.7264 -78.7260 -78.7247 -78.7236 -78.7235 -78.7230 -78.7228
   -78.7225 -78.7220 -78.7216 -78.7213 -78.7211 -78.7199 -78.7165 -78.7163
   -78.5552 -78.5546 -78.5540 -78.5511 -78.5503 -78.5481 -78.5472 -78.5462
   -78.5457 -78.5436 -78.5428 -78.5426 -78.5419 -78.5415 -78.5413 -78.5407
   -78.5401 -78.5392 -78.5386 -78.5370 -78.5361 -78.5354 -78.5352 -78.5352
   -78.5342 -78.5333 -78.5322 -78.5321 -78.5314 -78.5306 -78.5297 -78.5296
   -78.5294 -78.5293 -78.5291 -78.5290 -78.5287 -78.5285 -78.5280 -78.5279
   -78.5279 -78.5278 -78.5266 -78.5265 -78.5261 -78.5254 -78.5252 -78.5251
   -78.5245 -78.5243 -78.5241 -78.5237 -78.5232 -78.5231 -78.5228 -78.5221
   -78.5216 -78.5215 -78.5206 -78.5205 -78.5195 -78.5187 -78.5186 -78.5182
   -78.5178 -78.5173 -78.5172 -78.5168 -78.5167 -78.5163 -78.5158 -78.5155
   -78.5154 -78.5151 -78.5147 -78.5146 -78.5143 -78.5139 -78.5097 -78.5094
   -78.5092 -78.5084 -78.5082 -78.5063 -78.5051 -78.5048 -78.5043 -78.5040
   -78.5034 -78.5032 -78.5027 -78.5007 -78.4989 -78.4986 -78.4969 -78.4945
   -17.8571 -16.5412 -15.5966 -13.1898 -13.1118 -10.2282  -9.9272  -8.0836
    -8.0046  -7.5573  -7.4892  -6.9030  -6.6039  -6.5492  -6.5415  -6.5393
    -6.5389  -6.5339  -6.5270  -6.4256  -6.4246  -6.4240  -6.2268  -6.2260
    -6.2247  -6.1847  -6.1830  -6.1814  -6.0985  -6.0950  -6.0938  -6.0927
    -6.0914  -6.0889  -6.0456  -6.0442  -6.0438  -6.0430  -6.0422  -6.0416
    -6.0411  -6.0403  -6.0370  -5.9793  -5.9754  -5.9740  -5.9730  -5.9726
    -5.9720  -5.9452  -5.9447  -5.9420  -5.9400  -5.9392  -5.9388  -5.8393
    -5.8384  -5.8349  -5.8344  -5.8288  -5.8263  -5.8252  -5.8207  -5.8180
    -5.7881  -5.7805  -5.7793  -5.7781  -5.7770  -5.7763  -5.7726  -5.7252
    -5.7225  -5.7216  -5.7208  -5.7191  -5.7181  -5.6802  -5.6775  -5.6769
    -5.6761  -5.6750  -5.6733  -5.6590  -5.6574  -5.6566  -5.6558  -5.6547
    -5.6539  -5.6409  -5.6404  -5.6274  -5.6264  -5.6260  -5.6246  -5.6239
    -5.6232  -5.6122  -5.6115  -5.6096  -5.6056  -5.6039  -5.6015  -5.6006
    -5.6002  -5.5981  -5.5161  -5.5148  -5.5143  -5.5135  -5.5112  -5.5107
    -5.4293  -5.4292  -5.4198  -5.4101  -5.4098  -5.3891  -5.3837  -5.3824
    -5.3820  -5.3807  -5.3789  -5.3775  -5.3754  -5.3739  -5.3729  -5.3715
    -5.3671  -5.3368  -5.3362  -5.3352  -5.3055  -5.3045  -5.3025  -5.3018
    -5.3000  -5.2994  -5.2991  -5.2977  -5.2967  -5.2963  -5.2958  -5.2927
    -5.2879  -5.2873  -5.2871  -5.2869  -5.2860  -5.2851  -5.2823  -5.2774
    -5.2736  -5.2732  -5.2704  -5.2676  -5.2542  -5.2534  -5.2510  -5.2501
    -5.2500  -5.2495  -5.2484  -5.2474  -5.2465  -5.2454  -5.2446  -5.2421
    -5.2412  -5.2408  -5.2271  -5.2234  -5.2223  -5.2217  -5.2202  -5.2175
    -5.2102  -5.2079  -5.2042  -5.1242  -5.1236  -5.1019  -5.1007  -5.1002
    -5.0999  -5.0994  -5.0989  -5.0943  -5.0892  -5.0884  -5.0872  -5.0864
    -5.0844  -5.0776  -5.0687  -5.0612  -5.0559  -5.0543  -5.0506  -5.0427
    -5.0412  -5.0400  -5.0254  -5.0221  -5.0190  -5.0183  -5.0156  -5.0115
    -5.0069  -5.0063  -5.0060  -5.0054  -5.0051  -5.0044  -4.9638  -4.9624
    -4.9617  -4.9613  -4.9608  -4.9571  -4.9568  -4.9560  -4.9552  -4.9551
    -4.9543  -4.9513  -4.9190  -4.9181  -4.9177  -4.9129  -4.9126  -4.9124
    -4.9117  -4.9110  -4.9105  -4.8985  -4.8977  -4.8779  -4.8769  -4.8566
    -4.8451  -4.8427  -4.8423  -4.8416  -4.8406  -4.8394  -4.8131  -4.8126
    -4.8125  -4.8124  -4.8119  -4.8106  -4.8019  -4.8015  -4.8010  -4.5937
    -4.5914  -4.5888  -4.5802  -4.5800  -4.5799  -4.5335  -4.1205  -3.9742
    -3.9187  -3.9172  -3.9157  -3.9067  -3.8322  -3.2930  -3.0144  -2.9615
    -2.5344  -2.1305  -1.9935  -1.7213  -1.6039  -1.5989  -1.5884  -1.5862
    -1.5815  -1.5799  -1.5776  -1.5756  -1.5688  -1.5252  -1.4662  -0.9936
    -0.3165  -0.3127  -0.3102  -0.2160  -0.1872  -0.1550  -0.1497  -0.1423
    -0.1213  -0.1164   0.3135   0.4359   0.4398   0.4609   0.7464   0.7541
     0.7601   1.9357   1.9430   1.9489   1.9647   1.9661   1.9852   2.0011
     2.0377   2.0446   2.0885   2.1025   2.1258   2.7789   2.7913   2.7995
     3.4787   3.6408   3.6687   3.7141   4.0239   4.1530   4.5586   4.5677
     4.5851   5.0451   5.1517   5.1906   5.2366   5.3135   5.3966   5.4654
     5.6274   5.6823   5.8087   5.8211   5.8644   5.8863   5.9184   5.9535
     5.9616   5.9628   5.9640   5.9683   5.9873   5.9897   6.1238   6.1284
     6.1317   6.1348   6.1406   6.1439   6.3937   6.5155   6.5925   6.7529
     6.8010   6.8652   6.9273   7.0134   7.0279   7.0544   7.2331   7.4129
     7.4524   7.4570   7.4709   7.4883   7.4937   7.5009   7.5023   7.5118
     7.5157   7.5183   7.5316   7.5800   7.6562   7.6581   7.6676   7.6766
     7.6814   7.6903   8.0189   8.0741   8.1062   8.1708   8.2176   8.2699
     8.3024   8.3285   8.3343   8.4367   8.4584   8.4851   8.5079   8.5277
     8.6077   8.6327   8.7193   8.7389   8.7673   8.8193   8.8323   8.8457
     9.1177   9.1739

     occupation numbers 
     1.0000   1.0000   1.0000   1.0000   1.0000   1.0000   1.0000   1.0000
     1.0000   1.0000   1.0000   1.0000   1.0000   1.0000   1.0000   1.0000
     1.0000   1.0000   1.0000   1.0000   1.0000   1.0000   1.0000   1.0000
     1.0000   1.0000   1.0000   1.0000   1.0000   1.0000   1.0000   1.0000
     1.0000   1.0000   1.0000   1.0000   1.0000   1.0000   1.0000   1.0000
     1.0000   1.0000   1.0000   1.0000   1.0000   1.0000   1.0000   1.0000
     1.0000   1.0000   1.0000   1.0000   1.0000   1.0000   1.0000   1.0000
     1.0000   1.0000   1.0000   1.0000   1.0000   1.0000   1.0000   1.0000
     1.0000   1.0000   1.0000   1.0000   1.0000   1.0000   1.0000   1.0000
     1.0000   1.0000   1.0000   1.0000   1.0000   1.0000   1.0000   1.0000
     1.0000   1.0000   1.0000   1.0000   1.0000   1.0000   1.0000   1.0000
     1.0000   1.0000   1.0000   1.0000   1.0000   1.0000   1.0000   1.0000
     1.0000   1.0000   1.0000   1.0000   1.0000   1.0000   1.0000   1.0000
     1.0000   1.0000   1.0000   1.0000   1.0000   1.0000   1.0000   1.0000
     1.0000   1.0000   1.0000   1.0000   1.0000   1.0000   1.0000   1.0000
     1.0000   1.0000   1.0000   1.0000   1.0000   1.0000   1.0000   1.0000
     1.0000   1.0000   1.0000   1.0000   1.0000   1.0000   1.0000   1.0000
     1.0000   1.0000   1.0000   1.0000   1.0000   1.0000   1.0000   1.0000
     1.0000   1.0000   1.0000   1.0000   1.0000   1.0000   1.0000   1.0000
     1.0000   1.0000   1.0000   1.0000   1.0000   1.0000   1.0000   1.0000
     1.0000   1.0000   1.0000   1.0000   1.0000   1.0000   1.0000   1.0000
     1.0000   1.0000   1.0000   1.0000   1.0000   1.0000   1.0000   1.0000
     1.0000   1.0000   1.0000   1.0000   1.0000   1.0000   1.0000   1.0000
     1.0000   1.0000   1.0000   1.0000   1.0000   1.0000   1.0000   1.0000
     1.0000   1.0000   1.0000   1.0000   1.0000   1.0000   1.0000   1.0000
     1.0000   1.0000   1.0000   1.0000   1.0000   1.0000   1.0000   1.0000
     1.0000   1.0000   1.0000   1.0000   1.0000   1.0000   1.0000   1.0000
     1.0000   1.0000   1.0000   1.0000   1.0000   1.0000   1.0000   1.0000
     1.0000   1.0000   1.0000   1.0000   1.0000   1.0000   1.0000   1.0000
     1.0000   1.0000   1.0000   1.0000   1.0000   1.0000   1.0000   1.0000
     1.0000   1.0000   1.0000   1.0000   1.0000   1.0000   1.0000   1.0000
     1.0000   1.0000   1.0000   1.0000   1.0000   1.0000   1.0000   1.0000
     1.0000   1.0000   1.0000   1.0000   1.0000   1.0000   1.0000   1.0000
     1.0000   1.0000   1.0000   1.0000   1.0000   1.0000   1.0000   1.0000
     1.0000   1.0000   1.0000   1.0000   1.0000   1.0000   1.0000   1.0000
     1.0000   1.0000   1.0000   1.0000   1.0000   1.0000   1.0000   1.0000
     1.0000   1.0000   1.0000   1.0000   1.0000   1.0000   1.0000   1.0000
     1.0000   1.0000   1.0000   1.0000   1.0000   1.0000   1.0000   1.0000
     1.0000   1.0000   1.0000   1.0000   1.0000   1.0000   1.0000   1.0000
     1.0000   1.0000   1.0000   1.0000   1.0000   1.0000   1.0000   1.0000
     1.0000   1.0000   1.0000   1.0000   1.0000   1.0000   1.0000   1.0000
     1.0000   1.0000   1.0000   1.0000   1.0000   1.0000   1.0000   1.0000
     1.0000   1.0000   1.0000   1.0000   1.0000   1.0000   1.0000   1.0000
     1.0000   1.0000   1.0000   1.0000   1.0000   1.0000   1.0000   1.0000
     1.0000   1.0000   1.0000   1.0000   1.0000   1.0000   1.0000   1.0000
     1.0000   1.0000   1.0000   1.0000   1.0000   1.0000   1.0000   1.0000
     1.0000   1.0000   1.0000   1.0000   1.0000   1.0000   1.0000   1.0000
     1.0000   1.0000   1.0000   1.0000   1.0000   1.0000   1.0000   1.0000
     1.0000   1.0000   1.0000   1.0000   1.0000   1.0000   1.0000   1.0000
     1.0000   1.0000   1.0000   1.0000   1.0000   1.0000   1.0000   1.0000
     1.0000   1.0000   1.0000   1.0000   1.0000   1.0000   1.0000   1.0000
     1.0000   1.0000   1.0000   1.0000   1.0000   1.0000   1.0000   1.0000
     1.0000   1.0000   1.0000   1.0000   1.0000   1.0000   1.0000   1.0000
     1.0000   1.0000   1.0000   1.0000   1.0000   1.0000   1.0000   1.0000
     1.0000   1.0000   1.0000   1.0000   1.0000   1.0000   1.0000   1.0000
     1.0000   1.0000   1.0000   1.0000   1.0000   1.0000   1.0000   1.0000
     1.0000   1.0000   1.0000   1.0000   1.0000   1.0000   1.0000   1.0000
     1.0000   1.0000   1.0000   1.0000   1.0000   1.0000   1.0000   1.0000
     1.0000   1.0000   1.0000   1.0000   1.0000   1.0000   1.0000   1.0000
     1.0000   1.0000   1.0000   1.0000   1.0000   1.0000   1.0000   1.0000
     1.0000   1.0000   1.0000   1.0000   1.0000   1.0000   1.0000   1.0000
     1.0000   1.0000   1.0000   1.0000   1.0000   1.0000   1.0000   1.0000
     1.0000   0.5354   0.5156   0.4994   0.4571   0.4535   0.4042   0.3648
     0.2820   0.2676   0.1870   0.1650   0.1328   0.0000   0.0000   0.0000
     0.0000   0.0000   0.0000   0.0000   0.0000   0.0000   0.0000   0.0000
     0.0000   0.0000   0.0000   0.0000   0.0000   0.0000   0.0000   0.0000
     0.0000   0.0000   0.0000   0.0000   0.0000   0.0000   0.0000   0.0000
     0.0000   0.0000   0.0000   0.0000   0.0000   0.0000   0.0000   0.0000
     0.0000   0.0000   0.0000   0.0000   0.0000   0.0000   0.0000   0.0000
     0.0000   0.0000   0.0000   0.0000   0.0000   0.0000   0.0000   0.0000
     0.0000   0.0000   0.0000   0.0000   0.0000   0.0000   0.0000   0.0000
     0.0000   0.0000   0.0000   0.0000   0.0000   0.0000   0.0000   0.0000
     0.0000   0.0000   0.0000   0.0000   0.0000   0.0000   0.0000   0.0000
     0.0000   0.0000   0.0000   0.0000   0.0000   0.0000   0.0000   0.0000
     0.0000   0.0000   0.0000   0.0000   0.0000   0.0000   0.0000   0.0000
     0.0000   0.0000

          k = 0.0000 0.3849 0.0000 ( 64840 PWs)   bands (ev):

  -124.5901-124.5887-124.5878-124.5870-124.5860-124.5858-124.5850-124.5843
  -124.5827-124.5825-124.5814-124.5804-124.5793-124.5785-124.5776-124.5770
  -124.3987-124.3939-124.3910-124.3900-124.3892-124.3864-124.3855-124.3847
  -124.3839-124.3830-124.3781-124.3736-124.3733-124.3728-124.3724-124.3712
  -124.3708-124.3705-124.3701-124.3698-124.3695-124.3691-124.3683-124.3680
  -124.3673-124.3668-124.3663-124.3659-124.3653-124.3651-124.3574-124.3533
   -78.7544 -78.7541 -78.7530 -78.7501 -78.7498 -78.7487 -78.7479 -78.7458
   -78.7446 -78.7440 -78.7415 -78.7403 -78.7382 -78.7373 -78.7348 -78.7341
   -78.7333 -78.7331 -78.7325 -78.7322 -78.7319 -78.7314 -78.7311 -78.7306
   -78.7303 -78.7298 -78.7297 -78.7293 -78.7287 -78.7278 -78.7275 -78.7271
   -78.7269 -78.7262 -78.7260 -78.7247 -78.7246 -78.7241 -78.7235 -78.7232
   -78.7230 -78.7220 -78.7220 -78.7212 -78.7209 -78.7194 -78.7178 -78.7169
   -78.5548 -78.5540 -78.5539 -78.5504 -78.5502 -78.5480 -78.5472 -78.5462
   -78.5457 -78.5450 -78.5436 -78.5427 -78.5421 -78.5416 -78.5412 -78.5407
   -78.5401 -78.5394 -78.5391 -78.5383 -78.5359 -78.5345 -78.5342 -78.5341
   -78.5340 -78.5332 -78.5320 -78.5316 -78.5312 -78.5311 -78.5302 -78.5297
   -78.5296 -78.5296 -78.5291 -78.5290 -78.5288 -78.5287 -78.5279 -78.5273
   -78.5268 -78.5266 -78.5263 -78.5261 -78.5259 -78.5257 -78.5255 -78.5253
   -78.5250 -78.5250 -78.5245 -78.5238 -78.5237 -78.5233 -78.5231 -78.5226
   -78.5222 -78.5221 -78.5219 -78.5216 -78.5214 -78.5206 -78.5205 -78.5197
   -78.5191 -78.5188 -78.5185 -78.5178 -78.5161 -78.5146 -78.5144 -78.5139
   -78.5137 -78.5132 -78.5129 -78.5113 -78.5107 -78.5103 -78.5097 -78.5092
   -78.5087 -78.5081 -78.5076 -78.5067 -78.5066 -78.5061 -78.5051 -78.5051
   -78.5036 -78.5032 -78.5013 -78.5007 -78.5007 -78.4994 -78.4971 -78.4947
   -17.8571 -16.5412 -15.5965 -13.1898 -13.1118 -10.2280  -9.9270  -8.0106
    -7.8674  -7.5579  -7.4902  -7.2696  -6.7474  -6.7417  -6.7268  -6.4935
    -6.3963  -6.3498  -6.3497  -6.3452  -6.2984  -6.2667  -6.2655  -6.2394
    -6.1928  -6.1660  -6.1658  -6.1559  -6.1419  -6.1418  -6.1127  -6.1122
    -6.1077  -6.0982  -6.0730  -6.0708  -6.0509  -6.0504  -6.0408  -6.0400
    -6.0249  -6.0230  -6.0185  -6.0156  -6.0086  -5.9990  -5.9982  -5.9955
    -5.9950  -5.9816  -5.9809  -5.9509  -5.9491  -5.9356  -5.9345  -5.9338
    -5.9324  -5.9128  -5.8950  -5.8944  -5.8380  -5.8373  -5.8268  -5.8257
    -5.8172  -5.8098  -5.8085  -5.8044  -5.8015  -5.7809  -5.7796  -5.7694
    -5.7670  -5.7512  -5.7507  -5.7422  -5.7347  -5.7329  -5.7310  -5.7296
    -5.7192  -5.7176  -5.7137  -5.7122  -5.6979  -5.6965  -5.6933  -5.6797
    -5.6761  -5.6662  -5.6248  -5.6231  -5.6202  -5.6189  -5.6136  -5.6013
    -5.5991  -5.5966  -5.5940  -5.5886  -5.5770  -5.5749  -5.5738  -5.5589
    -5.5578  -5.5452  -5.5430  -5.5176  -5.5159  -5.4985  -5.4975  -5.4814
    -5.4732  -5.4691  -5.4681  -5.4651  -5.4577  -5.4476  -5.4458  -5.4451
    -5.4364  -5.4210  -5.4146  -5.4054  -5.3890  -5.3879  -5.3807  -5.3762
    -5.3758  -5.3673  -5.3607  -5.3598  -5.3584  -5.3452  -5.3447  -5.3433
    -5.3246  -5.3151  -5.3130  -5.3067  -5.3034  -5.2995  -5.2970  -5.2952
    -5.2917  -5.2906  -5.2885  -5.2867  -5.2766  -5.2734  -5.2719  -5.2704
    -5.2657  -5.2644  -5.2493  -5.2467  -5.2393  -5.2366  -5.2336  -5.2173
    -5.2046  -5.2035  -5.1976  -5.1968  -5.1918  -5.1916  -5.1805  -5.1788
    -5.1759  -5.1725  -5.1581  -5.1540  -5.1522  -5.1446  -5.1422  -5.1385
    -5.1347  -5.1338  -5.1288  -5.1271  -5.0895  -5.0883  -5.0832  -5.0820
    -5.0802  -5.0726  -5.0708  -5.0696  -5.0655  -5.0623  -5.0577  -5.0517
    -5.0506  -5.0474  -5.0467  -5.0462  -5.0452  -5.0443  -5.0434  -5.0421
    -5.0349  -5.0232  -5.0227  -5.0195  -5.0175  -5.0041  -5.0013  -4.9997
    -4.9989  -4.9976  -4.9872  -4.9867  -4.9730  -4.9614  -4.9587  -4.9565
    -4.9559  -4.9541  -4.9516  -4.9505  -4.9481  -4.9477  -4.9367  -4.9316
    -4.9308  -4.9301  -4.9246  -4.9241  -4.9107  -4.9092  -4.9071  -4.8956
    -4.8950  -4.8942  -4.8917  -4.8819  -4.8817  -4.8775  -4.8665  -4.8663
    -4.8591  -4.8585  -4.8319  -4.8302  -4.8223  -4.8219  -4.8213  -4.8209
    -4.8085  -4.7969  -4.7946  -4.7943  -4.6869  -4.6867  -4.6732  -4.6730
    -4.6541  -4.6503  -4.6394  -4.4598  -4.4381  -4.4030  -4.2169  -4.1365
    -4.1055  -4.0566  -3.4036  -3.2506  -3.2475  -3.1486  -3.1236  -3.0161
    -2.8245  -2.6036  -2.5393  -2.3892  -2.2221  -2.1241  -2.0564  -1.9097
    -1.8793  -1.8756  -1.7259  -1.4311  -1.4242  -1.1680  -0.9409  -0.9392
    -0.8497  -0.8168  -0.7535  -0.3179  -0.0388   0.0023   0.0700   0.2148
     0.3351   0.3701   0.4053   0.4878   0.5167   0.5266   0.8669   1.1833
     1.3722   1.3762   1.5838   1.6064   1.9315   1.9361   1.9847   1.9991
     2.8982   2.9017   2.9453   2.9663   3.2699   3.2803   3.4718   3.5376
     3.5613   3.5879   3.7028   3.9274   3.9630   4.0055   4.0567   4.2329
     4.2684   4.3094   4.3372   4.4116   4.6436   4.6856   4.7072   4.8570
     4.9311   5.2377   5.2450   5.3573   5.5603   5.5809   5.5916   5.6023
     5.6088   5.6412   5.8581   5.9344   5.9684   6.0935   6.1919   6.2008
     6.2515   6.4077   6.4597   6.5330   6.5675   6.5984   6.6342   6.7065
     6.7263   6.7804   6.7885   6.8114   6.8351   6.9269   6.9897   7.0653
     7.0768   7.0894   7.1181   7.1649   7.2637   7.3143   7.3401   7.3861
     7.4574   7.5623   7.7168   7.7386   7.8525   7.8822   7.9163   7.9871
     8.0492   8.1541   8.1713   8.1757   8.2619   8.2822   8.3152   8.3685
     8.3942   8.5084   8.5895   8.5988   8.6558   8.6925   8.7929   8.8311
     8.9091   8.9571   8.9998   9.0597   9.0907   9.1465   9.1899   9.1992
     9.2818   9.2899

     occupation numbers 
     1.0000   1.0000   1.0000   1.0000   1.0000   1.0000   1.0000   1.0000
     1.0000   1.0000   1.0000   1.0000   1.0000   1.0000   1.0000   1.0000
     1.0000   1.0000   1.0000   1.0000   1.0000   1.0000   1.0000   1.0000
     1.0000   1.0000   1.0000   1.0000   1.0000   1.0000   1.0000   1.0000
     1.0000   1.0000   1.0000   1.0000   1.0000   1.0000   1.0000   1.0000
     1.0000   1.0000   1.0000   1.0000   1.0000   1.0000   1.0000   1.0000
     1.0000   1.0000   1.0000   1.0000   1.0000   1.0000   1.0000   1.0000
     1.0000   1.0000   1.0000   1.0000   1.0000   1.0000   1.0000   1.0000
     1.0000   1.0000   1.0000   1.0000   1.0000   1.0000   1.0000   1.0000
     1.0000   1.0000   1.0000   1.0000   1.0000   1.0000   1.0000   1.0000
     1.0000   1.0000   1.0000   1.0000   1.0000   1.0000   1.0000   1.0000
     1.0000   1.0000   1.0000   1.0000   1.0000   1.0000   1.0000   1.0000
     1.0000   1.0000   1.0000   1.0000   1.0000   1.0000   1.0000   1.0000
     1.0000   1.0000   1.0000   1.0000   1.0000   1.0000   1.0000   1.0000
     1.0000   1.0000   1.0000   1.0000   1.0000   1.0000   1.0000   1.0000
     1.0000   1.0000   1.0000   1.0000   1.0000   1.0000   1.0000   1.0000
     1.0000   1.0000   1.0000   1.0000   1.0000   1.0000   1.0000   1.0000
     1.0000   1.0000   1.0000   1.0000   1.0000   1.0000   1.0000   1.0000
     1.0000   1.0000   1.0000   1.0000   1.0000   1.0000   1.0000   1.0000
     1.0000   1.0000   1.0000   1.0000   1.0000   1.0000   1.0000   1.0000
     1.0000   1.0000   1.0000   1.0000   1.0000   1.0000   1.0000   1.0000
     1.0000   1.0000   1.0000   1.0000   1.0000   1.0000   1.0000   1.0000
     1.0000   1.0000   1.0000   1.0000   1.0000   1.0000   1.0000   1.0000
     1.0000   1.0000   1.0000   1.0000   1.0000   1.0000   1.0000   1.0000
     1.0000   1.0000   1.0000   1.0000   1.0000   1.0000   1.0000   1.0000
     1.0000   1.0000   1.0000   1.0000   1.0000   1.0000   1.0000   1.0000
     1.0000   1.0000   1.0000   1.0000   1.0000   1.0000   1.0000   1.0000
     1.0000   1.0000   1.0000   1.0000   1.0000   1.0000   1.0000   1.0000
     1.0000   1.0000   1.0000   1.0000   1.0000   1.0000   1.0000   1.0000
     1.0000   1.0000   1.0000   1.0000   1.0000   1.0000   1.0000   1.0000
     1.0000   1.0000   1.0000   1.0000   1.0000   1.0000   1.0000   1.0000
     1.0000   1.0000   1.0000   1.0000   1.0000   1.0000   1.0000   1.0000
     1.0000   1.0000   1.0000   1.0000   1.0000   1.0000   1.0000   1.0000
     1.0000   1.0000   1.0000   1.0000   1.0000   1.0000   1.0000   1.0000
     1.0000   1.0000   1.0000   1.0000   1.0000   1.0000   1.0000   1.0000
     1.0000   1.0000   1.0000   1.0000   1.0000   1.0000   1.0000   1.0000
     1.0000   1.0000   1.0000   1.0000   1.0000   1.0000   1.0000   1.0000
     1.0000   1.0000   1.0000   1.0000   1.0000   1.0000   1.0000   1.0000
     1.0000   1.0000   1.0000   1.0000   1.0000   1.0000   1.0000   1.0000
     1.0000   1.0000   1.0000   1.0000   1.0000   1.0000   1.0000   1.0000
     1.0000   1.0000   1.0000   1.0000   1.0000   1.0000   1.0000   1.0000
     1.0000   1.0000   1.0000   1.0000   1.0000   1.0000   1.0000   1.0000
     1.0000   1.0000   1.0000   1.0000   1.0000   1.0000   1.0000   1.0000
     1.0000   1.0000   1.0000   1.0000   1.0000   1.0000   1.0000   1.0000
     1.0000   1.0000   1.0000   1.0000   1.0000   1.0000   1.0000   1.0000
     1.0000   1.0000   1.0000   1.0000   1.0000   1.0000   1.0000   1.0000
     1.0000   1.0000   1.0000   1.0000   1.0000   1.0000   1.0000   1.0000
     1.0000   1.0000   1.0000   1.0000   1.0000   1.0000   1.0000   1.0000
     1.0000   1.0000   1.0000   1.0000   1.0000   1.0000   1.0000   1.0000
     1.0000   1.0000   1.0000   1.0000   1.0000   1.0000   1.0000   1.0000
     1.0000   1.0000   1.0000   1.0000   1.0000   1.0000   1.0000   1.0000
     1.0000   1.0000   1.0000   1.0000   1.0000   1.0000   1.0000   1.0000
     1.0000   1.0000   1.0000   1.0000   1.0000   1.0000   1.0000   1.0000
     1.0000   1.0000   1.0000   1.0000   1.0000   1.0000   1.0000   1.0000
     1.0000   1.0000   1.0000   1.0000   1.0000   1.0000   1.0000   1.0000
     1.0000   1.0000   1.0000   1.0000   1.0000   1.0000   1.0000   1.0000
     1.0000   1.0000   1.0000   1.0000   1.0000   1.0000   1.0000   1.0000
     1.0000   1.0000   1.0000   1.0000   1.0000   1.0000   1.0000   1.0000
     1.0000   1.0000   1.0000   1.0000   1.0000   1.0000   1.0000   1.0000
     1.0000   1.0000   1.0000   1.0000   1.0000   1.0000   1.0000   1.0000
     1.0000   1.0000   1.0000   1.0000   1.0000   1.0000   1.0000   1.0000
     1.0000   1.0000   1.0000   1.0000   1.0000   1.0000   1.0000   1.0018
     1.0219   1.0228   1.0823   1.0832   0.5470   0.5344   0.4055   0.3698
     0.0000   0.0000   0.0000   0.0000   0.0000   0.0000   0.0000   0.0000
     0.0000   0.0000   0.0000   0.0000   0.0000   0.0000   0.0000   0.0000
     0.0000   0.0000   0.0000   0.0000   0.0000   0.0000   0.0000   0.0000
     0.0000   0.0000   0.0000   0.0000   0.0000   0.0000   0.0000   0.0000
     0.0000   0.0000   0.0000   0.0000   0.0000   0.0000   0.0000   0.0000
     0.0000   0.0000   0.0000   0.0000   0.0000   0.0000   0.0000   0.0000
     0.0000   0.0000   0.0000   0.0000   0.0000   0.0000   0.0000   0.0000
     0.0000   0.0000   0.0000   0.0000   0.0000   0.0000   0.0000   0.0000
     0.0000   0.0000   0.0000   0.0000   0.0000   0.0000   0.0000   0.0000
     0.0000   0.0000   0.0000   0.0000   0.0000   0.0000   0.0000   0.0000
     0.0000   0.0000   0.0000   0.0000   0.0000   0.0000   0.0000   0.0000
     0.0000   0.0000   0.0000   0.0000   0.0000   0.0000   0.0000   0.0000
     0.0000   0.0000

          k = 0.3333 0.1925 0.0000 ( 64840 PWs)   bands (ev):

  -124.5901-124.5887-124.5878-124.5870-124.5861-124.5858-124.5850-124.5843
  -124.5827-124.5825-124.5814-124.5804-124.5793-124.5785-124.5776-124.5770
  -124.3987-124.3939-124.3910-124.3900-124.3892-124.3864-124.3855-124.3847
  -124.3839-124.3830-124.3781-124.3736-124.3733-124.3728-124.3724-124.3712
  -124.3708-124.3705-124.3702-124.3698-124.3696-124.3691-124.3683-124.3680
  -124.3673-124.3668-124.3663-124.3659-124.3653-124.3651-124.3574-124.3533
   -78.7545 -78.7539 -78.7529 -78.7507 -78.7493 -78.7486 -78.7480 -78.7457
   -78.7448 -78.7439 -78.7415 -78.7403 -78.7384 -78.7373 -78.7348 -78.7341
   -78.7335 -78.7331 -78.7323 -78.7322 -78.7319 -78.7316 -78.7311 -78.7305
   -78.7301 -78.7298 -78.7296 -78.7293 -78.7287 -78.7277 -78.7275 -78.7271
   -78.7267 -78.7265 -78.7260 -78.7247 -78.7246 -78.7239 -78.7235 -78.7233
   -78.7230 -78.7220 -78.7220 -78.7212 -78.7209 -78.7194 -78.7180 -78.7167
   -78.5548 -78.5542 -78.5539 -78.5506 -78.5503 -78.5477 -78.5471 -78.5462
   -78.5457 -78.5440 -78.5433 -78.5428 -78.5418 -78.5414 -78.5410 -78.5406
   -78.5401 -78.5400 -78.5392 -78.5384 -78.5373 -78.5346 -78.5346 -78.5342
   -78.5341 -78.5332 -78.5326 -78.5319 -78.5311 -78.5310 -78.5300 -78.5297
   -78.5296 -78.5291 -78.5290 -78.5290 -78.5287 -78.5281 -78.5279 -78.5271
   -78.5268 -78.5266 -78.5263 -78.5261 -78.5260 -78.5257 -78.5254 -78.5253
   -78.5251 -78.5245 -78.5241 -78.5237 -78.5236 -78.5234 -78.5231 -78.5227
   -78.5221 -78.5221 -78.5220 -78.5219 -78.5216 -78.5206 -78.5205 -78.5198
   -78.5191 -78.5188 -78.5188 -78.5177 -78.5160 -78.5144 -78.5140 -78.5138
   -78.5137 -78.5132 -78.5129 -78.5113 -78.5106 -78.5103 -78.5097 -78.5092
   -78.5091 -78.5081 -78.5077 -78.5069 -78.5066 -78.5062 -78.5052 -78.5051
   -78.5036 -78.5031 -78.5013 -78.5008 -78.5007 -78.4994 -78.4970 -78.4946
   -17.8571 -16.5412 -15.5965 -13.1898 -13.1118 -10.2280  -9.9270  -8.0105
    -7.8674  -7.5579  -7.4900  -7.2696  -6.7477  -6.7407  -6.7277  -6.4935
    -6.3962  -6.3500  -6.3496  -6.3451  -6.2984  -6.2669  -6.2654  -6.2393
    -6.1929  -6.1661  -6.1658  -6.1558  -6.1419  -6.1417  -6.1130  -6.1120
    -6.1073  -6.0980  -6.0733  -6.0706  -6.0510  -6.0505  -6.0408  -6.0397
    -6.0253  -6.0234  -6.0193  -6.0149  -6.0083  -5.9991  -5.9983  -5.9956
    -5.9949  -5.9818  -5.9808  -5.9511  -5.9486  -5.9357  -5.9342  -5.9336
    -5.9323  -5.9127  -5.8955  -5.8946  -5.8380  -5.8371  -5.8272  -5.8258
    -5.8174  -5.8096  -5.8081  -5.8049  -5.8016  -5.7808  -5.7795  -5.7697
    -5.7671  -5.7514  -5.7507  -5.7423  -5.7341  -5.7325  -5.7311  -5.7296
    -5.7200  -5.7179  -5.7133  -5.7116  -5.6980  -5.6966  -5.6934  -5.6798
    -5.6758  -5.6661  -5.6248  -5.6230  -5.6202  -5.6185  -5.6136  -5.6022
    -5.5993  -5.5955  -5.5932  -5.5886  -5.5772  -5.5750  -5.5739  -5.5589
    -5.5578  -5.5455  -5.5424  -5.5176  -5.5157  -5.4985  -5.4974  -5.4820
    -5.4742  -5.4693  -5.4674  -5.4649  -5.4576  -5.4476  -5.4459  -5.4451
    -5.4363  -5.4202  -5.4147  -5.4062  -5.3890  -5.3884  -5.3809  -5.3765
    -5.3760  -5.3677  -5.3606  -5.3592  -5.3583  -5.3455  -5.3446  -5.3428
    -5.3245  -5.3152  -5.3125  -5.3072  -5.3034  -5.2996  -5.2971  -5.2946
    -5.2915  -5.2904  -5.2885  -5.2868  -5.2767  -5.2731  -5.2721  -5.2700
    -5.2657  -5.2645  -5.2492  -5.2465  -5.2390  -5.2373  -5.2337  -5.2172
    -5.2048  -5.2033  -5.1976  -5.1970  -5.1921  -5.1912  -5.1811  -5.1785
    -5.1759  -5.1721  -5.1580  -5.1544  -5.1521  -5.1445  -5.1427  -5.1384
    -5.1348  -5.1336  -5.1288  -5.1271  -5.0898  -5.0881  -5.0835  -5.0821
    -5.0803  -5.0719  -5.0703  -5.0694  -5.0661  -5.0626  -5.0578  -5.0515
    -5.0505  -5.0475  -5.0464  -5.0460  -5.0452  -5.0445  -5.0437  -5.0419
    -5.0348  -5.0233  -5.0227  -5.0191  -5.0177  -5.0049  -5.0007  -4.9995
    -4.9988  -4.9978  -4.9872  -4.9866  -4.9730  -4.9617  -4.9584  -4.9563
    -4.9560  -4.9541  -4.9514  -4.9505  -4.9482  -4.9478  -4.9369  -4.9317
    -4.9308  -4.9303  -4.9246  -4.9239  -4.9105  -4.9095  -4.9071  -4.8956
    -4.8951  -4.8942  -4.8913  -4.8819  -4.8818  -4.8776  -4.8664  -4.8663
    -4.8590  -4.8584  -4.8322  -4.8300  -4.8223  -4.8220  -4.8215  -4.8208
    -4.8087  -4.7970  -4.7944  -4.7942  -4.6872  -4.6863  -4.6732  -4.6730
    -4.6545  -4.6502  -4.6394  -4.4589  -4.4384  -4.4028  -4.2160  -4.1375
    -4.1068  -4.0564  -3.4037  -3.2512  -3.2470  -3.1491  -3.1245  -3.0135
    -2.8248  -2.6035  -2.5401  -2.3886  -2.2224  -2.1236  -2.0583  -1.9106
    -1.8794  -1.8739  -1.7251  -1.4311  -1.4244  -1.1677  -0.9411  -0.9392
    -0.8480  -0.8181  -0.7547  -0.3175  -0.0398   0.0032   0.0705   0.2151
     0.3339   0.3707   0.4063   0.4861   0.5166   0.5282   0.8662   1.1824
     1.3739   1.3763   1.5877   1.6028   1.9308   1.9362   1.9853   1.9991
     2.8968   2.9019   2.9475   2.9633   3.2652   3.2805   3.4769   3.5375
     3.5559   3.5881   3.7013   3.9242   3.9629   4.0051   4.0641   4.2351
     4.2660   4.3122   4.3384   4.4111   4.6448   4.6866   4.7052   4.8625
     4.9270   5.2372   5.2430   5.3607   5.5611   5.5798   5.5917   5.6015
     5.6077   5.6431   5.8618   5.9241   5.9748   6.0824   6.1915   6.2026
     6.2514   6.4148   6.4663   6.5414   6.5685   6.6018   6.6322   6.7058
     6.7188   6.7824   6.7866   6.8190   6.8340   6.9313   6.9952   7.0645
     7.0762   7.0870   7.1243   7.1596   7.2622   7.3149   7.3392   7.3881
     7.4401   7.5506   7.7232   7.7502   7.8514   7.8808   7.9118   7.9841
     8.0539   8.1452   8.1711   8.1745   8.2606   8.2835   8.3149   8.3603
     8.3946   8.5072   8.5877   8.5986   8.6512   8.6867   8.7926   8.8393
     8.9161   8.9537   9.0059   9.0539   9.0917   9.1413   9.1900   9.1990
     9.2842   9.2943

     occupation numbers 
     1.0000   1.0000   1.0000   1.0000   1.0000   1.0000   1.0000   1.0000
     1.0000   1.0000   1.0000   1.0000   1.0000   1.0000   1.0000   1.0000
     1.0000   1.0000   1.0000   1.0000   1.0000   1.0000   1.0000   1.0000
     1.0000   1.0000   1.0000   1.0000   1.0000   1.0000   1.0000   1.0000
     1.0000   1.0000   1.0000   1.0000   1.0000   1.0000   1.0000   1.0000
     1.0000   1.0000   1.0000   1.0000   1.0000   1.0000   1.0000   1.0000
     1.0000   1.0000   1.0000   1.0000   1.0000   1.0000   1.0000   1.0000
     1.0000   1.0000   1.0000   1.0000   1.0000   1.0000   1.0000   1.0000
     1.0000   1.0000   1.0000   1.0000   1.0000   1.0000   1.0000   1.0000
     1.0000   1.0000   1.0000   1.0000   1.0000   1.0000   1.0000   1.0000
     1.0000   1.0000   1.0000   1.0000   1.0000   1.0000   1.0000   1.0000
     1.0000   1.0000   1.0000   1.0000   1.0000   1.0000   1.0000   1.0000
     1.0000   1.0000   1.0000   1.0000   1.0000   1.0000   1.0000   1.0000
     1.0000   1.0000   1.0000   1.0000   1.0000   1.0000   1.0000   1.0000
     1.0000   1.0000   1.0000   1.0000   1.0000   1.0000   1.0000   1.0000
     1.0000   1.0000   1.0000   1.0000   1.0000   1.0000   1.0000   1.0000
     1.0000   1.0000   1.0000   1.0000   1.0000   1.0000   1.0000   1.0000
     1.0000   1.0000   1.0000   1.0000   1.0000   1.0000   1.0000   1.0000
     1.0000   1.0000   1.0000   1.0000   1.0000   1.0000   1.0000   1.0000
     1.0000   1.0000   1.0000   1.0000   1.0000   1.0000   1.0000   1.0000
     1.0000   1.0000   1.0000   1.0000   1.0000   1.0000   1.0000   1.0000
     1.0000   1.0000   1.0000   1.0000   1.0000   1.0000   1.0000   1.0000
     1.0000   1.0000   1.0000   1.0000   1.0000   1.0000   1.0000   1.0000
     1.0000   1.0000   1.0000   1.0000   1.0000   1.0000   1.0000   1.0000
     1.0000   1.0000   1.0000   1.0000   1.0000   1.0000   1.0000   1.0000
     1.0000   1.0000   1.0000   1.0000   1.0000   1.0000   1.0000   1.0000
     1.0000   1.0000   1.0000   1.0000   1.0000   1.0000   1.0000   1.0000
     1.0000   1.0000   1.0000   1.0000   1.0000   1.0000   1.0000   1.0000
     1.0000   1.0000   1.0000   1.0000   1.0000   1.0000   1.0000   1.0000
     1.0000   1.0000   1.0000   1.0000   1.0000   1.0000   1.0000   1.0000
     1.0000   1.0000   1.0000   1.0000   1.0000   1.0000   1.0000   1.0000
     1.0000   1.0000   1.0000   1.0000   1.0000   1.0000   1.0000   1.0000
     1.0000   1.0000   1.0000   1.0000   1.0000   1.0000   1.0000   1.0000
     1.0000   1.0000   1.0000   1.0000   1.0000   1.0000   1.0000   1.0000
     1.0000   1.0000   1.0000   1.0000   1.0000   1.0000   1.0000   1.0000
     1.0000   1.0000   1.0000   1.0000   1.0000   1.0000   1.0000   1.0000
     1.0000   1.0000   1.0000   1.0000   1.0000   1.0000   1.0000   1.0000
     1.0000   1.0000   1.0000   1.0000   1.0000   1.0000   1.0000   1.0000
     1.0000   1.0000   1.0000   1.0000   1.0000   1.0000   1.0000   1.0000
     1.0000   1.0000   1.0000   1.0000   1.0000   1.0000   1.0000   1.0000
     1.0000   1.0000   1.0000   1.0000   1.0000   1.0000   1.0000   1.0000
     1.0000   1.0000   1.0000   1.0000   1.0000   1.0000   1.0000   1.0000
     1.0000   1.0000   1.0000   1.0000   1.0000   1.0000   1.0000   1.0000
     1.0000   1.0000   1.0000   1.0000   1.0000   1.0000   1.0000   1.0000
     1.0000   1.0000   1.0000   1.0000   1.0000   1.0000   1.0000   1.0000
     1.0000   1.0000   1.0000   1.0000   1.0000   1.0000   1.0000   1.0000
     1.0000   1.0000   1.0000   1.0000   1.0000   1.0000   1.0000   1.0000
     1.0000   1.0000   1.0000   1.0000   1.0000   1.0000   1.0000   1.0000
     1.0000   1.0000   1.0000   1.0000   1.0000   1.0000   1.0000   1.0000
     1.0000   1.0000   1.0000   1.0000   1.0000   1.0000   1.0000   1.0000
     1.0000   1.0000   1.0000   1.0000   1.0000   1.0000   1.0000   1.0000
     1.0000   1.0000   1.0000   1.0000   1.0000   1.0000   1.0000   1.0000
     1.0000   1.0000   1.0000   1.0000   1.0000   1.0000   1.0000   1.0000
     1.0000   1.0000   1.0000   1.0000   1.0000   1.0000   1.0000   1.0000
     1.0000   1.0000   1.0000   1.0000   1.0000   1.0000   1.0000   1.0000
     1.0000   1.0000   1.0000   1.0000   1.0000   1.0000   1.0000   1.0000
     1.0000   1.0000   1.0000   1.0000   1.0000   1.0000   1.0000   1.0000
     1.0000   1.0000   1.0000   1.0000   1.0000   1.0000   1.0000   1.0000
     1.0000   1.0000   1.0000   1.0000   1.0000   1.0000   1.0000   1.0000
     1.0000   1.0000   1.0000   1.0000   1.0000   1.0000   1.0000   1.0000
     1.0000   1.0000   1.0000   1.0000   1.0000   1.0000   1.0000   1.0000
     1.0000   1.0000   1.0000   1.0000   1.0000   1.0000   1.0000   1.0018
     1.0223   1.0228   1.0827   1.0833   0.5488   0.5340   0.4039   0.3697
     0.0000   0.0000   0.0000   0.0000   0.0000   0.0000   0.0000   0.0000
     0.0000   0.0000   0.0000   0.0000   0.0000   0.0000   0.0000   0.0000
     0.0000   0.0000   0.0000   0.0000   0.0000   0.0000   0.0000   0.0000
     0.0000   0.0000   0.0000   0.0000   0.0000   0.0000   0.0000   0.0000
     0.0000   0.0000   0.0000   0.0000   0.0000   0.0000   0.0000   0.0000
     0.0000   0.0000   0.0000   0.0000   0.0000   0.0000   0.0000   0.0000
     0.0000   0.0000   0.0000   0.0000   0.0000   0.0000   0.0000   0.0000
     0.0000   0.0000   0.0000   0.0000   0.0000   0.0000   0.0000   0.0000
     0.0000   0.0000   0.0000   0.0000   0.0000   0.0000   0.0000   0.0000
     0.0000   0.0000   0.0000   0.0000   0.0000   0.0000   0.0000   0.0000
     0.0000   0.0000   0.0000   0.0000   0.0000   0.0000   0.0000   0.0000
     0.0000   0.0000   0.0000   0.0000   0.0000   0.0000   0.0000   0.0000
     0.0000   0.0000

          k = 0.3333 0.5774 0.0000 ( 64848 PWs)   bands (ev):

  -124.5901-124.5887-124.5878-124.5870-124.5860-124.5858-124.5850-124.5843
  -124.5827-124.5825-124.5814-124.5804-124.5793-124.5785-124.5776-124.5770
  -124.3987-124.3939-124.3910-124.3900-124.3892-124.3864-124.3855-124.3847
  -124.3839-124.3830-124.3781-124.3736-124.3733-124.3728-124.3724-124.3712
  -124.3709-124.3704-124.3702-124.3698-124.3695-124.3691-124.3683-124.3680
  -124.3673-124.3668-124.3663-124.3659-124.3653-124.3651-124.3574-124.3533
   -78.7536 -78.7531 -78.7519 -78.7504 -78.7499 -78.7488 -78.7478 -78.7474
   -78.7470 -78.7431 -78.7429 -78.7396 -78.7388 -78.7384 -78.7348 -78.7347
   -78.7338 -78.7331 -78.7323 -78.7321 -78.7319 -78.7311 -78.7306 -78.7300
   -78.7296 -78.7293 -78.7290 -78.7285 -78.7279 -78.7275 -78.7272 -78.7267
   -78.7261 -78.7260 -78.7257 -78.7249 -78.7247 -78.7243 -78.7237 -78.7235
   -78.7230 -78.7228 -78.7222 -78.7220 -78.7212 -78.7194 -78.7178 -78.7175
   -78.5545 -78.5539 -78.5537 -78.5503 -78.5497 -78.5482 -78.5472 -78.5462
   -78.5457 -78.5450 -78.5439 -78.5430 -78.5427 -78.5420 -78.5415 -78.5407
   -78.5401 -78.5392 -78.5388 -78.5385 -78.5363 -78.5342 -78.5340 -78.5337
   -78.5326 -78.5324 -78.5323 -78.5319 -78.5308 -78.5306 -78.5305 -78.5300
   -78.5297 -78.5296 -78.5291 -78.5290 -78.5288 -78.5287 -78.5284 -78.5280
   -78.5279 -78.5268 -78.5265 -78.5264 -78.5259 -78.5255 -78.5253 -78.5251
   -78.5250 -78.5246 -78.5245 -78.5244 -78.5238 -78.5237 -78.5234 -78.5231
   -78.5226 -78.5221 -78.5220 -78.5216 -78.5206 -78.5205 -78.5204 -78.5201
   -78.5198 -78.5197 -78.5182 -78.5178 -78.5160 -78.5149 -78.5143 -78.5140
   -78.5139 -78.5138 -78.5102 -78.5097 -78.5093 -78.5091 -78.5087 -78.5087
   -78.5079 -78.5078 -78.5073 -78.5067 -78.5066 -78.5064 -78.5058 -78.5053
   -78.5051 -78.5047 -78.5014 -78.5009 -78.5005 -78.5000 -78.4972 -78.4947
   -17.8571 -16.5412 -15.5965 -13.1898 -13.1118 -10.2278  -9.9269  -8.0098
    -7.5589  -7.5015  -7.4670  -7.4565  -7.4472  -6.4236  -6.4177  -6.4091
    -6.3080  -6.3052  -6.3014  -6.2953  -6.2945  -6.2932  -6.2926  -6.2911
    -6.2896  -6.1786  -6.1761  -6.1750  -6.1271  -6.1222  -6.1187  -6.1074
    -6.1057  -6.1033  -6.1012  -6.1000  -6.0984  -6.0675  -6.0650  -6.0638
    -6.0626  -6.0611  -6.0602  -6.0597  -6.0584  -6.0557  -5.9608  -5.9580
    -5.9543  -5.9355  -5.9348  -5.9339  -5.9319  -5.9310  -5.9303  -5.9221
    -5.9202  -5.9186  -5.9024  -5.9004  -5.8980  -5.8683  -5.8680  -5.8674
    -5.8604  -5.8577  -5.8556  -5.8550  -5.7839  -5.7824  -5.7807  -5.7787
    -5.7773  -5.7748  -5.7725  -5.7547  -5.7530  -5.7506  -5.7477  -5.7429
    -5.7394  -5.7366  -5.7199  -5.7161  -5.7018  -5.6987  -5.6942  -5.6464
    -5.6452  -5.6433  -5.6203  -5.6190  -5.6172  -5.6138  -5.6109  -5.6107
    -5.6091  -5.6085  -5.6082  -5.5713  -5.5688  -5.5679  -5.5473  -5.5462
    -5.5434  -5.5428  -5.5423  -5.5397  -5.5386  -5.5360  -5.5338  -5.4923
    -5.4899  -5.4888  -5.4790  -5.4763  -5.4751  -5.4671  -5.4642  -5.4638
    -5.4526  -5.4334  -5.4321  -5.4267  -5.4229  -5.4180  -5.4144  -5.4118
    -5.3765  -5.3729  -5.3654  -5.3617  -5.3337  -5.3314  -5.3305  -5.3288
    -5.3282  -5.3263  -5.3249  -5.3245  -5.3234  -5.3220  -5.3211  -5.3201
    -5.3179  -5.3108  -5.3090  -5.3082  -5.2919  -5.2898  -5.2884  -5.2631
    -5.2530  -5.2515  -5.2502  -5.2375  -5.2353  -5.2328  -5.1867  -5.1813
    -5.1751  -5.1736  -5.1672  -5.1659  -5.1640  -5.1633  -5.1616  -5.1583
    -5.1214  -5.1187  -5.1176  -5.1157  -5.1134  -5.1122  -5.0908  -5.0863
    -5.0838  -5.0826  -5.0810  -5.0805  -5.0733  -5.0722  -5.0714  -5.0664
    -5.0639  -5.0606  -5.0598  -5.0581  -5.0562  -5.0556  -5.0540  -5.0527
    -5.0500  -5.0494  -5.0488  -5.0476  -5.0465  -5.0454  -5.0388  -5.0297
    -5.0255  -5.0015  -4.9971  -4.9789  -4.9774  -4.9763  -4.9755  -4.9748
    -4.9745  -4.9732  -4.9721  -4.9714  -4.9625  -4.9621  -4.9613  -4.9596
    -4.9588  -4.9584  -4.9568  -4.9558  -4.9543  -4.9384  -4.9320  -4.9300
    -4.9284  -4.9256  -4.9248  -4.9241  -4.9207  -4.9202  -4.9187  -4.9071
    -4.9054  -4.9017  -4.9013  -4.9009  -4.9003  -4.8845  -4.8828  -4.8818
    -4.8621  -4.8353  -4.8342  -4.8336  -4.8001  -4.7790  -4.7779  -4.7738
    -4.7728  -4.7697  -4.7675  -4.7578  -4.7575  -4.7566  -4.7562  -4.7550
    -4.7531  -4.6865  -4.6700  -4.4734  -4.4637  -4.4594  -4.3388  -4.1073
    -3.4816  -3.3101  -3.2882  -3.2174  -3.0201  -2.9846  -2.9790  -2.9774
    -2.9702  -2.9681  -2.9639  -2.6083  -2.5686  -2.4928  -2.4669  -2.1161
    -1.9455  -1.5991  -1.5488  -1.5432  -1.5396  -1.5253  -1.4932  -1.1905
    -1.0237  -1.0100  -0.8488   0.2114   0.5608   0.5736   0.5765   0.5830
     0.5888   0.6033   0.6166   0.6215   0.6376   0.6534   0.6796   0.7553
     1.0993   1.1014   1.1050   1.6824   1.6893   1.6940   2.6503   2.7076
     2.7324   2.7762   2.9053   2.9617   3.2163   3.2282   3.2320   3.7746
     3.8602   3.9806   4.0261   4.0921   4.2404   4.3558   4.3755   4.3974
     4.4148   4.5845   4.6026   4.6225   4.6403   4.6730   4.7602   4.9058
     4.9123   4.9193   4.9238   4.9283   4.9326   4.9788   5.0644   5.0694
     5.1004   5.4882   5.5467   5.7033   5.8205   5.9552   5.9686   6.0268
     6.1612   6.2424   6.2692   6.3163   6.4018   6.4162   6.4223   6.4286
     6.4415   6.4495   6.6257   6.7423   6.8222   6.8972   6.9760   7.0362
     7.1811   7.2257   7.2445   7.2765   7.2985   7.4039   7.4488   7.4859
     7.5884   7.6388   7.6468   7.7063   7.7200   7.7824   7.9240   8.0821
     8.0995   8.1129   8.2922   8.3833   8.3892   8.3938   8.4418   8.5049
     8.6587   8.7132   8.7575   8.8024   8.8482   8.8574   8.8841   8.9071
     8.9253   8.9717   8.9970   9.0265   9.0372   9.0954   9.1628   9.1917
     9.2094   9.2259

     occupation numbers 
     1.0000   1.0000   1.0000   1.0000   1.0000   1.0000   1.0000   1.0000
     1.0000   1.0000   1.0000   1.0000   1.0000   1.0000   1.0000   1.0000
     1.0000   1.0000   1.0000   1.0000   1.0000   1.0000   1.0000   1.0000
     1.0000   1.0000   1.0000   1.0000   1.0000   1.0000   1.0000   1.0000
     1.0000   1.0000   1.0000   1.0000   1.0000   1.0000   1.0000   1.0000
     1.0000   1.0000   1.0000   1.0000   1.0000   1.0000   1.0000   1.0000
     1.0000   1.0000   1.0000   1.0000   1.0000   1.0000   1.0000   1.0000
     1.0000   1.0000   1.0000   1.0000   1.0000   1.0000   1.0000   1.0000
     1.0000   1.0000   1.0000   1.0000   1.0000   1.0000   1.0000   1.0000
     1.0000   1.0000   1.0000   1.0000   1.0000   1.0000   1.0000   1.0000
     1.0000   1.0000   1.0000   1.0000   1.0000   1.0000   1.0000   1.0000
     1.0000   1.0000   1.0000   1.0000   1.0000   1.0000   1.0000   1.0000
     1.0000   1.0000   1.0000   1.0000   1.0000   1.0000   1.0000   1.0000
     1.0000   1.0000   1.0000   1.0000   1.0000   1.0000   1.0000   1.0000
     1.0000   1.0000   1.0000   1.0000   1.0000   1.0000   1.0000   1.0000
     1.0000   1.0000   1.0000   1.0000   1.0000   1.0000   1.0000   1.0000
     1.0000   1.0000   1.0000   1.0000   1.0000   1.0000   1.0000   1.0000
     1.0000   1.0000   1.0000   1.0000   1.0000   1.0000   1.0000   1.0000
     1.0000   1.0000   1.0000   1.0000   1.0000   1.0000   1.0000   1.0000
     1.0000   1.0000   1.0000   1.0000   1.0000   1.0000   1.0000   1.0000
     1.0000   1.0000   1.0000   1.0000   1.0000   1.0000   1.0000   1.0000
     1.0000   1.0000   1.0000   1.0000   1.0000   1.0000   1.0000   1.0000
     1.0000   1.0000   1.0000   1.0000   1.0000   1.0000   1.0000   1.0000
     1.0000   1.0000   1.0000   1.0000   1.0000   1.0000   1.0000   1.0000
     1.0000   1.0000   1.0000   1.0000   1.0000   1.0000   1.0000   1.0000
     1.0000   1.0000   1.0000   1.0000   1.0000   1.0000   1.0000   1.0000
     1.0000   1.0000   1.0000   1.0000   1.0000   1.0000   1.0000   1.0000
     1.0000   1.0000   1.0000   1.0000   1.0000   1.0000   1.0000   1.0000
     1.0000   1.0000   1.0000   1.0000   1.0000   1.0000   1.0000   1.0000
     1.0000   1.0000   1.0000   1.0000   1.0000   1.0000   1.0000   1.0000
     1.0000   1.0000   1.0000   1.0000   1.0000   1.0000   1.0000   1.0000
     1.0000   1.0000   1.0000   1.0000   1.0000   1.0000   1.0000   1.0000
     1.0000   1.0000   1.0000   1.0000   1.0000   1.0000   1.0000   1.0000
     1.0000   1.0000   1.0000   1.0000   1.0000   1.0000   1.0000   1.0000
     1.0000   1.0000   1.0000   1.0000   1.0000   1.0000   1.0000   1.0000
     1.0000   1.0000   1.0000   1.0000   1.0000   1.0000   1.0000   1.0000
     1.0000   1.0000   1.0000   1.0000   1.0000   1.0000   1.0000   1.0000
     1.0000   1.0000   1.0000   1.0000   1.0000   1.0000   1.0000   1.0000
     1.0000   1.0000   1.0000   1.0000   1.0000   1.0000   1.0000   1.0000
     1.0000   1.0000   1.0000   1.0000   1.0000   1.0000   1.0000   1.0000
     1.0000   1.0000   1.0000   1.0000   1.0000   1.0000   1.0000   1.0000
     1.0000   1.0000   1.0000   1.0000   1.0000   1.0000   1.0000   1.0000
     1.0000   1.0000   1.0000   1.0000   1.0000   1.0000   1.0000   1.0000
     1.0000   1.0000   1.0000   1.0000   1.0000   1.0000   1.0000   1.0000
     1.0000   1.0000   1.0000   1.0000   1.0000   1.0000   1.0000   1.0000
     1.0000   1.0000   1.0000   1.0000   1.0000   1.0000   1.0000   1.0000
     1.0000   1.0000   1.0000   1.0000   1.0000   1.0000   1.0000   1.0000
     1.0000   1.0000   1.0000   1.0000   1.0000   1.0000   1.0000   1.0000
     1.0000   1.0000   1.0000   1.0000   1.0000   1.0000   1.0000   1.0000
     1.0000   1.0000   1.0000   1.0000   1.0000   1.0000   1.0000   1.0000
     1.0000   1.0000   1.0000   1.0000   1.0000   1.0000   1.0000   1.0000
     1.0000   1.0000   1.0000   1.0000   1.0000   1.0000   1.0000   1.0000
     1.0000   1.0000   1.0000   1.0000   1.0000   1.0000   1.0000   1.0000
     1.0000   1.0000   1.0000   1.0000   1.0000   1.0000   1.0000   1.0000
     1.0000   1.0000   1.0000   1.0000   1.0000   1.0000   1.0000   1.0000
     1.0000   1.0000   1.0000   1.0000   1.0000   1.0000   1.0000   1.0000
     1.0000   1.0000   1.0000   1.0000   1.0000   1.0000   1.0000   1.0000
     1.0000   1.0000   1.0000   1.0000   1.0000   1.0000   1.0000   1.0000
[...]
     atom   60 type  4   force =    -2.58761648   -1.86232298  -18.23052632
     atom   61 type  4   force =     0.34703878    3.16851281  -18.25535203
     atom   62 type  4   force =    -0.36135651   -3.14133988  -18.40315989
     atom   63 type  4   force =     2.54920209    1.87249401  -18.42130326
     The core correction contribution to forces
     atom    1 type  1   force =     0.00000000    0.00000000    0.00000000
     atom    2 type  1   force =     0.00000000    0.00000000    0.00000000
     atom    3 type  1   force =     0.00000000    0.00000000    0.00000000
     atom    4 type  1   force =     0.00000000    0.00000000    0.00000000
     atom    5 type  1   force =     0.00000000    0.00000000    0.00000000
     atom    6 type  1   force =     0.00000000    0.00000000    0.00000000
     atom    7 type  1   force =     0.00000000    0.00000000    0.00000000
     atom    8 type  1   force =     0.00000000    0.00000000    0.00000000
     atom    9 type  1   force =     0.00000000    0.00000000    0.00000000
     atom   10 type  1   force =     0.00000000    0.00000000    0.00000000
     atom   11 type  1   force =     0.00000000    0.00000000    0.00000000
     atom   12 type  1   force =     0.00000000    0.00000000    0.00000000
     atom   13 type  1   force =     0.00000000    0.00000000    0.00000000
     atom   14 type  1   force =     0.00000000    0.00000000    0.00000000
     atom   15 type  1   force =     0.00000000    0.00000000    0.00000000
     atom   16 type  1   force =     0.00000000    0.00000000    0.00000000
     atom   17 type  1   force =     0.00000000    0.00000000    0.00000000
     atom   18 type  1   force =     0.00000000    0.00000000    0.00000000
     atom   19 type  1   force =     0.00000000    0.00000000    0.00000000
     atom   20 type  1   force =     0.00000000    0.00000000    0.00000000
     atom   21 type  1   force =     0.00000000    0.00000000    0.00000000
     atom   22 type  1   force =     0.00000000    0.00000000    0.00000000
     atom   23 type  1   force =     0.00000000    0.00000000    0.00000000
     atom   24 type  1   force =     0.00000000    0.00000000    0.00000000
     atom   25 type  1   force =     0.00000000    0.00000000    0.00000000
     atom   26 type  1   force =     0.00000000    0.00000000    0.00000000
     atom   27 type  1   force =     0.00000000    0.00000000    0.00000000
     atom   28 type  1   force =     0.00000000    0.00000000    0.00000000
     atom   29 type  1   force =     0.00000000    0.00000000    0.00000000
     atom   30 type  1   force =     0.00000000    0.00000000    0.00000000
     atom   31 type  1   force =     0.00000000    0.00000000    0.00000000
     atom   32 type  1   force =     0.00000000    0.00000000    0.00000000
     atom   33 type  1   force =     0.00000000    0.00000000    0.00000000
     atom   34 type  1   force =     0.00000000    0.00000000    0.00000000
     atom   35 type  1   force =     0.00000000    0.00000000    0.00000000
     atom   36 type  1   force =     0.00000000    0.00000000    0.00000000
     atom   37 type  1   force =     0.00000000    0.00000000    0.00000000
     atom   38 type  1   force =     0.00000000    0.00000000    0.00000000
     atom   39 type  1   force =     0.00000000    0.00000000    0.00000000
     atom   40 type  1   force =     0.00000000    0.00000000    0.00000000
     atom   41 type  1   force =     0.00000000    0.00000000    0.00000000
     atom   42 type  1   force =     0.00000000    0.00000000    0.00000000
     atom   43 type  1   force =     0.00000000    0.00000000    0.00000000
     atom   44 type  1   force =     0.00000000    0.00000000    0.00000000
     atom   45 type  1   force =     0.00000000    0.00000000    0.00000000
     atom   46 type  1   force =     0.00000000    0.00000000    0.00000000
     atom   47 type  1   force =     0.00000000    0.00000000    0.00000000
     atom   48 type  1   force =     0.00000000    0.00000000    0.00000000
     atom   49 type  3   force =     0.01488526   -0.00891847   -0.00120047
     atom   50 type  3   force =    -0.00501762    0.00308447   -0.00060767
     atom   51 type  3   force =    -0.00114165    0.00108460   -0.00015653
     atom   52 type  3   force =    -0.00141634    0.00073744   -0.00038054
     atom   53 type  3   force =     0.00159847   -0.00048259   -0.00022696
     atom   54 type  3   force =     0.00127565   -0.00087188   -0.00006813
     atom   55 type  3   force =     0.00541044   -0.00305969   -0.00070582
     atom   56 type  2   force =     0.00823552   -0.00486357   -0.00040908
     atom   57 type  2   force =    -0.00203047    0.00113305    0.00522839
     atom   58 type  4   force =     0.00000000    0.00000000    0.00000000
     atom   59 type  4   force =     0.00000000    0.00000000    0.00000000
     atom   60 type  4   force =     0.00000000    0.00000000    0.00000000
     atom   61 type  4   force =     0.00000000    0.00000000    0.00000000
     atom   62 type  4   force =     0.00000000    0.00000000    0.00000000
     atom   63 type  4   force =     0.00000000    0.00000000    0.00000000
     The Hubbard contrib.    to forces
     atom    1 type  1   force =     0.00000000    0.00000000    0.00000000
     atom    2 type  1   force =     0.00000000    0.00000000    0.00000000
     atom    3 type  1   force =     0.00000000    0.00000000    0.00000000
     atom    4 type  1   force =     0.00000000    0.00000000    0.00000000
     atom    5 type  1   force =     0.00000000    0.00000000    0.00000000
     atom    6 type  1   force =     0.00000000    0.00000000    0.00000000
     atom    7 type  1   force =     0.00000000    0.00000000    0.00000000
     atom    8 type  1   force =     0.00000000    0.00000000    0.00000000
     atom    9 type  1   force =     0.00000000    0.00000000    0.00000000
     atom   10 type  1   force =     0.00000000    0.00000000    0.00000000
     atom   11 type  1   force =     0.00000000    0.00000000    0.00000000
     atom   12 type  1   force =     0.00000000    0.00000000    0.00000000
     atom   13 type  1   force =     0.00000000    0.00000000    0.00000000
     atom   14 type  1   force =     0.00000000    0.00000000    0.00000000
     atom   15 type  1   force =     0.00000000    0.00000000    0.00000000
     atom   16 type  1   force =     0.00000000    0.00000000    0.00000000
     atom   17 type  1   force =     0.00000000    0.00000000    0.00000000
     atom   18 type  1   force =     0.00000000    0.00000000    0.00000000
     atom   19 type  1   force =     0.00000000    0.00000000    0.00000000
     atom   20 type  1   force =     0.00000000    0.00000000    0.00000000
     atom   21 type  1   force =     0.00000000    0.00000000    0.00000000
     atom   22 type  1   force =     0.00000000    0.00000000    0.00000000
     atom   23 type  1   force =     0.00000000    0.00000000    0.00000000
     atom   24 type  1   force =     0.00000000    0.00000000    0.00000000
     atom   25 type  1   force =     0.00000000    0.00000000    0.00000000
     atom   26 type  1   force =     0.00000000    0.00000000    0.00000000
     atom   27 type  1   force =     0.00000000    0.00000000    0.00000000
     atom   28 type  1   force =     0.00000000    0.00000000    0.00000000
     atom   29 type  1   force =     0.00000000    0.00000000    0.00000000
     atom   30 type  1   force =     0.00000000    0.00000000    0.00000000
     atom   31 type  1   force =     0.00000000    0.00000000    0.00000000
     atom   32 type  1   force =     0.00000000    0.00000000    0.00000000
     atom   33 type  1   force =     0.00000000    0.00000000    0.00000000
     atom   34 type  1   force =     0.00000000    0.00000000    0.00000000
     atom   35 type  1   force =     0.00000000    0.00000000    0.00000000
     atom   36 type  1   force =     0.00000000    0.00000000    0.00000000
     atom   37 type  1   force =     0.00000000    0.00000000    0.00000000
     atom   38 type  1   force =     0.00000000    0.00000000    0.00000000
     atom   39 type  1   force =     0.00000000    0.00000000    0.00000000
     atom   40 type  1   force =     0.00000000    0.00000000    0.00000000
     atom   41 type  1   force =     0.00000000    0.00000000    0.00000000
     atom   42 type  1   force =     0.00000000    0.00000000    0.00000000
     atom   43 type  1   force =     0.00000000    0.00000000    0.00000000
     atom   44 type  1   force =     0.00000000    0.00000000    0.00000000
     atom   45 type  1   force =     0.00000000    0.00000000    0.00000000
     atom   46 type  1   force =     0.00000000    0.00000000    0.00000000
     atom   47 type  1   force =     0.00000000    0.00000000    0.00000000
     atom   48 type  1   force =     0.00000000    0.00000000    0.00000000
     atom   49 type  3   force =     0.00000000    0.00000000    0.00000000
     atom   50 type  3   force =     0.00000000    0.00000000    0.00000000
     atom   51 type  3   force =     0.00000000    0.00000000    0.00000000
     atom   52 type  3   force =     0.00000000    0.00000000    0.00000000
     atom   53 type  3   force =     0.00000000    0.00000000    0.00000000
     atom   54 type  3   force =     0.00000000    0.00000000    0.00000000
     atom   55 type  3   force =     0.00000000    0.00000000    0.00000000
     atom   56 type  2   force =     0.00000000    0.00000000    0.00000000
     atom   57 type  2   force =     0.00000000    0.00000000    0.00000000
     atom   58 type  4   force =     0.00000000    0.00000000    0.00000000
     atom   59 type  4   force =     0.00000000    0.00000000    0.00000000
     atom   60 type  4   force =     0.00000000    0.00000000    0.00000000
     atom   61 type  4   force =     0.00000000    0.00000000    0.00000000
     atom   62 type  4   force =     0.00000000    0.00000000    0.00000000
     atom   63 type  4   force =     0.00000000    0.00000000    0.00000000
     The SCF correction term to forces
     atom    1 type  1   force =    -0.00000000   -0.00000000   -0.00000000
     atom    2 type  1   force =     0.00000000   -0.00000000   -0.00000000
     atom    3 type  1   force =    -0.00001953    0.00002920    0.00003861
     atom    4 type  1   force =     0.00001741   -0.00010739    0.00000816
     atom    5 type  1   force =    -0.00000000   -0.00000000   -0.00000000
     atom    6 type  1   force =     0.00000000   -0.00000000   -0.00000000
     atom    7 type  1   force =     0.00003190    0.00006975    0.00004422
     atom    8 type  1   force =    -0.00003889   -0.00001989    0.00006464
     atom    9 type  1   force =     0.00000000   -0.00000000   -0.00000000
     atom   10 type  1   force =    -0.00000000    0.00000000   -0.00000000
     atom   11 type  1   force =     0.00013410    0.00003811    0.00005411
     atom   12 type  1   force =    -0.00012466    0.00005630    0.00006195
     atom   13 type  1   force =     0.00000000   -0.00000000   -0.00000000
     atom   14 type  1   force =    -0.00000000    0.00000000   -0.00000000
     atom   15 type  1   force =     0.00006435    0.00001222    0.00005203
     atom   16 type  1   force =    -0.00007469   -0.00003063    0.00000818
     atom   17 type  1   force =     0.00000000   -0.00000000   -0.00000000
     atom   18 type  1   force =    -0.00000000    0.00000000   -0.00000000
     atom   19 type  1   force =    -0.00005440   -0.00008259    0.00004747
     atom   20 type  1   force =     0.00005052    0.00000592    0.00000267
     atom   21 type  1   force =    -0.00000000   -0.00000000   -0.00000000
     atom   22 type  1   force =     0.00000000   -0.00000000   -0.00000000
     atom   23 type  1   force =    -0.00013669    0.00001964    0.00009059
     atom   24 type  1   force =     0.00013466    0.00001898    0.00001795
     atom   25 type  1   force =    -0.00000000    0.00000000   -0.00000000
     atom   26 type  1   force =     0.00000000   -0.00000000   -0.00000000
     atom   27 type  1   force =    -0.00010256    0.00002310    0.00006502
     atom   28 type  1   force =     0.00008226    0.00007632    0.00005634
     atom   29 type  1   force =     0.00000000    0.00000000    0.00000000
     atom   30 type  1   force =    -0.00000000    0.00000000   -0.00000000
     atom   31 type  1   force =     0.00000408   -0.00010394    0.00003431
     atom   32 type  1   force =    -0.00000218    0.00007289    0.00003309
     atom   33 type  1   force =     0.00001085   -0.00002242    0.00005446
     atom   34 type  1   force =    -0.00001200    0.00000726   -0.00006797
     atom   35 type  1   force =    -0.00009589    0.00001038    0.00007209
     atom   36 type  1   force =     0.00010084   -0.00009354   -0.00012856
     atom   37 type  1   force =    -0.00002022    0.00001470    0.00008983
     atom   38 type  1   force =     0.00001983    0.00000393   -0.00004918
     atom   39 type  1   force =     0.00008418   -0.00000828    0.00008506
     atom   40 type  1   force =    -0.00008750    0.00009572    0.00000733
     atom   41 type  1   force =     0.00006424   -0.00007649   -0.00003301
     atom   42 type  1   force =    -0.00006331    0.00006164    0.00001593
     atom   43 type  1   force =    -0.00001220   -0.00006492   -0.00002196
     atom   44 type  1   force =     0.00001040   -0.00001801   -0.00003036
     atom   45 type  1   force =    -0.00011620    0.00004708    0.00007513
     atom   46 type  1   force =     0.00011596   -0.00002684   -0.00001837
     atom   47 type  1   force =    -0.00004308    0.00003975    0.00005331
     atom   48 type  1   force =     0.00004595    0.00005107    0.00003307
     atom   49 type  3   force =    -0.00000826    0.00000400    0.00000851
     atom   50 type  3   force =    -0.00000163   -0.00000357    0.00001693
     atom   51 type  3   force =    -0.00000000   -0.00000438    0.00000901
     atom   52 type  3   force =     0.00000517    0.00000240    0.00000933
     atom   53 type  3   force =     0.00000012    0.00000565   -0.00000414
     atom   54 type  3   force =    -0.00000487   -0.00000219   -0.00000800
     atom   55 type  3   force =    -0.00001265    0.00000321   -0.00000536
     atom   56 type  2   force =     0.00000109   -0.00000012   -0.00000408
     atom   57 type  2   force =     0.00001232    0.00000198    0.00001172
     atom   58 type  4   force =     0.00000029   -0.00000191   -0.00000099
     atom   59 type  4   force =     0.00000106   -0.00000013   -0.00000177
     atom   60 type  4   force =     0.00000007    0.00000018    0.00000211
     atom   61 type  4   force =     0.00000023    0.00000032    0.00000127
     atom   62 type  4   force =    -0.00000095    0.00000101   -0.00000129
     atom   63 type  4   force =    -0.00000076    0.00000028   -0.00000148

     DFT-D3 dispersion contribution to forces:
     atom    1 type  1   force =     0.00001207    0.00001743    0.00266493
     atom    2 type  1   force =    -0.00000259    0.00001783    0.00264274
     atom    3 type  1   force =     0.00033781    0.00057519   -0.00159672
     atom    4 type  1   force =    -0.00027981    0.00032629   -0.00122159
     atom    5 type  1   force =     0.00002099   -0.00000012    0.00268247
     atom    6 type  1   force =    -0.00000048   -0.00000331    0.00271357
     atom    7 type  1   force =     0.00053874    0.00038781   -0.00109904
     atom    8 type  1   force =    -0.00039080    0.00019671   -0.00131161
     atom    9 type  1   force =     0.00002276   -0.00001866    0.00269107
     atom   10 type  1   force =    -0.00000491   -0.00002297    0.00275596
     atom   11 type  1   force =     0.00045563   -0.00021260   -0.00144894
     atom   12 type  1   force =    -0.00027340   -0.00037362   -0.00104589
     atom   13 type  1   force =     0.00000353    0.00000574    0.00267298
     atom   14 type  1   force =     0.00000786   -0.00001396    0.00265809
     atom   15 type  1   force =     0.00002980    0.00004794   -0.00200131
     atom   16 type  1   force =    -0.00011953   -0.00064005   -0.00113123
     atom   17 type  1   force =     0.00000618    0.00002043    0.00270491
     atom   18 type  1   force =     0.00001383   -0.00000179    0.00258945
     atom   19 type  1   force =     0.00010227    0.00070464   -0.00126352
     atom   20 type  1   force =    -0.00016998    0.00013277   -0.00187117
     atom   21 type  1   force =     0.00001554    0.00001384    0.00276863
     atom   22 type  1   force =    -0.00001125   -0.00000640    0.00265683
     atom   23 type  1   force =     0.00016054    0.00036302   -0.00109026
     atom   24 type  1   force =    -0.00040969    0.00002774   -0.00124542
     atom   25 type  1   force =     0.00002201   -0.00001517    0.00275623
     atom   26 type  1   force =    -0.00000726   -0.00001692    0.00269595
     atom   27 type  1   force =     0.00036283   -0.00024149   -0.00096612
     atom   28 type  1   force =    -0.00055974   -0.00046274   -0.00132509
     atom   29 type  1   force =     0.00002739   -0.00000748    0.00268205
     atom   30 type  1   force =    -0.00000767   -0.00001045    0.00264590
     atom   31 type  1   force =     0.00036745   -0.00023220   -0.00142541
     atom   32 type  1   force =    -0.00030088   -0.00052198   -0.00169640
     atom   33 type  1   force =     0.00000511    0.00000489    0.00006200
     atom   34 type  1   force =    -0.00000326    0.00000492    0.00004502
     atom   35 type  1   force =    -0.00001058   -0.00003230    0.00007981
     atom   36 type  1   force =     0.00000555    0.00000254    0.00007429
     atom   37 type  1   force =     0.00000015   -0.00000404    0.00021171
     atom   38 type  1   force =     0.00000743   -0.00002581    0.00025511
     atom   39 type  1   force =    -0.00004325    0.00002185   -0.00002776
     atom   40 type  1   force =     0.00002839    0.00002859    0.00004463
     atom   41 type  1   force =    -0.00003997   -0.00005537    0.00000821
     atom   42 type  1   force =     0.00002164   -0.00002033    0.00006451
     atom   43 type  1   force =     0.00003352    0.00000492    0.00028806
     atom   44 type  1   force =    -0.00001464   -0.00000152    0.00006415
     atom   45 type  1   force =    -0.00003218    0.00002247    0.00013033
     atom   46 type  1   force =     0.00002372    0.00005856    0.00000624
     atom   47 type  1   force =     0.00000780    0.00000828    0.00020024
     atom   48 type  1   force =    -0.00001072   -0.00001043    0.00006244
     atom   49 type  3   force =     0.00030103   -0.00015818   -0.00175150
     atom   50 type  3   force =     0.00011131   -0.00007220   -0.00135767
     atom   51 type  3   force =    -0.00000701   -0.00047829   -0.00157004
     atom   52 type  3   force =     0.00040878    0.00024498   -0.00156914
     atom   53 type  3   force =    -0.00025273   -0.00041353   -0.00110879
     atom   54 type  3   force =     0.00021047    0.00038947   -0.00111046
     atom   55 type  3   force =    -0.00026244    0.00017355   -0.00150891
     atom   56 type  2   force =    -0.00008087    0.00004228   -0.00222711
     atom   57 type  2   force =    -0.00018955    0.00012149   -0.00166383
     atom   58 type  4   force =    -0.00012307    0.00004571   -0.00177386
     atom   59 type  4   force =    -0.00009863    0.00009604   -0.00175009
     atom   60 type  4   force =     0.00007547    0.00004404   -0.00130444
     atom   61 type  4   force =    -0.00001187   -0.00009493   -0.00131368
     atom   62 type  4   force =     0.00004278    0.00011778   -0.00139107
     atom   63 type  4   force =    -0.00007163   -0.00010086   -0.00141043

     Total force =     0.001711     Total SCF correction =     0.000611

     DFT-D3 dispersion Force =     0.013716
     SCF correction compared to forces is large: reduce conv_thr to get better values


     Computing stress (Cartesian axis) and pressure


     negative rho (up, down):  5.006E-03 0.000E+00
