--------------------------------------------------------------------------
By default, for Open MPI 4.0 and later, infiniband ports on a device
are not used by default.  The intent is to use UCX for these devices.
You can override this policy by setting the btl_openib_allow_ib MCA parameter
to true.

  Local host:              psid01
  Local adapter:           mlx5_0
  Local port:              1

--------------------------------------------------------------------------
--------------------------------------------------------------------------
WARNING: There was an error initializing an OpenFabrics device.

  Local host:   psid01
  Local device: mlx5_0
--------------------------------------------------------------------------

     Program PWSCF v.7.3.1 starts on 17Mar2025 at 11:19:16 

     This program is part of the open-source Quantum ESPRESSO suite
     for quantum simulation of materials; please cite
         "P. Giannozzi et al., J. Phys.:Condens. Matter 21 395502 (2009);
         "P. Giannozzi et al., J. Phys.:Condens. Matter 29 465901 (2017);
         "P. Giannozzi et al., J. Chem. Phys. 152 154105 (2020);
          URL http://www.quantum-espresso.org", 
     in publications or presentations arising from this work. More details at
     http://www.quantum-espresso.org/quote

     Parallel version (MPI), running on    30 processors

     MPI processes distributed on     1 nodes
     66820 MiB available memory on the printing compute node when the environment starts

     Waiting for input...
     Reading input from standard input

     Current dimensions of program PWSCF are:
     Max number of different atomic species (ntypx) = 10
     Max number of k-points (npk) =  40000
     Max angular momentum in pseudopotentials (lmaxx) =  4
     file O.pbe-n-kjpaw_psl.0.1.UPF: wavefunction(s)  2P renormalized

     R & G space division:  proc/nbgrp/npool/nimage =      30
     Subspace diagonalization in iterative solution of the eigenvalue problem:
     one sub-group per band group will be used
     custom distributed-memory algorithm (size of sub-group:  4*  4 procs)


     Parallelization info
     --------------------
     sticks:   dense  smooth     PW     G-vecs:    dense   smooth      PW
     Min          89      89     24                12069    12069    1722
     Max          90      90     25                12086    12086    1735
     Sum        2693    2693    739               362371   362371   51847

     Using Slab Decomposition



     bravais-lattice index     =            0
     lattice parameter (alat)  =       9.8808  a.u.
     unit-cell volume          =    7588.2966 (a.u.)^3
     number of atoms/cell      =           35
     number of atomic types    =            3
     number of electrons       =       648.00
     number of Kohn-Sham states=          389
     kinetic-energy cutoff     =      50.0000  Ry
     charge density cutoff     =     200.0000  Ry
     scf convergence threshold =      7.3E-07
     mixing beta               =       0.7000
     number of iterations used =            8  plain     mixing
     Exchange-correlation= SLA  PW   PBX  PBC
                           (   1   4   3   4   0   0   0)

     celldm(1)=   9.880848  celldm(2)=   0.000000  celldm(3)=   0.000000
     celldm(4)=   0.000000  celldm(5)=   0.000000  celldm(6)=   0.000000

     crystal axes: (cart. coord. in units of alat)
               a(1) = (   1.000000   0.000000   0.000000 )  
               a(2) = (  -1.000000   1.732051   0.000000 )  
               a(3) = (   0.000000   0.000000   4.541517 )  

     reciprocal axes: (cart. coord. in units 2 pi/alat)
               b(1) = (  1.000000  0.577350 -0.000000 )  
               b(2) = (  0.000000  0.577350  0.000000 )  
               b(3) = (  0.000000 -0.000000  0.220191 )  


     PseudoPot. # 1 for Zn read from file:
     /home/ys/qepseudo/SSSP_1.3.0_PBE_efficiency/Zn_pbe_v1.uspp.F.UPF
     MD5 check sum: df62231357ef9e81f77b2b3087fa5675
     Pseudo is Ultrasoft, Zval = 20.0
     Generated by new atomic code, or converted to UPF format
     Using radial grid of  943 points,  6 beta functions with: 
                l(1) =   0
                l(2) =   0
                l(3) =   1
                l(4) =   1
                l(5) =   2
                l(6) =   2
     Q(r) pseudized with  8 coefficients,  rinner =    1.100   1.100   1.100
                                                       1.100   1.100

     PseudoPot. # 2 for H  read from file:
     /home/ys/qepseudo/SSSP_1.3.0_PBE_efficiency/H.pbe-rrkjus_psl.1.0.0.UPF
     MD5 check sum: f52b6d4d1c606e5624b1dc7b2218f220
     Pseudo is Ultrasoft, Zval =  1.0
     Generated using "atomic" code by A. Dal Corso  v.5.1
     Using radial grid of  929 points,  2 beta functions with: 
                l(1) =   0
                l(2) =   0
     Q(r) pseudized with 0 coefficients 


     PseudoPot. # 3 for O  read from file:
     /home/ys/qepseudo/SSSP_1.3.0_PBE_efficiency/O.pbe-n-kjpaw_psl.0.1.UPF
     MD5 check sum: 0234752ac141de4415c5fc33072bef88
     Pseudo is Projector augmented-wave + core cor, Zval =  6.0
     Generated using "atomic" code by A. Dal Corso  v.5.0.99 svn rev. 10869
     Shape of augmentation charge: BESSEL
     Using radial grid of 1095 points,  4 beta functions with: 
                l(1) =   0
                l(2) =   0
                l(3) =   1
                l(4) =   1
     Q(r) pseudized with 0 coefficients 


     atomic species   valence    mass     pseudopotential
     Zn               20.00    65.38000     Zn( 1.00)
     H                 1.00     1.00800     H ( 1.00)
     O                 6.00    16.00000     O ( 1.00)

     No symmetry found


                                    s                        frac. trans.

      isym =  1     identity                                     

 cryst.   s( 1) = (     1          0          0      )
                  (     0          1          0      )
                  (     0          0          1      )

 cart.    s( 1) = (  1.0000000  0.0000000  0.0000000 )
                  (  0.0000000  1.0000000  0.0000000 )
                  (  0.0000000  0.0000000  1.0000000 )


   Cartesian axes

     site n.     atom                  positions (alat units)
         1        Zn     tau(   1) = (  -0.0000000   0.2886751   0.2329997  )
         2        Zn     tau(   2) = (   0.0039991   0.2887220   1.1931802  )
         3        Zn     tau(   3) = (  -0.2500000   0.7216878   0.2329997  )
         4        Zn     tau(   4) = (  -0.2458151   0.7233618   1.1974027  )
         5        Zn     tau(   5) = (  -0.5000000   1.1547005   0.2329997  )
         6        Zn     tau(   6) = (  -0.4952426   1.1540331   1.1955908  )
         7        Zn     tau(   7) = (  -0.7500000   1.5877132   0.2329997  )
         8        Zn     tau(   8) = (  -0.7459549   1.5868060   1.1940888  )
         9        Zn     tau(   9) = (   0.5000000   0.2886751   0.2329997  )
        10        Zn     tau(  10) = (   0.5042285   0.2887029   1.1936481  )
        11        Zn     tau(  11) = (   0.2500000   0.7216878   0.2329997  )
        12        Zn     tau(  12) = (   0.2541233   0.7226671   1.1963256  )
        13        Zn     tau(  13) = (  -0.0000000   1.1547005   0.2329997  )
        14        Zn     tau(  14) = (   0.0035399   1.1539788   1.1961855  )
        15        Zn     tau(  15) = (  -0.2500000   1.5877132   0.2329997  )
        16        Zn     tau(  16) = (  -0.2456974   1.5866795   1.1979144  )
        17        Zn     tau(  17) = (   0.2500000   0.1443376   0.6989991  )
        18        Zn     tau(  18) = (   0.2551481   0.1411338   1.6876935  )
        19        Zn     tau(  19) = (   0.0000000   0.5773503   0.6989991  )
        20        Zn     tau(  20) = (   0.0048998   0.5755142   1.6831576  )
        21        Zn     tau(  21) = (  -0.2500000   1.0103630   0.6989991  )
        22        Zn     tau(  22) = (  -0.2435885   1.0075174   1.7397184  )
        23        Zn     tau(  23) = (  -0.5000000   1.4433757   0.6989991  )
        24        Zn     tau(  24) = (  -0.4944341   1.4387886   1.6839201  )
        25        Zn     tau(  25) = (   0.7500000   0.1443376   0.6989991  )
        26        Zn     tau(  26) = (   0.7551280   0.1413605   1.6878386  )
        27        Zn     tau(  27) = (   0.5000000   0.5773503   0.6989991  )
        28        Zn     tau(  28) = (   0.5056208   0.5751121   1.6828126  )
        29        Zn     tau(  29) = (   0.2500000   1.0103630   0.6989991  )
        30        Zn     tau(  30) = (   0.2554963   1.0069660   1.6860908  )
        31        Zn     tau(  31) = (   0.0000000   1.4433757   0.6989991  )
        32        Zn     tau(  32) = (   0.0050931   1.4391779   1.6879795  )
        33        O      tau(  33) = (  -0.2565909   0.9839755   2.2533506  )
        34        H      tau(  34) = (  -0.4168516   1.0745438   2.2904454  )
        35        H      tau(  35) = (  -0.3052414   0.8027117   2.2588922  )

   Crystallographic axes

     site n.     atom                  positions (cryst. coord.)
         1        Zn     tau(   1) = (  0.1666667  0.1666667  0.0513044  )
         2        Zn     tau(   2) = (  0.1706928  0.1666937  0.2627272  )
         3        Zn     tau(   3) = (  0.1666667  0.4166667  0.0513044  )
         4        Zn     tau(   4) = (  0.1718181  0.4176331  0.2636570  )
         5        Zn     tau(   5) = (  0.1666667  0.6666667  0.0513044  )
         6        Zn     tau(   6) = (  0.1710388  0.6662813  0.2632580  )
         7        Zn     tau(   7) = (  0.1666667  0.9166667  0.0513044  )
         8        Zn     tau(   8) = (  0.1701880  0.9161428  0.2629273  )
         9        Zn     tau(   9) = (  0.6666667  0.1666667  0.0513044  )
        10        Zn     tau(  10) = (  0.6709112  0.1666827  0.2628302  )
        11        Zn     tau(  11) = (  0.6666667  0.4166667  0.0513044  )
        12        Zn     tau(  12) = (  0.6713554  0.4172320  0.2634198  )
        13        Zn     tau(  13) = (  0.6666667  0.6666667  0.0513044  )
        14        Zn     tau(  14) = (  0.6697899  0.6662500  0.2633889  )
        15        Zn     tau(  15) = (  0.6666667  0.9166667  0.0513044  )
        16        Zn     tau(  16) = (  0.6703725  0.9160698  0.2637696  )
        17        Zn     tau(  17) = (  0.3333333  0.0833333  0.1539131  )
        18        Zn     tau(  18) = (  0.3366317  0.0814836  0.3716144  )
        19        Zn     tau(  19) = (  0.3333333  0.3333333  0.1539131  )
        20        Zn     tau(  20) = (  0.3371731  0.3322733  0.3706157  )
        21        Zn     tau(  21) = (  0.3333333  0.5833333  0.1539131  )
        22        Zn     tau(  22) = (  0.3381019  0.5816904  0.3830699  )
        23        Zn     tau(  23) = (  0.3333333  0.8333333  0.1539131  )
        24        Zn     tau(  24) = (  0.3362508  0.8306850  0.3707836  )
        25        Zn     tau(  25) = (  0.8333333  0.0833333  0.1539131  )
        26        Zn     tau(  26) = (  0.8367425  0.0816145  0.3716464  )
        27        Zn     tau(  27) = (  0.8333333  0.3333333  0.1539131  )
        28        Zn     tau(  28) = (  0.8376620  0.3320411  0.3705397  )
        29        Zn     tau(  29) = (  0.8333333  0.5833333  0.1539131  )
        30        Zn     tau(  30) = (  0.8368684  0.5813721  0.3712616  )
        31        Zn     tau(  31) = (  0.8333333  0.8333333  0.1539131  )
        32        Zn     tau(  32) = (  0.8360028  0.8309097  0.3716774  )
        33        O      tau(  33) = (  0.3115076  0.5680985  0.4961669  )
        34        H      tau(  34) = (  0.2035365  0.6203881  0.5043348  )
        35        H      tau(  35) = (  0.1582045  0.4634458  0.4973871  )

     number of k points=     5  Marzari-Vanderbilt smearing, width (Ry)=  0.0200
                       cart. coord. in units 2pi/alat
        k(    1) = (   0.0000000   0.0000000   0.0000000), wk =   0.2222222
        k(    2) = (   0.0000000   0.1924501   0.0000000), wk =   0.4444444
        k(    3) = (   0.3333333   0.1924501   0.0000000), wk =   0.4444444
        k(    4) = (   0.3333333   0.3849002   0.0000000), wk =   0.4444444
        k(    5) = (   0.3333333  -0.0000000   0.0000000), wk =   0.4444444

                       cryst. coord.
        k(    1) = (   0.0000000   0.0000000   0.0000000), wk =   0.2222222
        k(    2) = (   0.0000000   0.3333333   0.0000000), wk =   0.4444444
        k(    3) = (   0.3333333   0.0000000   0.0000000), wk =   0.4444444
        k(    4) = (   0.3333333   0.3333333   0.0000000), wk =   0.4444444
        k(    5) = (   0.3333333  -0.3333333   0.0000000), wk =   0.4444444

     Dense  grid:   362371 G-vectors     FFT dimensions: (  45,  90, 216)

     Dynamical RAM for                 wfc:       8.96 MB

     Dynamical RAM for     wfc (w. buffer):      53.78 MB

     Dynamical RAM for           str. fact:       0.55 MB

     Dynamical RAM for           local pot:       0.00 MB

     Dynamical RAM for          nlocal pot:      13.55 MB

     Dynamical RAM for                qrad:       3.41 MB

     Dynamical RAM for          rho,v,vnew:       1.29 MB

     Dynamical RAM for               rhoin:       0.43 MB

     Dynamical RAM for            rho*nmix:       2.95 MB

     Dynamical RAM for           G-vectors:       0.78 MB

     Dynamical RAM for          h,s,v(r/c):       1.72 MB

     Dynamical RAM for          <psi|beta>:       3.49 MB

     Dynamical RAM for                 psi:      17.93 MB

     Dynamical RAM for                hpsi:      17.93 MB

     Dynamical RAM for                spsi:      17.93 MB

     Dynamical RAM for      wfcinit/wfcrot:      23.53 MB

     Dynamical RAM for           addusdens:      40.20 MB

     Dynamical RAM for          addusforce:      51.85 MB

     Dynamical RAM for         addusstress:      37.07 MB

     Estimated static dynamical RAM per process >      75.77 MB

     Estimated max dynamical RAM per process >     137.71 MB

     Estimated total dynamical RAM >       4.03 GB

     Check: negative core charge=   -0.000002

     Initial potential from superposition of free atoms

     starting charge     647.9955, renormalised to     648.0000

     negative rho (up, down):  3.826E-03 0.000E+00
     Starting wfcs are  422 randomized atomic wfcs
[psid01:23704] 29 more processes have sent help message help-mpi-btl-openib.txt / ib port not selected
[psid01:23704] Set MCA parameter "orte_base_help_aggregate" to 0 to see all help / error messages
[psid01:23704] 29 more processes have sent help message help-mpi-btl-openib.txt / error in device init
     Checking if some PAW data can be deallocated... 
       PAW data deallocated on   29 nodes for type:  3

     total cpu time spent up to now is       18.9 secs

     Self-consistent Calculation

     iteration #  1     ecut=    50.00 Ry     beta= 0.70
     Davidson diagonalization with overlap

---- Real-time Memory Report at c_bands before calling an iterative solver
           124 MiB given to the printing process from OS
             0 MiB allocation reported by mallinfo(arena+hblkhd)
         63681 MiB available memory on the node where the printing process lives
------------------
     ethr =  1.00E-02,  avg # of iterations =  7.8

     Threshold (ethr) on eigenvalues was too large:
     Diagonalizing with lowered threshold

     Davidson diagonalization with overlap

---- Real-time Memory Report at c_bands before calling an iterative solver
           169 MiB given to the printing process from OS
             0 MiB allocation reported by mallinfo(arena+hblkhd)
         62521 MiB available memory on the node where the printing process lives
------------------
     ethr =  2.25E-04,  avg # of iterations =  2.0

     negative rho (up, down):  3.608E-03 0.000E+00

     total cpu time spent up to now is      155.0 secs

     total energy              =  -14812.96579617 Ry
     estimated scf accuracy    <       1.46045389 Ry

     iteration #  2     ecut=    50.00 Ry     beta= 0.70
     Davidson diagonalization with overlap

---- Real-time Memory Report at c_bands before calling an iterative solver
           170 MiB given to the printing process from OS
             0 MiB allocation reported by mallinfo(arena+hblkhd)
         62511 MiB available memory on the node where the printing process lives
------------------
     ethr =  2.25E-04,  avg # of iterations =  7.8

     negative rho (up, down):  3.461E-03 0.000E+00

     total cpu time spent up to now is      255.3 secs

     total energy              =  -14813.03381134 Ry
     estimated scf accuracy    <       2.71366720 Ry

     iteration #  3     ecut=    50.00 Ry     beta= 0.70
     Davidson diagonalization with overlap

---- Real-time Memory Report at c_bands before calling an iterative solver
           171 MiB given to the printing process from OS
             0 MiB allocation reported by mallinfo(arena+hblkhd)
         62370 MiB available memory on the node where the printing process lives
------------------
     ethr =  2.25E-04,  avg # of iterations =  8.6

     negative rho (up, down):  3.243E-03 0.000E+00

     total cpu time spent up to now is      346.5 secs

     total energy              =  -14812.99094340 Ry
     estimated scf accuracy    <      10.33930446 Ry

     iteration #  4     ecut=    50.00 Ry     beta= 0.70
     Davidson diagonalization with overlap

---- Real-time Memory Report at c_bands before calling an iterative solver
           172 MiB given to the printing process from OS
             0 MiB allocation reported by mallinfo(arena+hblkhd)
         62311 MiB available memory on the node where the printing process lives
------------------
     ethr =  2.25E-04,  avg # of iterations =  7.0

     negative rho (up, down):  3.078E-03 0.000E+00

     total cpu time spent up to now is      413.6 secs

     total energy              =  -14813.57232590 Ry
     estimated scf accuracy    <       0.48712486 Ry

     iteration #  5     ecut=    50.00 Ry     beta= 0.70
     Davidson diagonalization with overlap

---- Real-time Memory Report at c_bands before calling an iterative solver
           172 MiB given to the printing process from OS
             0 MiB allocation reported by mallinfo(arena+hblkhd)
         62298 MiB available memory on the node where the printing process lives
------------------
     ethr =  7.52E-05,  avg # of iterations = 10.2

     negative rho (up, down):  2.998E-03 0.000E+00

     total cpu time spent up to now is      483.6 secs

     total energy              =  -14813.59114745 Ry
     estimated scf accuracy    <       0.50277860 Ry

     iteration #  6     ecut=    50.00 Ry     beta= 0.70
     Davidson diagonalization with overlap

---- Real-time Memory Report at c_bands before calling an iterative solver
           172 MiB given to the printing process from OS
             0 MiB allocation reported by mallinfo(arena+hblkhd)
         62287 MiB available memory on the node where the printing process lives
------------------
     ethr =  7.52E-05,  avg # of iterations =  4.8

     negative rho (up, down):  3.051E-03 0.000E+00

     total cpu time spent up to now is      546.5 secs

     total energy              =  -14813.63864632 Ry
     estimated scf accuracy    <       0.03037471 Ry

     iteration #  7     ecut=    50.00 Ry     beta= 0.70
     Davidson diagonalization with overlap

---- Real-time Memory Report at c_bands before calling an iterative solver
           173 MiB given to the printing process from OS
             0 MiB allocation reported by mallinfo(arena+hblkhd)
         62272 MiB available memory on the node where the printing process lives
------------------
     c_bands:  1 eigenvalues not converged
     ethr =  4.69E-06,  avg # of iterations = 15.8

     negative rho (up, down):  3.109E-03 0.000E+00

     total cpu time spent up to now is      621.8 secs

     total energy              =  -14813.64235743 Ry
     estimated scf accuracy    <       0.00681237 Ry

     iteration #  8     ecut=    50.00 Ry     beta= 0.70
     Davidson diagonalization with overlap

---- Real-time Memory Report at c_bands before calling an iterative solver
           173 MiB given to the printing process from OS
             0 MiB allocation reported by mallinfo(arena+hblkhd)
         62257 MiB available memory on the node where the printing process lives
------------------
     ethr =  1.05E-06,  avg # of iterations =  5.8

     negative rho (up, down):  3.171E-03 0.000E+00

     total cpu time spent up to now is      684.3 secs

     total energy              =  -14813.64280883 Ry
     estimated scf accuracy    <       0.00324019 Ry

     iteration #  9     ecut=    50.00 Ry     beta= 0.70
     Davidson diagonalization with overlap

---- Real-time Memory Report at c_bands before calling an iterative solver
           174 MiB given to the printing process from OS
             0 MiB allocation reported by mallinfo(arena+hblkhd)
         62244 MiB available memory on the node where the printing process lives
------------------
     ethr =  5.00E-07,  avg # of iterations =  2.6

     negative rho (up, down):  3.205E-03 0.000E+00

     total cpu time spent up to now is      743.1 secs

     total energy              =  -14813.64292084 Ry
     estimated scf accuracy    <       0.00099036 Ry

     iteration # 10     ecut=    50.00 Ry     beta= 0.70
     Davidson diagonalization with overlap

---- Real-time Memory Report at c_bands before calling an iterative solver
           174 MiB given to the printing process from OS
             0 MiB allocation reported by mallinfo(arena+hblkhd)
         62229 MiB available memory on the node where the printing process lives
------------------
     ethr =  1.53E-07,  avg # of iterations =  2.6

     negative rho (up, down):  3.257E-03 0.000E+00

     total cpu time spent up to now is      802.1 secs

     total energy              =  -14813.64291980 Ry
     estimated scf accuracy    <       0.00045529 Ry

     iteration # 11     ecut=    50.00 Ry     beta= 0.70
     Davidson diagonalization with overlap

---- Real-time Memory Report at c_bands before calling an iterative solver
           175 MiB given to the printing process from OS
             0 MiB allocation reported by mallinfo(arena+hblkhd)
         62217 MiB available memory on the node where the printing process lives
------------------
     ethr =  7.03E-08,  avg # of iterations =  2.8

     negative rho (up, down):  3.274E-03 0.000E+00

     total cpu time spent up to now is      861.0 secs

     total energy              =  -14813.64293763 Ry
     estimated scf accuracy    <       0.00008552 Ry

     iteration # 12     ecut=    50.00 Ry     beta= 0.70
     Davidson diagonalization with overlap

---- Real-time Memory Report at c_bands before calling an iterative solver
           175 MiB given to the printing process from OS
             0 MiB allocation reported by mallinfo(arena+hblkhd)
         62215 MiB available memory on the node where the printing process lives
------------------
     ethr =  1.32E-08,  avg # of iterations =  2.4

     negative rho (up, down):  3.293E-03 0.000E+00

     total cpu time spent up to now is      920.0 secs

     total energy              =  -14813.64294322 Ry
     estimated scf accuracy    <       0.00001303 Ry

     iteration # 13     ecut=    50.00 Ry     beta= 0.70
     Davidson diagonalization with overlap

---- Real-time Memory Report at c_bands before calling an iterative solver
           175 MiB given to the printing process from OS
             0 MiB allocation reported by mallinfo(arena+hblkhd)
         62215 MiB available memory on the node where the printing process lives
------------------
     ethr =  2.01E-09,  avg # of iterations =  2.2

     negative rho (up, down):  3.294E-03 0.000E+00

     total cpu time spent up to now is      981.3 secs

     total energy              =  -14813.64294491 Ry
     estimated scf accuracy    <       0.00000490 Ry

     iteration # 14     ecut=    50.00 Ry     beta= 0.70
     Davidson diagonalization with overlap

---- Real-time Memory Report at c_bands before calling an iterative solver
           175 MiB given to the printing process from OS
             0 MiB allocation reported by mallinfo(arena+hblkhd)
         62215 MiB available memory on the node where the printing process lives
------------------
     ethr =  7.56E-10,  avg # of iterations =  2.0

     negative rho (up, down):  3.297E-03 0.000E+00

     total cpu time spent up to now is     1040.3 secs

     End of self-consistent calculation

          k = 0.0000 0.0000 0.0000 ( 45257 PWs)   bands (ev):

  -122.8667-122.8637-122.8630-122.8612-122.8602-122.8576-122.8559-122.8541
  -122.7703-122.7679-122.7673-122.7668-122.7657-122.7432-122.7380-122.7331
  -122.6647-122.6627-122.6625-122.6609-122.6602-122.6595-122.6583-122.6566
  -122.5874-122.5809-122.5777-122.5745-122.5685-122.5684-122.5670-122.4578
   -77.0296 -77.0288 -77.0240 -77.0226 -77.0209 -77.0192 -77.0170 -77.0161
   -77.0142 -77.0132 -77.0105 -77.0089 -77.0073 -77.0062 -77.0057 -77.0053
   -77.0045 -77.0040 -76.9994 -76.9974 -76.9969 -76.9960 -76.9906 -76.9872
   -76.9332 -76.9311 -76.9253 -76.9249 -76.9227 -76.9223 -76.9215 -76.9209
   -76.9198 -76.9118 -76.9097 -76.9090 -76.9074 -76.9048 -76.9029 -76.8983
   -76.8960 -76.8926 -76.8880 -76.8875 -76.8868 -76.8777 -76.8726 -76.8716
   -76.8268 -76.8257 -76.8248 -76.8241 -76.8240 -76.8229 -76.8217 -76.8210
   -76.8206 -76.8200 -76.8196 -76.8183 -76.8176 -76.8033 -76.8029 -76.8009
   -76.7996 -76.7990 -76.7962 -76.7955 -76.7945 -76.7933 -76.7901 -76.7844
   -76.7521 -76.7453 -76.7441 -76.7421 -76.7400 -76.7342 -76.7341 -76.7333
   -76.7330 -76.7317 -76.7307 -76.7207 -76.7179 -76.7172 -76.7138 -76.7121
   -76.7071 -76.7049 -76.7042 -76.7017 -76.6971 -76.6197 -76.6064 -76.6047
   -18.2693  -6.3812  -6.0031  -5.6161  -4.9501  -4.8234  -4.8123  -4.8060
    -4.6863  -4.6848  -4.6845  -4.5727  -4.5719  -4.5680  -4.4898  -4.4883
    -4.4872  -4.4769  -4.4578  -4.3714  -4.3647  -4.3622  -4.3578  -4.3565
    -4.3092  -4.3018  -4.2990  -4.2461  -4.2459  -4.2323  -4.2102  -4.2097
    -4.1988  -4.1965  -4.1943  -4.1641  -4.1297  -4.1290  -4.0944  -4.0632
    -4.0605  -4.0533  -4.0383  -4.0139  -4.0124  -4.0121  -4.0074  -4.0035
    -3.9967  -3.9900  -3.9574  -3.9431  -3.9067  -3.9055  -3.9041  -3.8993
    -3.8754  -3.8686  -3.8614  -3.8561  -3.8486  -3.8348  -3.8330  -3.8285
    -3.8029  -3.7995  -3.7965  -3.7956  -3.7946  -3.7609  -3.7377  -3.7365
    -3.7115  -3.6996  -3.6994  -3.6983  -3.6522  -3.6473  -3.6179  -3.6159
    -3.6136  -3.6129  -3.6102  -3.5941  -3.5886  -3.5778  -3.5773  -3.5719
    -3.5606  -3.5583  -3.5409  -3.5310  -3.5305  -3.5303  -3.5278  -3.5241
    -3.5200  -3.5122  -3.5112  -3.4935  -3.4867  -3.4578  -3.4528  -3.4328
    -3.4323  -3.4267  -3.4258  -3.4074  -3.4029  -3.4014  -3.3947  -3.3939
    -3.3904  -3.3772  -3.3646  -3.3575  -3.3522  -3.3413  -3.3089  -3.2962
    -3.2926  -3.2872  -3.2871  -3.2853  -3.2760  -3.2732  -3.2696  -3.2670
    -3.2631  -3.2462  -3.2446  -3.2403  -3.2177  -3.2150  -3.2128  -3.2102
    -3.2077  -3.1987  -3.1882  -3.1827  -3.1788  -3.1732  -3.1694  -3.1548
    -3.1515  -3.1493  -3.1365  -3.1324  -3.1054  -3.1036  -3.0898  -3.0854
    -3.0689  -3.0686  -3.0683  -3.0451  -3.0392  -2.9661  -2.9646  -2.9602
    -2.9573  -2.8647  -2.8636  -2.8633  -2.8339  -2.8218  -2.7766  -2.7679
    -2.7668  -2.4198  -1.5024  -1.4325  -1.1466  -0.4576   0.0924   0.0954
     0.3169   0.3929   0.9085   0.9125   1.1870   1.3778   1.3853   1.3919
     1.9327   1.9553   1.9810   2.2207   2.2373   2.2388   2.2987   2.3017
     2.5340   2.5563   2.5795   3.4108   3.4849   3.8457   3.8830   3.9402
     4.5332   4.5587   4.5892   4.8366   4.8537   4.8978   5.5489   5.5618
     5.5792   5.7789   5.8412   6.0532   6.4691   6.4845   6.5066   7.0151
     7.2145   7.2624   7.3233   7.6338   7.6414   7.8113   7.8184   7.8545
     7.9575   8.4144   8.4296   8.4761   8.5102   8.5427   8.5457   8.6007
     8.6526   8.7841   8.8952   8.9702   9.0454   9.1013   9.4149   9.5044
     9.9476   9.9704   9.9967   9.9997  10.0384  10.0632  10.1212  10.3410
    10.4736  10.6493  10.7470  10.8985  11.0110  11.0785  11.1893  11.3044
    11.4852  11.5038  11.5212  11.5529  11.6121

     occupation numbers 
     1.0000   1.0000   1.0000   1.0000   1.0000   1.0000   1.0000   1.0000
     1.0000   1.0000   1.0000   1.0000   1.0000   1.0000   1.0000   1.0000
     1.0000   1.0000   1.0000   1.0000   1.0000   1.0000   1.0000   1.0000
     1.0000   1.0000   1.0000   1.0000   1.0000   1.0000   1.0000   1.0000
     1.0000   1.0000   1.0000   1.0000   1.0000   1.0000   1.0000   1.0000
     1.0000   1.0000   1.0000   1.0000   1.0000   1.0000   1.0000   1.0000
     1.0000   1.0000   1.0000   1.0000   1.0000   1.0000   1.0000   1.0000
     1.0000   1.0000   1.0000   1.0000   1.0000   1.0000   1.0000   1.0000
     1.0000   1.0000   1.0000   1.0000   1.0000   1.0000   1.0000   1.0000
     1.0000   1.0000   1.0000   1.0000   1.0000   1.0000   1.0000   1.0000
     1.0000   1.0000   1.0000   1.0000   1.0000   1.0000   1.0000   1.0000
     1.0000   1.0000   1.0000   1.0000   1.0000   1.0000   1.0000   1.0000
     1.0000   1.0000   1.0000   1.0000   1.0000   1.0000   1.0000   1.0000
     1.0000   1.0000   1.0000   1.0000   1.0000   1.0000   1.0000   1.0000
     1.0000   1.0000   1.0000   1.0000   1.0000   1.0000   1.0000   1.0000
     1.0000   1.0000   1.0000   1.0000   1.0000   1.0000   1.0000   1.0000
     1.0000   1.0000   1.0000   1.0000   1.0000   1.0000   1.0000   1.0000
     1.0000   1.0000   1.0000   1.0000   1.0000   1.0000   1.0000   1.0000
     1.0000   1.0000   1.0000   1.0000   1.0000   1.0000   1.0000   1.0000
     1.0000   1.0000   1.0000   1.0000   1.0000   1.0000   1.0000   1.0000
     1.0000   1.0000   1.0000   1.0000   1.0000   1.0000   1.0000   1.0000
     1.0000   1.0000   1.0000   1.0000   1.0000   1.0000   1.0000   1.0000
     1.0000   1.0000   1.0000   1.0000   1.0000   1.0000   1.0000   1.0000
     1.0000   1.0000   1.0000   1.0000   1.0000   1.0000   1.0000   1.0000
     1.0000   1.0000   1.0000   1.0000   1.0000   1.0000   1.0000   1.0000
     1.0000   1.0000   1.0000   1.0000   1.0000   1.0000   1.0000   1.0000
     1.0000   1.0000   1.0000   1.0000   1.0000   1.0000   1.0000   1.0000
     1.0000   1.0000   1.0000   1.0000   1.0000   1.0000   1.0000   1.0000
     1.0000   1.0000   1.0000   1.0000   1.0000   1.0000   1.0000   1.0000
     1.0000   1.0000   1.0000   1.0000   1.0000   1.0000   1.0000   1.0000
     1.0000   1.0000   1.0000   1.0000   1.0000   1.0000   1.0000   1.0000
     1.0000   1.0000   1.0000   1.0000   1.0000   1.0000   1.0000   1.0000
     1.0000   1.0000   1.0000   1.0000   1.0000   1.0000   1.0000   1.0000
     1.0000   1.0000   1.0000   1.0000   1.0000   1.0000   1.0000   1.0000
     1.0000   1.0000   1.0000   1.0000   1.0000   1.0000   1.0000   1.0000
     1.0000   1.0000   1.0000   1.0000   1.0000   1.0000   1.0000   1.0000
     1.0000   1.0000   1.0000   1.0000   1.0000   1.0000   1.0000   1.0000
     1.0000   1.0000   1.0000   1.0000   1.0000   1.0000   1.0000   1.0000
     1.0000   1.0000   1.0000   1.0000   1.0000   1.0000   1.0000   1.0000
     1.0000   1.0000   1.0000   1.0000   1.0000   1.0000   1.0000   1.0000
     1.0000   1.0000   1.0000   1.0251   1.0471   0.8396   0.7469   0.5913
     0.0005   0.0003   0.0002   0.0000   0.0000   0.0000   0.0000   0.0000
     0.0000   0.0000   0.0000   0.0000   0.0000   0.0000   0.0000   0.0000
     0.0000   0.0000   0.0000   0.0000   0.0000   0.0000   0.0000   0.0000
     0.0000   0.0000   0.0000   0.0000   0.0000   0.0000   0.0000   0.0000
     0.0000   0.0000   0.0000   0.0000   0.0000   0.0000   0.0000   0.0000
     0.0000   0.0000   0.0000   0.0000   0.0000   0.0000   0.0000   0.0000
     0.0000   0.0000   0.0000   0.0000   0.0000   0.0000   0.0000   0.0000
     0.0000   0.0000   0.0000   0.0000   0.0000

          k = 0.0000 0.1925 0.0000 ( 45262 PWs)   bands (ev):

  -122.8667-122.8637-122.8630-122.8612-122.8601-122.8576-122.8560-122.8541
  -122.7703-122.7678-122.7673-122.7668-122.7657-122.7432-122.7380-122.7331
  -122.6646-122.6630-122.6622-122.6609-122.6602-122.6595-122.6583-122.6566
  -122.5874-122.5809-122.5777-122.5745-122.5685-122.5683-122.5670-122.4578
   -77.0292 -77.0280 -77.0239 -77.0221 -77.0209 -77.0202 -77.0170 -77.0161
   -77.0143 -77.0141 -77.0131 -77.0105 -77.0089 -77.0073 -77.0049 -77.0043
   -77.0026 -77.0001 -76.9986 -76.9973 -76.9965 -76.9961 -76.9907 -76.9891
   -76.9331 -76.9309 -76.9249 -76.9243 -76.9232 -76.9223 -76.9215 -76.9208
   -76.9198 -76.9143 -76.9106 -76.9088 -76.9073 -76.9031 -76.9029 -76.8983
   -76.8953 -76.8926 -76.8880 -76.8875 -76.8864 -76.8779 -76.8730 -76.8716
   -76.8267 -76.8250 -76.8246 -76.8240 -76.8230 -76.8229 -76.8221 -76.8217
   -76.8209 -76.8199 -76.8196 -76.8178 -76.8176 -76.8114 -76.7995 -76.7990
   -76.7988 -76.7976 -76.7963 -76.7962 -76.7927 -76.7922 -76.7906 -76.7866
   -76.7520 -76.7453 -76.7439 -76.7421 -76.7400 -76.7342 -76.7340 -76.7331
   -76.7330 -76.7317 -76.7303 -76.7221 -76.7207 -76.7173 -76.7124 -76.7097
   -76.7068 -76.7053 -76.7036 -76.7017 -76.6982 -76.6197 -76.6064 -76.6047
   -18.2694  -6.1694  -6.0032  -5.5643  -5.4173  -4.8894  -4.8179  -4.7011
    -4.6575  -4.6103  -4.6100  -4.6051  -4.5410  -4.5298  -4.4995  -4.4962
    -4.4696  -4.4588  -4.4246  -4.4228  -4.4048  -4.4044  -4.4007  -4.3888
    -4.3305  -4.3262  -4.3234  -4.3096  -4.3048  -4.2763  -4.2663  -4.2644
    -4.2508  -4.2403  -4.2329  -4.1870  -4.1706  -4.1673  -4.1662  -4.1644
    -4.1593  -4.1027  -4.1018  -4.0895  -4.0719  -4.0409  -4.0294  -4.0214
    -3.9934  -3.9811  -3.9780  -3.9760  -3.9613  -3.9449  -3.9329  -3.9304
    -3.9156  -3.8654  -3.8567  -3.8540  -3.8406  -3.8293  -3.8213  -3.8161
    -3.8009  -3.7711  -3.7655  -3.7539  -3.7453  -3.7272  -3.7116  -3.7110
    -3.7059  -3.7005  -3.6641  -3.6619  -3.6537  -3.6499  -3.6439  -3.6430
    -3.6137  -3.6060  -3.6039  -3.6003  -3.5701  -3.5583  -3.5542  -3.5498
    -3.5425  -3.5267  -3.5192  -3.5172  -3.4880  -3.4701  -3.4673  -3.4517
    -3.4492  -3.4449  -3.4386  -3.4382  -3.4287  -3.4260  -3.4238  -3.4186
    -3.4178  -3.4056  -3.3957  -3.3684  -3.3658  -3.3621  -3.3485  -3.3381
    -3.3376  -3.3338  -3.3290  -3.3255  -3.3159  -3.3112  -3.3064  -3.2972
    -3.2961  -3.2944  -3.2906  -3.2890  -3.2822  -3.2783  -3.2777  -3.2702
    -3.2612  -3.2434  -3.2352  -3.2245  -3.2236  -3.2149  -3.1968  -3.1965
    -3.1946  -3.1938  -3.1898  -3.1813  -3.1802  -3.1788  -3.1737  -3.1690
    -3.1551  -3.1408  -3.1401  -3.1270  -3.1264  -3.1178  -3.0993  -3.0867
    -3.0849  -3.0811  -3.0523  -3.0457  -3.0218  -3.0132  -3.0113  -2.9801
    -2.9590  -2.9580  -2.9232  -2.8681  -2.8605  -2.8259  -2.7400  -2.4432
    -2.3902  -2.2419  -1.5879  -1.0486  -0.6393  -0.5447  -0.3098  -0.0566
     0.2413   0.2433   0.2790   0.7363   0.7405   1.0576   1.0614   1.4547
     1.5196   1.5238   1.5773   1.6521   2.2480   2.4245   2.4283   2.6742
     2.6871   3.0627   3.1326   3.1413   3.8560   3.8888   4.1519   4.7831
     4.7882   4.8164   5.0037   5.0961   5.1242   5.1809   5.6653   5.6702
     5.8206   5.9005   5.9206   6.1539   6.3703   6.3903   6.6391   6.9146
     7.1747   7.2672   7.2846   7.3264   7.3896   7.4273   7.4499   7.4754
     7.8547   7.9364   7.9574   8.0314   8.0386   8.0750   8.1195   8.4332
     8.7794   8.8778   9.0523   9.0761   9.1499   9.2361   9.4704   9.5384
     9.7773   9.9388  10.0254  10.0620  10.2378  10.2755  10.2997  10.3107
    10.4388  10.6190  10.8048  11.0057  11.0611  11.1572  11.1884  11.2576
    11.4775  11.6801  11.7798  11.8343  11.9155

     occupation numbers 
     1.0000   1.0000   1.0000   1.0000   1.0000   1.0000   1.0000   1.0000
     1.0000   1.0000   1.0000   1.0000   1.0000   1.0000   1.0000   1.0000
     1.0000   1.0000   1.0000   1.0000   1.0000   1.0000   1.0000   1.0000
     1.0000   1.0000   1.0000   1.0000   1.0000   1.0000   1.0000   1.0000
     1.0000   1.0000   1.0000   1.0000   1.0000   1.0000   1.0000   1.0000
     1.0000   1.0000   1.0000   1.0000   1.0000   1.0000   1.0000   1.0000
     1.0000   1.0000   1.0000   1.0000   1.0000   1.0000   1.0000   1.0000
     1.0000   1.0000   1.0000   1.0000   1.0000   1.0000   1.0000   1.0000
     1.0000   1.0000   1.0000   1.0000   1.0000   1.0000   1.0000   1.0000
     1.0000   1.0000   1.0000   1.0000   1.0000   1.0000   1.0000   1.0000
     1.0000   1.0000   1.0000   1.0000   1.0000   1.0000   1.0000   1.0000
     1.0000   1.0000   1.0000   1.0000   1.0000   1.0000   1.0000   1.0000
     1.0000   1.0000   1.0000   1.0000   1.0000   1.0000   1.0000   1.0000
     1.0000   1.0000   1.0000   1.0000   1.0000   1.0000   1.0000   1.0000
     1.0000   1.0000   1.0000   1.0000   1.0000   1.0000   1.0000   1.0000
     1.0000   1.0000   1.0000   1.0000   1.0000   1.0000   1.0000   1.0000
     1.0000   1.0000   1.0000   1.0000   1.0000   1.0000   1.0000   1.0000
     1.0000   1.0000   1.0000   1.0000   1.0000   1.0000   1.0000   1.0000
     1.0000   1.0000   1.0000   1.0000   1.0000   1.0000   1.0000   1.0000
     1.0000   1.0000   1.0000   1.0000   1.0000   1.0000   1.0000   1.0000
     1.0000   1.0000   1.0000   1.0000   1.0000   1.0000   1.0000   1.0000
     1.0000   1.0000   1.0000   1.0000   1.0000   1.0000   1.0000   1.0000
     1.0000   1.0000   1.0000   1.0000   1.0000   1.0000   1.0000   1.0000
     1.0000   1.0000   1.0000   1.0000   1.0000   1.0000   1.0000   1.0000
     1.0000   1.0000   1.0000   1.0000   1.0000   1.0000   1.0000   1.0000
     1.0000   1.0000   1.0000   1.0000   1.0000   1.0000   1.0000   1.0000
     1.0000   1.0000   1.0000   1.0000   1.0000   1.0000   1.0000   1.0000
     1.0000   1.0000   1.0000   1.0000   1.0000   1.0000   1.0000   1.0000
     1.0000   1.0000   1.0000   1.0000   1.0000   1.0000   1.0000   1.0000
     1.0000   1.0000   1.0000   1.0000   1.0000   1.0000   1.0000   1.0000
     1.0000   1.0000   1.0000   1.0000   1.0000   1.0000   1.0000   1.0000
     1.0000   1.0000   1.0000   1.0000   1.0000   1.0000   1.0000   1.0000
     1.0000   1.0000   1.0000   1.0000   1.0000   1.0000   1.0000   1.0000
     1.0000   1.0000   1.0000   1.0000   1.0000   1.0000   1.0000   1.0000
     1.0000   1.0000   1.0000   1.0000   1.0000   1.0000   1.0000   1.0000
     1.0000   1.0000   1.0000   1.0000   1.0000   1.0000   1.0000   1.0000
     1.0000   1.0000   1.0000   1.0000   1.0000   1.0000   1.0000   1.0000
     1.0000   1.0000   1.0000   1.0000   1.0000   1.0000   1.0000   1.0000
     1.0000   1.0000   1.0000   1.0000   1.0000   1.0000   1.0000   1.0000
     1.0000   1.0000   1.0000   1.0000   1.0000   1.0000   1.0000   1.0000
     1.0000   1.0001   1.0005   1.0006   0.8151   0.7317   0.1310   0.0000
     0.0000   0.0000   0.0000   0.0000   0.0000   0.0000   0.0000   0.0000
     0.0000   0.0000   0.0000   0.0000   0.0000   0.0000   0.0000   0.0000
     0.0000   0.0000   0.0000   0.0000   0.0000   0.0000   0.0000   0.0000
     0.0000   0.0000   0.0000   0.0000   0.0000   0.0000   0.0000   0.0000
     0.0000   0.0000   0.0000   0.0000   0.0000   0.0000   0.0000   0.0000
     0.0000   0.0000   0.0000   0.0000   0.0000   0.0000   0.0000   0.0000
     0.0000   0.0000   0.0000   0.0000   0.0000   0.0000   0.0000   0.0000
     0.0000   0.0000   0.0000   0.0000   0.0000

          k = 0.3333 0.1925 0.0000 ( 45348 PWs)   bands (ev):

  -122.8664-122.8639-122.8629-122.8615-122.8599-122.8578-122.8557-122.8543
  -122.7699-122.7683-122.7670-122.7667-122.7660-122.7432-122.7379-122.7332
  -122.6644-122.6626-122.6621-122.6614-122.6604-122.6594-122.6585-122.6566
  -122.5873-122.5810-122.5777-122.5744-122.5687-122.5684-122.5670-122.4578
   -77.0243 -77.0226 -77.0206 -77.0204 -77.0185 -77.0171 -77.0160 -77.0154
   -77.0146 -77.0138 -77.0128 -77.0109 -77.0093 -77.0086 -77.0082 -77.0077
   -77.0057 -77.0036 -77.0033 -76.9999 -76.9965 -76.9939 -76.9929 -76.9896
   -76.9277 -76.9253 -76.9244 -76.9229 -76.9227 -76.9212 -76.9208 -76.9202
   -76.9196 -76.9165 -76.9137 -76.9105 -76.9089 -76.9057 -76.9032 -76.8983
   -76.8930 -76.8924 -76.8908 -76.8882 -76.8856 -76.8778 -76.8764 -76.8728
   -76.8265 -76.8246 -76.8238 -76.8235 -76.8218 -76.8210 -76.8200 -76.8198
   -76.8185 -76.8176 -76.8161 -76.8158 -76.8125 -76.8121 -76.8061 -76.8040
   -76.8026 -76.8006 -76.7999 -76.7978 -76.7931 -76.7922 -76.7902 -76.7873
   -76.7519 -76.7454 -76.7420 -76.7399 -76.7383 -76.7343 -76.7331 -76.7318
   -76.7313 -76.7291 -76.7266 -76.7248 -76.7217 -76.7186 -76.7142 -76.7116
   -76.7105 -76.7074 -76.7040 -76.7023 -76.6980 -76.6197 -76.6072 -76.6047
   -18.2688  -6.0039  -5.5639  -5.0263  -4.8891  -4.6041  -4.5284  -4.5261
    -4.5014  -4.4688  -4.4059  -4.4044  -4.3998  -4.3874  -4.3620  -4.3439
    -4.3245  -4.3226  -4.3166  -4.2958  -4.2668  -4.2645  -4.2580  -4.2442
    -4.2220  -4.1994  -4.1954  -4.1913  -4.1872  -4.1671  -4.1666  -4.1470
    -4.1200  -4.1146  -4.1127  -4.1023  -4.0986  -4.0881  -4.0498  -4.0466
    -4.0415  -4.0328  -4.0288  -4.0271  -4.0204  -3.9974  -3.9877  -3.9764
    -3.9745  -3.9675  -3.9591  -3.9510  -3.9429  -3.9356  -3.9241  -3.9178
    -3.9078  -3.9015  -3.8602  -3.8553  -3.8508  -3.8411  -3.8293  -3.8027
    -3.7901  -3.7854  -3.7811  -3.7768  -3.7718  -3.7579  -3.7470  -3.7336
    -3.7197  -3.7126  -3.7116  -3.7070  -3.7040  -3.6980  -3.6754  -3.6649
    -3.6625  -3.6557  -3.6448  -3.6234  -3.6178  -3.6074  -3.6038  -3.5840
    -3.5787  -3.5697  -3.5679  -3.5640  -3.5431  -3.5414  -3.5313  -3.5263
    -3.5258  -3.5219  -3.5143  -3.5040  -3.4905  -3.4765  -3.4704  -3.4680
    -3.4572  -3.4515  -3.4482  -3.4435  -3.4368  -3.4353  -3.4269  -3.4255
    -3.4232  -3.4182  -3.4125  -3.4051  -3.4012  -3.3928  -3.3809  -3.3671
    -3.3646  -3.3580  -3.3534  -3.3422  -3.3402  -3.3384  -3.3336  -3.3322
    -3.3197  -3.3096  -3.3032  -3.3000  -3.2961  -3.2924  -3.2871  -3.2809
    -3.2584  -3.2474  -3.2417  -3.2359  -3.2326  -3.2240  -3.2200  -3.2000
    -3.1962  -3.1921  -3.1906  -3.1888  -3.1856  -3.1836  -3.1776  -3.1669
    -3.1506  -3.1425  -3.1184  -3.1081  -3.1059  -3.0961  -3.0836  -3.0825
    -3.0811  -3.0327  -3.0094  -3.0062  -2.9849  -2.9719  -2.7558  -2.4965
    -2.3912  -2.2433  -2.0887  -1.7830  -1.5839  -1.5750  -0.8786  -0.7658
    -0.5848  -0.3347  -0.0770   0.0721   0.2441   0.2486   0.6071   1.0555
     1.0617   1.0655   1.5814   2.1874   2.2336   2.2444   2.4238   2.4274
     2.9715   3.0184   3.8575   3.8855   4.2723   4.3562   4.6218   4.7910
     4.9977   5.4205   5.6511   5.6677   5.6763   5.8181   6.1624   6.3739
     6.3910   6.5721   6.7866   7.0618   7.2065   7.2744   7.2877   7.3431
     7.5113   7.7708   7.8829   7.9377   7.9597   8.0265   8.0454   8.1680
     8.4297   8.5882   8.6082   8.6460   8.6728   8.8528   9.0470   9.0805
     9.2212   9.2419   9.4096   9.4846   9.6001   9.6401   9.7406   9.7852
     9.8479   9.9339  10.0150  10.0387  10.0774  10.2011  10.2966  10.3074
    10.3726  10.4818  10.5947  10.6432  10.7205  10.9366  10.9618  11.0154
    11.1311  11.1714  11.1840  11.2866  11.4505

     occupation numbers 
     1.0000   1.0000   1.0000   1.0000   1.0000   1.0000   1.0000   1.0000
     1.0000   1.0000   1.0000   1.0000   1.0000   1.0000   1.0000   1.0000
     1.0000   1.0000   1.0000   1.0000   1.0000   1.0000   1.0000   1.0000
     1.0000   1.0000   1.0000   1.0000   1.0000   1.0000   1.0000   1.0000
     1.0000   1.0000   1.0000   1.0000   1.0000   1.0000   1.0000   1.0000
     1.0000   1.0000   1.0000   1.0000   1.0000   1.0000   1.0000   1.0000
     1.0000   1.0000   1.0000   1.0000   1.0000   1.0000   1.0000   1.0000
     1.0000   1.0000   1.0000   1.0000   1.0000   1.0000   1.0000   1.0000
     1.0000   1.0000   1.0000   1.0000   1.0000   1.0000   1.0000   1.0000
     1.0000   1.0000   1.0000   1.0000   1.0000   1.0000   1.0000   1.0000
     1.0000   1.0000   1.0000   1.0000   1.0000   1.0000   1.0000   1.0000
     1.0000   1.0000   1.0000   1.0000   1.0000   1.0000   1.0000   1.0000
     1.0000   1.0000   1.0000   1.0000   1.0000   1.0000   1.0000   1.0000
     1.0000   1.0000   1.0000   1.0000   1.0000   1.0000   1.0000   1.0000
     1.0000   1.0000   1.0000   1.0000   1.0000   1.0000   1.0000   1.0000
     1.0000   1.0000   1.0000   1.0000   1.0000   1.0000   1.0000   1.0000
     1.0000   1.0000   1.0000   1.0000   1.0000   1.0000   1.0000   1.0000
     1.0000   1.0000   1.0000   1.0000   1.0000   1.0000   1.0000   1.0000
     1.0000   1.0000   1.0000   1.0000   1.0000   1.0000   1.0000   1.0000
     1.0000   1.0000   1.0000   1.0000   1.0000   1.0000   1.0000   1.0000
     1.0000   1.0000   1.0000   1.0000   1.0000   1.0000   1.0000   1.0000
     1.0000   1.0000   1.0000   1.0000   1.0000   1.0000   1.0000   1.0000
     1.0000   1.0000   1.0000   1.0000   1.0000   1.0000   1.0000   1.0000
     1.0000   1.0000   1.0000   1.0000   1.0000   1.0000   1.0000   1.0000
     1.0000   1.0000   1.0000   1.0000   1.0000   1.0000   1.0000   1.0000
     1.0000   1.0000   1.0000   1.0000   1.0000   1.0000   1.0000   1.0000
     1.0000   1.0000   1.0000   1.0000   1.0000   1.0000   1.0000   1.0000
     1.0000   1.0000   1.0000   1.0000   1.0000   1.0000   1.0000   1.0000
     1.0000   1.0000   1.0000   1.0000   1.0000   1.0000   1.0000   1.0000
     1.0000   1.0000   1.0000   1.0000   1.0000   1.0000   1.0000   1.0000
     1.0000   1.0000   1.0000   1.0000   1.0000   1.0000   1.0000   1.0000
     1.0000   1.0000   1.0000   1.0000   1.0000   1.0000   1.0000   1.0000
     1.0000   1.0000   1.0000   1.0000   1.0000   1.0000   1.0000   1.0000
     1.0000   1.0000   1.0000   1.0000   1.0000   1.0000   1.0000   1.0000
     1.0000   1.0000   1.0000   1.0000   1.0000   1.0000   1.0000   1.0000
     1.0000   1.0000   1.0000   1.0000   1.0000   1.0000   1.0000   1.0000
     1.0000   1.0000   1.0000   1.0000   1.0000   1.0000   1.0000   1.0000
     1.0000   1.0000   1.0000   1.0000   1.0000   1.0000   1.0000   1.0000
     1.0000   1.0000   1.0000   1.0000   1.0000   1.0000   1.0000   1.0000
     1.0000   1.0000   1.0000   1.0000   1.0000   1.0000   1.0000   1.0000
     1.0000   1.0001   0.8115   0.7404   0.0341   0.0107   0.0001   0.0000
     0.0000   0.0000   0.0000   0.0000   0.0000   0.0000   0.0000   0.0000
     0.0000   0.0000   0.0000   0.0000   0.0000   0.0000   0.0000   0.0000
     0.0000   0.0000   0.0000   0.0000   0.0000   0.0000   0.0000   0.0000
     0.0000   0.0000   0.0000   0.0000   0.0000   0.0000   0.0000   0.0000
     0.0000   0.0000   0.0000   0.0000   0.0000   0.0000   0.0000   0.0000
     0.0000   0.0000   0.0000   0.0000   0.0000   0.0000   0.0000   0.0000
     0.0000   0.0000   0.0000   0.0000   0.0000   0.0000   0.0000   0.0000
     0.0000   0.0000   0.0000   0.0000   0.0000

          k = 0.3333 0.3849 0.0000 ( 45348 PWs)   bands (ev):

  -122.8664-122.8639-122.8629-122.8615-122.8599-122.8578-122.8557-122.8543
  -122.7699-122.7683-122.7670-122.7667-122.7660-122.7432-122.7379-122.7332
  -122.6644-122.6625-122.6621-122.6614-122.6604-122.6594-122.6585-122.6566
  -122.5873-122.5810-122.5777-122.5744-122.5686-122.5684-122.5670-122.4578
   -77.0244 -77.0225 -77.0207 -77.0205 -77.0184 -77.0171 -77.0160 -77.0153
   -77.0145 -77.0138 -77.0128 -77.0109 -77.0095 -77.0086 -77.0082 -77.0077
   -77.0058 -77.0035 -77.0033 -76.9999 -76.9965 -76.9936 -76.9932 -76.9897
   -76.9277 -76.9253 -76.9244 -76.9230 -76.9227 -76.9212 -76.9208 -76.9202
   -76.9196 -76.9164 -76.9137 -76.9105 -76.9089 -76.9055 -76.9036 -76.8983
   -76.8928 -76.8924 -76.8909 -76.8882 -76.8856 -76.8778 -76.8766 -76.8727
   -76.8265 -76.8245 -76.8239 -76.8234 -76.8218 -76.8210 -76.8202 -76.8198
   -76.8184 -76.8176 -76.8160 -76.8158 -76.8126 -76.8122 -76.8062 -76.8040
   -76.8024 -76.8004 -76.7999 -76.7979 -76.7930 -76.7920 -76.7905 -76.7872
   -76.7519 -76.7454 -76.7420 -76.7399 -76.7383 -76.7343 -76.7331 -76.7318
   -76.7309 -76.7301 -76.7264 -76.7240 -76.7209 -76.7194 -76.7151 -76.7117
   -76.7103 -76.7071 -76.7036 -76.7024 -76.6982 -76.6197 -76.6072 -76.6047
   -18.2688  -6.0040  -5.5637  -5.0266  -4.8888  -4.6036  -4.5283  -4.5267
    -4.5021  -4.4682  -4.4061  -4.4046  -4.4003  -4.3875  -4.3631  -4.3436
    -4.3251  -4.3228  -4.3164  -4.2953  -4.2662  -4.2649  -4.2574  -4.2442
    -4.2217  -4.1994  -4.1950  -4.1920  -4.1874  -4.1665  -4.1654  -4.1473
    -4.1209  -4.1141  -4.1134  -4.1011  -4.0987  -4.0888  -4.0496  -4.0467
    -4.0420  -4.0333  -4.0296  -4.0284  -4.0212  -3.9969  -3.9861  -3.9766
    -3.9731  -3.9669  -3.9601  -3.9496  -3.9414  -3.9361  -3.9250  -3.9188
    -3.9065  -3.9016  -3.8596  -3.8542  -3.8509  -3.8410  -3.8306  -3.8039
    -3.7910  -3.7853  -3.7818  -3.7782  -3.7705  -3.7565  -3.7452  -3.7329
    -3.7197  -3.7118  -3.7116  -3.7064  -3.7038  -3.6964  -3.6772  -3.6651
    -3.6635  -3.6544  -3.6457  -3.6249  -3.6165  -3.6065  -3.6038  -3.5843
    -3.5808  -3.5697  -3.5681  -3.5636  -3.5430  -3.5416  -3.5298  -3.5258
    -3.5250  -3.5214  -3.5146  -3.5035  -3.4919  -3.4768  -3.4704  -3.4674
    -3.4574  -3.4509  -3.4479  -3.4417  -3.4364  -3.4350  -3.4288  -3.4263
    -3.4243  -3.4194  -3.4128  -3.4052  -3.4002  -3.3921  -3.3812  -3.3674
    -3.3643  -3.3592  -3.3531  -3.3420  -3.3404  -3.3384  -3.3343  -3.3331
    -3.3160  -3.3111  -3.3042  -3.3020  -3.2964  -3.2920  -3.2875  -3.2807
    -3.2572  -3.2472  -3.2415  -3.2366  -3.2329  -3.2249  -3.2200  -3.2000
    -3.1968  -3.1922  -3.1904  -3.1879  -3.1855  -3.1832  -3.1790  -3.1669
    -3.1506  -3.1412  -3.1176  -3.1083  -3.1059  -3.0955  -3.0837  -3.0820
    -3.0811  -3.0325  -3.0104  -3.0060  -2.9862  -2.9732  -2.7560  -2.4898
    -2.3922  -2.2485  -2.0862  -1.7803  -1.5862  -1.5756  -0.8776  -0.7679
    -0.5842  -0.3356  -0.0771   0.0729   0.2444   0.2487   0.6070   1.0577
     1.0622   1.0657   1.5802   2.1872   2.2331   2.2441   2.4237   2.4274
     2.9686   3.0196   3.8582   3.8871   4.2714   4.3554   4.6211   4.7934
     4.9977   5.4172   5.6541   5.6674   5.6760   5.8133   6.1731   6.3704
     6.3894   6.5679   6.8221   7.0672   7.1758   7.2649   7.2835   7.3290
     7.4819   7.8005   7.8824   7.9487   7.9621   8.0371   8.0492   8.1667
     8.3967   8.5897   8.5928   8.6564   8.7709   8.8509   9.0436   9.0733
     9.1962   9.2452   9.3969   9.4521   9.6006   9.6379   9.7306   9.7935
     9.8552   9.9215  10.0075  10.0490  10.0765  10.1992  10.2947  10.3045
    10.3766  10.4568  10.6188  10.6604  10.7193  10.9513  10.9659  11.0315
    11.1494  11.1626  11.1896  11.2792  11.3722

     occupation numbers 
     1.0000   1.0000   1.0000   1.0000   1.0000   1.0000   1.0000   1.0000
     1.0000   1.0000   1.0000   1.0000   1.0000   1.0000   1.0000   1.0000
     1.0000   1.0000   1.0000   1.0000   1.0000   1.0000   1.0000   1.0000
     1.0000   1.0000   1.0000   1.0000   1.0000   1.0000   1.0000   1.0000
     1.0000   1.0000   1.0000   1.0000   1.0000   1.0000   1.0000   1.0000
     1.0000   1.0000   1.0000   1.0000   1.0000   1.0000   1.0000   1.0000
     1.0000   1.0000   1.0000   1.0000   1.0000   1.0000   1.0000   1.0000
     1.0000   1.0000   1.0000   1.0000   1.0000   1.0000   1.0000   1.0000
     1.0000   1.0000   1.0000   1.0000   1.0000   1.0000   1.0000   1.0000
     1.0000   1.0000   1.0000   1.0000   1.0000   1.0000   1.0000   1.0000
     1.0000   1.0000   1.0000   1.0000   1.0000   1.0000   1.0000   1.0000
     1.0000   1.0000   1.0000   1.0000   1.0000   1.0000   1.0000   1.0000
     1.0000   1.0000   1.0000   1.0000   1.0000   1.0000   1.0000   1.0000
     1.0000   1.0000   1.0000   1.0000   1.0000   1.0000   1.0000   1.0000
     1.0000   1.0000   1.0000   1.0000   1.0000   1.0000   1.0000   1.0000
     1.0000   1.0000   1.0000   1.0000   1.0000   1.0000   1.0000   1.0000
     1.0000   1.0000   1.0000   1.0000   1.0000   1.0000   1.0000   1.0000
     1.0000   1.0000   1.0000   1.0000   1.0000   1.0000   1.0000   1.0000
     1.0000   1.0000   1.0000   1.0000   1.0000   1.0000   1.0000   1.0000
     1.0000   1.0000   1.0000   1.0000   1.0000   1.0000   1.0000   1.0000
     1.0000   1.0000   1.0000   1.0000   1.0000   1.0000   1.0000   1.0000
     1.0000   1.0000   1.0000   1.0000   1.0000   1.0000   1.0000   1.0000
     1.0000   1.0000   1.0000   1.0000   1.0000   1.0000   1.0000   1.0000
     1.0000   1.0000   1.0000   1.0000   1.0000   1.0000   1.0000   1.0000
     1.0000   1.0000   1.0000   1.0000   1.0000   1.0000   1.0000   1.0000
     1.0000   1.0000   1.0000   1.0000   1.0000   1.0000   1.0000   1.0000
     1.0000   1.0000   1.0000   1.0000   1.0000   1.0000   1.0000   1.0000
     1.0000   1.0000   1.0000   1.0000   1.0000   1.0000   1.0000   1.0000
     1.0000   1.0000   1.0000   1.0000   1.0000   1.0000   1.0000   1.0000
     1.0000   1.0000   1.0000   1.0000   1.0000   1.0000   1.0000   1.0000
     1.0000   1.0000   1.0000   1.0000   1.0000   1.0000   1.0000   1.0000
     1.0000   1.0000   1.0000   1.0000   1.0000   1.0000   1.0000   1.0000
     1.0000   1.0000   1.0000   1.0000   1.0000   1.0000   1.0000   1.0000
     1.0000   1.0000   1.0000   1.0000   1.0000   1.0000   1.0000   1.0000
     1.0000   1.0000   1.0000   1.0000   1.0000   1.0000   1.0000   1.0000
     1.0000   1.0000   1.0000   1.0000   1.0000   1.0000   1.0000   1.0000
     1.0000   1.0000   1.0000   1.0000   1.0000   1.0000   1.0000   1.0000
     1.0000   1.0000   1.0000   1.0000   1.0000   1.0000   1.0000   1.0000
     1.0000   1.0000   1.0000   1.0000   1.0000   1.0000   1.0000   1.0000
     1.0000   1.0000   1.0000   1.0000   1.0000   1.0000   1.0000   1.0000
     1.0000   1.0001   0.8097   0.7361   0.0344   0.0108   0.0001   0.0000
     0.0000   0.0000   0.0000   0.0000   0.0000   0.0000   0.0000   0.0000
     0.0000   0.0000   0.0000   0.0000   0.0000   0.0000   0.0000   0.0000
     0.0000   0.0000   0.0000   0.0000   0.0000   0.0000   0.0000   0.0000
     0.0000   0.0000   0.0000   0.0000   0.0000   0.0000   0.0000   0.0000
     0.0000   0.0000   0.0000   0.0000   0.0000   0.0000   0.0000   0.0000
     0.0000   0.0000   0.0000   0.0000   0.0000   0.0000   0.0000   0.0000
     0.0000   0.0000   0.0000   0.0000   0.0000   0.0000   0.0000   0.0000
     0.0000   0.0000   0.0000   0.0000   0.0000

          k = 0.3333-0.0000 0.0000 ( 45368 PWs)   bands (ev):

  -122.8664-122.8639-122.8629-122.8615-122.8599-122.8579-122.8557-122.8543
  -122.7699-122.7683-122.7670-122.7667-122.7660-122.7432-122.7379-122.7332
  -122.6644-122.6624-122.6622-122.6614-122.6604-122.6594-122.6585-122.6566
  -122.5873-122.5810-122.5777-122.5744-122.5686-122.5684-122.5670-122.4578
   -77.0239 -77.0230 -77.0215 -77.0206 -77.0175 -77.0171 -77.0160 -77.0146
   -77.0137 -77.0129 -77.0125 -77.0118 -77.0109 -77.0103 -77.0086 -77.0077
   -77.0072 -77.0016 -77.0001 -76.9992 -76.9978 -76.9955 -76.9935 -76.9888
   -76.9276 -76.9255 -76.9244 -76.9234 -76.9227 -76.9212 -76.9208 -76.9202
   -76.9190 -76.9157 -76.9145 -76.9111 -76.9088 -76.9047 -76.9041 -76.8983
   -76.8928 -76.8923 -76.8908 -76.8882 -76.8858 -76.8778 -76.8766 -76.8727
   -76.8265 -76.8244 -76.8239 -76.8235 -76.8219 -76.8210 -76.8200 -76.8198
   -76.8184 -76.8176 -76.8172 -76.8160 -76.8110 -76.8102 -76.8073 -76.8067
   -76.8050 -76.7974 -76.7971 -76.7956 -76.7945 -76.7944 -76.7918 -76.7861
   -76.7519 -76.7455 -76.7420 -76.7399 -76.7384 -76.7344 -76.7331 -76.7318
   -76.7309 -76.7293 -76.7271 -76.7244 -76.7215 -76.7191 -76.7149 -76.7114
   -76.7087 -76.7072 -76.7046 -76.7034 -76.6975 -76.6197 -76.6072 -76.6047
   -18.2688  -6.0039  -5.7574  -5.0474  -4.6015  -4.5530  -4.5524  -4.4820
    -4.4404  -4.4393  -4.4346  -4.3856  -4.3852  -4.3839  -4.3670  -4.3657
    -4.3484  -4.2935  -4.2485  -4.2449  -4.1991  -4.1924  -4.1909  -4.1898
    -4.1888  -4.1879  -4.1866  -4.1852  -4.1748  -4.1380  -4.1372  -4.1366
    -4.1354  -4.1235  -4.1135  -4.1110  -4.0650  -4.0600  -4.0467  -4.0424
    -4.0405  -4.0319  -4.0232  -4.0177  -4.0156  -4.0111  -3.9938  -3.9828
    -3.9788  -3.9755  -3.9703  -3.9636  -3.9578  -3.9484  -3.9407  -3.8982
    -3.8962  -3.8954  -3.8947  -3.8874  -3.8752  -3.8651  -3.8612  -3.8550
    -3.8516  -3.8175  -3.8117  -3.8105  -3.8022  -3.7990  -3.7904  -3.7810
    -3.7808  -3.7752  -3.7691  -3.7465  -3.7452  -3.7310  -3.6967  -3.6896
    -3.6722  -3.6683  -3.6526  -3.6483  -3.6473  -3.6442  -3.6377  -3.6348
    -3.6328  -3.6284  -3.6225  -3.6024  -3.5989  -3.5710  -3.5671  -3.5561
    -3.5550  -3.5473  -3.5448  -3.5164  -3.4874  -3.4599  -3.4542  -3.4523
    -3.4498  -3.4470  -3.4426  -3.4414  -3.4343  -3.4324  -3.4280  -3.4256
    -3.4207  -3.4164  -3.4111  -3.4049  -3.3935  -3.3890  -3.3847  -3.3291
    -3.3183  -3.3104  -3.3070  -3.3053  -3.3014  -3.3002  -3.2965  -3.2899
    -3.2861  -3.2828  -3.2783  -3.2724  -3.2626  -3.2611  -3.2593  -3.2572
    -3.2357  -3.2342  -3.2320  -3.2275  -3.2251  -3.2231  -3.2130  -3.2111
    -3.2074  -3.1954  -3.1910  -3.1891  -3.1856  -3.1793  -3.1641  -3.1431
    -3.1381  -3.1361  -3.1332  -3.1304  -3.1247  -3.1170  -3.1082  -3.0443
    -3.0437  -3.0291  -2.9549  -2.9440  -2.7751  -2.7730  -2.7714  -2.5243
    -2.3712  -2.2083  -2.2045  -2.1668  -1.3100  -1.2997  -1.0346  -0.8309
    -0.8264  -0.6897  -0.5205  -0.4962  -0.2491   0.8756   0.8806   0.9222
     0.9231   0.9640   1.9868   2.2813   2.5292   2.5355   2.7010   3.0751
     3.3509   4.1022   4.1089   4.1904   4.4068   4.5241   4.5654   4.5893
     5.0967   5.1727   5.3281   5.3483   5.4445   6.0004   6.0493   6.2286
     6.3417   6.4449   6.4984   6.5946   6.6075   6.6834   6.7762   6.9888
     7.0213   7.0572   7.3296   7.3698   7.5963   7.8180   8.0108   8.1429
     8.2583   8.3585   8.5170   8.6361   8.6836   8.7271   8.8131   8.8220
     9.1546   9.2248   9.3241   9.4502   9.5110   9.5715   9.6355   9.6979
     9.7253  10.0601  10.1632  10.4130  10.5404  10.5848  10.6612  10.9142
    10.9503  11.0303  11.0576  11.1225  11.2008  11.2310  11.2809  11.3390
    11.3718  11.4353  11.5174  11.5534  11.6537

     occupation numbers 
     1.0000   1.0000   1.0000   1.0000   1.0000   1.0000   1.0000   1.0000
     1.0000   1.0000   1.0000   1.0000   1.0000   1.0000   1.0000   1.0000
     1.0000   1.0000   1.0000   1.0000   1.0000   1.0000   1.0000   1.0000
     1.0000   1.0000   1.0000   1.0000   1.0000   1.0000   1.0000   1.0000
     1.0000   1.0000   1.0000   1.0000   1.0000   1.0000   1.0000   1.0000
     1.0000   1.0000   1.0000   1.0000   1.0000   1.0000   1.0000   1.0000
     1.0000   1.0000   1.0000   1.0000   1.0000   1.0000   1.0000   1.0000
     1.0000   1.0000   1.0000   1.0000   1.0000   1.0000   1.0000   1.0000
     1.0000   1.0000   1.0000   1.0000   1.0000   1.0000   1.0000   1.0000
     1.0000   1.0000   1.0000   1.0000   1.0000   1.0000   1.0000   1.0000
     1.0000   1.0000   1.0000   1.0000   1.0000   1.0000   1.0000   1.0000
     1.0000   1.0000   1.0000   1.0000   1.0000   1.0000   1.0000   1.0000
     1.0000   1.0000   1.0000   1.0000   1.0000   1.0000   1.0000   1.0000
     1.0000   1.0000   1.0000   1.0000   1.0000   1.0000   1.0000   1.0000
     1.0000   1.0000   1.0000   1.0000   1.0000   1.0000   1.0000   1.0000
     1.0000   1.0000   1.0000   1.0000   1.0000   1.0000   1.0000   1.0000
     1.0000   1.0000   1.0000   1.0000   1.0000   1.0000   1.0000   1.0000
     1.0000   1.0000   1.0000   1.0000   1.0000   1.0000   1.0000   1.0000
     1.0000   1.0000   1.0000   1.0000   1.0000   1.0000   1.0000   1.0000
     1.0000   1.0000   1.0000   1.0000   1.0000   1.0000   1.0000   1.0000
     1.0000   1.0000   1.0000   1.0000   1.0000   1.0000   1.0000   1.0000
     1.0000   1.0000   1.0000   1.0000   1.0000   1.0000   1.0000   1.0000
     1.0000   1.0000   1.0000   1.0000   1.0000   1.0000   1.0000   1.0000
     1.0000   1.0000   1.0000   1.0000   1.0000   1.0000   1.0000   1.0000
     1.0000   1.0000   1.0000   1.0000   1.0000   1.0000   1.0000   1.0000
     1.0000   1.0000   1.0000   1.0000   1.0000   1.0000   1.0000   1.0000
     1.0000   1.0000   1.0000   1.0000   1.0000   1.0000   1.0000   1.0000
     1.0000   1.0000   1.0000   1.0000   1.0000   1.0000   1.0000   1.0000
     1.0000   1.0000   1.0000   1.0000   1.0000   1.0000   1.0000   1.0000
     1.0000   1.0000   1.0000   1.0000   1.0000   1.0000   1.0000   1.0000
     1.0000   1.0000   1.0000   1.0000   1.0000   1.0000   1.0000   1.0000
     1.0000   1.0000   1.0000   1.0000   1.0000   1.0000   1.0000   1.0000
     1.0000   1.0000   1.0000   1.0000   1.0000   1.0000   1.0000   1.0000
     1.0000   1.0000   1.0000   1.0000   1.0000   1.0000   1.0000   1.0000
     1.0000   1.0000   1.0000   1.0000   1.0000   1.0000   1.0000   1.0000
     1.0000   1.0000   1.0000   1.0000   1.0000   1.0000   1.0000   1.0000
     1.0000   1.0000   1.0000   1.0000   1.0000   1.0000   1.0000   1.0000
     1.0000   1.0000   1.0000   1.0000   1.0000   1.0000   1.0000   1.0000
     1.0000   1.0000   1.0000   1.0000   1.0000   1.0000   1.0000   1.0000
     1.0000   1.0000   1.0000   1.0000   1.0000   1.0000   1.0000   1.0002
     1.0132   0.2054   0.1941   0.0886   0.0049   0.0006   0.0003   0.0002
     0.0000   0.0000   0.0000   0.0000   0.0000   0.0000   0.0000   0.0000
     0.0000   0.0000   0.0000   0.0000   0.0000   0.0000   0.0000   0.0000
     0.0000   0.0000   0.0000   0.0000   0.0000   0.0000   0.0000   0.0000
     0.0000   0.0000   0.0000   0.0000   0.0000   0.0000   0.0000   0.0000
     0.0000   0.0000   0.0000   0.0000   0.0000   0.0000   0.0000   0.0000
     0.0000   0.0000   0.0000   0.0000   0.0000   0.0000   0.0000   0.0000
     0.0000   0.0000   0.0000   0.0000   0.0000   0.0000   0.0000   0.0000
     0.0000   0.0000   0.0000   0.0000   0.0000

     the Fermi energy is     4.0113 ev

!    total energy              =  -14813.64294544 Ry
     estimated scf accuracy    <       0.00000009 Ry
     smearing contrib. (-TS)   =      -0.00937545 Ry
     internal energy E=F+TS    =  -14813.63356999 Ry

     The total energy is F=E-TS. E is the sum of the following terms:
     one-electron contribution =  -88015.07497438 Ry
     hartree contribution      =   44018.87486014 Ry
     xc contribution           =   -1358.19107287 Ry
     ewald contribution        =   30550.26891615 Ry
     one-center paw contrib.   =      -9.51129904 Ry
      -> PAW hartree energy AE =       0.00000000 Ry
      -> PAW hartree energy PS =       0.00000000 Ry
      -> PAW xc energy AE      =       0.00000000 Ry
      -> PAW xc energy PS      =       0.00000000 Ry
      -> total E_H with PAW    =   44018.87486014 Ry
      -> total E_XC with PAW   =   -1358.19107287 Ry

     convergence has been achieved in  14 iterations

     negative rho (up, down):  3.297E-03 0.000E+00

     Forces acting on atoms (cartesian axes, Ry/au):

     atom    1 type  1   force =    -0.00018513    0.00038416   -0.00871190
     atom    2 type  1   force =    -0.00023296   -0.00001179    0.00022285
     atom    3 type  1   force =    -0.00000622   -0.00029286   -0.00884468
     atom    4 type  1   force =    -0.00023595    0.00017566    0.00008187
     atom    5 type  1   force =    -0.00066637    0.00029530   -0.00847491
     atom    6 type  1   force =    -0.00015130   -0.00040115   -0.00034452
     atom    7 type  1   force =     0.00006551   -0.00064817   -0.00860122
     atom    8 type  1   force =    -0.00011743   -0.00010037    0.00010891
     atom    9 type  1   force =     0.00027867    0.00037879   -0.00879736
     atom   10 type  1   force =    -0.00004200    0.00001174    0.00009971
     atom   11 type  1   force =     0.00010472    0.00002663   -0.00873648
     atom   12 type  1   force =    -0.00006999    0.00028446    0.00037938
     atom   13 type  1   force =     0.00076564    0.00034915   -0.00848734
     atom   14 type  1   force =    -0.00018909   -0.00024356   -0.00054555
     atom   15 type  1   force =     0.00003109    0.00014744   -0.00894580
     atom   16 type  1   force =    -0.00023131   -0.00014873   -0.00006619
     atom   17 type  1   force =     0.00014254   -0.00018824    0.00805726
     atom   18 type  1   force =    -0.00012414    0.00017012    0.00038747
     atom   19 type  1   force =     0.00032680    0.00017382    0.00880972
     atom   20 type  1   force =     0.00001389   -0.00048546    0.00039681
     atom   21 type  1   force =     0.00024393    0.00008110    0.00834666
     atom   22 type  1   force =    -0.00022300    0.00024863    0.00024467
     atom   23 type  1   force =    -0.00002094   -0.00035104    0.00875077
     atom   24 type  1   force =     0.00009173    0.00017767    0.00042620
     atom   25 type  1   force =     0.00030389   -0.00010733    0.00894258
     atom   26 type  1   force =     0.00002834    0.00019039    0.00014756
     atom   27 type  1   force =     0.00009076    0.00023644    0.00891516
     atom   28 type  1   force =    -0.00013125   -0.00008209    0.00001914
     atom   29 type  1   force =     0.00019033    0.00017121    0.00869263
     atom   30 type  1   force =    -0.00008283    0.00006590    0.00018866
     atom   31 type  1   force =     0.00043951   -0.00033797    0.00866640
     atom   32 type  1   force =    -0.00013103    0.00001932    0.00006047
     atom   33 type  3   force =    -0.01655014   -0.00719740    0.00253247
     atom   34 type  2   force =     0.01253416   -0.00689365   -0.00339921
     atom   35 type  2   force =     0.00373957    0.01390185   -0.00052221
     The non-local contrib.  to forces
     atom    1 type  1   force =     0.00194138    0.00773170    0.09559883
     atom    2 type  1   force =    -0.00311250    0.01083393   -0.08314239
     atom    3 type  1   force =     0.00101997    0.01125865    0.09147737
     atom    4 type  1   force =    -0.00467624   -0.03174699   -0.08554589
     atom    5 type  1   force =     0.00306780    0.00891153    0.09389377
     atom    6 type  1   force =    -0.02682337    0.02201665   -0.08159781
     atom    7 type  1   force =     0.00095665    0.01371218    0.09565088
     atom    8 type  1   force =     0.00191688    0.00422243   -0.07895943
     atom    9 type  1   force =    -0.00075428    0.00790704    0.09728377
     atom   10 type  1   force =    -0.00059166    0.01158699   -0.08254419
     atom   11 type  1   force =     0.00073309    0.01148240    0.09413829
     atom   12 type  1   force =     0.00101508   -0.01137002   -0.09736496
     atom   13 type  1   force =    -0.00175246    0.00837432    0.09150764
     atom   14 type  1   force =     0.02238209    0.02104420   -0.07707953
     atom   15 type  1   force =     0.00079244    0.00832596    0.09293461
     atom   16 type  1   force =    -0.00585861    0.01254997   -0.09435046
     atom   17 type  1   force =     0.00399870   -0.00532264    0.06312767
     atom   18 type  1   force =     0.00008687   -0.00745670   -0.08198892
     atom   19 type  1   force =     0.00331351   -0.00755876    0.06886196
     atom   20 type  1   force =     0.00674171   -0.02577097   -0.11190597
     atom   21 type  1   force =     0.00030837   -0.00772661    0.06690522
     atom   22 type  1   force =    -0.01385612   -0.02057726    0.15538507
     atom   23 type  1   force =     0.00229046   -0.00424517    0.06804983
     atom   24 type  1   force =    -0.00571282    0.00981568   -0.11361351
     atom   25 type  1   force =     0.00142172   -0.00486609    0.07179251
     atom   26 type  1   force =    -0.00173693   -0.00782661   -0.07894074
     atom   27 type  1   force =     0.00105916   -0.00759857    0.06947080
     atom   28 type  1   force =    -0.00744003   -0.02246066   -0.11993390
     atom   29 type  1   force =     0.00457889   -0.00742782    0.06095524
     atom   30 type  1   force =     0.00361618   -0.01174511   -0.12852106
     atom   31 type  1   force =     0.00218810   -0.00334151    0.06718958
     atom   32 type  1   force =     0.00450183    0.01116594   -0.09567239
     atom   33 type  3   force =    -2.14851734   -0.92208769    0.36652807
     atom   34 type  2   force =     0.08843446   -0.05399297   -0.02058675
     atom   35 type  2   force =     0.02400747    0.10279924   -0.00232296
     The ionic contribution  to forces
     atom    1 type  1   force =    -0.00452707    0.00847374 -411.47416484
     atom    2 type  1   force =    -0.06254257   -0.23361240  129.32170445
     atom    3 type  1   force =     0.00007663    0.03032026 -411.41765137
     atom    4 type  1   force =    -0.01854496    1.31774998  132.34322746
     atom    5 type  1   force =     0.00417541   -0.00795322 -411.40370594
     atom    6 type  1   force =     1.21128324   -0.60152354  131.54784361
     atom    7 type  1   force =    -0.00016485   -0.03101098 -411.45148913
     atom    8 type  1   force =    -0.09159376    0.11489102  129.67356012
     atom    9 type  1   force =     0.00444866    0.00847450 -411.47265941
     atom   10 type  1   force =     0.04111667   -0.23900991  129.47692997
     atom   11 type  1   force =    -0.00014668    0.03049952 -411.42500156
     atom   12 type  1   force =    -0.00572982    0.14353604  129.98205032
     atom   13 type  1   force =    -0.00424866   -0.00793152 -411.40160724
     atom   14 type  1   force =    -1.23688696   -0.48084805  131.99531733
     atom   15 type  1   force =     0.00009179   -0.03086688 -411.43725895
     atom   16 type  1   force =     0.07062231   -0.07666735  131.50069693
     atom   17 type  1   force =     0.03299294   -0.07475986 -134.86193502
     atom   18 type  1   force =    -0.03550442   -0.16419758  397.91604140
     atom   19 type  1   force =    -0.05686530    0.26225362 -134.58404019
     atom   20 type  1   force =     0.57425984   -3.47459536  391.44198541
     atom   21 type  1   force =     0.03752610   -0.00681486 -134.41518689
     atom   22 type  1   force =     0.06805000    0.54786374  406.22632285
     atom   23 type  1   force =     0.15677391   -0.11979265 -134.53565386
     atom   24 type  1   force =    -0.51758334    3.25093112  391.81587124
     atom   25 type  1   force =    -0.00026469   -0.18154616 -134.70020621
     atom   26 type  1   force =     0.04203022   -0.17355378  397.88730623
     atom   27 type  1   force =     0.08638051    0.24191435 -134.56758622
     atom   28 type  1   force =    -0.56192950   -3.35269899  391.12685148
     atom   29 type  1   force =    -0.00614804    0.01828846 -134.49352337
     atom   30 type  1   force =     0.00679755    0.41467266  388.39936949
     atom   31 type  1   force =    -0.12506028   -0.14496228 -134.51064048
     atom   32 type  1   force =     0.56465093    3.29241901  393.75077025
     atom   33 type  3   force =     3.67749733    1.49739686  122.86435806
     atom   34 type  2   force =    -3.02502519    1.93323203   20.44251306
     atom   35 type  2   force =    -0.82600793   -3.71057153   20.43959102
     The local contribution  to forces
     atom    1 type  1   force =     0.00233358   -0.01576198  411.36970036
     atom    2 type  1   force =     0.06542894    0.22256780 -129.23864917
     atom    3 type  1   force =    -0.00113074   -0.04184630  411.31715302
     atom    4 type  1   force =     0.02306363   -1.28621819 -132.25792779
     atom    5 type  1   force =    -0.00785322   -0.00076961  411.30108772
     atom    6 type  1   force =    -1.18470309    0.57944029 -131.46653674
     atom    7 type  1   force =    -0.00070606    0.01667630  411.34713002
     atom    8 type  1   force =     0.08950403   -0.11901066 -129.59448225
     atom    9 type  1   force =    -0.00334917   -0.01594050  411.36643328
     atom   10 type  1   force =    -0.04057229    0.22721939 -129.39462693
     atom   11 type  1   force =    -0.00045388   -0.04193893  411.32193350
     atom   12 type  1   force =     0.00456573   -0.13221609 -129.88464114
     atom   13 type  1   force =     0.00671074   -0.00019755  411.30136523
     atom   14 type  1   force =     1.21440799    0.45988757 -131.91874274
     atom   15 type  1   force =    -0.00087368    0.02269605  411.33528903
     atom   16 type  1   force =    -0.06494048    0.06421410 -131.40639451
     atom   17 type  1   force =    -0.03685045    0.07990656  134.80695077
     atom   18 type  1   force =     0.03527257    0.17143192 -397.83437922
     atom   19 type  1   force =     0.05387436   -0.25468757  134.52383474
     atom   20 type  1   force =    -0.58101555    3.50014406 -391.33000708
     atom   21 type  1   force =    -0.03758881    0.01451528  134.35630228
     atom   22 type  1   force =    -0.05449193   -0.52676082 -406.38119260
     atom   23 type  1   force =    -0.15906304    0.12395015  134.47625125
     atom   24 type  1   force =     0.52339232   -3.26078580 -391.70220691
     atom   25 type  1   force =    -0.00085063    0.18631068  134.63741327
     atom   26 type  1   force =    -0.04024466    0.18119491 -397.80893559
     atom   27 type  1   force =    -0.08734505   -0.23425283  134.50684633
     atom   28 type  1   force =     0.56926760    3.37539111 -391.00716621
     atom   29 type  1   force =     0.00175870   -0.01080626  134.44100626
     atom   30 type  1   force =    -0.01042808   -0.40254882 -388.27062457
     atom   31 type  1   force =     0.12329011    0.14822911  134.45205027
     atom   32 type  1   force =    -0.56928862   -3.30373674 -393.65546137
     atom   33 type  3   force =    -1.56694211   -0.59166526 -123.22413901
     atom   34 type  2   force =     2.94913325   -1.88613132  -20.42517801
     atom   35 type  2   force =     0.80574449    3.62168967  -20.43763858
     The core correction contribution to forces
     atom    1 type  1   force =     0.00000000    0.00000000    0.00000000
     atom    2 type  1   force =     0.00000000    0.00000000    0.00000000
     atom    3 type  1   force =     0.00000000    0.00000000    0.00000000
     atom    4 type  1   force =     0.00000000    0.00000000    0.00000000
     atom    5 type  1   force =     0.00000000    0.00000000    0.00000000
     atom    6 type  1   force =     0.00000000    0.00000000    0.00000000
     atom    7 type  1   force =     0.00000000    0.00000000    0.00000000
     atom    8 type  1   force =     0.00000000    0.00000000    0.00000000
     atom    9 type  1   force =     0.00000000    0.00000000    0.00000000
     atom   10 type  1   force =     0.00000000    0.00000000    0.00000000
     atom   11 type  1   force =     0.00000000    0.00000000    0.00000000
     atom   12 type  1   force =     0.00000000    0.00000000    0.00000000
     atom   13 type  1   force =     0.00000000    0.00000000    0.00000000
     atom   14 type  1   force =     0.00000000    0.00000000    0.00000000
     atom   15 type  1   force =     0.00000000    0.00000000    0.00000000
     atom   16 type  1   force =     0.00000000    0.00000000    0.00000000
     atom   17 type  1   force =     0.00000000    0.00000000    0.00000000
     atom   18 type  1   force =     0.00000000    0.00000000    0.00000000
     atom   19 type  1   force =     0.00000000    0.00000000    0.00000000
     atom   20 type  1   force =     0.00000000    0.00000000    0.00000000
     atom   21 type  1   force =     0.00000000    0.00000000    0.00000000
     atom   22 type  1   force =     0.00000000    0.00000000    0.00000000
     atom   23 type  1   force =     0.00000000    0.00000000    0.00000000
     atom   24 type  1   force =     0.00000000    0.00000000    0.00000000
     atom   25 type  1   force =     0.00000000    0.00000000    0.00000000
     atom   26 type  1   force =     0.00000000    0.00000000    0.00000000
     atom   27 type  1   force =     0.00000000    0.00000000    0.00000000
     atom   28 type  1   force =     0.00000000    0.00000000    0.00000000
     atom   29 type  1   force =     0.00000000    0.00000000    0.00000000
     atom   30 type  1   force =     0.00000000    0.00000000    0.00000000
     atom   31 type  1   force =     0.00000000    0.00000000    0.00000000
     atom   32 type  1   force =     0.00000000    0.00000000    0.00000000
     atom   33 type  3   force =     0.02145699    0.00919961   -0.00404672
     atom   34 type  2   force =     0.00000000    0.00000000    0.00000000
     atom   35 type  2   force =     0.00000000    0.00000000    0.00000000
     The Hubbard contrib.    to forces
     atom    1 type  1   force =     0.00000000    0.00000000    0.00000000
     atom    2 type  1   force =     0.00000000    0.00000000    0.00000000
     atom    3 type  1   force =     0.00000000    0.00000000    0.00000000
     atom    4 type  1   force =     0.00000000    0.00000000    0.00000000
     atom    5 type  1   force =     0.00000000    0.00000000    0.00000000
     atom    6 type  1   force =     0.00000000    0.00000000    0.00000000
     atom    7 type  1   force =     0.00000000    0.00000000    0.00000000
     atom    8 type  1   force =     0.00000000    0.00000000    0.00000000
     atom    9 type  1   force =     0.00000000    0.00000000    0.00000000
     atom   10 type  1   force =     0.00000000    0.00000000    0.00000000
     atom   11 type  1   force =     0.00000000    0.00000000    0.00000000
     atom   12 type  1   force =     0.00000000    0.00000000    0.00000000
     atom   13 type  1   force =     0.00000000    0.00000000    0.00000000
     atom   14 type  1   force =     0.00000000    0.00000000    0.00000000
     atom   15 type  1   force =     0.00000000    0.00000000    0.00000000
     atom   16 type  1   force =     0.00000000    0.00000000    0.00000000
     atom   17 type  1   force =     0.00000000    0.00000000    0.00000000
     atom   18 type  1   force =     0.00000000    0.00000000    0.00000000
     atom   19 type  1   force =     0.00000000    0.00000000    0.00000000
     atom   20 type  1   force =     0.00000000    0.00000000    0.00000000
     atom   21 type  1   force =     0.00000000    0.00000000    0.00000000
     atom   22 type  1   force =     0.00000000    0.00000000    0.00000000
     atom   23 type  1   force =     0.00000000    0.00000000    0.00000000
     atom   24 type  1   force =     0.00000000    0.00000000    0.00000000
     atom   25 type  1   force =     0.00000000    0.00000000    0.00000000
     atom   26 type  1   force =     0.00000000    0.00000000    0.00000000
     atom   27 type  1   force =     0.00000000    0.00000000    0.00000000
     atom   28 type  1   force =     0.00000000    0.00000000    0.00000000
     atom   29 type  1   force =     0.00000000    0.00000000    0.00000000
     atom   30 type  1   force =     0.00000000    0.00000000    0.00000000
     atom   31 type  1   force =     0.00000000    0.00000000    0.00000000
     atom   32 type  1   force =     0.00000000    0.00000000    0.00000000
     atom   33 type  3   force =     0.00000000    0.00000000    0.00000000
     atom   34 type  2   force =     0.00000000    0.00000000    0.00000000
     atom   35 type  2   force =     0.00000000    0.00000000    0.00000000
     The SCF correction term to forces
     atom    1 type  1   force =     0.00000000   -0.00000000    0.00000000
     atom    2 type  1   force =    -0.00000684    0.00020025    0.00045474
     atom    3 type  1   force =     0.00000000   -0.00000000    0.00000000
     atom    4 type  1   force =    -0.00007840    0.00039223    0.00047287
     atom    5 type  1   force =    -0.00000000    0.00000000    0.00000000
     atom    6 type  1   force =     0.00009190   -0.00033318    0.00009120
     atom    7 type  1   force =    -0.00000000   -0.00000000    0.00000000
     atom    8 type  1   force =     0.00005540   -0.00020179    0.00013524
     atom    9 type  1   force =    -0.00000000   -0.00000000    0.00000000
     atom   10 type  1   force =     0.00000528    0.00021664    0.00048565
     atom   11 type  1   force =    -0.00000000   -0.00000000    0.00000000
     atom   12 type  1   force =     0.00007902    0.00033590    0.00047994
     atom   13 type  1   force =     0.00000000    0.00000000    0.00000000
     atom   14 type  1   force =    -0.00009223   -0.00032590    0.00010418
     atom   15 type  1   force =     0.00000000   -0.00000000    0.00000000
     atom   16 type  1   force =    -0.00005454   -0.00024408    0.00012662
     atom   17 type  1   force =     0.00000000   -0.00000000    0.00000000
     atom   18 type  1   force =     0.00002083    0.00039385    0.00085899
     atom   19 type  1   force =     0.00000000    0.00000000    0.00000000
     atom   20 type  1   force =     0.00002787   -0.00026183    0.00046923
     atom   21 type  1   force =    -0.00000000    0.00000000    0.00000000
     atom   22 type  1   force =     0.00007504   -0.00027566   -0.00012587
     atom   23 type  1   force =    -0.00000000   -0.00000000    0.00000000
     atom   24 type  1   force =    -0.00000444    0.00021804    0.00052016
     atom   25 type  1   force =    -0.00000000   -0.00000000    0.00000000
     atom   26 type  1   force =    -0.00002029    0.00037724    0.00086245
     atom   27 type  1   force =    -0.00000000    0.00000000    0.00000000
     atom   28 type  1   force =    -0.00002933   -0.00031217    0.00041254
     atom   29 type  1   force =     0.00000000    0.00000000    0.00000000
     atom   30 type  1   force =    -0.00006850   -0.00031146    0.00010957
     atom   31 type  1   force =     0.00000000   -0.00000000    0.00000000
     atom   32 type  1   force =     0.00000481    0.00017249    0.00056876
     atom   33 type  3   force =    -0.00004502   -0.00003954   -0.00002315
     atom   34 type  2   force =    -0.00000837   -0.00000001   -0.00000274
     atom   35 type  2   force =    -0.00000448   -0.00001417   -0.00000692

     Total force =     0.027536     Total SCF correction =     0.002209


     Computing stress (Cartesian axis) and pressure


     negative rho (up, down):  3.297E-03 0.000E+00
          total   stress  (Ry/bohr**3)                   (kbar)     P=       -3.38
  -0.00010011   0.00000070  -0.00000161          -14.73        0.10       -0.24
   0.00000070   0.00001321  -0.00000089            0.10        1.94       -0.13
  -0.00000161  -0.00000089   0.00001800           -0.24       -0.13        2.65

     kinetic stress (kbar)  16840.47      7.81      7.75
                                7.81  16841.97     -2.89
                                7.75     -2.89  16974.00

     local   stress (kbar)**********     27.30     73.55
                               27.30**********     16.90
                               73.55     16.901502375.46

     nonloc. stress (kbar)  -1694.82     -0.10      0.41
                               -0.10  -1688.37     -0.27
                                0.41     -0.27  -1762.39

     hartree stress (kbar) 778745.52     -6.99    -26.72
                               -6.99 778583.39     -9.48
                              -26.72     -9.48-703988.52

     exc-cor stress (kbar)  -8421.35     -0.09     -0.11
                               -0.09  -8420.98      0.02
                               -0.11      0.02  -8433.15

     corecor stress (kbar)     -8.24     -0.01     -0.02
                               -0.01     -8.21      0.00
                               -0.02      0.00     -8.31

     ewald   stress (kbar) 698766.60    -27.80    -55.10
                              -27.80 698628.75     -4.42
                              -55.10     -4.42-805154.43

     hubbard stress (kbar)      0.00      0.00      0.00
                                0.00      0.00      0.00
                                0.00      0.00      0.00

     DFT-D   stress (kbar)      0.00      0.00      0.00
                                0.00      0.00      0.00
                                0.00      0.00      0.00

     XDM     stress (kbar)      0.00      0.00      0.00
                                0.00      0.00      0.00
                                0.00      0.00      0.00

     dft-nl  stress (kbar)      0.00      0.00      0.00
                                0.00      0.00      0.00
                                0.00      0.00      0.00

     TS-vdW  stress (kbar)      0.00      0.00      0.00
                                0.00      0.00      0.00
                                0.00      0.00      0.00

     MDB     stress (kbar)      0.00      0.00      0.00
                                0.00      0.00      0.00
                                0.00      0.00      0.00

     3D-RISM stress (kbar)      0.00      0.00      0.00
                                0.00      0.00      0.00
                                0.00      0.00      0.00


     Writing all to output data dir ./tmp/Zn002_2x2x4_scf_H2O.save/ :
     XML data file, charge density, pseudopotentials, collected wavefunctions

     init_run     :     18.65s CPU     18.79s WALL (       1 calls)
     electrons    :   1015.02s CPU   1021.42s WALL (       1 calls)
     forces       :     16.08s CPU     16.19s WALL (       1 calls)
     stress       :     46.37s CPU     46.50s WALL (       1 calls)

     Called by init_run:
     wfcinit      :     18.27s CPU     18.39s WALL (       1 calls)
     wfcinit:atom :      0.03s CPU      0.03s WALL (       5 calls)
     wfcinit:wfcr :     17.96s CPU     18.06s WALL (       5 calls)
     potinit      :      0.06s CPU      0.06s WALL (       1 calls)
     hinit0       :      0.04s CPU      0.04s WALL (       1 calls)

     Called by electrons:
     c_bands      :    937.54s CPU    943.43s WALL (      15 calls)
     sum_band     :     73.70s CPU     74.15s WALL (      15 calls)
     v_of_rho     :      0.31s CPU      0.33s WALL (      15 calls)
     v_h          :      0.01s CPU      0.02s WALL (      15 calls)
     v_xc         :      0.33s CPU      0.35s WALL (      17 calls)
     newd         :      3.14s CPU      3.17s WALL (      15 calls)
     PAW_pot      :      0.51s CPU      0.51s WALL (      15 calls)
     mix_rho      :      0.06s CPU      0.06s WALL (      15 calls)

     Called by c_bands:
     init_us_2    :      1.73s CPU      1.74s WALL (     165 calls)
     cegterg      :    934.46s CPU    940.29s WALL (      75 calls)

     Called by sum_band:
     sum_band:wei :      0.02s CPU      0.03s WALL (      15 calls)
     sum_band:loo :     71.26s CPU     71.68s WALL (      15 calls)
     sum_band:buf :      0.29s CPU      0.29s WALL (      75 calls)
     sum_band:ini :      0.77s CPU      0.77s WALL (      75 calls)
     sum_band:cal :     58.09s CPU     58.41s WALL (      75 calls)
     sum_band:bec :      0.68s CPU      0.68s WALL (      75 calls)
     addusdens    :      2.03s CPU      2.06s WALL (      15 calls)
                                        0.00s GPU  (      15 calls)
     addusd:skk   :      0.02s CPU      0.03s WALL (      45 calls)
                                        0.00s GPU  (      45 calls)

     Called by *egterg:
     cdiaghg      :    104.14s CPU    106.43s WALL (     492 calls)
     cegterg:over :    140.97s CPU    141.55s WALL (     422 calls)
     cegterg:upda :     51.68s CPU     51.89s WALL (     422 calls)
     cegterg:last :    191.91s CPU    192.72s WALL (     150 calls)
     cdiaghg:chol :      6.21s CPU      6.23s WALL (     492 calls)
     cdiaghg:inve :      1.38s CPU      1.38s WALL (     492 calls)
     cdiaghg:para :     27.87s CPU     28.59s WALL (     984 calls)
     h_psi        :    311.10s CPU    312.60s WALL (     502 calls)
     s_psi        :    114.97s CPU    115.25s WALL (     502 calls)
     g_psi        :      0.23s CPU      0.23s WALL (     422 calls)

     Called by h_psi:
     h_psi:calbec :    134.46s CPU    135.21s WALL (     502 calls)
     vloc_psi     :     52.59s CPU     53.00s WALL (     502 calls)
     add_vuspsi   :    123.46s CPU    123.76s WALL (     502 calls)

     General routines
     calbec       :    211.63s CPU    212.80s WALL (     602 calls)
     fft          :      0.51s CPU      0.55s WALL (     191 calls)
     ffts         :      0.01s CPU      0.01s WALL (      15 calls)
     fftw         :     59.54s CPU     60.01s WALL (  163713 calls)

     Parallel routines

     PAW routines
     PAW_pot      :      0.51s CPU      0.51s WALL (      15 calls)

     PWSCF        :  18m16.77s CPU  18m25.42s WALL


   This run was terminated on:  11:37:42  17Mar2025            

=------------------------------------------------------------------------------=
   JOB DONE.
=------------------------------------------------------------------------------=
Note: The following floating-point exceptions are signalling: IEEE_DENORMAL
Note: The following floating-point exceptions are signalling: IEEE_DENORMAL
Note: The following floating-point exceptions are signalling: IEEE_DENORMAL
Note: The following floating-point exceptions are signalling: IEEE_DENORMAL
Note: The following floating-point exceptions are signalling: IEEE_DENORMAL
Note: The following floating-point exceptions are signalling: IEEE_DENORMAL
