--------------------------------------------------------------------------
By default, for Open MPI 4.0 and later, infiniband ports on a device
are not used by default.  The intent is to use UCX for these devices.
You can override this policy by setting the btl_openib_allow_ib MCA parameter
to true.

  Local host:              psid04
  Local adapter:           mlx5_0
  Local port:              1

--------------------------------------------------------------------------
--------------------------------------------------------------------------
WARNING: There was an error initializing an OpenFabrics device.

  Local host:   psid04
  Local device: mlx5_0
--------------------------------------------------------------------------

     Program PWSCF v.7.3.1 starts on  2Apr2025 at 19:59:29 

     This program is part of the open-source Quantum ESPRESSO suite
     for quantum simulation of materials; please cite
         "P. Giannozzi et al., J. Phys.:Condens. Matter 21 395502 (2009);
         "P. Giannozzi et al., J. Phys.:Condens. Matter 29 465901 (2017);
         "P. Giannozzi et al., J. Chem. Phys. 152 154105 (2020);
          URL http://www.quantum-espresso.org", 
     in publications or presentations arising from this work. More details at
     http://www.quantum-espresso.org/quote

     Parallel version (MPI), running on    33 processors

     MPI processes distributed on     1 nodes
     34225 MiB available memory on the printing compute node when the environment starts

     Waiting for input...
     Reading input from standard input
Warning: card &CELL ignored
Warning: card   CELL_DOFREE = 'ALL' ignored
Warning: card / ignored

     Current dimensions of program PWSCF are:
     Max number of different atomic species (ntypx) = 10
     Max number of k-points (npk) =  40000
     Max angular momentum in pseudopotentials (lmaxx) =  4

     File ./tmp/02_Zn100_H2O.update deleted, as requested

     File ./tmp/02_Zn100_H2O.bfgs deleted, as requested
     file O.pbe-n-kjpaw_psl.0.1.UPF: wavefunction(s)  2P renormalized

     R & G space division:  proc/nbgrp/npool/nimage =      33
     Subspace diagonalization in iterative solution of the eigenvalue problem:
     one sub-group per band group will be used
     custom distributed-memory algorithm (size of sub-group:  5*  5 procs)


     Parallelization info
     --------------------
     sticks:   dense  smooth     PW     G-vecs:    dense   smooth      PW
     Min         245     140     36                38015    16424    2211
     Max         246     141     37                38023    16429    2226
     Sum        8103    4637   1215              1254623   542067   73181

     Using Slab Decomposition



     bravais-lattice index     =            0
     lattice parameter (alat)  =      18.4179  a.u.
     unit-cell volume          =   15858.2170 (a.u.)^3
     number of atoms/cell      =           51
     number of atomic types    =            3
     number of electrons       =       968.00
     number of Kohn-Sham states=          581
     kinetic-energy cutoff     =      40.0000  Ry
     charge density cutoff     =     280.0000  Ry
     scf convergence threshold =      1.0E-06
     mixing beta               =       0.4000
     number of iterations used =            8  plain     mixing
     energy convergence thresh.=      1.0E-05
     force convergence thresh. =      5.0E-04
     Exchange-correlation= PBE
                           (   1   4   3   4   0   0   0)
     nstep                     =          100


     celldm(1)=  18.417879  celldm(2)=   0.000000  celldm(3)=   0.000000
     celldm(4)=   0.000000  celldm(5)=   0.000000  celldm(6)=   0.000000

     crystal axes: (cart. coord. in units of alat)
               a(1) = (   1.000000   0.000000   0.000000 )  
               a(2) = (   0.000000   1.072963   0.000000 )  
               a(3) = (   0.000000  -1.365810   2.365652 )  

     reciprocal axes: (cart. coord. in units 2 pi/alat)
               b(1) = (  1.000000  0.000000 -0.000000 )  
               b(2) = ( -0.000000  0.931999  0.538090 )  
               b(3) = (  0.000000  0.000000  0.422716 )  


     PseudoPot. # 1 for Zn read from file:
     /home/ys/qepseudo/SSSP_1.3.0_PBE_efficiency/Zn_pbe_v1.uspp.F.UPF
     MD5 check sum: df62231357ef9e81f77b2b3087fa5675
     Pseudo is Ultrasoft, Zval = 20.0
     Generated by new atomic code, or converted to UPF format
     Using radial grid of  943 points,  6 beta functions with: 
                l(1) =   0
                l(2) =   0
                l(3) =   1
                l(4) =   1
                l(5) =   2
                l(6) =   2
     Q(r) pseudized with  8 coefficients,  rinner =    1.100   1.100   1.100
                                                       1.100   1.100

     PseudoPot. # 2 for O  read from file:
     /home/ys/qepseudo/SSSP_1.3.0_PBE_efficiency/O.pbe-n-kjpaw_psl.0.1.UPF
     MD5 check sum: 0234752ac141de4415c5fc33072bef88
     Pseudo is Projector augmented-wave + core cor, Zval =  6.0
     Generated using "atomic" code by A. Dal Corso  v.5.0.99 svn rev. 10869
     Shape of augmentation charge: BESSEL
     Using radial grid of 1095 points,  4 beta functions with: 
                l(1) =   0
                l(2) =   0
                l(3) =   1
                l(4) =   1
     Q(r) pseudized with 0 coefficients 


     PseudoPot. # 3 for H  read from file:
     /home/ys/qepseudo/SSSP_1.3.0_PBE_efficiency/H.pbe-rrkjus_psl.1.0.0.UPF
     MD5 check sum: f52b6d4d1c606e5624b1dc7b2218f220
     Pseudo is Ultrasoft, Zval =  1.0
     Generated using "atomic" code by A. Dal Corso  v.5.1
     Using radial grid of  929 points,  2 beta functions with: 
                l(1) =   0
                l(2) =   0
     Q(r) pseudized with 0 coefficients 


     atomic species   valence    mass     pseudopotential
     Zn               20.00    65.38000     Zn( 1.00)
     O                 6.00    15.99940     O ( 1.00)
     H                 1.00     1.00794     H ( 1.00)

     No symmetry found


                                    s                        frac. trans.

      isym =  1     identity                                     

 cryst.   s( 1) = (     1          0          0      )
                  (     0          1          0      )
                  (     0          0          1      )

 cart.    s( 1) = (  1.0000000  0.0000000  0.0000000 )
                  (  0.0000000  1.0000000 -0.0000000 )
                  (  0.0000000  0.0000000  1.0000000 )


   Cartesian axes

     site n.     atom                  positions (alat units)
         1        Zn     tau(   1) = (   0.1250000   0.1341203   0.0774344  )
         2        Zn     tau(   2) = (   0.1250000   0.6706017   0.0774344  )
         3        Zn     tau(   3) = (   0.0884798  -0.0022463   0.3656019  )
         4        Zn     tau(   4) = (   0.0869920   0.5383199   0.3569925  )
         5        Zn     tau(   5) = (   0.1558074  -0.1361949   0.6234509  )
         6        Zn     tau(   6) = (   0.1429832   0.4048993   0.6042497  )
         7        Zn     tau(   7) = (   0.1250000   0.4023610   0.0774344  )
         8        Zn     tau(   8) = (   0.1250000   0.9388424   0.0774344  )
         9        Zn     tau(   9) = (   0.0873484   0.2682906   0.3590915  )
        10        Zn     tau(  10) = (   0.0875576   0.8035674   0.3644424  )
        11        Zn     tau(  11) = (   0.1436289   0.1339990   0.6077594  )
        12        Zn     tau(  12) = (   0.1552389   0.6680053   0.6238803  )
        13        Zn     tau(  13) = (   0.6250000   0.1341203   0.0774344  )
        14        Zn     tau(  14) = (   0.6250000   0.6706017   0.0774344  )
        15        Zn     tau(  15) = (   0.5877862  -0.0012505   0.3797973  )
        16        Zn     tau(  16) = (   0.5849659   0.5379376   0.3763515  )
        17        Zn     tau(  17) = (   0.6543706  -0.1333815   0.6350780  )
        18        Zn     tau(  18) = (   0.6483507   0.4047199   0.6321857  )
        19        Zn     tau(  19) = (   0.6250000   0.4023610   0.0774344  )
        20        Zn     tau(  20) = (   0.6250000   0.9388424   0.0774344  )
        21        Zn     tau(  21) = (   0.5888446   0.2677680   0.3769771  )
        22        Zn     tau(  22) = (   0.5856875   0.8026032   0.3755573  )
        23        Zn     tau(  23) = (   0.6481249   0.1361042   0.6351572  )
        24        Zn     tau(  24) = (   0.6519819   0.6700631   0.6357991  )
        25        Zn     tau(  25) = (   0.3750000  -0.0000000   0.1548688  )
        26        Zn     tau(  26) = (   0.3750000   0.5364814   0.1548688  )
        27        Zn     tau(  27) = (   0.3340431  -0.1347566   0.3877051  )
        28        Zn     tau(  28) = (   0.3342953   0.4044548   0.3890051  )
        29        Zn     tau(  29) = (   0.4076158  -0.2666679   0.6259386  )
        30        Zn     tau(  30) = (   0.3990504   0.2709387   0.6387064  )
        31        Zn     tau(  31) = (   0.3750000   0.2682407   0.1548688  )
        32        Zn     tau(  32) = (   0.3750000   0.8047221   0.1548688  )
        33        Zn     tau(  33) = (   0.3358795   0.1359648   0.3863909  )
        34        Zn     tau(  34) = (   0.3332651   0.6696435   0.3893447  )
        35        Zn     tau(  35) = (   0.4061868   0.0053192   0.6236132  )
        36        Zn     tau(  36) = (   0.4052941   0.5396083   0.6244548  )
        37        Zn     tau(  37) = (   0.8750000  -0.0000000   0.1548688  )
        38        Zn     tau(  38) = (   0.8750000   0.5364814   0.1548688  )
        39        Zn     tau(  39) = (   0.8305168  -0.1381774   0.3860919  )
        40        Zn     tau(  40) = (   0.8310875   0.4020733   0.3851022  )
        41        Zn     tau(  41) = (   0.9097519  -0.2744951   0.6247879  )
        42        Zn     tau(  42) = (   0.8952347   0.2683029   0.6329017  )
        43        Zn     tau(  43) = (   0.8750000   0.2682407   0.1548688  )
        44        Zn     tau(  44) = (   0.8750000   0.8047221   0.1548688  )
        45        Zn     tau(  45) = (   0.8306841   0.1353313   0.3898254  )
        46        Zn     tau(  46) = (   0.8304058   0.6696694   0.3893749  )
        47        Zn     tau(  47) = (   0.9016434  -0.0043467   0.6260550  )
        48        Zn     tau(  48) = (   0.9014755   0.5335083   0.6328381  )
        49        O      tau(  49) = (   0.3302038   0.2995189   0.8915598  )
        50        H      tau(  50) = (   0.2570508   0.2320883   0.8851663  )
        51        H      tau(  51) = (   0.2838897   0.3854929   0.8716935  )

     --------------------------------------------
     DFT-D3 Dispersion Correction (3-body terms):
     --------------------------------------------
       Reference C6 values for interpolation: 

         atom   Coordination number   C6
         H          0.912             6.05
         H          0.000            15.18
         O          0.000            31.01
         O          0.993            25.63
         O          1.989            20.74
         Zn         0.000           681.04
         Zn         1.942           306.91

       Values used:

         atom   Coordination number  R0_AB[au]  C6      C8
         Zn         4.573            3.053    306.91  23930.67
         Zn         4.622            3.053    306.91  23930.67
         Zn         6.890            3.053    306.91  23930.67
         Zn         7.016            3.053    306.91  23930.67
         Zn         6.009            3.053    306.91  23930.67
         Zn         6.418            3.053    306.91  23930.67
         Zn         4.647            3.053    306.91  23930.67
         Zn         4.540            3.053    306.91  23930.67
         Zn         7.091            3.053    306.91  23930.67
         Zn         6.864            3.053    306.91  23930.67
         Zn         6.294            3.053    306.91  23930.67
         Zn         6.049            3.053    306.91  23930.67
         Zn         4.356            3.053    306.91  23930.67
         Zn         4.391            3.053    306.91  23930.67
         Zn         6.849            3.053    306.91  23930.67
         Zn         6.929            3.053    306.91  23930.67
         Zn         5.938            3.053    306.91  23930.67
         Zn         6.147            3.053    306.91  23930.67
         Zn         4.374            3.053    306.91  23930.67
         Zn         4.365            3.053    306.91  23930.67
         Zn         6.731            3.053    306.91  23930.67
         Zn         6.845            3.053    306.91  23930.67
         Zn         6.082            3.053    306.91  23930.67
         Zn         6.012            3.053    306.91  23930.67
         Zn         6.093            3.053    306.91  23930.67
         Zn         6.146            3.053    306.91  23930.67
         Zn         8.212            3.053    306.91  23930.67
         Zn         8.205            3.053    306.91  23930.67
         Zn         6.382            3.053    306.91  23930.67
         Zn         5.946            3.053    306.91  23930.67
         Zn         6.114            3.053    306.91  23930.67
         Zn         6.131            3.053    306.91  23930.67
         Zn         8.118            3.053    306.91  23930.67
         Zn         8.336            3.053    306.91  23930.67
         Zn         6.331            3.053    306.91  23930.67
         Zn         6.462            3.053    306.91  23930.67
         Zn         6.158            3.053    306.91  23930.67
         Zn         6.294            3.053    306.91  23930.67
         Zn         7.982            3.053    306.91  23930.67
         Zn         7.911            3.053    306.91  23930.67
         Zn         6.193            3.053    306.91  23930.67
         Zn         6.064            3.053    306.91  23930.67
         Zn         6.274            3.053    306.91  23930.67
         Zn         6.222            3.053    306.91  23930.67
         Zn         7.933            3.053    306.91  23930.67
         Zn         8.022            3.053    306.91  23930.67
         Zn         6.140            3.053    306.91  23930.67
         Zn         6.072            3.053    306.91  23930.67
         O          2.152            2.345     20.76    419.04
         H          1.003            2.062      6.18     74.68
         H          1.006            2.062      6.18     74.65

         Molecular C6 ( Ry / a.u.^6 ) =    722461.01


   Crystallographic axes

     site n.     atom                  positions (cryst. coord.)
         1        Zn     tau(   1) = (  0.1250000  0.1666667  0.0327328  )
         2        Zn     tau(   2) = (  0.1250000  0.6666667  0.0327328  )
         3        Zn     tau(   3) = (  0.0884798  0.1946331  0.1545459  )
         4        Zn     tau(   4) = (  0.0869920  0.6938076  0.1509066  )
         5        Zn     tau(   5) = (  0.1558074  0.2085391  0.2635429  )
         6        Zn     tau(   6) = (  0.1429832  0.7025063  0.2554262  )
         7        Zn     tau(   7) = (  0.1250000  0.4166667  0.0327328  )
         8        Zn     tau(   8) = (  0.1250000  0.9166667  0.0327328  )
         9        Zn     tau(   9) = (  0.0873484  0.4432700  0.1517939  )
        10        Zn     tau(  10) = (  0.0875576  0.9450267  0.1540558  )
        11        Zn     tau(  11) = (  0.1436289  0.4519160  0.2569099  )
        12        Zn     tau(  12) = (  0.1552389  0.9582838  0.2637244  )
        13        Zn     tau(  13) = (  0.6250000  0.1666667  0.0327328  )
        14        Zn     tau(  14) = (  0.6250000  0.6666667  0.0327328  )
        15        Zn     tau(  15) = (  0.5877862  0.2031997  0.1605466  )
        16        Zn     tau(  16) = (  0.5849659  0.7038681  0.1590899  )
        17        Zn     tau(  17) = (  0.6543706  0.2174176  0.2684579  )
        18        Zn     tau(  18) = (  0.6483507  0.7173712  0.2672352  )
        19        Zn     tau(  19) = (  0.6250000  0.4166667  0.0327328  )
        20        Zn     tau(  20) = (  0.6250000  0.9166667  0.0327328  )
        21        Zn     tau(  21) = (  0.5888446  0.4524070  0.1593544  )
        22        Zn     tau(  22) = (  0.5856875  0.9501088  0.1587542  )
        23        Zn     tau(  23) = (  0.6481249  0.4686205  0.2684913  )
        24        Zn     tau(  24) = (  0.6519819  0.9666151  0.2687627  )
        25        Zn     tau(  25) = (  0.3750000  0.0833333  0.0654656  )
        26        Zn     tau(  26) = (  0.3750000  0.5833333  0.0654656  )
        27        Zn     tau(  27) = (  0.3340431  0.0830272  0.1638893  )
        28        Zn     tau(  28) = (  0.3342953  0.5862711  0.1644388  )
        29        Zn     tau(  29) = (  0.4076158  0.0882770  0.2645945  )
        30        Zn     tau(  30) = (  0.3990504  0.5961959  0.2699917  )
        31        Zn     tau(  31) = (  0.3750000  0.3333333  0.0654656  )
        32        Zn     tau(  32) = (  0.3750000  0.8333334  0.0654656  )
        33        Zn     tau(  33) = (  0.3358795  0.3346321  0.1633338  )
        34        Zn     tau(  34) = (  0.3332651  0.8336094  0.1645824  )
        35        Zn     tau(  35) = (  0.4061868  0.3405174  0.2636115  )
        36        Zn     tau(  36) = (  0.4052941  0.8389271  0.2639673  )
        37        Zn     tau(  37) = (  0.8750000  0.0833333  0.0654656  )
        38        Zn     tau(  38) = (  0.8750000  0.5833333  0.0654656  )
        39        Zn     tau(  39) = (  0.8305168  0.0789709  0.1632074  )
        40        Zn     tau(  40) = (  0.8310875  0.5819515  0.1627890  )
        41        Zn     tau(  41) = (  0.9097519  0.0803628  0.2641081  )
        42        Zn     tau(  42) = (  0.8952347  0.5906159  0.2675379  )
        43        Zn     tau(  43) = (  0.8750000  0.3333333  0.0654656  )
        44        Zn     tau(  44) = (  0.8750000  0.8333334  0.0654656  )
        45        Zn     tau(  45) = (  0.8306841  0.3358896  0.1647856  )
        46        Zn     tau(  46) = (  0.8304058  0.8336498  0.1645952  )
        47        Zn     tau(  47) = (  0.9016434  0.3328227  0.2646437  )
        48        Zn     tau(  48) = (  0.9014755  0.8377528  0.2675110  )
        49        O      tau(  49) = (  0.3302038  0.7588906  0.3768770  )
        50        H      tau(  50) = (  0.2570508  0.6926050  0.3741743  )
        51        H      tau(  51) = (  0.2838897  0.8283283  0.3684791  )

     number of k points=     5  Marzari-Vanderbilt smearing, width (Ry)=  0.0200
                       cart. coord. in units 2pi/alat
        k(    1) = (   0.0000000   0.0000000   0.0000000), wk =   0.2222222
        k(    2) = (   0.0000000   0.3106663   0.1793633), wk =   0.4444444
        k(    3) = (   0.3333333   0.0000000   0.0000000), wk =   0.4444444
        k(    4) = (   0.3333333   0.3106663   0.1793633), wk =   0.4444444
        k(    5) = (   0.3333333  -0.3106663  -0.1793633), wk =   0.4444444

                       cryst. coord.
        k(    1) = (   0.0000000   0.0000000   0.0000000), wk =   0.2222222
        k(    2) = (   0.0000000   0.3333333  -0.0000000), wk =   0.4444444
        k(    3) = (   0.3333333   0.0000000   0.0000000), wk =   0.4444444
        k(    4) = (   0.3333333   0.3333333  -0.0000000), wk =   0.4444444
        k(    5) = (   0.3333333  -0.3333333   0.0000000), wk =   0.4444444

     Dense  grid:  1254623 G-vectors     FFT dimensions: ( 100, 108, 270)

     Smooth grid:   542067 G-vectors     FFT dimensions: (  75,  80, 216)

     Dynamical RAM for                 wfc:      18.19 MB

     Dynamical RAM for     wfc (w. buffer):     109.15 MB

     Dynamical RAM for           str. fact:       1.74 MB

     Dynamical RAM for           local pot:       0.00 MB

     Dynamical RAM for          nlocal pot:      27.43 MB

     Dynamical RAM for                qrad:       4.03 MB

     Dynamical RAM for          rho,v,vnew:       3.97 MB

     Dynamical RAM for               rhoin:       1.32 MB

     Dynamical RAM for            rho*nmix:       9.28 MB

     Dynamical RAM for           G-vectors:       2.30 MB

     Dynamical RAM for          h,s,v(r/c):       2.46 MB

     Dynamical RAM for          <psi|beta>:       7.77 MB

     Dynamical RAM for                 psi:      36.38 MB

     Dynamical RAM for                hpsi:      36.38 MB

     Dynamical RAM for                spsi:      36.38 MB

     Dynamical RAM for      wfcinit/wfcrot:      48.54 MB

     Dynamical RAM for           addusdens:     135.76 MB

     Dynamical RAM for          addusforce:     190.77 MB

     Dynamical RAM for         addusstress:     116.61 MB

     Estimated static dynamical RAM per process >     155.97 MB

     Estimated max dynamical RAM per process >     356.02 MB

     Estimated total dynamical RAM >      11.47 GB

     Initial potential from superposition of free atoms

     starting charge     967.9932, renormalised to     968.0000

     negative rho (up, down):  3.850E-03 0.000E+00
     Starting wfcs are  630 randomized atomic wfcs
[psid04:197832] 32 more processes have sent help message help-mpi-btl-openib.txt / ib port not selected
[psid04:197832] Set MCA parameter "orte_base_help_aggregate" to 0 to see all help / error messages
[psid04:197832] 32 more processes have sent help message help-mpi-btl-openib.txt / error in device init
     Checking if some PAW data can be deallocated... 
       PAW data deallocated on   32 nodes for type:  2

     total cpu time spent up to now is      171.9 secs

     Self-consistent Calculation

     iteration #  1     ecut=    40.00 Ry     beta= 0.40
     Davidson diagonalization with overlap

---- Real-time Memory Report at c_bands before calling an iterative solver
           229 MiB given to the printing process from OS
             0 MiB allocation reported by mallinfo(arena+hblkhd)
         28485 MiB available memory on the node where the printing process lives
------------------
     ethr =  1.00E-02,  avg # of iterations =  8.2

     Threshold (ethr) on eigenvalues was too large:
     Diagonalizing with lowered threshold

     Davidson diagonalization with overlap

---- Real-time Memory Report at c_bands before calling an iterative solver
           326 MiB given to the printing process from OS
             0 MiB allocation reported by mallinfo(arena+hblkhd)
         27295 MiB available memory on the node where the printing process lives
------------------
     ethr =  1.72E-04,  avg # of iterations =  7.0

     negative rho (up, down):  4.686E-03 0.000E+00

     total cpu time spent up to now is     1456.5 secs

     total energy              =  -22198.38843577 Ry
     estimated scf accuracy    <       1.69780407 Ry

     iteration #  2     ecut=    40.00 Ry     beta= 0.40
     Davidson diagonalization with overlap

---- Real-time Memory Report at c_bands before calling an iterative solver
           343 MiB given to the printing process from OS
             0 MiB allocation reported by mallinfo(arena+hblkhd)
         27142 MiB available memory on the node where the printing process lives
------------------
     ethr =  1.75E-04,  avg # of iterations =  5.4

     negative rho (up, down):  5.185E-03 0.000E+00

     total cpu time spent up to now is     2143.9 secs

     total energy              =  -22198.75326744 Ry
     estimated scf accuracy    <       0.35487271 Ry

     iteration #  3     ecut=    40.00 Ry     beta= 0.40
     Davidson diagonalization with overlap

---- Real-time Memory Report at c_bands before calling an iterative solver
           348 MiB given to the printing process from OS
             0 MiB allocation reported by mallinfo(arena+hblkhd)
         27104 MiB available memory on the node where the printing process lives
------------------
     ethr =  3.67E-05,  avg # of iterations = 14.0

     negative rho (up, down):  5.728E-03 0.000E+00

     total cpu time spent up to now is     2775.9 secs

     total energy              =  -22198.71307930 Ry
     estimated scf accuracy    <       1.15579825 Ry

     iteration #  4     ecut=    40.00 Ry     beta= 0.40
     Davidson diagonalization with overlap

---- Real-time Memory Report at c_bands before calling an iterative solver
           349 MiB given to the printing process from OS
             0 MiB allocation reported by mallinfo(arena+hblkhd)
         27075 MiB available memory on the node where the printing process lives
------------------
     ethr =  3.67E-05,  avg # of iterations =  6.4

     negative rho (up, down):  5.597E-03 0.000E+00

     total cpu time spent up to now is     3375.6 secs

     total energy              =  -22198.79745315 Ry
     estimated scf accuracy    <       0.14127895 Ry

     iteration #  5     ecut=    40.00 Ry     beta= 0.40
     Davidson diagonalization with overlap

---- Real-time Memory Report at c_bands before calling an iterative solver
           349 MiB given to the printing process from OS
             0 MiB allocation reported by mallinfo(arena+hblkhd)
         27045 MiB available memory on the node where the printing process lives
------------------
     c_bands:  1 eigenvalues not converged
     ethr =  1.46E-05,  avg # of iterations = 15.4

     negative rho (up, down):  5.683E-03 0.000E+00

     total cpu time spent up to now is     3986.5 secs

     total energy              =  -22198.80075623 Ry
     estimated scf accuracy    <       0.05264021 Ry

     iteration #  6     ecut=    40.00 Ry     beta= 0.40
     Davidson diagonalization with overlap

---- Real-time Memory Report at c_bands before calling an iterative solver
           350 MiB given to the printing process from OS
             0 MiB allocation reported by mallinfo(arena+hblkhd)
         27011 MiB available memory on the node where the printing process lives
------------------
     ethr =  5.44E-06,  avg # of iterations =  7.6

     negative rho (up, down):  5.731E-03 0.000E+00

     total cpu time spent up to now is     4580.9 secs

     total energy              =  -22198.80709271 Ry
     estimated scf accuracy    <       0.00258991 Ry

     iteration #  7     ecut=    40.00 Ry     beta= 0.40
     Davidson diagonalization with overlap

---- Real-time Memory Report at c_bands before calling an iterative solver
           351 MiB given to the printing process from OS
             0 MiB allocation reported by mallinfo(arena+hblkhd)
         26979 MiB available memory on the node where the printing process lives
------------------
     c_bands:  1 eigenvalues not converged
     ethr =  2.68E-07,  avg # of iterations =  8.0

     negative rho (up, down):  5.761E-03 0.000E+00

     total cpu time spent up to now is     5159.1 secs

     total energy              =  -22198.80746445 Ry
     estimated scf accuracy    <       0.00159040 Ry

     iteration #  8     ecut=    40.00 Ry     beta= 0.40
     Davidson diagonalization with overlap

---- Real-time Memory Report at c_bands before calling an iterative solver
           351 MiB given to the printing process from OS
             0 MiB allocation reported by mallinfo(arena+hblkhd)
         26948 MiB available memory on the node where the printing process lives
------------------
     ethr =  1.64E-07,  avg # of iterations =  2.2

     negative rho (up, down):  5.778E-03 0.000E+00

     total cpu time spent up to now is     5716.5 secs

     total energy              =  -22198.80767108 Ry
     estimated scf accuracy    <       0.00014171 Ry

     iteration #  9     ecut=    40.00 Ry     beta= 0.40
     Davidson diagonalization with overlap

---- Real-time Memory Report at c_bands before calling an iterative solver
           352 MiB given to the printing process from OS
             0 MiB allocation reported by mallinfo(arena+hblkhd)
         26915 MiB available memory on the node where the printing process lives
------------------
     ethr =  1.46E-08,  avg # of iterations =  2.0

     negative rho (up, down):  5.787E-03 0.000E+00

     total cpu time spent up to now is     6280.0 secs

     total energy              =  -22198.80769371 Ry
     estimated scf accuracy    <       0.00002674 Ry

     iteration # 10     ecut=    40.00 Ry     beta= 0.40
     Davidson diagonalization with overlap

---- Real-time Memory Report at c_bands before calling an iterative solver
           353 MiB given to the printing process from OS
             0 MiB allocation reported by mallinfo(arena+hblkhd)
         26883 MiB available memory on the node where the printing process lives
------------------
     ethr =  2.76E-09,  avg # of iterations =  2.0

     negative rho (up, down):  5.792E-03 0.000E+00

     total cpu time spent up to now is     6847.6 secs

     total energy              =  -22198.80769918 Ry
     estimated scf accuracy    <       0.00000789 Ry

     iteration # 11     ecut=    40.00 Ry     beta= 0.40
     Davidson diagonalization with overlap

---- Real-time Memory Report at c_bands before calling an iterative solver
           353 MiB given to the printing process from OS
             0 MiB allocation reported by mallinfo(arena+hblkhd)
         26877 MiB available memory on the node where the printing process lives
------------------
     ethr =  8.15E-10,  avg # of iterations =  2.0

     negative rho (up, down):  5.796E-03 0.000E+00

     total cpu time spent up to now is     7420.7 secs

     total energy              =  -22198.80770006 Ry
     estimated scf accuracy    <       0.00000244 Ry

     iteration # 12     ecut=    40.00 Ry     beta= 0.40
     Davidson diagonalization with overlap

---- Real-time Memory Report at c_bands before calling an iterative solver
           353 MiB given to the printing process from OS
             0 MiB allocation reported by mallinfo(arena+hblkhd)
         26879 MiB available memory on the node where the printing process lives
------------------
     ethr =  2.53E-10,  avg # of iterations =  2.0

     negative rho (up, down):  5.803E-03 0.000E+00

     total cpu time spent up to now is     7981.1 secs

     End of self-consistent calculation

          k = 0.0000 0.0000 0.0000 ( 67685 PWs)   bands (ev):

  -125.1326-125.1101-125.1060-125.0928-125.0906-125.0823-125.0768-125.0634
  -124.9708-124.9662-124.9588-124.9576-124.9563-124.9546-124.9503-124.9489
  -124.9412-124.9381-124.9233-124.9188-124.9138-124.9126-124.9010-124.8966
  -124.8787-124.8729-124.8710-124.8707-124.8683-124.8678-124.8646-124.8646
  -124.8629-124.8609-124.8594-124.8572-124.8555-124.8553-124.8461-124.8457
  -124.7233-124.7184-124.7179-124.7159-124.7145-124.7142-124.7131-124.7113
   -79.2878 -79.2855 -79.2782 -79.2635 -79.2617 -79.2597 -79.2577 -79.2569
   -79.2524 -79.2481 -79.2474 -79.2444 -79.2402 -79.2393 -79.2369 -79.2365
   -79.2317 -79.2306 -79.2279 -79.2273 -79.2231 -79.2175 -79.2117 -79.2091
   -79.1273 -79.1250 -79.1235 -79.1226 -79.1216 -79.1204 -79.1149 -79.1134
   -79.1127 -79.1120 -79.1109 -79.1099 -79.1096 -79.1091 -79.1087 -79.1073
   -79.1062 -79.1052 -79.1033 -79.1011 -79.1011 -79.1009 -79.1008 -79.0984
   -79.0961 -79.0945 -79.0878 -79.0871 -79.0858 -79.0824 -79.0822 -79.0814
   -79.0754 -79.0744 -79.0725 -79.0714 -79.0678 -79.0653 -79.0652 -79.0631
   -79.0617 -79.0597 -79.0595 -79.0548 -79.0500 -79.0462 -79.0432 -79.0394
   -79.0392 -79.0335 -79.0314 -79.0306 -79.0284 -79.0277 -79.0276 -79.0274
   -79.0258 -79.0245 -79.0241 -79.0238 -79.0232 -79.0223 -79.0220 -79.0219
   -79.0216 -79.0215 -79.0211 -79.0195 -79.0184 -79.0180 -79.0168 -79.0152
   -79.0148 -79.0147 -79.0145 -79.0133 -79.0127 -79.0121 -79.0111 -79.0095
   -79.0094 -79.0088 -79.0086 -79.0074 -79.0071 -79.0062 -79.0040 -79.0033
   -79.0027 -79.0025 -78.9988 -78.9961 -78.9944 -78.9931 -78.9921 -78.9869
   -78.8968 -78.8922 -78.8914 -78.8913 -78.8894 -78.8885 -78.8884 -78.8863
   -78.8734 -78.8717 -78.8686 -78.8673 -78.8660 -78.8633 -78.8632 -78.8620
   -78.8605 -78.8600 -78.8599 -78.8586 -78.8561 -78.8560 -78.8472 -78.8436
   -20.5585  -8.2365  -8.1339  -7.0998  -6.9427  -6.8738  -6.8625  -6.8043
    -6.7587  -6.7220  -6.6961  -6.6453  -6.6391  -6.6259  -6.6064  -6.5714
    -6.5662  -6.5375  -6.5024  -6.4943  -6.4843  -6.4789  -6.4775  -6.4743
    -6.4683  -6.4508  -6.4482  -6.4222  -6.4176  -6.4137  -6.4041  -6.3991
    -6.3959  -6.3693  -6.3545  -6.3537  -6.3488  -6.3411  -6.3330  -6.3268
    -6.3218  -6.3184  -6.3109  -6.2971  -6.2839  -6.2737  -6.2694  -6.2579
    -6.2483  -6.2328  -6.2283  -6.2224  -6.2195  -6.2098  -6.2056  -6.2026
    -6.1926  -6.1878  -6.1822  -6.1769  -6.1742  -6.1612  -6.1539  -6.1472
    -6.1446  -6.1418  -6.1378  -6.1363  -6.1226  -6.1145  -6.1101  -6.1038
    -6.0990  -6.0831  -6.0749  -6.0633  -6.0605  -6.0559  -6.0409  -6.0385
    -6.0374  -6.0339  -6.0308  -6.0244  -6.0208  -6.0166  -6.0096  -6.0090
    -5.9996  -5.9895  -5.9870  -5.9798  -5.9626  -5.9600  -5.9542  -5.9361
    -5.9281  -5.9264  -5.9207  -5.9164  -5.9151  -5.9099  -5.9092  -5.8999
    -5.8966  -5.8928  -5.8889  -5.8869  -5.8823  -5.8702  -5.8694  -5.8649
    -5.8577  -5.8526  -5.8481  -5.8461  -5.8430  -5.8393  -5.8309  -5.8299
    -5.8272  -5.8264  -5.8184  -5.8147  -5.8106  -5.8081  -5.7957  -5.7951
    -5.7912  -5.7901  -5.7793  -5.7774  -5.7722  -5.7666  -5.7644  -5.7604
    -5.7568  -5.7513  -5.7487  -5.7454  -5.7444  -5.7396  -5.7337  -5.7146
    -5.7127  -5.7034  -5.7011  -5.6988  -5.6968  -5.6868  -5.6791  -5.6728
    -5.6690  -5.6660  -5.6577  -5.6531  -5.6492  -5.6438  -5.6429  -5.6380
    -5.6368  -5.6340  -5.6203  -5.6189  -5.6115  -5.6091  -5.5936  -5.5932
    -5.5919  -5.5887  -5.5856  -5.5823  -5.5812  -5.5779  -5.5742  -5.5714
    -5.5682  -5.5643  -5.5631  -5.5600  -5.5577  -5.5520  -5.5493  -5.5422
    -5.5409  -5.5365  -5.5343  -5.5338  -5.5314  -5.5291  -5.5280  -5.5215
    -5.5211  -5.5178  -5.5147  -5.5133  -5.5104  -5.5012  -5.4996  -5.4982
    -5.4961  -5.4920  -5.4901  -5.4805  -5.4787  -5.4770  -5.4760  -5.4721
    -5.4668  -5.4612  -5.4484  -5.4464  -5.4404  -5.4387  -5.4336  -5.4273
    -5.4262  -5.4230  -5.4215  -5.4197  -5.4133  -5.4102  -5.4085  -5.4041
    -5.4027  -5.3870  -5.3840  -5.3831  -5.3803  -5.3790  -5.3762  -5.3714
    -5.3615  -5.3476  -5.3270  -5.3189  -5.3146  -5.3021  -5.2999  -5.2822
    -5.2761  -5.2420  -5.2188  -5.2155  -5.2080  -5.2026  -5.1886  -5.1129
    -4.6702  -4.5215  -4.5048  -4.4677  -4.4613  -4.3224  -4.2681  -4.2496
    -4.2089  -3.4866  -3.1223  -2.9805  -2.8712  -2.8576  -2.6890  -2.2693
    -2.1881  -2.1169  -1.8151  -1.7910  -1.7477  -1.2416  -0.9196  -0.9071
    -0.8308  -0.7948  -0.5699  -0.5376  -0.4706  -0.4437  -0.3055  -0.1751
    -0.0943   0.0441   0.2552   0.2700   0.3768   0.4662   0.6829   0.6963
     0.7058   0.9601   0.9962   1.1088   1.2472   1.3363   1.5821   1.9002
     2.0352   2.0822   2.2772   2.2867   2.4018   2.4203   2.4733   2.6282
     2.7552   2.7747   2.9107   3.0005   3.3466   3.3681   3.3816   3.8087
     3.8283   3.9441   3.9790   4.0651   4.1695   4.1962   4.2274   4.5161
     4.5556   4.5982   4.6640   4.9171   5.0170   5.0903   5.1238   5.2714
     5.3204   5.3373   5.3963   5.4364   5.4583   5.4598   5.8603   5.9644
     6.1232   6.1728   6.1827   6.2532   6.2750   6.3852   6.4129   6.5076
     6.5326   6.5576   6.5991   6.6374   6.6643   6.7067   6.7341   6.8262
     6.8531   6.8903   6.9188   6.9384   7.0132   7.0334   7.1716   7.1763
     7.2205   7.2457   7.2820   7.3149   7.3852   7.5111   7.5373   7.5762
     7.6070   7.6491   7.6926   7.7301   7.7675   7.7780   7.8016   7.9403
     8.0237   8.0681   8.0840   8.1243   8.1368   8.1600   8.1701   8.1874
     8.2979   8.3990   8.4352   8.4667   8.5011

     occupation numbers 
     1.0000   1.0000   1.0000   1.0000   1.0000   1.0000   1.0000   1.0000
     1.0000   1.0000   1.0000   1.0000   1.0000   1.0000   1.0000   1.0000
     1.0000   1.0000   1.0000   1.0000   1.0000   1.0000   1.0000   1.0000
     1.0000   1.0000   1.0000   1.0000   1.0000   1.0000   1.0000   1.0000
     1.0000   1.0000   1.0000   1.0000   1.0000   1.0000   1.0000   1.0000
     1.0000   1.0000   1.0000   1.0000   1.0000   1.0000   1.0000   1.0000
     1.0000   1.0000   1.0000   1.0000   1.0000   1.0000   1.0000   1.0000
     1.0000   1.0000   1.0000   1.0000   1.0000   1.0000   1.0000   1.0000
     1.0000   1.0000   1.0000   1.0000   1.0000   1.0000   1.0000   1.0000
     1.0000   1.0000   1.0000   1.0000   1.0000   1.0000   1.0000   1.0000
     1.0000   1.0000   1.0000   1.0000   1.0000   1.0000   1.0000   1.0000
     1.0000   1.0000   1.0000   1.0000   1.0000   1.0000   1.0000   1.0000
     1.0000   1.0000   1.0000   1.0000   1.0000   1.0000   1.0000   1.0000
     1.0000   1.0000   1.0000   1.0000   1.0000   1.0000   1.0000   1.0000
     1.0000   1.0000   1.0000   1.0000   1.0000   1.0000   1.0000   1.0000
     1.0000   1.0000   1.0000   1.0000   1.0000   1.0000   1.0000   1.0000
     1.0000   1.0000   1.0000   1.0000   1.0000   1.0000   1.0000   1.0000
     1.0000   1.0000   1.0000   1.0000   1.0000   1.0000   1.0000   1.0000
     1.0000   1.0000   1.0000   1.0000   1.0000   1.0000   1.0000   1.0000
     1.0000   1.0000   1.0000   1.0000   1.0000   1.0000   1.0000   1.0000
     1.0000   1.0000   1.0000   1.0000   1.0000   1.0000   1.0000   1.0000
     1.0000   1.0000   1.0000   1.0000   1.0000   1.0000   1.0000   1.0000
     1.0000   1.0000   1.0000   1.0000   1.0000   1.0000   1.0000   1.0000
     1.0000   1.0000   1.0000   1.0000   1.0000   1.0000   1.0000   1.0000
     1.0000   1.0000   1.0000   1.0000   1.0000   1.0000   1.0000   1.0000
     1.0000   1.0000   1.0000   1.0000   1.0000   1.0000   1.0000   1.0000
     1.0000   1.0000   1.0000   1.0000   1.0000   1.0000   1.0000   1.0000
     1.0000   1.0000   1.0000   1.0000   1.0000   1.0000   1.0000   1.0000
     1.0000   1.0000   1.0000   1.0000   1.0000   1.0000   1.0000   1.0000
     1.0000   1.0000   1.0000   1.0000   1.0000   1.0000   1.0000   1.0000
     1.0000   1.0000   1.0000   1.0000   1.0000   1.0000   1.0000   1.0000
     1.0000   1.0000   1.0000   1.0000   1.0000   1.0000   1.0000   1.0000
     1.0000   1.0000   1.0000   1.0000   1.0000   1.0000   1.0000   1.0000
     1.0000   1.0000   1.0000   1.0000   1.0000   1.0000   1.0000   1.0000
     1.0000   1.0000   1.0000   1.0000   1.0000   1.0000   1.0000   1.0000
     1.0000   1.0000   1.0000   1.0000   1.0000   1.0000   1.0000   1.0000
     1.0000   1.0000   1.0000   1.0000   1.0000   1.0000   1.0000   1.0000
     1.0000   1.0000   1.0000   1.0000   1.0000   1.0000   1.0000   1.0000
     1.0000   1.0000   1.0000   1.0000   1.0000   1.0000   1.0000   1.0000
     1.0000   1.0000   1.0000   1.0000   1.0000   1.0000   1.0000   1.0000
     1.0000   1.0000   1.0000   1.0000   1.0000   1.0000   1.0000   1.0000
     1.0000   1.0000   1.0000   1.0000   1.0000   1.0000   1.0000   1.0000
     1.0000   1.0000   1.0000   1.0000   1.0000   1.0000   1.0000   1.0000
     1.0000   1.0000   1.0000   1.0000   1.0000   1.0000   1.0000   1.0000
     1.0000   1.0000   1.0000   1.0000   1.0000   1.0000   1.0000   1.0000
     1.0000   1.0000   1.0000   1.0000   1.0000   1.0000   1.0000   1.0000
     1.0000   1.0000   1.0000   1.0000   1.0000   1.0000   1.0000   1.0000
     1.0000   1.0000   1.0000   1.0000   1.0000   1.0000   1.0000   1.0000
     1.0000   1.0000   1.0000   1.0000   1.0000   1.0000   1.0000   1.0000
     1.0000   1.0000   1.0000   1.0000   1.0000   1.0000   1.0000   1.0000
     1.0000   1.0000   1.0000   1.0000   1.0000   1.0000   1.0000   1.0000
     1.0000   1.0000   1.0000   1.0000   1.0000   1.0000   1.0000   1.0000
     1.0000   1.0000   1.0000   1.0000   1.0000   1.0000   1.0000   1.0000
     1.0000   1.0000   1.0000   1.0000   1.0000   1.0000   1.0000   1.0000
     1.0000   1.0000   1.0000   1.0000   1.0000   1.0000   1.0000   1.0000
     1.0000   1.0000   1.0000   1.0000   1.0000   1.0000   1.0000   1.0000
     1.0000   1.0000   1.0000   1.0000   1.0000   1.0000   1.0000   1.0000
     1.0000   1.0000   1.0000   1.0000   1.0000   1.0000   1.0000   1.0000
     1.0000   1.0000   1.0000   1.0000   1.0000   1.0000   1.0000   1.0000
     1.0000   1.0000   1.0000   1.0000   1.0001   1.0005   1.0127   1.0149
     1.0166   1.0833   1.0789   0.9809   0.6688   0.4263   0.0466   0.0003
     0.0000   0.0000   0.0000   0.0000   0.0000   0.0000   0.0000   0.0000
     0.0000   0.0000   0.0000   0.0000   0.0000   0.0000   0.0000   0.0000
     0.0000   0.0000   0.0000   0.0000   0.0000   0.0000   0.0000   0.0000
     0.0000   0.0000   0.0000   0.0000   0.0000   0.0000   0.0000   0.0000
     0.0000   0.0000   0.0000   0.0000   0.0000   0.0000   0.0000   0.0000
     0.0000   0.0000   0.0000   0.0000   0.0000   0.0000   0.0000   0.0000
     0.0000   0.0000   0.0000   0.0000   0.0000   0.0000   0.0000   0.0000
     0.0000   0.0000   0.0000   0.0000   0.0000   0.0000   0.0000   0.0000
     0.0000   0.0000   0.0000   0.0000   0.0000   0.0000   0.0000   0.0000
     0.0000   0.0000   0.0000   0.0000   0.0000   0.0000   0.0000   0.0000
     0.0000   0.0000   0.0000   0.0000   0.0000   0.0000   0.0000   0.0000
     0.0000   0.0000   0.0000   0.0000   0.0000

          k = 0.0000 0.3107 0.1794 ( 67822 PWs)   bands (ev):

  -125.1326-125.1101-125.1060-125.0928-125.0906-125.0823-125.0768-125.0634
  -124.9708-124.9662-124.9588-124.9576-124.9563-124.9546-124.9503-124.9489
  -124.9412-124.9381-124.9233-124.9188-124.9138-124.9126-124.9010-124.8966
  -124.8787-124.8729-124.8710-124.8707-124.8683-124.8678-124.8646-124.8646
  -124.8629-124.8609-124.8594-124.8572-124.8555-124.8553-124.8461-124.8457
  -124.7233-124.7184-124.7179-124.7159-124.7145-124.7142-124.7131-124.7113
   -79.2877 -79.2855 -79.2782 -79.2639 -79.2626 -79.2597 -79.2569 -79.2562
   -79.2524 -79.2477 -79.2474 -79.2444 -79.2404 -79.2394 -79.2369 -79.2365
   -79.2331 -79.2314 -79.2279 -79.2252 -79.2230 -79.2175 -79.2117 -79.2094
   -79.1273 -79.1250 -79.1231 -79.1226 -79.1216 -79.1203 -79.1149 -79.1134
   -79.1120 -79.1120 -79.1109 -79.1105 -79.1098 -79.1095 -79.1088 -79.1073
   -79.1062 -79.1052 -79.1038 -79.1033 -79.1011 -79.1011 -79.0993 -79.0984
   -79.0945 -79.0935 -79.0883 -79.0873 -79.0858 -79.0828 -79.0824 -79.0814
   -79.0750 -79.0744 -79.0725 -79.0712 -79.0678 -79.0655 -79.0652 -79.0632
   -79.0622 -79.0603 -79.0595 -79.0548 -79.0486 -79.0462 -79.0432 -79.0400
   -79.0392 -79.0335 -79.0314 -79.0306 -79.0284 -79.0277 -79.0274 -79.0267
   -79.0258 -79.0249 -79.0244 -79.0237 -79.0232 -79.0222 -79.0218 -79.0216
   -79.0214 -79.0212 -79.0197 -79.0193 -79.0190 -79.0184 -79.0180 -79.0168
   -79.0152 -79.0148 -79.0147 -79.0146 -79.0133 -79.0121 -79.0098 -79.0095
   -79.0095 -79.0090 -79.0088 -79.0080 -79.0074 -79.0040 -79.0027 -79.0025
   -79.0021 -79.0013 -78.9995 -78.9976 -78.9944 -78.9931 -78.9921 -78.9872
   -78.8968 -78.8922 -78.8914 -78.8913 -78.8894 -78.8885 -78.8884 -78.8864
   -78.8722 -78.8717 -78.8673 -78.8670 -78.8660 -78.8657 -78.8633 -78.8632
   -78.8622 -78.8619 -78.8600 -78.8586 -78.8547 -78.8501 -78.8484 -78.8451
   -20.5585  -8.2367  -7.9755  -7.5152  -6.9716  -6.8387  -6.7262  -6.6942
    -6.6559  -6.6451  -6.6181  -6.6142  -6.6068  -6.6008  -6.5921  -6.5735
    -6.5462  -6.5452  -6.5404  -6.5379  -6.5219  -6.4915  -6.4798  -6.4672
    -6.4588  -6.4552  -6.4490  -6.4419  -6.4411  -6.4316  -6.4302  -6.4262
    -6.4170  -6.4023  -6.3887  -6.3844  -6.3732  -6.3454  -6.3389  -6.3362
    -6.3248  -6.3157  -6.3148  -6.3060  -6.3009  -6.2962  -6.2792  -6.2586
    -6.2549  -6.2471  -6.2386  -6.2274  -6.2143  -6.2065  -6.2034  -6.1998
    -6.1910  -6.1852  -6.1784  -6.1751  -6.1722  -6.1670  -6.1631  -6.1505
    -6.1381  -6.1349  -6.1327  -6.1281  -6.1212  -6.1188  -6.1132  -6.1047
    -6.1017  -6.0970  -6.0880  -6.0829  -6.0756  -6.0711  -6.0585  -6.0563
    -6.0536  -6.0505  -6.0474  -6.0453  -6.0379  -6.0296  -6.0231  -6.0159
    -6.0079  -6.0024  -5.9968  -5.9926  -5.9891  -5.9842  -5.9810  -5.9761
    -5.9699  -5.9667  -5.9591  -5.9546  -5.9485  -5.9441  -5.9306  -5.9197
    -5.9152  -5.9130  -5.9058  -5.9024  -5.9018  -5.8979  -5.8875  -5.8817
    -5.8811  -5.8712  -5.8690  -5.8646  -5.8623  -5.8531  -5.8460  -5.8390
    -5.8350  -5.8328  -5.8279  -5.8242  -5.8218  -5.8184  -5.8162  -5.8067
    -5.8041  -5.7975  -5.7894  -5.7852  -5.7818  -5.7752  -5.7592  -5.7530
    -5.7402  -5.7346  -5.7302  -5.7279  -5.7187  -5.7122  -5.7105  -5.7058
    -5.7007  -5.6953  -5.6851  -5.6784  -5.6705  -5.6664  -5.6638  -5.6544
    -5.6510  -5.6393  -5.6349  -5.6304  -5.6282  -5.6215  -5.6192  -5.6148
    -5.6116  -5.6107  -5.5984  -5.5961  -5.5942  -5.5902  -5.5876  -5.5855
    -5.5824  -5.5776  -5.5724  -5.5671  -5.5640  -5.5606  -5.5590  -5.5553
    -5.5469  -5.5427  -5.5407  -5.5382  -5.5342  -5.5323  -5.5293  -5.5273
    -5.5252  -5.5188  -5.5170  -5.5154  -5.5125  -5.5092  -5.5067  -5.5037
    -5.5011  -5.4974  -5.4957  -5.4936  -5.4918  -5.4889  -5.4864  -5.4820
    -5.4791  -5.4762  -5.4709  -5.4664  -5.4612  -5.4550  -5.4491  -5.4474
    -5.4464  -5.4455  -5.4396  -5.4388  -5.4359  -5.4325  -5.4297  -5.4257
    -5.4247  -5.4174  -5.4130  -5.4089  -5.4050  -5.4012  -5.3940  -5.3917
    -5.3892  -5.3842  -5.3789  -5.3728  -5.3688  -5.3612  -5.3578  -5.3539
    -5.3522  -5.3463  -5.3307  -5.3282  -5.3259  -5.3078  -5.2728  -5.2685
    -5.2614  -5.2587  -5.2469  -5.2447  -5.2386  -5.2272  -5.1705  -5.0245
    -4.9887  -4.8920  -4.8588  -4.6424  -4.1659  -4.0594  -3.7352  -3.6079
    -3.5918  -3.5369  -3.4804  -3.3504  -3.2471  -3.0105  -2.6321  -2.2132
    -2.0313  -2.0065  -1.9159  -1.8472  -1.7960  -1.6876  -1.5950  -1.2932
    -1.2059  -1.0277  -0.6593  -0.6116  -0.4798  -0.4414  -0.3929  -0.1737
     0.0427   0.0724   0.1495   0.3239   0.4756   0.5835   1.0769   1.1250
     1.1598   1.2204   1.2524   1.4174   1.5280   1.6757   1.7887   1.8829
     1.9342   2.0476   2.1187   2.4117   2.5773   2.6231   2.6773   2.6870
     2.7956   3.0956   3.1334   3.3120   3.3591   3.4928   3.5325   3.5935
     3.6452   3.7454   3.8508   3.9185   4.0903   4.1372   4.1412   4.3235
     4.4544   4.5707   4.6211   4.6645   4.7294   4.9237   4.9777   5.0490
     5.2134   5.2888   5.3593   5.3775   5.4769   5.4950   5.5661   5.6336
     5.6863   5.7351   5.8390   5.8956   5.9690   6.0803   6.1195   6.1722
     6.3019   6.3900   6.4083   6.4580   6.4895   6.5919   6.7960   6.8250
     6.9399   6.9563   6.9971   7.0673   7.0773   7.1173   7.1585   7.1674
     7.1851   7.2244   7.2687   7.2867   7.3137   7.3328   7.4478   7.4852
     7.5480   7.6256   7.7153   7.7629   7.8047   7.8771   7.9420   7.9624
     8.0251   8.1068   8.1879   8.2376   8.2651   8.2817   8.3131   8.3990
     8.4428   8.5181   8.5380   8.5893   8.6123

     occupation numbers 
     1.0000   1.0000   1.0000   1.0000   1.0000   1.0000   1.0000   1.0000
     1.0000   1.0000   1.0000   1.0000   1.0000   1.0000   1.0000   1.0000
     1.0000   1.0000   1.0000   1.0000   1.0000   1.0000   1.0000   1.0000
     1.0000   1.0000   1.0000   1.0000   1.0000   1.0000   1.0000   1.0000
     1.0000   1.0000   1.0000   1.0000   1.0000   1.0000   1.0000   1.0000
     1.0000   1.0000   1.0000   1.0000   1.0000   1.0000   1.0000   1.0000
     1.0000   1.0000   1.0000   1.0000   1.0000   1.0000   1.0000   1.0000
     1.0000   1.0000   1.0000   1.0000   1.0000   1.0000   1.0000   1.0000
     1.0000   1.0000   1.0000   1.0000   1.0000   1.0000   1.0000   1.0000
     1.0000   1.0000   1.0000   1.0000   1.0000   1.0000   1.0000   1.0000
     1.0000   1.0000   1.0000   1.0000   1.0000   1.0000   1.0000   1.0000
     1.0000   1.0000   1.0000   1.0000   1.0000   1.0000   1.0000   1.0000
     1.0000   1.0000   1.0000   1.0000   1.0000   1.0000   1.0000   1.0000
     1.0000   1.0000   1.0000   1.0000   1.0000   1.0000   1.0000   1.0000
     1.0000   1.0000   1.0000   1.0000   1.0000   1.0000   1.0000   1.0000
     1.0000   1.0000   1.0000   1.0000   1.0000   1.0000   1.0000   1.0000
     1.0000   1.0000   1.0000   1.0000   1.0000   1.0000   1.0000   1.0000
     1.0000   1.0000   1.0000   1.0000   1.0000   1.0000   1.0000   1.0000
     1.0000   1.0000   1.0000   1.0000   1.0000   1.0000   1.0000   1.0000
     1.0000   1.0000   1.0000   1.0000   1.0000   1.0000   1.0000   1.0000
     1.0000   1.0000   1.0000   1.0000   1.0000   1.0000   1.0000   1.0000
     1.0000   1.0000   1.0000   1.0000   1.0000   1.0000   1.0000   1.0000
     1.0000   1.0000   1.0000   1.0000   1.0000   1.0000   1.0000   1.0000
     1.0000   1.0000   1.0000   1.0000   1.0000   1.0000   1.0000   1.0000
     1.0000   1.0000   1.0000   1.0000   1.0000   1.0000   1.0000   1.0000
     1.0000   1.0000   1.0000   1.0000   1.0000   1.0000   1.0000   1.0000
     1.0000   1.0000   1.0000   1.0000   1.0000   1.0000   1.0000   1.0000
     1.0000   1.0000   1.0000   1.0000   1.0000   1.0000   1.0000   1.0000
     1.0000   1.0000   1.0000   1.0000   1.0000   1.0000   1.0000   1.0000
     1.0000   1.0000   1.0000   1.0000   1.0000   1.0000   1.0000   1.0000
     1.0000   1.0000   1.0000   1.0000   1.0000   1.0000   1.0000   1.0000
     1.0000   1.0000   1.0000   1.0000   1.0000   1.0000   1.0000   1.0000
     1.0000   1.0000   1.0000   1.0000   1.0000   1.0000   1.0000   1.0000
     1.0000   1.0000   1.0000   1.0000   1.0000   1.0000   1.0000   1.0000
     1.0000   1.0000   1.0000   1.0000   1.0000   1.0000   1.0000   1.0000
     1.0000   1.0000   1.0000   1.0000   1.0000   1.0000   1.0000   1.0000
     1.0000   1.0000   1.0000   1.0000   1.0000   1.0000   1.0000   1.0000
     1.0000   1.0000   1.0000   1.0000   1.0000   1.0000   1.0000   1.0000
     1.0000   1.0000   1.0000   1.0000   1.0000   1.0000   1.0000   1.0000
     1.0000   1.0000   1.0000   1.0000   1.0000   1.0000   1.0000   1.0000
     1.0000   1.0000   1.0000   1.0000   1.0000   1.0000   1.0000   1.0000
     1.0000   1.0000   1.0000   1.0000   1.0000   1.0000   1.0000   1.0000
     1.0000   1.0000   1.0000   1.0000   1.0000   1.0000   1.0000   1.0000
     1.0000   1.0000   1.0000   1.0000   1.0000   1.0000   1.0000   1.0000
     1.0000   1.0000   1.0000   1.0000   1.0000   1.0000   1.0000   1.0000
     1.0000   1.0000   1.0000   1.0000   1.0000   1.0000   1.0000   1.0000
     1.0000   1.0000   1.0000   1.0000   1.0000   1.0000   1.0000   1.0000
     1.0000   1.0000   1.0000   1.0000   1.0000   1.0000   1.0000   1.0000
     1.0000   1.0000   1.0000   1.0000   1.0000   1.0000   1.0000   1.0000
     1.0000   1.0000   1.0000   1.0000   1.0000   1.0000   1.0000   1.0000
     1.0000   1.0000   1.0000   1.0000   1.0000   1.0000   1.0000   1.0000
     1.0000   1.0000   1.0000   1.0000   1.0000   1.0000   1.0000   1.0000
     1.0000   1.0000   1.0000   1.0000   1.0000   1.0000   1.0000   1.0000
     1.0000   1.0000   1.0000   1.0000   1.0000   1.0000   1.0000   1.0000
     1.0000   1.0000   1.0000   1.0000   1.0000   1.0000   1.0000   1.0000
     1.0000   1.0000   1.0000   1.0000   1.0000   1.0000   1.0000   1.0000
     1.0000   1.0000   1.0000   1.0000   1.0000   1.0000   1.0000   1.0000
     1.0000   1.0000   1.0000   1.0000   1.0000   1.0000   1.0000   1.0000
     1.0000   1.0000   1.0000   1.0000   1.0000   1.0000   1.0000   1.0000
     1.0000   1.0000   1.0000   1.0000   1.0006   1.0034   1.0239   0.9544
     0.8866   0.7409   0.6546   0.2418   0.0863   0.0134   0.0022   0.0004
     0.0001   0.0000   0.0000   0.0000   0.0000   0.0000   0.0000   0.0000
     0.0000   0.0000   0.0000   0.0000   0.0000   0.0000   0.0000   0.0000
     0.0000   0.0000   0.0000   0.0000   0.0000   0.0000   0.0000   0.0000
     0.0000   0.0000   0.0000   0.0000   0.0000   0.0000   0.0000   0.0000
     0.0000   0.0000   0.0000   0.0000   0.0000   0.0000   0.0000   0.0000
     0.0000   0.0000   0.0000   0.0000   0.0000   0.0000   0.0000   0.0000
     0.0000   0.0000   0.0000   0.0000   0.0000   0.0000   0.0000   0.0000
     0.0000   0.0000   0.0000   0.0000   0.0000   0.0000   0.0000   0.0000
     0.0000   0.0000   0.0000   0.0000   0.0000   0.0000   0.0000   0.0000
     0.0000   0.0000   0.0000   0.0000   0.0000   0.0000   0.0000   0.0000
     0.0000   0.0000   0.0000   0.0000   0.0000   0.0000   0.0000   0.0000
     0.0000   0.0000   0.0000   0.0000   0.0000

          k = 0.3333 0.0000 0.0000 ( 67745 PWs)   bands (ev):

  -125.1326-125.1101-125.1060-125.0928-125.0906-125.0823-125.0768-125.0634
  -124.9708-124.9662-124.9588-124.9576-124.9563-124.9546-124.9503-124.9489
  -124.9412-124.9381-124.9233-124.9188-124.9138-124.9126-124.9010-124.8966
  -124.8787-124.8729-124.8710-124.8707-124.8683-124.8678-124.8646-124.8646
  -124.8629-124.8609-124.8594-124.8572-124.8555-124.8553-124.8461-124.8457
  -124.7233-124.7184-124.7179-124.7159-124.7145-124.7142-124.7131-124.7113
   -79.2878 -79.2855 -79.2782 -79.2635 -79.2617 -79.2597 -79.2577 -79.2569
   -79.2524 -79.2481 -79.2474 -79.2444 -79.2402 -79.2393 -79.2369 -79.2365
   -79.2317 -79.2306 -79.2279 -79.2273 -79.2231 -79.2175 -79.2117 -79.2091
   -79.1273 -79.1250 -79.1235 -79.1226 -79.1217 -79.1204 -79.1149 -79.1134
   -79.1127 -79.1120 -79.1109 -79.1099 -79.1096 -79.1091 -79.1087 -79.1073
   -79.1062 -79.1052 -79.1033 -79.1011 -79.1011 -79.1009 -79.1008 -79.0984
   -79.0961 -79.0945 -79.0878 -79.0871 -79.0858 -79.0824 -79.0822 -79.0814
   -79.0754 -79.0744 -79.0725 -79.0714 -79.0678 -79.0653 -79.0652 -79.0632
   -79.0617 -79.0598 -79.0595 -79.0549 -79.0500 -79.0462 -79.0432 -79.0394
   -79.0392 -79.0335 -79.0314 -79.0306 -79.0284 -79.0277 -79.0276 -79.0274
   -79.0258 -79.0244 -79.0241 -79.0238 -79.0232 -79.0222 -79.0220 -79.0219
   -79.0216 -79.0215 -79.0211 -79.0195 -79.0184 -79.0181 -79.0168 -79.0152
   -79.0148 -79.0147 -79.0145 -79.0133 -79.0127 -79.0121 -79.0111 -79.0095
   -79.0094 -79.0088 -79.0086 -79.0074 -79.0071 -79.0062 -79.0040 -79.0033
   -79.0027 -79.0025 -78.9988 -78.9961 -78.9944 -78.9931 -78.9921 -78.9869
   -78.8968 -78.8922 -78.8914 -78.8913 -78.8894 -78.8885 -78.8884 -78.8863
   -78.8734 -78.8717 -78.8686 -78.8673 -78.8660 -78.8633 -78.8633 -78.8620
   -78.8605 -78.8600 -78.8599 -78.8586 -78.8561 -78.8560 -78.8472 -78.8436
   -20.5585  -8.2359  -7.9657  -7.4987  -6.8527  -6.7990  -6.7873  -6.7758
    -6.7547  -6.6819  -6.6737  -6.6497  -6.6312  -6.6221  -6.6098  -6.5959
    -6.5860  -6.5846  -6.5792  -6.5420  -6.5248  -6.5031  -6.4798  -6.4627
    -6.4500  -6.4459  -6.4396  -6.4327  -6.4254  -6.4196  -6.4015  -6.3921
    -6.3877  -6.3802  -6.3679  -6.3637  -6.3561  -6.3482  -6.3434  -6.3386
    -6.3325  -6.3298  -6.3202  -6.3017  -6.2954  -6.2911  -6.2803  -6.2671
    -6.2569  -6.2492  -6.2357  -6.2306  -6.2244  -6.2196  -6.2174  -6.2085
    -6.2041  -6.1892  -6.1807  -6.1731  -6.1661  -6.1639  -6.1543  -6.1507
    -6.1467  -6.1387  -6.1332  -6.1322  -6.1277  -6.1222  -6.1139  -6.1061
    -6.1031  -6.0948  -6.0844  -6.0768  -6.0744  -6.0556  -6.0509  -6.0423
    -6.0408  -6.0381  -6.0327  -6.0292  -6.0149  -6.0120  -5.9898  -5.9873
    -5.9841  -5.9798  -5.9780  -5.9594  -5.9582  -5.9382  -5.9358  -5.9331
    -5.9319  -5.9299  -5.9275  -5.9235  -5.9156  -5.9011  -5.8967  -5.8946
    -5.8916  -5.8859  -5.8815  -5.8766  -5.8701  -5.8654  -5.8625  -5.8572
    -5.8543  -5.8506  -5.8444  -5.8412  -5.8356  -5.8276  -5.8245  -5.8222
    -5.8177  -5.8143  -5.8086  -5.8043  -5.8003  -5.7928  -5.7907  -5.7842
    -5.7810  -5.7748  -5.7716  -5.7680  -5.7653  -5.7619  -5.7587  -5.7571
    -5.7528  -5.7465  -5.7382  -5.7341  -5.7307  -5.7257  -5.7124  -5.7091
    -5.7045  -5.7023  -5.6971  -5.6901  -5.6809  -5.6763  -5.6729  -5.6688
    -5.6640  -5.6629  -5.6591  -5.6554  -5.6498  -5.6453  -5.6429  -5.6324
    -5.6280  -5.6269  -5.6201  -5.6168  -5.6161  -5.6132  -5.6106  -5.6034
    -5.5960  -5.5953  -5.5911  -5.5894  -5.5868  -5.5859  -5.5790  -5.5674
    -5.5655  -5.5635  -5.5592  -5.5584  -5.5559  -5.5540  -5.5528  -5.5520
    -5.5454  -5.5424  -5.5402  -5.5376  -5.5312  -5.5270  -5.5214  -5.5185
    -5.5168  -5.5148  -5.5130  -5.5096  -5.5081  -5.5053  -5.4999  -5.4984
    -5.4881  -5.4856  -5.4826  -5.4814  -5.4699  -5.4667  -5.4645  -5.4575
    -5.4569  -5.4489  -5.4408  -5.4398  -5.4333  -5.4287  -5.4274  -5.4249
    -5.4237  -5.4213  -5.4194  -5.4185  -5.4163  -5.4132  -5.4090  -5.4078
    -5.4016  -5.3824  -5.3808  -5.3794  -5.3754  -5.3736  -5.3657  -5.3638
    -5.3602  -5.3526  -5.3200  -5.3179  -5.3127  -5.3020  -5.2760  -5.2651
    -5.2567  -5.2537  -5.2382  -5.2215  -5.2177  -5.1894  -5.1881  -5.1826
    -5.1367  -5.0216  -4.6572  -4.5439  -4.3330  -4.3136  -3.8529  -3.8293
    -3.3822  -3.2057  -3.1283  -3.1180  -2.9930  -2.7984  -2.5968  -2.1345
    -2.0652  -1.8089  -1.7360  -1.6607  -1.5997  -1.4952  -1.4755  -1.4456
    -1.4270  -1.3850  -1.2522  -1.1185  -0.8483  -0.2605  -0.1920  -0.0444
    -0.0287  -0.0115   0.1667   0.3009   0.3210   0.5041   0.5373   0.6318
     0.8417   0.9200   1.3399   1.3992   1.5362   1.6264   1.8460   1.9300
     1.9760   2.1799   2.1931   2.4409   2.7622   2.7690   2.8276   2.9273
     2.9434   3.0270   3.0539   3.0864   3.1026   3.1835   3.5549   3.9596
     4.0084   4.1845   4.2150   4.2447   4.2495   4.3677   4.3875   4.5652
     4.5796   4.8207   4.8598   4.8965   4.9180   4.9829   5.1673   5.2879
     5.3480   5.5496   5.5608   5.5828   5.5991   5.6100   5.7213   5.7439
     5.7719   5.8052   5.8211   6.0288   6.1192   6.1435   6.2050   6.2507
     6.2619   6.2823   6.3500   6.4229   6.4762   6.5414   6.5549   6.5654
     6.6862   6.6992   6.7883   6.8066   6.8820   6.9594   7.0199   7.0680
     7.1069   7.1474   7.1784   7.1989   7.2162   7.2223   7.3103   7.3322
     7.3798   7.4109   7.4414   7.5764   7.7125   7.7363   7.7977   7.8129
     7.8651   8.0287   8.0558   8.1280   8.1608   8.2039   8.2923   8.3252
     8.3459   8.3849   8.4135   8.4653   8.4966

     occupation numbers 
     1.0000   1.0000   1.0000   1.0000   1.0000   1.0000   1.0000   1.0000
     1.0000   1.0000   1.0000   1.0000   1.0000   1.0000   1.0000   1.0000
     1.0000   1.0000   1.0000   1.0000   1.0000   1.0000   1.0000   1.0000
     1.0000   1.0000   1.0000   1.0000   1.0000   1.0000   1.0000   1.0000
     1.0000   1.0000   1.0000   1.0000   1.0000   1.0000   1.0000   1.0000
     1.0000   1.0000   1.0000   1.0000   1.0000   1.0000   1.0000   1.0000
     1.0000   1.0000   1.0000   1.0000   1.0000   1.0000   1.0000   1.0000
     1.0000   1.0000   1.0000   1.0000   1.0000   1.0000   1.0000   1.0000
     1.0000   1.0000   1.0000   1.0000   1.0000   1.0000   1.0000   1.0000
     1.0000   1.0000   1.0000   1.0000   1.0000   1.0000   1.0000   1.0000
     1.0000   1.0000   1.0000   1.0000   1.0000   1.0000   1.0000   1.0000
     1.0000   1.0000   1.0000   1.0000   1.0000   1.0000   1.0000   1.0000
     1.0000   1.0000   1.0000   1.0000   1.0000   1.0000   1.0000   1.0000
     1.0000   1.0000   1.0000   1.0000   1.0000   1.0000   1.0000   1.0000
     1.0000   1.0000   1.0000   1.0000   1.0000   1.0000   1.0000   1.0000
     1.0000   1.0000   1.0000   1.0000   1.0000   1.0000   1.0000   1.0000
     1.0000   1.0000   1.0000   1.0000   1.0000   1.0000   1.0000   1.0000
     1.0000   1.0000   1.0000   1.0000   1.0000   1.0000   1.0000   1.0000
     1.0000   1.0000   1.0000   1.0000   1.0000   1.0000   1.0000   1.0000
     1.0000   1.0000   1.0000   1.0000   1.0000   1.0000   1.0000   1.0000
     1.0000   1.0000   1.0000   1.0000   1.0000   1.0000   1.0000   1.0000
     1.0000   1.0000   1.0000   1.0000   1.0000   1.0000   1.0000   1.0000
     1.0000   1.0000   1.0000   1.0000   1.0000   1.0000   1.0000   1.0000
     1.0000   1.0000   1.0000   1.0000   1.0000   1.0000   1.0000   1.0000
     1.0000   1.0000   1.0000   1.0000   1.0000   1.0000   1.0000   1.0000
     1.0000   1.0000   1.0000   1.0000   1.0000   1.0000   1.0000   1.0000
     1.0000   1.0000   1.0000   1.0000   1.0000   1.0000   1.0000   1.0000
     1.0000   1.0000   1.0000   1.0000   1.0000   1.0000   1.0000   1.0000
     1.0000   1.0000   1.0000   1.0000   1.0000   1.0000   1.0000   1.0000
     1.0000   1.0000   1.0000   1.0000   1.0000   1.0000   1.0000   1.0000
     1.0000   1.0000   1.0000   1.0000   1.0000   1.0000   1.0000   1.0000
     1.0000   1.0000   1.0000   1.0000   1.0000   1.0000   1.0000   1.0000
     1.0000   1.0000   1.0000   1.0000   1.0000   1.0000   1.0000   1.0000
     1.0000   1.0000   1.0000   1.0000   1.0000   1.0000   1.0000   1.0000
     1.0000   1.0000   1.0000   1.0000   1.0000   1.0000   1.0000   1.0000
     1.0000   1.0000   1.0000   1.0000   1.0000   1.0000   1.0000   1.0000
     1.0000   1.0000   1.0000   1.0000   1.0000   1.0000   1.0000   1.0000
     1.0000   1.0000   1.0000   1.0000   1.0000   1.0000   1.0000   1.0000
     1.0000   1.0000   1.0000   1.0000   1.0000   1.0000   1.0000   1.0000
     1.0000   1.0000   1.0000   1.0000   1.0000   1.0000   1.0000   1.0000
     1.0000   1.0000   1.0000   1.0000   1.0000   1.0000   1.0000   1.0000
     1.0000   1.0000   1.0000   1.0000   1.0000   1.0000   1.0000   1.0000
     1.0000   1.0000   1.0000   1.0000   1.0000   1.0000   1.0000   1.0000
     1.0000   1.0000   1.0000   1.0000   1.0000   1.0000   1.0000   1.0000
     1.0000   1.0000   1.0000   1.0000   1.0000   1.0000   1.0000   1.0000
     1.0000   1.0000   1.0000   1.0000   1.0000   1.0000   1.0000   1.0000
     1.0000   1.0000   1.0000   1.0000   1.0000   1.0000   1.0000   1.0000
     1.0000   1.0000   1.0000   1.0000   1.0000   1.0000   1.0000   1.0000
     1.0000   1.0000   1.0000   1.0000   1.0000   1.0000   1.0000   1.0000
     1.0000   1.0000   1.0000   1.0000   1.0000   1.0000   1.0000   1.0000
     1.0000   1.0000   1.0000   1.0000   1.0000   1.0000   1.0000   1.0000
     1.0000   1.0000   1.0000   1.0000   1.0000   1.0000   1.0000   1.0000
     1.0000   1.0000   1.0000   1.0000   1.0000   1.0000   1.0000   1.0000
     1.0000   1.0000   1.0000   1.0000   1.0000   1.0000   1.0000   1.0000
     1.0000   1.0000   1.0000   1.0000   1.0000   1.0000   1.0000   1.0000
     1.0000   1.0000   1.0000   1.0000   1.0000   1.0000   1.0000   1.0000
     1.0000   1.0000   1.0000   1.0000   1.0000   1.0000   1.0000   1.0000
     1.0000   1.0000   1.0000   1.0000   1.0000   1.0000   1.0000   1.0000
     1.0000   1.0000   1.0000   1.0000   1.0000   1.0000   1.0000   1.0000
     1.0000   1.0000   1.0000   1.0000   1.0000   1.0010   1.0017   1.0067
     1.0546   1.0785   0.4171   0.2784   0.0789   0.0266   0.0008   0.0001
     0.0001   0.0000   0.0000   0.0000   0.0000   0.0000   0.0000   0.0000
     0.0000   0.0000   0.0000   0.0000   0.0000   0.0000   0.0000   0.0000
     0.0000   0.0000   0.0000   0.0000   0.0000   0.0000   0.0000   0.0000
     0.0000   0.0000   0.0000   0.0000   0.0000   0.0000   0.0000   0.0000
     0.0000   0.0000   0.0000   0.0000   0.0000   0.0000   0.0000   0.0000
     0.0000   0.0000   0.0000   0.0000   0.0000   0.0000   0.0000   0.0000
     0.0000   0.0000   0.0000   0.0000   0.0000   0.0000   0.0000   0.0000
     0.0000   0.0000   0.0000   0.0000   0.0000   0.0000   0.0000   0.0000
     0.0000   0.0000   0.0000   0.0000   0.0000   0.0000   0.0000   0.0000
     0.0000   0.0000   0.0000   0.0000   0.0000   0.0000   0.0000   0.0000
     0.0000   0.0000   0.0000   0.0000   0.0000   0.0000   0.0000   0.0000
     0.0000   0.0000   0.0000   0.0000   0.0000

          k = 0.3333 0.3107 0.1794 ( 67762 PWs)   bands (ev):

  -125.1326-125.1101-125.1060-125.0928-125.0906-125.0823-125.0768-125.0634
  -124.9708-124.9662-124.9588-124.9576-124.9563-124.9546-124.9503-124.9489
  -124.9412-124.9381-124.9233-124.9188-124.9138-124.9126-124.9010-124.8966
  -124.8787-124.8729-124.8710-124.8707-124.8683-124.8678-124.8646-124.8646
  -124.8629-124.8609-124.8594-124.8572-124.8555-124.8553-124.8461-124.8457
  -124.7233-124.7184-124.7179-124.7159-124.7145-124.7142-124.7131-124.7113
   -79.2877 -79.2855 -79.2782 -79.2639 -79.2626 -79.2597 -79.2569 -79.2562
   -79.2524 -79.2477 -79.2474 -79.2444 -79.2404 -79.2394 -79.2369 -79.2365
   -79.2331 -79.2314 -79.2279 -79.2252 -79.2230 -79.2175 -79.2117 -79.2094
   -79.1273 -79.1250 -79.1231 -79.1226 -79.1216 -79.1203 -79.1149 -79.1134
   -79.1120 -79.1120 -79.1109 -79.1105 -79.1098 -79.1095 -79.1088 -79.1073
   -79.1062 -79.1052 -79.1038 -79.1033 -79.1011 -79.1011 -79.0993 -79.0984
   -79.0945 -79.0935 -79.0883 -79.0873 -79.0858 -79.0828 -79.0824 -79.0814
   -79.0750 -79.0744 -79.0725 -79.0712 -79.0678 -79.0655 -79.0652 -79.0632
   -79.0622 -79.0603 -79.0595 -79.0548 -79.0486 -79.0462 -79.0432 -79.0400
   -79.0392 -79.0335 -79.0314 -79.0306 -79.0284 -79.0277 -79.0275 -79.0267
   -79.0259 -79.0249 -79.0243 -79.0237 -79.0232 -79.0221 -79.0218 -79.0216
   -79.0214 -79.0213 -79.0197 -79.0193 -79.0190 -79.0184 -79.0180 -79.0168
   -79.0152 -79.0148 -79.0147 -79.0146 -79.0134 -79.0121 -79.0098 -79.0095
   -79.0095 -79.0090 -79.0088 -79.0080 -79.0074 -79.0040 -79.0027 -79.0025
   -79.0021 -79.0013 -78.9995 -78.9976 -78.9944 -78.9931 -78.9921 -78.9872
   -78.8968 -78.8922 -78.8914 -78.8913 -78.8894 -78.8885 -78.8884 -78.8864
   -78.8722 -78.8717 -78.8673 -78.8670 -78.8660 -78.8657 -78.8633 -78.8633
   -78.8622 -78.8619 -78.8600 -78.8586 -78.8547 -78.8501 -78.8484 -78.8451
   -20.5585  -8.2363  -7.8093  -7.3715  -7.3423  -6.9557  -6.7652  -6.6959
    -6.6770  -6.6565  -6.6031  -6.5994  -6.5942  -6.5747  -6.5695  -6.5602
    -6.5470  -6.5355  -6.5277  -6.5167  -6.5109  -6.5045  -6.4986  -6.4932
    -6.4845  -6.4740  -6.4703  -6.4506  -6.4461  -6.4396  -6.4383  -6.4261
    -6.4196  -6.4109  -6.4086  -6.3924  -6.3818  -6.3731  -6.3678  -6.3602
    -6.3445  -6.3312  -6.3237  -6.3189  -6.3078  -6.2925  -6.2841  -6.2793
    -6.2742  -6.2617  -6.2590  -6.2345  -6.2266  -6.2157  -6.2081  -6.2024
    -6.2013  -6.1948  -6.1842  -6.1809  -6.1720  -6.1676  -6.1627  -6.1576
    -6.1434  -6.1391  -6.1337  -6.1296  -6.1248  -6.1204  -6.1153  -6.1091
    -6.1030  -6.0947  -6.0894  -6.0885  -6.0847  -6.0824  -6.0766  -6.0734
    -6.0694  -6.0622  -6.0477  -6.0449  -6.0409  -6.0315  -6.0244  -6.0171
    -6.0133  -6.0103  -6.0034  -5.9919  -5.9867  -5.9830  -5.9669  -5.9620
    -5.9592  -5.9461  -5.9417  -5.9342  -5.9315  -5.9264  -5.9223  -5.9169
    -5.9115  -5.9048  -5.8967  -5.8940  -5.8867  -5.8748  -5.8685  -5.8660
    -5.8615  -5.8576  -5.8457  -5.8354  -5.8327  -5.8262  -5.8226  -5.8195
    -5.8072  -5.8024  -5.8005  -5.7967  -5.7944  -5.7887  -5.7831  -5.7797
    -5.7755  -5.7652  -5.7630  -5.7575  -5.7552  -5.7481  -5.7418  -5.7393
    -5.7363  -5.7322  -5.7295  -5.7247  -5.7215  -5.7171  -5.7039  -5.6986
    -5.6933  -5.6876  -5.6791  -5.6774  -5.6752  -5.6675  -5.6616  -5.6519
    -5.6496  -5.6460  -5.6414  -5.6370  -5.6349  -5.6304  -5.6264  -5.6236
    -5.6198  -5.6120  -5.6073  -5.6027  -5.5976  -5.5928  -5.5877  -5.5862
    -5.5822  -5.5788  -5.5765  -5.5722  -5.5689  -5.5667  -5.5651  -5.5589
    -5.5568  -5.5553  -5.5506  -5.5483  -5.5422  -5.5373  -5.5348  -5.5310
    -5.5283  -5.5258  -5.5240  -5.5185  -5.5164  -5.5124  -5.5073  -5.5066
    -5.5044  -5.5018  -5.5007  -5.4967  -5.4899  -5.4841  -5.4811  -5.4781
    -5.4761  -5.4682  -5.4645  -5.4632  -5.4611  -5.4578  -5.4547  -5.4514
    -5.4468  -5.4455  -5.4406  -5.4390  -5.4365  -5.4349  -5.4327  -5.4311
    -5.4286  -5.4187  -5.4139  -5.4101  -5.4084  -5.4059  -5.4032  -5.3985
    -5.3923  -5.3886  -5.3860  -5.3809  -5.3771  -5.3672  -5.3632  -5.3558
    -5.3481  -5.3448  -5.3423  -5.3413  -5.3293  -5.3269  -5.3242  -5.3102
    -5.3082  -5.2899  -5.2674  -5.2664  -5.2359  -5.2023  -5.1893  -4.9124
    -4.8860  -4.7749  -4.6395  -4.4915  -4.3621  -4.3360  -3.8641  -3.4197
    -3.3579  -3.2510  -3.0794  -2.9416  -2.9022  -2.7944  -2.7661  -2.6588
    -2.5507  -2.3749  -2.2224  -2.1070  -2.0713  -1.8473  -1.3875  -1.3097
    -1.1345  -0.8099  -0.7729  -0.7363  -0.6883  -0.4103  -0.3978  -0.2307
    -0.0564   0.1629   0.4159   0.4678   0.4707   0.5532   0.7971   0.8144
     0.9005   0.9789   1.0261   1.0729   1.3533   1.4697   1.6750   1.7615
     2.1944   2.4530   2.6103   2.7269   2.8898   2.9258   2.9704   3.1030
     3.1524   3.2074   3.2679   3.4343   3.4683   3.5939   3.6347   3.7113
     3.7642   3.9160   4.0106   4.1607   4.2181   4.3953   4.4437   4.5314
     4.5437   4.7323   4.8138   4.8486   4.8963   4.9315   4.9549   5.0408
     5.1093   5.2523   5.2890   5.3270   5.4185   5.4463   5.5508   5.6306
     5.6905   5.7307   5.7852   5.8631   5.9049   5.9422   5.9789   6.0418
     6.0556   6.3002   6.3329   6.3739   6.3862   6.4638   6.4763   6.5285
     6.6127   6.6205   6.6585   6.7069   6.7554   6.8073   6.9439   7.0425
     7.1763   7.2270   7.2650   7.2813   7.3151   7.3580   7.4487   7.5062
     7.5324   7.6226   7.6347   7.7142   7.7570   7.8191   7.8486   7.9068
     7.9399   7.9612   8.0392   8.1141   8.1617   8.2124   8.2639   8.2878
     8.3283   8.3692   8.3937   8.4478   8.4653

     occupation numbers 
     1.0000   1.0000   1.0000   1.0000   1.0000   1.0000   1.0000   1.0000
     1.0000   1.0000   1.0000   1.0000   1.0000   1.0000   1.0000   1.0000
     1.0000   1.0000   1.0000   1.0000   1.0000   1.0000   1.0000   1.0000
     1.0000   1.0000   1.0000   1.0000   1.0000   1.0000   1.0000   1.0000
     1.0000   1.0000   1.0000   1.0000   1.0000   1.0000   1.0000   1.0000
     1.0000   1.0000   1.0000   1.0000   1.0000   1.0000   1.0000   1.0000
     1.0000   1.0000   1.0000   1.0000   1.0000   1.0000   1.0000   1.0000
     1.0000   1.0000   1.0000   1.0000   1.0000   1.0000   1.0000   1.0000
     1.0000   1.0000   1.0000   1.0000   1.0000   1.0000   1.0000   1.0000
     1.0000   1.0000   1.0000   1.0000   1.0000   1.0000   1.0000   1.0000
     1.0000   1.0000   1.0000   1.0000   1.0000   1.0000   1.0000   1.0000
     1.0000   1.0000   1.0000   1.0000   1.0000   1.0000   1.0000   1.0000
     1.0000   1.0000   1.0000   1.0000   1.0000   1.0000   1.0000   1.0000
     1.0000   1.0000   1.0000   1.0000   1.0000   1.0000   1.0000   1.0000
     1.0000   1.0000   1.0000   1.0000   1.0000   1.0000   1.0000   1.0000
     1.0000   1.0000   1.0000   1.0000   1.0000   1.0000   1.0000   1.0000
     1.0000   1.0000   1.0000   1.0000   1.0000   1.0000   1.0000   1.0000
     1.0000   1.0000   1.0000   1.0000   1.0000   1.0000   1.0000   1.0000
     1.0000   1.0000   1.0000   1.0000   1.0000   1.0000   1.0000   1.0000
     1.0000   1.0000   1.0000   1.0000   1.0000   1.0000   1.0000   1.0000
     1.0000   1.0000   1.0000   1.0000   1.0000   1.0000   1.0000   1.0000
     1.0000   1.0000   1.0000   1.0000   1.0000   1.0000   1.0000   1.0000
     1.0000   1.0000   1.0000   1.0000   1.0000   1.0000   1.0000   1.0000
     1.0000   1.0000   1.0000   1.0000   1.0000   1.0000   1.0000   1.0000
     1.0000   1.0000   1.0000   1.0000   1.0000   1.0000   1.0000   1.0000
     1.0000   1.0000   1.0000   1.0000   1.0000   1.0000   1.0000   1.0000
     1.0000   1.0000   1.0000   1.0000   1.0000   1.0000   1.0000   1.0000
     1.0000   1.0000   1.0000   1.0000   1.0000   1.0000   1.0000   1.0000
     1.0000   1.0000   1.0000   1.0000   1.0000   1.0000   1.0000   1.0000
     1.0000   1.0000   1.0000   1.0000   1.0000   1.0000   1.0000   1.0000
     1.0000   1.0000   1.0000   1.0000   1.0000   1.0000   1.0000   1.0000
     1.0000   1.0000   1.0000   1.0000   1.0000   1.0000   1.0000   1.0000
     1.0000   1.0000   1.0000   1.0000   1.0000   1.0000   1.0000   1.0000
     1.0000   1.0000   1.0000   1.0000   1.0000   1.0000   1.0000   1.0000
     1.0000   1.0000   1.0000   1.0000   1.0000   1.0000   1.0000   1.0000
     1.0000   1.0000   1.0000   1.0000   1.0000   1.0000   1.0000   1.0000
     1.0000   1.0000   1.0000   1.0000   1.0000   1.0000   1.0000   1.0000
     1.0000   1.0000   1.0000   1.0000   1.0000   1.0000   1.0000   1.0000
     1.0000   1.0000   1.0000   1.0000   1.0000   1.0000   1.0000   1.0000
     1.0000   1.0000   1.0000   1.0000   1.0000   1.0000   1.0000   1.0000
     1.0000   1.0000   1.0000   1.0000   1.0000   1.0000   1.0000   1.0000
     1.0000   1.0000   1.0000   1.0000   1.0000   1.0000   1.0000   1.0000
     1.0000   1.0000   1.0000   1.0000   1.0000   1.0000   1.0000   1.0000
     1.0000   1.0000   1.0000   1.0000   1.0000   1.0000   1.0000   1.0000
     1.0000   1.0000   1.0000   1.0000   1.0000   1.0000   1.0000   1.0000
     1.0000   1.0000   1.0000   1.0000   1.0000   1.0000   1.0000   1.0000
     1.0000   1.0000   1.0000   1.0000   1.0000   1.0000   1.0000   1.0000
     1.0000   1.0000   1.0000   1.0000   1.0000   1.0000   1.0000   1.0000
     1.0000   1.0000   1.0000   1.0000   1.0000   1.0000   1.0000   1.0000
     1.0000   1.0000   1.0000   1.0000   1.0000   1.0000   1.0000   1.0000
     1.0000   1.0000   1.0000   1.0000   1.0000   1.0000   1.0000   1.0000
     1.0000   1.0000   1.0000   1.0000   1.0000   1.0000   1.0000   1.0000
     1.0000   1.0000   1.0000   1.0000   1.0000   1.0000   1.0000   1.0000
     1.0000   1.0000   1.0000   1.0000   1.0000   1.0000   1.0000   1.0000
     1.0000   1.0000   1.0000   1.0000   1.0000   1.0000   1.0000   1.0000
     1.0000   1.0000   1.0000   1.0000   1.0000   1.0000   1.0000   1.0000
     1.0000   1.0000   1.0000   1.0000   1.0000   1.0000   1.0000   1.0000
     1.0000   1.0000   1.0000   1.0000   1.0000   1.0000   1.0000   1.0000
     1.0000   1.0000   1.0000   1.0000   1.0000   1.0000   1.0000   1.0000
     1.0000   1.0000   1.0002   1.0005   1.0005   1.0022   1.0396   1.0453
     1.0737   1.0823   1.0667   1.0283   0.3835   0.1542   0.0136   0.0035
     0.0000   0.0000   0.0000   0.0000   0.0000   0.0000   0.0000   0.0000
     0.0000   0.0000   0.0000   0.0000   0.0000   0.0000   0.0000   0.0000
     0.0000   0.0000   0.0000   0.0000   0.0000   0.0000   0.0000   0.0000
     0.0000   0.0000   0.0000   0.0000   0.0000   0.0000   0.0000   0.0000
     0.0000   0.0000   0.0000   0.0000   0.0000   0.0000   0.0000   0.0000
     0.0000   0.0000   0.0000   0.0000   0.0000   0.0000   0.0000   0.0000
     0.0000   0.0000   0.0000   0.0000   0.0000   0.0000   0.0000   0.0000
     0.0000   0.0000   0.0000   0.0000   0.0000   0.0000   0.0000   0.0000
     0.0000   0.0000   0.0000   0.0000   0.0000   0.0000   0.0000   0.0000
     0.0000   0.0000   0.0000   0.0000   0.0000   0.0000   0.0000   0.0000
     0.0000   0.0000   0.0000   0.0000   0.0000   0.0000   0.0000   0.0000
     0.0000   0.0000   0.0000   0.0000   0.0000

          k = 0.3333-0.3107-0.1794 ( 67762 PWs)   bands (ev):

  -125.1326-125.1101-125.1060-125.0928-125.0906-125.0823-125.0768-125.0634
  -124.9708-124.9662-124.9588-124.9576-124.9563-124.9546-124.9503-124.9489
  -124.9412-124.9381-124.9233-124.9188-124.9138-124.9126-124.9010-124.8966
  -124.8787-124.8729-124.8710-124.8707-124.8683-124.8678-124.8646-124.8646
  -124.8629-124.8609-124.8594-124.8572-124.8555-124.8553-124.8461-124.8457
  -124.7233-124.7184-124.7179-124.7159-124.7145-124.7142-124.7131-124.7113
   -79.2877 -79.2855 -79.2782 -79.2639 -79.2626 -79.2597 -79.2569 -79.2562
   -79.2524 -79.2477 -79.2474 -79.2444 -79.2404 -79.2394 -79.2369 -79.2365
   -79.2331 -79.2314 -79.2279 -79.2252 -79.2230 -79.2175 -79.2117 -79.2094
   -79.1273 -79.1250 -79.1231 -79.1226 -79.1216 -79.1203 -79.1149 -79.1134
   -79.1120 -79.1120 -79.1109 -79.1105 -79.1098 -79.1095 -79.1088 -79.1073
   -79.1062 -79.1052 -79.1038 -79.1033 -79.1011 -79.1011 -79.0993 -79.0984
   -79.0945 -79.0935 -79.0883 -79.0873 -79.0858 -79.0828 -79.0824 -79.0814
   -79.0750 -79.0744 -79.0725 -79.0712 -79.0678 -79.0655 -79.0652 -79.0632
   -79.0622 -79.0603 -79.0595 -79.0548 -79.0486 -79.0462 -79.0432 -79.0400
   -79.0392 -79.0335 -79.0314 -79.0306 -79.0284 -79.0277 -79.0275 -79.0267
   -79.0259 -79.0249 -79.0243 -79.0237 -79.0232 -79.0221 -79.0218 -79.0216
   -79.0214 -79.0212 -79.0197 -79.0193 -79.0190 -79.0184 -79.0181 -79.0168
   -79.0152 -79.0148 -79.0147 -79.0146 -79.0134 -79.0121 -79.0098 -79.0095
   -79.0095 -79.0090 -79.0088 -79.0080 -79.0074 -79.0040 -79.0027 -79.0025
   -79.0021 -79.0013 -78.9995 -78.9976 -78.9944 -78.9931 -78.9921 -78.9872
   -78.8968 -78.8922 -78.8914 -78.8913 -78.8894 -78.8885 -78.8884 -78.8864
   -78.8722 -78.8717 -78.8673 -78.8670 -78.8660 -78.8657 -78.8633 -78.8633
   -78.8622 -78.8619 -78.8600 -78.8586 -78.8547 -78.8501 -78.8484 -78.8451
   -20.5585  -8.2362  -7.8098  -7.3636  -7.3497  -6.9560  -6.7653  -6.6957
    -6.6774  -6.6553  -6.6032  -6.5982  -6.5954  -6.5758  -6.5683  -6.5639
    -6.5454  -6.5367  -6.5300  -6.5138  -6.5072  -6.5038  -6.4997  -6.4929
    -6.4830  -6.4747  -6.4695  -6.4512  -6.4488  -6.4415  -6.4372  -6.4260
    -6.4211  -6.4123  -6.4059  -6.3913  -6.3811  -6.3726  -6.3677  -6.3606
    -6.3450  -6.3325  -6.3220  -6.3177  -6.3082  -6.2947  -6.2846  -6.2780
    -6.2738  -6.2607  -6.2575  -6.2360  -6.2294  -6.2134  -6.2083  -6.2051
    -6.2000  -6.1932  -6.1864  -6.1797  -6.1706  -6.1668  -6.1611  -6.1556
    -6.1419  -6.1400  -6.1348  -6.1289  -6.1263  -6.1211  -6.1155  -6.1108
    -6.1043  -6.0969  -6.0920  -6.0890  -6.0854  -6.0814  -6.0766  -6.0713
    -6.0707  -6.0610  -6.0459  -6.0455  -6.0401  -6.0289  -6.0219  -6.0187
    -6.0159  -6.0106  -6.0076  -5.9916  -5.9866  -5.9840  -5.9664  -5.9616
    -5.9556  -5.9489  -5.9397  -5.9365  -5.9296  -5.9253  -5.9229  -5.9143
    -5.9108  -5.9039  -5.8978  -5.8942  -5.8868  -5.8742  -5.8680  -5.8655
    -5.8609  -5.8576  -5.8470  -5.8352  -5.8329  -5.8264  -5.8225  -5.8185
    -5.8069  -5.8046  -5.7995  -5.7966  -5.7927  -5.7890  -5.7844  -5.7803
    -5.7768  -5.7699  -5.7645  -5.7573  -5.7543  -5.7491  -5.7429  -5.7381
    -5.7361  -5.7312  -5.7295  -5.7237  -5.7195  -5.7146  -5.7039  -5.6985
    -5.6933  -5.6904  -5.6821  -5.6759  -5.6727  -5.6686  -5.6626  -5.6526
    -5.6497  -5.6466  -5.6402  -5.6392  -5.6355  -5.6302  -5.6255  -5.6207
    -5.6175  -5.6118  -5.6067  -5.6023  -5.5985  -5.5926  -5.5866  -5.5845
    -5.5818  -5.5781  -5.5775  -5.5736  -5.5705  -5.5683  -5.5651  -5.5584
    -5.5556  -5.5541  -5.5520  -5.5470  -5.5425  -5.5363  -5.5347  -5.5326
    -5.5286  -5.5264  -5.5243  -5.5167  -5.5152  -5.5127  -5.5093  -5.5057
    -5.5036  -5.5020  -5.4996  -5.4972  -5.4898  -5.4840  -5.4821  -5.4787
    -5.4764  -5.4694  -5.4661  -5.4624  -5.4610  -5.4563  -5.4536  -5.4521
    -5.4475  -5.4459  -5.4405  -5.4377  -5.4367  -5.4356  -5.4326  -5.4306
    -5.4282  -5.4201  -5.4146  -5.4106  -5.4078  -5.4060  -5.4036  -5.3980
    -5.3925  -5.3900  -5.3861  -5.3787  -5.3771  -5.3687  -5.3635  -5.3559
    -5.3482  -5.3459  -5.3451  -5.3415  -5.3271  -5.3249  -5.3237  -5.3097
    -5.3083  -5.2906  -5.2669  -5.2663  -5.2358  -5.2023  -5.1893  -4.9085
    -4.8841  -4.7768  -4.6514  -4.4826  -4.3566  -4.3411  -3.8650  -3.4185
    -3.3592  -3.2500  -3.0765  -2.9394  -2.9102  -2.7962  -2.7637  -2.6501
    -2.5555  -2.3820  -2.2208  -2.1052  -2.0683  -1.8509  -1.3846  -1.3113
    -1.1309  -0.8109  -0.7752  -0.7370  -0.6848  -0.4082  -0.3995  -0.2315
    -0.0591   0.1629   0.4201   0.4683   0.4732   0.5435   0.7984   0.8151
     0.9031   0.9762   1.0214   1.0767   1.3537   1.4729   1.6765   1.7637
     2.1925   2.4534   2.6115   2.7258   2.8881   2.9246   2.9681   3.1049
     3.1441   3.2049   3.2694   3.4350   3.4690   3.5985   3.6363   3.7080
     3.7650   3.9304   4.0110   4.1621   4.2006   4.3940   4.4539   4.5148
     4.5556   4.7203   4.8189   4.8487   4.9074   4.9228   4.9562   5.0535
     5.1081   5.2585   5.2846   5.3167   5.4308   5.4553   5.5372   5.6274
     5.7063   5.7272   5.7786   5.8266   5.9172   5.9440   6.0040   6.0435
     6.0581   6.2982   6.3085   6.3697   6.4092   6.4597   6.4771   6.5312
     6.6133   6.6251   6.6542   6.7158   6.7440   6.7961   6.9425   7.0456
     7.1977   7.2186   7.2559   7.2922   7.3048   7.3490   7.4382   7.4539
     7.5141   7.6439   7.6516   7.7377   7.7787   7.8416   7.8775   7.8878
     7.9454   7.9614   8.0099   8.1107   8.1674   8.2045   8.2592   8.3009
     8.3164   8.3759   8.3829   8.4382   8.4648

     occupation numbers 
     1.0000   1.0000   1.0000   1.0000   1.0000   1.0000   1.0000   1.0000
     1.0000   1.0000   1.0000   1.0000   1.0000   1.0000   1.0000   1.0000
     1.0000   1.0000   1.0000   1.0000   1.0000   1.0000   1.0000   1.0000
     1.0000   1.0000   1.0000   1.0000   1.0000   1.0000   1.0000   1.0000
     1.0000   1.0000   1.0000   1.0000   1.0000   1.0000   1.0000   1.0000
     1.0000   1.0000   1.0000   1.0000   1.0000   1.0000   1.0000   1.0000
     1.0000   1.0000   1.0000   1.0000   1.0000   1.0000   1.0000   1.0000
[...]
     atom   13 type  1   force =     0.00000000    0.00000000    0.00000000
     atom   14 type  1   force =     0.00000000    0.00000000    0.00000000
     atom   15 type  1   force =     0.00000000    0.00000000    0.00000000
     atom   16 type  1   force =     0.00000000    0.00000000    0.00000000
     atom   17 type  1   force =     0.00000000    0.00000000    0.00000000
     atom   18 type  1   force =     0.00000000    0.00000000    0.00000000
     atom   19 type  1   force =     0.00000000    0.00000000    0.00000000
     atom   20 type  1   force =     0.00000000    0.00000000    0.00000000
     atom   21 type  1   force =     0.00000000    0.00000000    0.00000000
     atom   22 type  1   force =     0.00000000    0.00000000    0.00000000
     atom   23 type  1   force =     0.00000000    0.00000000    0.00000000
     atom   24 type  1   force =     0.00000000    0.00000000    0.00000000
     atom   25 type  1   force =     0.00000000    0.00000000    0.00000000
     atom   26 type  1   force =     0.00000000    0.00000000    0.00000000
     atom   27 type  1   force =     0.00000000    0.00000000    0.00000000
     atom   28 type  1   force =     0.00000000    0.00000000    0.00000000
     atom   29 type  1   force =     0.00000000    0.00000000    0.00000000
     atom   30 type  1   force =     0.00000000    0.00000000    0.00000000
     atom   31 type  1   force =     0.00000000    0.00000000    0.00000000
     atom   32 type  1   force =     0.00000000    0.00000000    0.00000000
     atom   33 type  1   force =     0.00000000    0.00000000    0.00000000
     atom   34 type  1   force =     0.00000000    0.00000000    0.00000000
     atom   35 type  1   force =     0.00000000    0.00000000    0.00000000
     atom   36 type  1   force =     0.00000000    0.00000000    0.00000000
     atom   37 type  1   force =     0.00000000    0.00000000    0.00000000
     atom   38 type  1   force =     0.00000000    0.00000000    0.00000000
     atom   39 type  1   force =     0.00000000    0.00000000    0.00000000
     atom   40 type  1   force =     0.00000000    0.00000000    0.00000000
     atom   41 type  1   force =     0.00000000    0.00000000    0.00000000
     atom   42 type  1   force =     0.00000000    0.00000000    0.00000000
     atom   43 type  1   force =     0.00000000    0.00000000    0.00000000
     atom   44 type  1   force =     0.00000000    0.00000000    0.00000000
     atom   45 type  1   force =     0.00000000    0.00000000    0.00000000
     atom   46 type  1   force =     0.00000000    0.00000000    0.00000000
     atom   47 type  1   force =     0.00000000    0.00000000    0.00000000
     atom   48 type  1   force =     0.00000000    0.00000000    0.00000000
     atom   49 type  2   force =     0.00000000    0.00000000    0.00000000
     atom   50 type  3   force =     0.00000000    0.00000000    0.00000000
     atom   51 type  3   force =     0.00000000    0.00000000    0.00000000
     The SCF correction term to forces
     atom    1 type  1   force =     0.00000000    0.00000000    0.00000000
     atom    2 type  1   force =     0.00000000   -0.00000000   -0.00000000
     atom    3 type  1   force =     0.00025127    0.00048611    0.00003234
     atom    4 type  1   force =     0.00020859   -0.00048465    0.00027152
     atom    5 type  1   force =     0.00020892    0.00020356    0.00011782
     atom    6 type  1   force =     0.00034476   -0.00023504    0.00012150
     atom    7 type  1   force =     0.00000000   -0.00000000    0.00000000
     atom    8 type  1   force =     0.00000000    0.00000000   -0.00000000
     atom    9 type  1   force =     0.00036462   -0.00011300    0.00006915
     atom   10 type  1   force =     0.00011095    0.00011492    0.00024225
     atom   11 type  1   force =     0.00032572    0.00023192   -0.00004234
     atom   12 type  1   force =     0.00019375   -0.00019411    0.00018346
     atom   13 type  1   force =    -0.00000000    0.00000000    0.00000000
     atom   14 type  1   force =    -0.00000000   -0.00000000   -0.00000000
     atom   15 type  1   force =    -0.00011925    0.00023029   -0.00023050
     atom   16 type  1   force =    -0.00007575   -0.00024555    0.00002559
     atom   17 type  1   force =    -0.00009336    0.00002017   -0.00001200
     atom   18 type  1   force =    -0.00016666    0.00001539   -0.00010725
     atom   19 type  1   force =    -0.00000000   -0.00000000    0.00000000
     atom   20 type  1   force =    -0.00000000    0.00000000    0.00000000
     atom   21 type  1   force =    -0.00024283   -0.00003544   -0.00016407
     atom   22 type  1   force =     0.00003031    0.00006126   -0.00003520
     atom   23 type  1   force =    -0.00020200    0.00010588   -0.00013007
     atom   24 type  1   force =    -0.00006903   -0.00015330    0.00001811
     atom   25 type  1   force =     0.00000000    0.00000000    0.00000000
     atom   26 type  1   force =     0.00000000   -0.00000000    0.00000000
     atom   27 type  1   force =     0.00035183    0.00038908    0.00002791
     atom   28 type  1   force =     0.00024855   -0.00042532    0.00008296
     atom   29 type  1   force =     0.00016304   -0.00005774    0.00008125
     atom   30 type  1   force =    -0.00011251    0.00005275   -0.00023418
     atom   31 type  1   force =     0.00000000   -0.00000000    0.00000000
     atom   32 type  1   force =     0.00000000    0.00000000   -0.00000000
     atom   33 type  1   force =     0.00019077    0.00027568   -0.00005256
     atom   34 type  1   force =     0.00039405   -0.00028286    0.00020416
     atom   35 type  1   force =     0.00003500    0.00024961   -0.00011161
     atom   36 type  1   force =     0.00010183   -0.00027718    0.00002494
     atom   37 type  1   force =    -0.00000000    0.00000000   -0.00000000
     atom   38 type  1   force =    -0.00000000   -0.00000000   -0.00000000
     atom   39 type  1   force =    -0.00021932    0.00017836   -0.00003974
     atom   40 type  1   force =    -0.00009544   -0.00016650   -0.00000757
     atom   41 type  1   force =    -0.00001214   -0.00004135    0.00013847
     atom   42 type  1   force =     0.00019118    0.00007646   -0.00002903
     atom   43 type  1   force =    -0.00000000   -0.00000000   -0.00000000
     atom   44 type  1   force =    -0.00000000    0.00000000   -0.00000000
     atom   45 type  1   force =    -0.00003055    0.00013206   -0.00019365
     atom   46 type  1   force =    -0.00025993   -0.00009878    0.00014950
     atom   47 type  1   force =     0.00011998    0.00015877    0.00003315
     atom   48 type  1   force =     0.00002436   -0.00013448    0.00008465
     atom   49 type  2   force =     0.00003106    0.00001037   -0.00004429
     atom   50 type  3   force =     0.00000344    0.00000359   -0.00000592
     atom   51 type  3   force =     0.00000092   -0.00000170   -0.00000868

     DFT-D3 dispersion contribution to forces:
     atom    1 type  1   force =    -0.00002845   -0.00002120    0.00059017
     atom    2 type  1   force =    -0.00008183    0.00000044    0.00044703
     atom    3 type  1   force =     0.00040406   -0.00001097    0.00136965
     atom    4 type  1   force =     0.00039870    0.00000568    0.00129722
     atom    5 type  1   force =    -0.00026567    0.00012468   -0.00222755
     atom    6 type  1   force =     0.00002283   -0.00025206   -0.00179298
     atom    7 type  1   force =    -0.00002732    0.00000864    0.00057048
     atom    8 type  1   force =    -0.00011408   -0.00001777    0.00041958
     atom    9 type  1   force =     0.00035864   -0.00002585    0.00143976
     atom   10 type  1   force =     0.00043206    0.00002669    0.00114531
     atom   11 type  1   force =    -0.00011339    0.00037575   -0.00194054
     atom   12 type  1   force =    -0.00016806   -0.00023173   -0.00209178
     atom   13 type  1   force =    -0.00011723   -0.00001938    0.00041450
     atom   14 type  1   force =    -0.00007844    0.00000050    0.00049522
     atom   15 type  1   force =     0.00039457    0.00000758    0.00137434
     atom   16 type  1   force =     0.00030140   -0.00000824    0.00134566
     atom   17 type  1   force =    -0.00036511    0.00009474   -0.00241906
     atom   18 type  1   force =    -0.00061895   -0.00014729   -0.00227182
     atom   19 type  1   force =    -0.00006941   -0.00000500    0.00047505
     atom   20 type  1   force =    -0.00011950   -0.00000895    0.00044104
     atom   21 type  1   force =     0.00035672   -0.00001537    0.00106922
     atom   22 type  1   force =     0.00041415    0.00002581    0.00116074
     atom   23 type  1   force =    -0.00060933    0.00012856   -0.00227321
     atom   24 type  1   force =    -0.00044956   -0.00004527   -0.00238537
     atom   25 type  1   force =     0.00007775   -0.00000945    0.00372382
     atom   26 type  1   force =     0.00013417    0.00001277    0.00373224
     atom   27 type  1   force =    -0.00014699   -0.00013644   -0.00008338
     atom   28 type  1   force =    -0.00006068    0.00008697   -0.00005372
     atom   29 type  1   force =     0.00003067   -0.00000307   -0.00289029
     atom   30 type  1   force =     0.00035265   -0.00012223   -0.00248005
     atom   31 type  1   force =     0.00015241   -0.00001836    0.00373257
     atom   32 type  1   force =     0.00022166    0.00002703    0.00378852
     atom   33 type  1   force =     0.00003678    0.00000839   -0.00015334
     atom   34 type  1   force =    -0.00021718    0.00006148   -0.00004887
     atom   35 type  1   force =    -0.00009773    0.00042536   -0.00263519
     atom   36 type  1   force =    -0.00010469   -0.00046008   -0.00247810
     atom   37 type  1   force =     0.00009030    0.00001485    0.00380032
     atom   38 type  1   force =     0.00011530   -0.00001087    0.00380149
     atom   39 type  1   force =    -0.00023385    0.00000456   -0.00002462
     atom   40 type  1   force =    -0.00024917    0.00004239   -0.00001004
     atom   41 type  1   force =     0.00007163   -0.00004547   -0.00297279
     atom   42 type  1   force =     0.00026022   -0.00001224   -0.00272973
     atom   43 type  1   force =     0.00015751   -0.00002434    0.00382381
     atom   44 type  1   force =     0.00021402    0.00002842    0.00377356
     atom   45 type  1   force =    -0.00013190   -0.00000208   -0.00009619
     atom   46 type  1   force =    -0.00022722    0.00000816   -0.00001707
     atom   47 type  1   force =     0.00002198   -0.00000892   -0.00297140
     atom   48 type  1   force =     0.00012898   -0.00002837   -0.00290882
     atom   49 type  2   force =    -0.00012334    0.00006092   -0.00110119
     atom   50 type  3   force =    -0.00015921   -0.00011399   -0.00158860
     atom   51 type  3   force =    -0.00017087    0.00022460   -0.00158561

     Total force =     0.012473     Total SCF correction =     0.001862

     DFT-D3 dispersion Force =     0.015445
     SCF correction compared to forces is large: reduce conv_thr to get better values


     Computing stress (Cartesian axis) and pressure


     negative rho (up, down):  5.855E-03 0.000E+00
          total   stress  (Ry/bohr**3)                   (kbar)     P=      -17.40
  -0.00022683   0.00000031  -0.00000744          -33.37        0.05       -1.09
   0.00000031  -0.00011750  -0.00000069            0.05      -17.28       -0.10
  -0.00000744  -0.00000069  -0.00001053           -1.09       -0.10       -1.55

     kinetic stress (kbar)  12040.65     -2.42     -2.11
                               -2.42  12020.23      1.44
                               -2.11      1.44  12101.49

     local   stress (kbar)**********     -2.05     73.45
                               -2.05**********     -9.49
                               73.45     -9.491043978.73

     nonloc. stress (kbar)  -1260.02      0.01      0.01
                                0.01  -1247.10      0.13
                                0.01      0.13  -1287.10

     hartree stress (kbar) 542514.16     -0.80    -36.33
                               -0.80 546364.34      5.12
                              -36.33      5.12-488259.08

     exc-cor stress (kbar)  -6032.68      0.03      0.05
                                0.03  -6030.22     -0.02
                                0.05     -0.02  -6038.14

     corecor stress (kbar)     -3.94      0.00      0.00
                                0.00     -3.92     -0.00
                                0.00     -0.00     -3.97

     ewald   stress (kbar) 485089.77      5.27    -36.03
                                5.27 490244.48      2.73
                              -36.03      2.73-560490.08

     hubbard stress (kbar)      0.00      0.00      0.00
                                0.00      0.00      0.00
                                0.00      0.00      0.00

     DFT-D   stress (kbar)     -7.27     -0.00     -0.14
                               -0.00     -8.67      0.01
                               -0.14      0.01     -3.39

     XDM     stress (kbar)      0.00      0.00      0.00
                                0.00      0.00      0.00
                                0.00      0.00      0.00

     dft-nl  stress (kbar)      0.00      0.00      0.00
                                0.00      0.00      0.00
                                0.00      0.00      0.00

     TS-vdW  stress (kbar)      0.00      0.00      0.00
                                0.00      0.00      0.00
                                0.00      0.00      0.00

     MDB     stress (kbar)      0.00      0.00      0.00
                                0.00      0.00      0.00
                                0.00      0.00      0.00

     3D-RISM stress (kbar)      0.00      0.00      0.00
                                0.00      0.00      0.00
                                0.00      0.00      0.00

     Energy error            =      2.8E-04 Ry
     Gradient error          =      6.2E-03 Ry/Bohr

     number of scf cycles    =  30
     number of bfgs steps    =  29

     energy             old  =  -22198.8214121812 Ry
     energy             new  =  -22198.8216923242 Ry

     CASE: energy            _new < energy            _old

     new trust radius        =       0.0278438155 bohr
     new conv_thr            =       0.0000001246 Ry


ATOMIC_POSITIONS (angstrom)
Zn               1.2182900000        1.3071800000        0.7547010000    0   0   0
Zn               1.2182900000        6.5359000000        0.7547010000    0   0   0
Zn               0.6460178870       -0.0004310116        3.5889917466
Zn               0.6428224797        5.2369808035        3.5735203499
Zn               1.3851476388       -1.3076780113        6.0652103734
Zn               1.3787215252        3.9369217876        5.9721264403
Zn               1.2182900000        3.9215400000        0.7547010000    0   0   0
Zn               1.2182900000        9.1502600000        0.7547010000    0   0   0
Zn               0.6463810398        2.6173065719        3.5722991926
Zn               0.6437392955        7.8497512935        3.5598105864
Zn               1.3703731179        1.3086124703        5.9813799440
Zn               1.3871723971        6.5436799150        6.0716593601
Zn               6.0914510000        1.3071800000        0.7547010000    0   0   0
Zn               6.0914510000        6.5359000000        0.7547010000    0   0   0
Zn               5.5193108209        0.0010522782        3.5740169366
Zn               5.5054439505        5.2369328289        3.5633690365
Zn               6.2597800675       -1.3035927088        6.0290942413
Zn               6.2710255338        3.9238734931        6.0097130274
Zn               6.0914510000        3.9215400000        0.7547010000    0   0   0
Zn               6.0914510000        9.1502600000        0.7547010000    0   0   0
Zn               5.5166859248        2.6180697821        3.5629106345
Zn               5.5165260006        7.8485247237        3.5353588818
Zn               6.2640536393        1.3145847500        6.0244499020
Zn               6.2531506630        6.5475070386        6.0275817886
Zn               3.6548710000       -0.0000000000        1.5094010000    0   0   0
Zn               3.6548710000        5.2287200000        1.5094010000    0   0   0
Zn               2.9981748274       -1.3043979556        3.7091444463
Zn               3.0272573971        3.9239282251        3.7405595320
Zn               3.8526334651       -2.6001130008        5.9867063931
Zn               3.8776344612        2.6177179845        6.1689867827
Zn               3.6548710000        2.6143600000        1.5094010000    0   0   0
Zn               3.6548710000        7.8430800000        1.5094010000    0   0   0
Zn               3.0375917292        1.3205124211        3.7382689705
Zn               2.9889654598        6.5352646438        3.7222584422
Zn               3.8497727654        0.0025170469        5.9728880670
Zn               3.8636737640        5.2413099490        5.9613544056
Zn               8.5280310000       -0.0000000000        1.5094010000    0   0   0
Zn               8.5280310000        5.2287200000        1.5094010000    0   0   0
Zn               7.8652404015       -1.3114662226        3.7025219981
Zn               7.8736865282        3.9253299802        3.7209060617
Zn               8.7310925414       -2.6158909687        5.9825119498
Zn               8.7317479818        2.6111251887        5.9866144256
Zn               8.5280310000        2.6143600000        1.5094010000    0   0   0
Zn               8.5280310000        7.8430800000        1.5094010000    0   0   0
Zn               7.8793739770        1.3145938437        3.6918100608
Zn               7.8657231413        6.5377964513        3.7186489199
Zn               8.7134678155       -0.0061785656        5.9741088148
Zn               8.7314226337        5.2329232917        5.9902832528
O                3.3542892858        2.8148268687        8.6664886222
H                2.5808277938        2.2164554597        8.6122420582
H                2.9453734462        3.6952918251        8.5364405440



     Writing config-only to output data dir ./tmp/02_Zn100_H2O.save/ :
     XML data file
     NEW-OLD atomic charge density approx. for the potential

     negative rho (up, down):  5.831E-03 0.000E+00

     total cpu time spent up to now is   179606.2 secs

     Self-consistent Calculation

     iteration #  1     ecut=    40.00 Ry     beta= 0.40
     Davidson diagonalization with overlap

---- Real-time Memory Report at c_bands before calling an iterative solver
           441 MiB given to the printing process from OS
             0 MiB allocation reported by mallinfo(arena+hblkhd)
         27068 MiB available memory on the node where the printing process lives
------------------
     ethr =  1.00E-06,  avg # of iterations =  5.0

     Threshold (ethr) on eigenvalues was too large:
     Diagonalizing with lowered threshold

     Davidson diagonalization with overlap

---- Real-time Memory Report at c_bands before calling an iterative solver
           441 MiB given to the printing process from OS
             0 MiB allocation reported by mallinfo(arena+hblkhd)
         27065 MiB available memory on the node where the printing process lives
------------------
     ethr =  1.78E-08,  avg # of iterations =  2.0

     negative rho (up, down):  5.833E-03 0.000E+00

     total cpu time spent up to now is   181345.1 secs

     total energy              =  -22198.82202959 Ry
     estimated scf accuracy    <       0.00017194 Ry

     iteration #  2     ecut=    40.00 Ry     beta= 0.40
     Davidson diagonalization with overlap

---- Real-time Memory Report at c_bands before calling an iterative solver
           441 MiB given to the printing process from OS
             0 MiB allocation reported by mallinfo(arena+hblkhd)
         26925 MiB available memory on the node where the printing process lives
------------------
