--------------------------------------------------------------------------
By default, for Open MPI 4.0 and later, infiniband ports on a device
are not used by default.  The intent is to use UCX for these devices.
You can override this policy by setting the btl_openib_allow_ib MCA parameter
to true.

  Local host:              psid03
  Local adapter:           mlx5_0
  Local port:              1

--------------------------------------------------------------------------
--------------------------------------------------------------------------
WARNING: There was an error initializing an OpenFabrics device.

  Local host:   psid03
  Local device: mlx5_0
--------------------------------------------------------------------------

     Program PWSCF v.7.3.1 starts on 26Mar2025 at  0:56: 1 

     This program is part of the open-source Quantum ESPRESSO suite
     for quantum simulation of materials; please cite
         "P. Giannozzi et al., J. Phys.:Condens. Matter 21 395502 (2009);
         "P. Giannozzi et al., J. Phys.:Condens. Matter 29 465901 (2017);
         "P. Giannozzi et al., J. Chem. Phys. 152 154105 (2020);
          URL http://www.quantum-espresso.org", 
     in publications or presentations arising from this work. More details at
     http://www.quantum-espresso.org/quote

     Parallel version (MPI), running on    33 processors

     MPI processes distributed on     1 nodes
     76318 MiB available memory on the printing compute node when the environment starts

     Waiting for input...
     Reading input from standard input

     Current dimensions of program PWSCF are:
     Max number of different atomic species (ntypx) = 10
     Max number of k-points (npk) =  40000
     Max angular momentum in pseudopotentials (lmaxx) =  4
     Found identity + ( -0.5000  0.0000  0.0000) symmetry
     This is a supercell, fractional translations are disabled

     R & G space division:  proc/nbgrp/npool/nimage =      33
     Subspace diagonalization in iterative solution of the eigenvalue problem:
     one sub-group per band group will be used
     custom distributed-memory algorithm (size of sub-group:  5*  5 procs)


     Parallelization info
     --------------------
     sticks:   dense  smooth     PW     G-vecs:    dense   smooth      PW
     Min         228     130     36                36393    15714    2270
     Max         230     131     37                36401    15723    2280
     Sum        7555    4303   1189              1201061   518755   75035

     Using Slab Decomposition



     bravais-lattice index     =            0
     lattice parameter (alat)  =      19.7617  a.u.
     unit-cell volume          =   15176.5939 (a.u.)^3
     number of atoms/cell      =           48
     number of atomic types    =            1
     number of electrons       =       960.00
     number of Kohn-Sham states=          576
     kinetic-energy cutoff     =      40.0000  Ry
     charge density cutoff     =     280.0000  Ry
     scf convergence threshold =      1.0E-06
     mixing beta               =       0.4000
     number of iterations used =            8  plain     mixing
     Exchange-correlation= SLA  PW   PBE  PBE
                           (   1   4   3   4   0   0   0)

     celldm(1)=  19.761696  celldm(2)=   0.000000  celldm(3)=   0.000000
     celldm(4)=   0.000000  celldm(5)=   0.000000  celldm(6)=   0.000000

     crystal axes: (cart. coord. in units of alat)
               a(1) = (   1.000000   0.000000   0.000000 )  
               a(2) = (  -0.500000   0.866025   0.000000 )  
               a(3) = (   0.000000   0.000000   2.270759 )  

     reciprocal axes: (cart. coord. in units 2 pi/alat)
               b(1) = (  1.000000  0.577350 -0.000000 )  
               b(2) = (  0.000000  1.154701  0.000000 )  
               b(3) = (  0.000000 -0.000000  0.440381 )  


     PseudoPot. # 1 for Zn read from file:
     /home/ys/qepseudo/SSSP_1.3.0_PBE_efficiency/Zn_pbe_v1.uspp.F.UPF
     MD5 check sum: df62231357ef9e81f77b2b3087fa5675
     Pseudo is Ultrasoft, Zval = 20.0
     Generated by new atomic code, or converted to UPF format
     Using radial grid of  943 points,  6 beta functions with: 
                l(1) =   0
                l(2) =   0
                l(3) =   1
                l(4) =   1
                l(5) =   2
                l(6) =   2
     Q(r) pseudized with  8 coefficients,  rinner =    1.100   1.100   1.100
                                                       1.100   1.100

     atomic species   valence    mass     pseudopotential
     Zn               20.00    65.38000     Zn( 1.00)

     No symmetry found


                                    s                        frac. trans.

      isym =  1     identity                                     

 cryst.   s( 1) = (     1          0          0      )
                  (     0          1          0      )
                  (     0          0          1      )

 cart.    s( 1) = (  1.0000000  0.0000000  0.0000000 )
                  (  0.0000000  1.0000000  0.0000000 )
                  (  0.0000000  0.0000000  1.0000000 )


   Cartesian axes

     site n.     atom                  positions (alat units)
         1        Zn     tau(   1) = (   0.0000000   0.1443375   0.1164998  )
         2        Zn     tau(   2) = (   0.5000000   0.1443375   0.1164998  )
         3        Zn     tau(   3) = (   0.0000000   0.1443375   0.5824993  )
         4        Zn     tau(   4) = (   0.5000000   0.1443375   0.5824993  )
         5        Zn     tau(   5) = (  -0.1250000   0.3608439   0.1164998  )
         6        Zn     tau(   6) = (   0.3750000   0.3608439   0.1164998  )
         7        Zn     tau(   7) = (  -0.1250000   0.3608439   0.5824993  )
         8        Zn     tau(   8) = (   0.3750000   0.3608439   0.5824993  )
         9        Zn     tau(   9) = (  -0.2500000   0.5773502   0.1164998  )
        10        Zn     tau(  10) = (   0.2500000   0.5773502   0.1164998  )
        11        Zn     tau(  11) = (  -0.2500000   0.5773502   0.5824993  )
        12        Zn     tau(  12) = (   0.2500000   0.5773502   0.5824993  )
        13        Zn     tau(  13) = (  -0.3750000   0.7938567   0.1164998  )
        14        Zn     tau(  14) = (   0.1250000   0.7938567   0.1164998  )
        15        Zn     tau(  15) = (  -0.3750000   0.7938567   0.5824993  )
        16        Zn     tau(  16) = (   0.1250000   0.7938567   0.5824993  )
        17        Zn     tau(  17) = (   0.2500000   0.1443375   0.1164998  )
        18        Zn     tau(  18) = (   0.7500000   0.1443375   0.1164998  )
        19        Zn     tau(  19) = (   0.2500000   0.1443375   0.5824993  )
        20        Zn     tau(  20) = (   0.7500000   0.1443375   0.5824993  )
        21        Zn     tau(  21) = (   0.1250000   0.3608439   0.1164998  )
        22        Zn     tau(  22) = (   0.6250000   0.3608439   0.1164998  )
        23        Zn     tau(  23) = (   0.1250000   0.3608439   0.5824993  )
        24        Zn     tau(  24) = (   0.6250000   0.3608439   0.5824993  )
        25        Zn     tau(  25) = (   0.0000000   0.5773502   0.1164998  )
        26        Zn     tau(  26) = (   0.5000000   0.5773502   0.1164998  )
        27        Zn     tau(  27) = (   0.0000000   0.5773502   0.5824993  )
        28        Zn     tau(  28) = (   0.5000000   0.5773502   0.5824993  )
        29        Zn     tau(  29) = (  -0.1250000   0.7938567   0.1164998  )
        30        Zn     tau(  30) = (   0.3750000   0.7938567   0.1164998  )
        31        Zn     tau(  31) = (  -0.1250000   0.7938567   0.5824993  )
        32        Zn     tau(  32) = (   0.3750000   0.7938567   0.5824993  )
        33        Zn     tau(  33) = (   0.1250000   0.0721688   0.3494996  )
        34        Zn     tau(  34) = (   0.6250000   0.0721688   0.3494996  )
        35        Zn     tau(  35) = (   0.0000000   0.2886752   0.3494996  )
        36        Zn     tau(  36) = (   0.5000000   0.2886752   0.3494996  )
        37        Zn     tau(  37) = (  -0.1250000   0.5051815   0.3494996  )
        38        Zn     tau(  38) = (   0.3750000   0.5051815   0.3494996  )
        39        Zn     tau(  39) = (  -0.2500000   0.7216879   0.3494996  )
        40        Zn     tau(  40) = (   0.2500000   0.7216879   0.3494996  )
        41        Zn     tau(  41) = (   0.3750000   0.0721688   0.3494996  )
        42        Zn     tau(  42) = (   0.8750000   0.0721688   0.3494996  )
        43        Zn     tau(  43) = (   0.2500000   0.2886752   0.3494996  )
        44        Zn     tau(  44) = (   0.7500000   0.2886752   0.3494996  )
        45        Zn     tau(  45) = (   0.1250000   0.5051815   0.3494996  )
        46        Zn     tau(  46) = (   0.6250000   0.5051815   0.3494996  )
        47        Zn     tau(  47) = (   0.0000000   0.7216879   0.3494996  )
        48        Zn     tau(  48) = (   0.5000000   0.7216879   0.3494996  )

   Crystallographic axes

     site n.     atom                  positions (cryst. coord.)
         1        Zn     tau(   1) = (  0.0833333  0.1666666  0.0513044  )
         2        Zn     tau(   2) = (  0.5833333  0.1666666  0.0513044  )
         3        Zn     tau(   3) = (  0.0833333  0.1666666  0.2565219  )
         4        Zn     tau(   4) = (  0.5833333  0.1666666  0.2565219  )
         5        Zn     tau(   5) = (  0.0833333  0.4166666  0.0513044  )
         6        Zn     tau(   6) = (  0.5833333  0.4166666  0.0513044  )
         7        Zn     tau(   7) = (  0.0833333  0.4166666  0.2565219  )
         8        Zn     tau(   8) = (  0.5833333  0.4166666  0.2565219  )
         9        Zn     tau(   9) = (  0.0833333  0.6666666  0.0513044  )
        10        Zn     tau(  10) = (  0.5833333  0.6666666  0.0513044  )
        11        Zn     tau(  11) = (  0.0833333  0.6666666  0.2565219  )
        12        Zn     tau(  12) = (  0.5833333  0.6666666  0.2565219  )
        13        Zn     tau(  13) = (  0.0833333  0.9166667  0.0513044  )
        14        Zn     tau(  14) = (  0.5833334  0.9166667  0.0513044  )
        15        Zn     tau(  15) = (  0.0833333  0.9166667  0.2565219  )
        16        Zn     tau(  16) = (  0.5833334  0.9166667  0.2565219  )
        17        Zn     tau(  17) = (  0.3333333  0.1666666  0.0513044  )
        18        Zn     tau(  18) = (  0.8333334  0.1666666  0.0513044  )
        19        Zn     tau(  19) = (  0.3333333  0.1666666  0.2565219  )
        20        Zn     tau(  20) = (  0.8333334  0.1666666  0.2565219  )
        21        Zn     tau(  21) = (  0.3333333  0.4166666  0.0513044  )
        22        Zn     tau(  22) = (  0.8333333  0.4166666  0.0513044  )
        23        Zn     tau(  23) = (  0.3333333  0.4166666  0.2565219  )
        24        Zn     tau(  24) = (  0.8333333  0.4166666  0.2565219  )
        25        Zn     tau(  25) = (  0.3333333  0.6666666  0.0513044  )
        26        Zn     tau(  26) = (  0.8333333  0.6666666  0.0513044  )
        27        Zn     tau(  27) = (  0.3333333  0.6666666  0.2565219  )
        28        Zn     tau(  28) = (  0.8333333  0.6666666  0.2565219  )
        29        Zn     tau(  29) = (  0.3333334  0.9166667  0.0513044  )
        30        Zn     tau(  30) = (  0.8333334  0.9166667  0.0513044  )
        31        Zn     tau(  31) = (  0.3333334  0.9166667  0.2565219  )
        32        Zn     tau(  32) = (  0.8333334  0.9166667  0.2565219  )
        33        Zn     tau(  33) = (  0.1666667  0.0833334  0.1539131  )
        34        Zn     tau(  34) = (  0.6666667  0.0833334  0.1539131  )
        35        Zn     tau(  35) = (  0.1666667  0.3333334  0.1539131  )
        36        Zn     tau(  36) = (  0.6666667  0.3333334  0.1539131  )
        37        Zn     tau(  37) = (  0.1666667  0.5833334  0.1539131  )
        38        Zn     tau(  38) = (  0.6666667  0.5833334  0.1539131  )
        39        Zn     tau(  39) = (  0.1666667  0.8333334  0.1539131  )
        40        Zn     tau(  40) = (  0.6666667  0.8333334  0.1539131  )
        41        Zn     tau(  41) = (  0.4166667  0.0833334  0.1539131  )
        42        Zn     tau(  42) = (  0.9166667  0.0833334  0.1539131  )
        43        Zn     tau(  43) = (  0.4166667  0.3333334  0.1539131  )
        44        Zn     tau(  44) = (  0.9166667  0.3333334  0.1539131  )
        45        Zn     tau(  45) = (  0.4166667  0.5833334  0.1539131  )
        46        Zn     tau(  46) = (  0.9166667  0.5833334  0.1539131  )
        47        Zn     tau(  47) = (  0.4166667  0.8333334  0.1539131  )
        48        Zn     tau(  48) = (  0.9166667  0.8333334  0.1539131  )

     number of k points=    10  Marzari-Vanderbilt smearing, width (Ry)=  0.0200
                       cart. coord. in units 2pi/alat
        k(    1) = (   0.0000000   0.0000000   0.0000000), wk =   0.1250000
        k(    2) = (   0.0000000   0.2886751   0.0000000), wk =   0.2500000
        k(    3) = (   0.0000000  -0.5773503   0.0000000), wk =   0.1250000
        k(    4) = (   0.2500000   0.1443376   0.0000000), wk =   0.2500000
        k(    5) = (   0.2500000   0.4330127   0.0000000), wk =   0.2500000
        k(    6) = (   0.2500000  -0.4330127   0.0000000), wk =   0.2500000
        k(    7) = (   0.2500000  -0.1443376   0.0000000), wk =   0.2500000
        k(    8) = (  -0.5000000  -0.2886751   0.0000000), wk =   0.1250000
        k(    9) = (  -0.5000000   0.0000000   0.0000000), wk =   0.2500000
        k(   10) = (  -0.5000000  -0.8660254   0.0000000), wk =   0.1250000

                       cryst. coord.
        k(    1) = (   0.0000000   0.0000000   0.0000000), wk =   0.1250000
        k(    2) = (   0.0000000   0.2500000   0.0000000), wk =   0.2500000
        k(    3) = (   0.0000000  -0.5000000   0.0000000), wk =   0.1250000
        k(    4) = (   0.2500000   0.0000000   0.0000000), wk =   0.2500000
        k(    5) = (   0.2500000   0.2500000   0.0000000), wk =   0.2500000
        k(    6) = (   0.2500000  -0.5000000   0.0000000), wk =   0.2500000
        k(    7) = (   0.2500000  -0.2500000   0.0000000), wk =   0.2500000
        k(    8) = (  -0.5000000   0.0000000   0.0000000), wk =   0.1250000
        k(    9) = (  -0.5000000   0.2500000   0.0000000), wk =   0.2500000
        k(   10) = (  -0.5000000  -0.5000000   0.0000000), wk =   0.1250000

     Dense  grid:  1201061 G-vectors     FFT dimensions: ( 108, 108, 240)

     Smooth grid:   518755 G-vectors     FFT dimensions: (  80,  80, 192)

     Dynamical RAM for                 wfc:      17.26 MB

     Dynamical RAM for     wfc (w. buffer):     189.88 MB

     Dynamical RAM for           str. fact:       0.56 MB

     Dynamical RAM for           local pot:       0.00 MB

     Dynamical RAM for          nlocal pot:      25.89 MB

     Dynamical RAM for                qrad:       1.34 MB

     Dynamical RAM for          rho,v,vnew:       3.80 MB

     Dynamical RAM for               rhoin:       1.27 MB

     Dynamical RAM for            rho*nmix:       8.89 MB

     Dynamical RAM for           G-vectors:       2.20 MB

     Dynamical RAM for          h,s,v(r/c):       2.42 MB

     Dynamical RAM for          <psi|beta>:       7.59 MB

     Dynamical RAM for                 psi:      34.52 MB

     Dynamical RAM for                hpsi:      34.52 MB

     Dynamical RAM for                spsi:      34.52 MB

     Dynamical RAM for      wfcinit/wfcrot:      46.32 MB

     Dynamical RAM for           addusdens:     129.95 MB

     Estimated static dynamical RAM per process >     229.61 MB

     Estimated max dynamical RAM per process >     368.45 MB

     Estimated total dynamical RAM >      11.87 GB

     Initial potential from superposition of free atoms

     starting charge     959.9932, renormalised to     960.0000

     negative rho (up, down):  4.194E-03 0.000E+00
     Starting wfcs are  624 randomized atomic wfcs
[psid03:91370] 32 more processes have sent help message help-mpi-btl-openib.txt / ib port not selected
[psid03:91370] Set MCA parameter "orte_base_help_aggregate" to 0 to see all help / error messages
[psid03:91370] 32 more processes have sent help message help-mpi-btl-openib.txt / error in device init

     total cpu time spent up to now is      116.5 secs

     Self-consistent Calculation

     iteration #  1     ecut=    40.00 Ry     beta= 0.40
     Davidson diagonalization with overlap

---- Real-time Memory Report at c_bands before calling an iterative solver
           298 MiB given to the printing process from OS
             0 MiB allocation reported by mallinfo(arena+hblkhd)
         68307 MiB available memory on the node where the printing process lives
------------------
     ethr =  1.00E-02,  avg # of iterations =  9.4

     Threshold (ethr) on eigenvalues was too large:
     Diagonalizing with lowered threshold

     Davidson diagonalization with overlap

---- Real-time Memory Report at c_bands before calling an iterative solver
           391 MiB given to the printing process from OS
             0 MiB allocation reported by mallinfo(arena+hblkhd)
         67156 MiB available memory on the node where the printing process lives
------------------
     ethr =  1.61E-04,  avg # of iterations = 11.2

     negative rho (up, down):  4.980E-03 0.000E+00

     total cpu time spent up to now is     1004.9 secs

     total energy              =  -22153.85661463 Ry
     estimated scf accuracy    <       1.57417206 Ry

     iteration #  2     ecut=    40.00 Ry     beta= 0.40
     Davidson diagonalization with overlap

---- Real-time Memory Report at c_bands before calling an iterative solver
           401 MiB given to the printing process from OS
             0 MiB allocation reported by mallinfo(arena+hblkhd)
         67067 MiB available memory on the node where the printing process lives
------------------
     ethr =  1.64E-04,  avg # of iterations =  2.6

     negative rho (up, down):  5.513E-03 0.000E+00

     total cpu time spent up to now is     1434.7 secs

     total energy              =  -22154.23559656 Ry
     estimated scf accuracy    <       0.27638786 Ry

     iteration #  3     ecut=    40.00 Ry     beta= 0.40
     Davidson diagonalization with overlap

---- Real-time Memory Report at c_bands before calling an iterative solver
           404 MiB given to the printing process from OS
             0 MiB allocation reported by mallinfo(arena+hblkhd)
         67040 MiB available memory on the node where the printing process lives
------------------
     c_bands:  1 eigenvalues not converged
     ethr =  2.88E-05,  avg # of iterations =  8.3

     negative rho (up, down):  5.934E-03 0.000E+00

     total cpu time spent up to now is     1825.7 secs

     total energy              =  -22154.25252774 Ry
     estimated scf accuracy    <       0.04708202 Ry

     iteration #  4     ecut=    40.00 Ry     beta= 0.40
     Davidson diagonalization with overlap

---- Real-time Memory Report at c_bands before calling an iterative solver
           404 MiB given to the printing process from OS
             0 MiB allocation reported by mallinfo(arena+hblkhd)
         67022 MiB available memory on the node where the printing process lives
------------------
     ethr =  4.90E-06,  avg # of iterations =  9.0

     negative rho (up, down):  5.968E-03 0.000E+00

     total cpu time spent up to now is     2230.7 secs

     total energy              =  -22154.25387490 Ry
     estimated scf accuracy    <       0.01465593 Ry

     iteration #  5     ecut=    40.00 Ry     beta= 0.40
     Davidson diagonalization with overlap

---- Real-time Memory Report at c_bands before calling an iterative solver
           405 MiB given to the printing process from OS
             0 MiB allocation reported by mallinfo(arena+hblkhd)
         67002 MiB available memory on the node where the printing process lives
------------------
     ethr =  1.53E-06,  avg # of iterations =  5.5

     negative rho (up, down):  6.011E-03 0.000E+00

     total cpu time spent up to now is     2617.5 secs

     total energy              =  -22154.25490911 Ry
     estimated scf accuracy    <       0.00217902 Ry

     iteration #  6     ecut=    40.00 Ry     beta= 0.40
     Davidson diagonalization with overlap

---- Real-time Memory Report at c_bands before calling an iterative solver
           405 MiB given to the printing process from OS
             0 MiB allocation reported by mallinfo(arena+hblkhd)
         66984 MiB available memory on the node where the printing process lives
------------------
     ethr =  2.27E-07,  avg # of iterations =  2.0

     negative rho (up, down):  6.041E-03 0.000E+00

     total cpu time spent up to now is     3036.5 secs

     total energy              =  -22154.25531891 Ry
     estimated scf accuracy    <       0.00007602 Ry

     iteration #  7     ecut=    40.00 Ry     beta= 0.40
     Davidson diagonalization with overlap

---- Real-time Memory Report at c_bands before calling an iterative solver
           406 MiB given to the printing process from OS
             0 MiB allocation reported by mallinfo(arena+hblkhd)
         66964 MiB available memory on the node where the printing process lives
------------------
     ethr =  7.92E-09,  avg # of iterations =  2.0

     negative rho (up, down):  6.064E-03 0.000E+00

     total cpu time spent up to now is     3472.2 secs

     total energy              =  -22154.25530172 Ry
     estimated scf accuracy    <       0.00075733 Ry

     iteration #  8     ecut=    40.00 Ry     beta= 0.40
     Davidson diagonalization with overlap

---- Real-time Memory Report at c_bands before calling an iterative solver
           406 MiB given to the printing process from OS
             0 MiB allocation reported by mallinfo(arena+hblkhd)
         66945 MiB available memory on the node where the printing process lives
------------------
     ethr =  7.92E-09,  avg # of iterations =  2.0

     negative rho (up, down):  6.080E-03 0.000E+00

     total cpu time spent up to now is     3838.3 secs

     total energy              =  -22154.25531504 Ry
     estimated scf accuracy    <       0.00005740 Ry

     iteration #  9     ecut=    40.00 Ry     beta= 0.40
     Davidson diagonalization with overlap

---- Real-time Memory Report at c_bands before calling an iterative solver
           407 MiB given to the printing process from OS
             0 MiB allocation reported by mallinfo(arena+hblkhd)
         66931 MiB available memory on the node where the printing process lives
------------------
     ethr =  5.98E-09,  avg # of iterations =  2.3

     negative rho (up, down):  6.091E-03 0.000E+00

     total cpu time spent up to now is     4296.6 secs

     total energy              =  -22154.25533144 Ry
     estimated scf accuracy    <       0.00001622 Ry

     iteration # 10     ecut=    40.00 Ry     beta= 0.40
     Davidson diagonalization with overlap

---- Real-time Memory Report at c_bands before calling an iterative solver
           407 MiB given to the printing process from OS
             0 MiB allocation reported by mallinfo(arena+hblkhd)
         66911 MiB available memory on the node where the printing process lives
------------------
     ethr =  1.69E-09,  avg # of iterations =  2.0

     negative rho (up, down):  6.110E-03 0.000E+00

     total cpu time spent up to now is     4724.9 secs

     End of self-consistent calculation

          k = 0.0000 0.0000 0.0000 ( 64855 PWs)   bands (ev):

  -125.0679-125.0663-125.0663-125.0662-125.0660-125.0658-125.0657-125.0648
  -125.0647-125.0644-125.0643-125.0642-125.0641-125.0640-125.0640-125.0638
  -124.8637-124.8634-124.8621-124.8621-124.8620-124.8618-124.8618-124.8618
  -124.8617-124.8617-124.8616-124.8616-124.8615-124.8615-124.8605-124.8605
  -124.8602-124.8602-124.8601-124.8601-124.8600-124.8600-124.8600-124.8599
  -124.8599-124.8598-124.8598-124.8598-124.8598-124.8597-124.8597-124.8596
   -79.2343 -79.2343 -79.2343 -79.2277 -79.2277 -79.2277 -79.2276 -79.2275
   -79.2275 -79.2164 -79.2164 -79.2163 -79.2162 -79.2162 -79.2161 -79.2161
   -79.2143 -79.2143 -79.2143 -79.2143 -79.2143 -79.2143 -79.2142 -79.2141
   -79.2141 -79.2140 -79.2138 -79.2138 -79.2125 -79.2124 -79.2121 -79.2121
   -79.2120 -79.2118 -79.2118 -79.2117 -79.2116 -79.2076 -79.2076 -79.2076
   -79.2030 -79.2030 -79.2029 -79.2028 -79.2028 -79.2027 -79.1982 -79.1982
   -79.0268 -79.0268 -79.0268 -79.0265 -79.0265 -79.0265 -79.0202 -79.0202
   -79.0202 -79.0202 -79.0202 -79.0200 -79.0200 -79.0200 -79.0200 -79.0199
   -79.0199 -79.0199 -79.0198 -79.0198 -79.0185 -79.0184 -79.0184 -79.0182
   -79.0182 -79.0181 -79.0181 -79.0180 -79.0180 -79.0179 -79.0179 -79.0178
   -79.0167 -79.0167 -79.0165 -79.0164 -79.0164 -79.0163 -79.0163 -79.0162
   -79.0162 -79.0162 -79.0161 -79.0161 -79.0160 -79.0160 -79.0160 -79.0159
   -79.0159 -79.0159 -79.0089 -79.0089 -79.0088 -79.0088 -79.0087 -79.0087
   -79.0087 -79.0087 -79.0086 -79.0086 -79.0085 -79.0085 -79.0069 -79.0069
   -79.0068 -79.0068 -79.0066 -79.0066 -79.0066 -79.0066 -79.0066 -79.0066
   -79.0065 -79.0065 -79.0002 -79.0002 -79.0002 -79.0000 -79.0000 -79.0000
   -78.9956 -78.9956 -78.9955 -78.9954 -78.9954 -78.9953 -78.9953 -78.9953
   -78.9953 -78.9952 -78.9952 -78.9952 -78.9908 -78.9908 -78.9906 -78.9905
    -8.6227  -7.4003  -7.0921  -7.0689  -7.0688  -7.0688  -7.0687  -7.0687
    -7.0686  -6.9148  -6.9148  -6.9148  -6.7258  -6.7258  -6.7258  -6.6783
    -6.6783  -6.6783  -6.5892  -6.5892  -6.5891  -6.5891  -6.5890  -6.5890
    -6.5402  -6.5401  -6.5401  -6.5401  -6.5400  -6.5400  -6.5367  -6.5367
    -6.5367  -6.4793  -6.4793  -6.4792  -6.4792  -6.4790  -6.4790  -6.4326
    -6.4326  -6.4325  -6.4325  -6.4324  -6.4324  -6.3353  -6.3353  -6.3350
    -6.3350  -6.3350  -6.3349  -6.3336  -6.3336  -6.3335  -6.2736  -6.2736
    -6.2736  -6.2735  -6.2734  -6.2734  -6.2700  -6.2116  -6.2116  -6.2116
    -6.2115  -6.2114  -6.2114  -6.1718  -6.1718  -6.1718  -6.1718  -6.1718
    -6.1718  -6.1462  -6.1462  -6.1462  -6.1462  -6.1462  -6.1462  -6.1226
    -6.1226  -6.1225  -6.1225  -6.1225  -6.1225  -6.1225  -6.1225  -6.0976
    -6.0976  -6.0976  -6.0967  -6.0967  -6.0967  -6.0967  -6.0967  -6.0967
    -5.9945  -5.9945  -5.9945  -5.9945  -5.9944  -5.9944  -5.9168  -5.9168
    -5.8980  -5.8980  -5.8656  -5.8656  -5.8656  -5.8656  -5.8656  -5.8656
    -5.8637  -5.8637  -5.8636  -5.8636  -5.8635  -5.8635  -5.8323  -5.8323
    -5.8323  -5.7831  -5.7831  -5.7831  -5.7831  -5.7830  -5.7830  -5.7766
    -5.7766  -5.7766  -5.7766  -5.7766  -5.7766  -5.7763  -5.7763  -5.7763
    -5.7762  -5.7762  -5.7762  -5.7545  -5.7545  -5.7545  -5.7545  -5.7545
    -5.7544  -5.7454  -5.7453  -5.7453  -5.7452  -5.7452  -5.7451  -5.7286
    -5.7285  -5.7285  -5.7284  -5.7283  -5.7283  -5.7159  -5.7093  -5.7093
    -5.7092  -5.7092  -5.7091  -5.7091  -5.6971  -5.6971  -5.6971  -5.6108
    -5.6108  -5.5757  -5.5757  -5.5755  -5.5755  -5.5754  -5.5754  -5.5691
    -5.5691  -5.5689  -5.5689  -5.5688  -5.5688  -5.5460  -5.5460  -5.5460
    -5.5459  -5.5459  -5.5458  -5.5295  -5.5295  -5.5295  -5.5029  -5.5029
    -5.5028  -5.5027  -5.5027  -5.5027  -5.4942  -5.4942  -5.4942  -5.4941
    -5.4941  -5.4941  -5.4460  -5.4460  -5.4460  -5.4459  -5.4459  -5.4458
    -5.4339  -5.4339  -5.4339  -5.4335  -5.4335  -5.4335  -5.3972  -5.3972
    -5.3972  -5.3912  -5.3912  -5.3912  -5.3911  -5.3911  -5.3911  -5.3835
    -5.3835  -5.3623  -5.3623  -5.3199  -5.3199  -5.3197  -5.3197  -5.3197
    -5.3197  -5.2903  -5.2903  -5.2903  -5.2903  -5.2903  -5.2903  -5.2815
    -5.2814  -5.2814  -5.0718  -5.0718  -5.0718  -5.0715  -5.0715  -5.0715
    -4.3980  -4.3979  -4.3979  -4.3978  -4.3977  -4.3976  -3.4504  -2.1039
    -2.1039  -2.1039  -2.1039  -2.1039  -2.1039  -2.0206  -2.0205  -2.0204
    -2.0203  -2.0202  -2.0202  -0.8428  -0.8428  -0.8428  -0.7125  -0.6404
    -0.6404  -0.6404  -0.6404  -0.6404  -0.6404  -0.0848  -0.0848  -0.0848
     0.2447   0.2447   0.2447   1.5360   1.5360   1.5360   1.5360   1.5360
     1.5360   1.5803   1.5803   1.5804   1.5805   1.5806   1.5806   2.3088
     2.3088   2.3088   3.1077   3.3008   3.3008   3.3008   4.1412   4.1412
     4.1412   4.8831   4.8832   4.8832   4.8833   4.8834   4.8834   5.0744
     5.2656   5.4269   5.4269   5.4269   5.4269   5.4269   5.4269   5.4343
     5.4343   5.4344   5.4344   5.4345   5.4345   5.6048   5.6048   5.6049
     5.6049   5.6050   5.6050   6.1994   6.3980   6.5620   6.5620   6.5620
     6.8729   6.8729   6.8730   6.8730   6.8730   6.8730   7.0104   7.0104
     7.0104   7.0104   7.0105   7.0105   7.1016   7.1016   7.1016   7.1016
     7.1016   7.1016   7.1883   7.1883   7.1884   7.1884   7.1885   7.1885
     8.0383   8.0383   8.0384   8.0384   8.0384   8.0384   8.1446   8.1446
     8.1446   8.1446   8.1447   8.1447   8.1854   8.1854   8.1854   8.1855
     8.1855   8.1855   8.2066   8.3656   8.3755   8.3755   8.3755   9.2829

     occupation numbers 
     1.0000   1.0000   1.0000   1.0000   1.0000   1.0000   1.0000   1.0000
     1.0000   1.0000   1.0000   1.0000   1.0000   1.0000   1.0000   1.0000
     1.0000   1.0000   1.0000   1.0000   1.0000   1.0000   1.0000   1.0000
     1.0000   1.0000   1.0000   1.0000   1.0000   1.0000   1.0000   1.0000
     1.0000   1.0000   1.0000   1.0000   1.0000   1.0000   1.0000   1.0000
     1.0000   1.0000   1.0000   1.0000   1.0000   1.0000   1.0000   1.0000
     1.0000   1.0000   1.0000   1.0000   1.0000   1.0000   1.0000   1.0000
     1.0000   1.0000   1.0000   1.0000   1.0000   1.0000   1.0000   1.0000
     1.0000   1.0000   1.0000   1.0000   1.0000   1.0000   1.0000   1.0000
     1.0000   1.0000   1.0000   1.0000   1.0000   1.0000   1.0000   1.0000
     1.0000   1.0000   1.0000   1.0000   1.0000   1.0000   1.0000   1.0000
     1.0000   1.0000   1.0000   1.0000   1.0000   1.0000   1.0000   1.0000
     1.0000   1.0000   1.0000   1.0000   1.0000   1.0000   1.0000   1.0000
     1.0000   1.0000   1.0000   1.0000   1.0000   1.0000   1.0000   1.0000
     1.0000   1.0000   1.0000   1.0000   1.0000   1.0000   1.0000   1.0000
     1.0000   1.0000   1.0000   1.0000   1.0000   1.0000   1.0000   1.0000
     1.0000   1.0000   1.0000   1.0000   1.0000   1.0000   1.0000   1.0000
     1.0000   1.0000   1.0000   1.0000   1.0000   1.0000   1.0000   1.0000
     1.0000   1.0000   1.0000   1.0000   1.0000   1.0000   1.0000   1.0000
     1.0000   1.0000   1.0000   1.0000   1.0000   1.0000   1.0000   1.0000
     1.0000   1.0000   1.0000   1.0000   1.0000   1.0000   1.0000   1.0000
     1.0000   1.0000   1.0000   1.0000   1.0000   1.0000   1.0000   1.0000
     1.0000   1.0000   1.0000   1.0000   1.0000   1.0000   1.0000   1.0000
     1.0000   1.0000   1.0000   1.0000   1.0000   1.0000   1.0000   1.0000
     1.0000   1.0000   1.0000   1.0000   1.0000   1.0000   1.0000   1.0000
     1.0000   1.0000   1.0000   1.0000   1.0000   1.0000   1.0000   1.0000
     1.0000   1.0000   1.0000   1.0000   1.0000   1.0000   1.0000   1.0000
     1.0000   1.0000   1.0000   1.0000   1.0000   1.0000   1.0000   1.0000
     1.0000   1.0000   1.0000   1.0000   1.0000   1.0000   1.0000   1.0000
     1.0000   1.0000   1.0000   1.0000   1.0000   1.0000   1.0000   1.0000
     1.0000   1.0000   1.0000   1.0000   1.0000   1.0000   1.0000   1.0000
     1.0000   1.0000   1.0000   1.0000   1.0000   1.0000   1.0000   1.0000
     1.0000   1.0000   1.0000   1.0000   1.0000   1.0000   1.0000   1.0000
     1.0000   1.0000   1.0000   1.0000   1.0000   1.0000   1.0000   1.0000
     1.0000   1.0000   1.0000   1.0000   1.0000   1.0000   1.0000   1.0000
     1.0000   1.0000   1.0000   1.0000   1.0000   1.0000   1.0000   1.0000
     1.0000   1.0000   1.0000   1.0000   1.0000   1.0000   1.0000   1.0000
     1.0000   1.0000   1.0000   1.0000   1.0000   1.0000   1.0000   1.0000
     1.0000   1.0000   1.0000   1.0000   1.0000   1.0000   1.0000   1.0000
     1.0000   1.0000   1.0000   1.0000   1.0000   1.0000   1.0000   1.0000
     1.0000   1.0000   1.0000   1.0000   1.0000   1.0000   1.0000   1.0000
     1.0000   1.0000   1.0000   1.0000   1.0000   1.0000   1.0000   1.0000
     1.0000   1.0000   1.0000   1.0000   1.0000   1.0000   1.0000   1.0000
     1.0000   1.0000   1.0000   1.0000   1.0000   1.0000   1.0000   1.0000
     1.0000   1.0000   1.0000   1.0000   1.0000   1.0000   1.0000   1.0000
     1.0000   1.0000   1.0000   1.0000   1.0000   1.0000   1.0000   1.0000
     1.0000   1.0000   1.0000   1.0000   1.0000   1.0000   1.0000   1.0000
     1.0000   1.0000   1.0000   1.0000   1.0000   1.0000   1.0000   1.0000
     1.0000   1.0000   1.0000   1.0000   1.0000   1.0000   1.0000   1.0000
     1.0000   1.0000   1.0000   1.0000   1.0000   1.0000   1.0000   1.0000
     1.0000   1.0000   1.0000   1.0000   1.0000   1.0000   1.0000   1.0000
     1.0000   1.0000   1.0000   1.0000   1.0000   1.0000   1.0000   1.0000
     1.0000   1.0000   1.0000   1.0000   1.0000   1.0000   1.0000   1.0000
     1.0000   1.0000   1.0000   1.0000   1.0000   1.0000   1.0000   1.0000
     1.0000   1.0000   1.0000   1.0000   1.0000   1.0000   1.0000   1.0000
     1.0000   1.0000   1.0000   1.0000   1.0000   1.0000   1.0000   1.0000
     1.0000   1.0000   1.0000   1.0000   1.0000   1.0000   1.0000   1.0000
     1.0000   1.0000   1.0000   1.0000   1.0000   1.0000   1.0000   1.0000
     1.0000   1.0000   1.0000   1.0000   1.0000   1.0000   1.0000   1.0000
     1.0000   1.0000   1.0000   0.1849   0.1849   0.1848   0.1848   0.1848
     0.1848   0.1225   0.1224   0.1223   0.1222   0.1221   0.1221   0.0000
     0.0000   0.0000   0.0000   0.0000   0.0000   0.0000   0.0000   0.0000
     0.0000   0.0000   0.0000   0.0000   0.0000   0.0000   0.0000   0.0000
     0.0000   0.0000   0.0000   0.0000   0.0000   0.0000   0.0000   0.0000
     0.0000   0.0000   0.0000   0.0000   0.0000   0.0000   0.0000   0.0000
     0.0000   0.0000   0.0000   0.0000   0.0000   0.0000   0.0000   0.0000
     0.0000   0.0000   0.0000   0.0000   0.0000   0.0000   0.0000   0.0000
     0.0000   0.0000   0.0000   0.0000   0.0000   0.0000   0.0000   0.0000
     0.0000   0.0000   0.0000   0.0000   0.0000   0.0000   0.0000   0.0000
     0.0000   0.0000   0.0000   0.0000   0.0000   0.0000   0.0000   0.0000
     0.0000   0.0000   0.0000   0.0000   0.0000   0.0000   0.0000   0.0000
     0.0000   0.0000   0.0000   0.0000   0.0000   0.0000   0.0000   0.0000

          k = 0.0000 0.2887 0.0000 ( 64808 PWs)   bands (ev):

  -125.0677-125.0667-125.0664-125.0663-125.0657-125.0656-125.0653-125.0649
  -125.0648-125.0645-125.0644-125.0643-125.0641-125.0639-125.0639-125.0638
  -124.8636-124.8633-124.8626-124.8623-124.8622-124.8621-124.8619-124.8619
  -124.8615-124.8615-124.8612-124.8612-124.8612-124.8609-124.8607-124.8606
  -124.8603-124.8603-124.8603-124.8603-124.8602-124.8600-124.8600-124.8600
  -124.8599-124.8599-124.8598-124.8597-124.8597-124.8597-124.8595-124.8595
   -79.2335 -79.2335 -79.2329 -79.2289 -79.2289 -79.2280 -79.2280 -79.2261
   -79.2261 -79.2232 -79.2200 -79.2200 -79.2173 -79.2173 -79.2160 -79.2148
   -79.2144 -79.2144 -79.2137 -79.2136 -79.2132 -79.2132 -79.2132 -79.2129
   -79.2129 -79.2127 -79.2126 -79.2123 -79.2122 -79.2121 -79.2119 -79.2117
   -79.2116 -79.2116 -79.2105 -79.2105 -79.2093 -79.2084 -79.2083 -79.2073
   -79.2047 -79.2044 -79.2044 -79.2024 -79.2024 -79.2011 -79.1995 -79.1985
   -79.0260 -79.0260 -79.0258 -79.0258 -79.0254 -79.0252 -79.0214 -79.0214
   -79.0212 -79.0212 -79.0205 -79.0205 -79.0203 -79.0203 -79.0201 -79.0197
   -79.0190 -79.0187 -79.0186 -79.0186 -79.0186 -79.0185 -79.0184 -79.0184
   -79.0183 -79.0183 -79.0179 -79.0178 -79.0176 -79.0175 -79.0175 -79.0172
   -79.0169 -79.0169 -79.0166 -79.0166 -79.0165 -79.0165 -79.0164 -79.0163
   -79.0163 -79.0162 -79.0162 -79.0161 -79.0160 -79.0159 -79.0159 -79.0159
   -79.0157 -79.0157 -79.0157 -79.0155 -79.0125 -79.0125 -79.0123 -79.0123
   -79.0098 -79.0098 -79.0096 -79.0096 -79.0058 -79.0058 -79.0055 -79.0055
   -79.0055 -79.0055 -79.0053 -79.0052 -79.0031 -79.0031 -79.0029 -79.0029
   -79.0019 -79.0017 -79.0009 -79.0009 -79.0007 -79.0007 -78.9998 -78.9996
   -78.9973 -78.9971 -78.9970 -78.9970 -78.9968 -78.9968 -78.9950 -78.9950
   -78.9948 -78.9948 -78.9937 -78.9935 -78.9921 -78.9919 -78.9911 -78.9909
    -8.5039  -7.6204  -7.3005  -7.2484  -7.2484  -7.0295  -6.8986  -6.8724
    -6.8724  -6.8497  -6.8463  -6.8463  -6.7070  -6.6920  -6.6920  -6.6907
    -6.6752  -6.6630  -6.6385  -6.6385  -6.5901  -6.5807  -6.5773  -6.5773
    -6.5681  -6.5681  -6.5484  -6.5484  -6.5285  -6.5285  -6.5188  -6.5188
    -6.5171  -6.5124  -6.5124  -6.5095  -6.5095  -6.5026  -6.5026  -6.4867
    -6.4867  -6.4610  -6.4610  -6.4235  -6.4235  -6.3954  -6.3954  -6.3805
    -6.3805  -6.3761  -6.3222  -6.3175  -6.3175  -6.3159  -6.3158  -6.3154
    -6.3154  -6.2692  -6.2692  -6.2592  -6.2520  -6.2298  -6.2298  -6.2235
    -6.2235  -6.2218  -6.2218  -6.2218  -6.2088  -6.2088  -6.2050  -6.2050
    -6.1959  -6.1959  -6.1842  -6.1842  -6.1801  -6.1783  -6.1783  -6.1544
    -6.1383  -6.1238  -6.1238  -6.1146  -6.1146  -6.1007  -6.1007  -6.0934
    -6.0907  -6.0907  -6.0783  -6.0637  -6.0637  -6.0499  -6.0499  -6.0487
    -6.0487  -5.9593  -5.9593  -5.9592  -5.9592  -5.9439  -5.9413  -5.9373
    -5.9373  -5.9349  -5.9349  -5.9243  -5.9243  -5.9132  -5.9114  -5.9114
    -5.8933  -5.8933  -5.8895  -5.8856  -5.8817  -5.8742  -5.8742  -5.8689
    -5.8463  -5.8463  -5.8392  -5.8392  -5.8253  -5.8114  -5.7956  -5.7956
    -5.7955  -5.7955  -5.7867  -5.7867  -5.7767  -5.7767  -5.7761  -5.7733
    -5.7733  -5.7556  -5.7556  -5.7475  -5.7475  -5.7403  -5.7304  -5.7304
    -5.7142  -5.7128  -5.7128  -5.7054  -5.7054  -5.6976  -5.6976  -5.6952
    -5.6952  -5.6924  -5.6924  -5.6794  -5.6680  -5.6680  -5.6573  -5.6440
    -5.6395  -5.6395  -5.6335  -5.6335  -5.6185  -5.6185  -5.6172  -5.6164
    -5.6164  -5.6126  -5.6112  -5.6055  -5.6054  -5.5800  -5.5641  -5.5608
    -5.5608  -5.5563  -5.5563  -5.5479  -5.5479  -5.5456  -5.5455  -5.5436
    -5.5436  -5.5411  -5.5268  -5.5268  -5.5259  -5.5214  -5.5214  -5.5127
    -5.5126  -5.4916  -5.4916  -5.4625  -5.4604  -5.4578  -5.4578  -5.4542
    -5.4542  -5.4518  -5.4518  -5.4398  -5.4398  -5.4306  -5.4259  -5.4259
    -5.4236  -5.4194  -5.4144  -5.4141  -5.4023  -5.4023  -5.3995  -5.3995
    -5.3885  -5.3870  -5.3870  -5.3805  -5.3683  -5.3683  -5.3644  -5.3592
    -5.3455  -5.3455  -5.3415  -5.3326  -5.3203  -5.3203  -5.3141  -5.3114
    -5.3114  -5.3017  -5.3017  -5.2932  -5.2932  -5.2826  -5.2826  -5.1440
    -5.1440  -5.1297  -5.1297  -5.1242  -5.1242  -5.1059  -5.1051  -4.9474
    -4.9346  -4.6385  -4.6385  -3.8814  -3.8813  -3.4803  -3.3941  -3.3941
    -3.3655  -2.6738  -2.3020  -2.3020  -2.2223  -2.0214  -2.0214  -1.9716
    -1.9716  -1.5151  -1.5151  -1.2924  -1.2924  -1.1172  -0.7952  -0.5732
    -0.5732  -0.5612  -0.5612  -0.5523   0.0235   0.0235   0.2687   0.2687
     0.5597   0.5597   0.6332   0.8763   0.8980   0.8980   1.1833   1.1833
     1.5562   1.5562   2.2261   2.2262   2.6470   2.6963   2.6963   2.7208
     2.7823   2.7823   2.9497   2.9497   3.2196   3.5463   3.6905   3.6905
     3.9084   3.9084   4.1120   4.1848   4.1849   4.5561   4.5561   4.8015
     4.8015   4.8429   4.8429   5.1515   5.1515   5.1602   5.1602   5.1873
     5.3806   5.4258   5.4258   5.5681   5.6424   5.7933   5.7933   5.8065
     6.0892   6.0938   6.0938   6.2995   6.3128   6.3128   6.3155   6.5105
     6.5389   6.5389   6.5942   6.5942   6.7100   6.7583   6.7583   7.0099
     7.0099   7.0867   7.0867   7.1719   7.1719   7.2402   7.3086   7.3086
     7.4086   7.4235   7.4235   7.4471   7.4471   7.6565   7.6565   7.6678
     7.6678   7.6997   7.6997   7.7427   7.8558   7.8558   7.9457   7.9457
     8.0231   8.0231   8.1337   8.3098   8.3222   8.4774   8.6364   8.6372
     8.6959   8.7076   8.8076   8.8077   8.8255   8.8256   8.8359   8.8361

     occupation numbers 
     1.0000   1.0000   1.0000   1.0000   1.0000   1.0000   1.0000   1.0000
     1.0000   1.0000   1.0000   1.0000   1.0000   1.0000   1.0000   1.0000
     1.0000   1.0000   1.0000   1.0000   1.0000   1.0000   1.0000   1.0000
     1.0000   1.0000   1.0000   1.0000   1.0000   1.0000   1.0000   1.0000
     1.0000   1.0000   1.0000   1.0000   1.0000   1.0000   1.0000   1.0000
     1.0000   1.0000   1.0000   1.0000   1.0000   1.0000   1.0000   1.0000
     1.0000   1.0000   1.0000   1.0000   1.0000   1.0000   1.0000   1.0000
     1.0000   1.0000   1.0000   1.0000   1.0000   1.0000   1.0000   1.0000
     1.0000   1.0000   1.0000   1.0000   1.0000   1.0000   1.0000   1.0000
     1.0000   1.0000   1.0000   1.0000   1.0000   1.0000   1.0000   1.0000
     1.0000   1.0000   1.0000   1.0000   1.0000   1.0000   1.0000   1.0000
     1.0000   1.0000   1.0000   1.0000   1.0000   1.0000   1.0000   1.0000
     1.0000   1.0000   1.0000   1.0000   1.0000   1.0000   1.0000   1.0000
     1.0000   1.0000   1.0000   1.0000   1.0000   1.0000   1.0000   1.0000
     1.0000   1.0000   1.0000   1.0000   1.0000   1.0000   1.0000   1.0000
     1.0000   1.0000   1.0000   1.0000   1.0000   1.0000   1.0000   1.0000
     1.0000   1.0000   1.0000   1.0000   1.0000   1.0000   1.0000   1.0000
     1.0000   1.0000   1.0000   1.0000   1.0000   1.0000   1.0000   1.0000
     1.0000   1.0000   1.0000   1.0000   1.0000   1.0000   1.0000   1.0000
     1.0000   1.0000   1.0000   1.0000   1.0000   1.0000   1.0000   1.0000
     1.0000   1.0000   1.0000   1.0000   1.0000   1.0000   1.0000   1.0000
     1.0000   1.0000   1.0000   1.0000   1.0000   1.0000   1.0000   1.0000
     1.0000   1.0000   1.0000   1.0000   1.0000   1.0000   1.0000   1.0000
     1.0000   1.0000   1.0000   1.0000   1.0000   1.0000   1.0000   1.0000
     1.0000   1.0000   1.0000   1.0000   1.0000   1.0000   1.0000   1.0000
     1.0000   1.0000   1.0000   1.0000   1.0000   1.0000   1.0000   1.0000
     1.0000   1.0000   1.0000   1.0000   1.0000   1.0000   1.0000   1.0000
     1.0000   1.0000   1.0000   1.0000   1.0000   1.0000   1.0000   1.0000
     1.0000   1.0000   1.0000   1.0000   1.0000   1.0000   1.0000   1.0000
     1.0000   1.0000   1.0000   1.0000   1.0000   1.0000   1.0000   1.0000
     1.0000   1.0000   1.0000   1.0000   1.0000   1.0000   1.0000   1.0000
     1.0000   1.0000   1.0000   1.0000   1.0000   1.0000   1.0000   1.0000
     1.0000   1.0000   1.0000   1.0000   1.0000   1.0000   1.0000   1.0000
     1.0000   1.0000   1.0000   1.0000   1.0000   1.0000   1.0000   1.0000
     1.0000   1.0000   1.0000   1.0000   1.0000   1.0000   1.0000   1.0000
     1.0000   1.0000   1.0000   1.0000   1.0000   1.0000   1.0000   1.0000
     1.0000   1.0000   1.0000   1.0000   1.0000   1.0000   1.0000   1.0000
     1.0000   1.0000   1.0000   1.0000   1.0000   1.0000   1.0000   1.0000
     1.0000   1.0000   1.0000   1.0000   1.0000   1.0000   1.0000   1.0000
     1.0000   1.0000   1.0000   1.0000   1.0000   1.0000   1.0000   1.0000
     1.0000   1.0000   1.0000   1.0000   1.0000   1.0000   1.0000   1.0000
     1.0000   1.0000   1.0000   1.0000   1.0000   1.0000   1.0000   1.0000
     1.0000   1.0000   1.0000   1.0000   1.0000   1.0000   1.0000   1.0000
     1.0000   1.0000   1.0000   1.0000   1.0000   1.0000   1.0000   1.0000
     1.0000   1.0000   1.0000   1.0000   1.0000   1.0000   1.0000   1.0000
     1.0000   1.0000   1.0000   1.0000   1.0000   1.0000   1.0000   1.0000
     1.0000   1.0000   1.0000   1.0000   1.0000   1.0000   1.0000   1.0000
     1.0000   1.0000   1.0000   1.0000   1.0000   1.0000   1.0000   1.0000
     1.0000   1.0000   1.0000   1.0000   1.0000   1.0000   1.0000   1.0000
     1.0000   1.0000   1.0000   1.0000   1.0000   1.0000   1.0000   1.0000
     1.0000   1.0000   1.0000   1.0000   1.0000   1.0000   1.0000   1.0000
     1.0000   1.0000   1.0000   1.0000   1.0000   1.0000   1.0000   1.0000
     1.0000   1.0000   1.0000   1.0000   1.0000   1.0000   1.0000   1.0000
     1.0000   1.0000   1.0000   1.0000   1.0000   1.0000   1.0000   1.0000
     1.0000   1.0000   1.0000   1.0000   1.0000   1.0000   1.0000   1.0000
     1.0000   1.0000   1.0000   1.0000   1.0000   1.0000   1.0000   1.0000
     1.0000   1.0000   1.0000   1.0000   1.0000   1.0000   1.0000   1.0000
     1.0000   1.0000   1.0000   1.0000   1.0000   1.0000   1.0000   1.0000
     1.0000   1.0000   1.0000   1.0000   1.0000   1.0000   1.0000   1.0000
     1.0006   1.0006   1.0019   1.0374   1.0443   1.0443   0.9984   0.9984
     0.1541   0.1541   0.0000   0.0000   0.0000   0.0000   0.0000   0.0000
     0.0000   0.0000   0.0000   0.0000   0.0000   0.0000   0.0000   0.0000
     0.0000   0.0000   0.0000   0.0000   0.0000   0.0000   0.0000   0.0000
     0.0000   0.0000   0.0000   0.0000   0.0000   0.0000   0.0000   0.0000
     0.0000   0.0000   0.0000   0.0000   0.0000   0.0000   0.0000   0.0000
     0.0000   0.0000   0.0000   0.0000   0.0000   0.0000   0.0000   0.0000
     0.0000   0.0000   0.0000   0.0000   0.0000   0.0000   0.0000   0.0000
     0.0000   0.0000   0.0000   0.0000   0.0000   0.0000   0.0000   0.0000
     0.0000   0.0000   0.0000   0.0000   0.0000   0.0000   0.0000   0.0000
     0.0000   0.0000   0.0000   0.0000   0.0000   0.0000   0.0000   0.0000
     0.0000   0.0000   0.0000   0.0000   0.0000   0.0000   0.0000   0.0000
     0.0000   0.0000   0.0000   0.0000   0.0000   0.0000   0.0000   0.0000

          k = 0.0000-0.5774 0.0000 ( 64842 PWs)   bands (ev):

  -125.0676-125.0671-125.0665-125.0664-125.0653-125.0652-125.0652-125.0651
  -125.0649-125.0646-125.0645-125.0644-125.0641-125.0639-125.0638-125.0638
  -124.8633-124.8630-124.8630-124.8627-124.8623-124.8622-124.8620-124.8620
  -124.8612-124.8611-124.8610-124.8610-124.8608-124.8608-124.8607-124.8607
  -124.8607-124.8605-124.8604-124.8603-124.8603-124.8602-124.8601-124.8601
  -124.8599-124.8599-124.8597-124.8597-124.8597-124.8596-124.8595-124.8595
   -79.2318 -79.2316 -79.2314 -79.2311 -79.2293 -79.2288 -79.2280 -79.2279
   -79.2235 -79.2235 -79.2234 -79.2234 -79.2185 -79.2185 -79.2157 -79.2153
   -79.2145 -79.2145 -79.2132 -79.2131 -79.2131 -79.2130 -79.2127 -79.2124
   -79.2124 -79.2121 -79.2120 -79.2119 -79.2119 -79.2117 -79.2115 -79.2115
   -79.2107 -79.2105 -79.2103 -79.2101 -79.2071 -79.2071 -79.2071 -79.2071
   -79.2064 -79.2060 -79.2037 -79.2033 -79.2025 -79.2024 -79.1998 -79.1993
   -79.0242 -79.0242 -79.0239 -79.0239 -79.0238 -79.0238 -79.0236 -79.0236
   -79.0217 -79.0214 -79.0214 -79.0212 -79.0205 -79.0205 -79.0203 -79.0203
   -79.0198 -79.0195 -79.0195 -79.0192 -79.0187 -79.0186 -79.0184 -79.0184
   -79.0174 -79.0174 -79.0173 -79.0173 -79.0171 -79.0171 -79.0170 -79.0170
   -79.0170 -79.0168 -79.0167 -79.0166 -79.0165 -79.0165 -79.0163 -79.0163
   -79.0161 -79.0161 -79.0160 -79.0160 -79.0160 -79.0160 -79.0159 -79.0159
   -79.0159 -79.0158 -79.0158 -79.0158 -79.0157 -79.0157 -79.0157 -79.0156
   -79.0111 -79.0111 -79.0109 -79.0109 -79.0045 -79.0045 -79.0043 -79.0043
   -79.0032 -79.0031 -79.0029 -79.0029 -79.0028 -79.0027 -79.0026 -79.0026
   -78.9997 -78.9996 -78.9996 -78.9996 -78.9994 -78.9994 -78.9994 -78.9994
   -78.9990 -78.9987 -78.9986 -78.9985 -78.9962 -78.9960 -78.9959 -78.9957
   -78.9950 -78.9950 -78.9948 -78.9948 -78.9923 -78.9921 -78.9920 -78.9918
    -8.1561  -8.1558  -7.3171  -7.3171  -7.0260  -7.0258  -6.8643  -6.8639
    -6.8602  -6.8598  -6.7502  -6.7501  -6.7499  -6.7497  -6.6541  -6.6538
    -6.6473  -6.6473  -6.6473  -6.6473  -6.6250  -6.6248  -6.6075  -6.6074
    -6.6072  -6.6070  -6.5537  -6.5537  -6.5293  -6.5292  -6.5290  -6.5289
    -6.5061  -6.5061  -6.4877  -6.4877  -6.4877  -6.4877  -6.4634  -6.4634
    -6.4634  -6.4634  -6.4611  -6.4608  -6.4499  -6.4499  -6.4265  -6.4265
    -6.4222  -6.4222  -6.4219  -6.4219  -6.3104  -6.3104  -6.3017  -6.3017
    -6.2932  -6.2932  -6.2932  -6.2932  -6.2920  -6.2917  -6.2711  -6.2711
    -6.2708  -6.2707  -6.2364  -6.2362  -6.2214  -6.2214  -6.2214  -6.2214
    -6.2062  -6.2062  -6.2011  -6.2011  -6.1706  -6.1703  -6.1420  -6.1420
    -6.1120  -6.1120  -6.1036  -6.1036  -6.0829  -6.0828  -6.0827  -6.0826
    -6.0618  -6.0618  -6.0618  -6.0618  -6.0422  -6.0422  -6.0326  -6.0326
    -6.0262  -6.0260  -6.0226  -6.0223  -6.0097  -6.0093  -5.9901  -5.9901
    -5.9901  -5.9901  -5.9470  -5.9470  -5.9461  -5.9459  -5.9156  -5.9154
    -5.9056  -5.9056  -5.8723  -5.8721  -5.8720  -5.8718  -5.8154  -5.8150
    -5.8095  -5.8095  -5.8087  -5.8087  -5.8087  -5.8087  -5.8055  -5.8051
    -5.7875  -5.7875  -5.7853  -5.7850  -5.7760  -5.7759  -5.7758  -5.7758
    -5.7681  -5.7678  -5.7675  -5.7675  -5.7675  -5.7675  -5.7561  -5.7561
    -5.7540  -5.7540  -5.7540  -5.7540  -5.6755  -5.6755  -5.6741  -5.6741
    -5.6672  -5.6672  -5.6457  -5.6457  -5.6457  -5.6457  -5.6314  -5.6310
    -5.6240  -5.6240  -5.6049  -5.6048  -5.6047  -5.6046  -5.5946  -5.5946
    -5.5706  -5.5703  -5.5436  -5.5433  -5.5292  -5.5291  -5.5289  -5.5289
    -5.5266  -5.5266  -5.5266  -5.5266  -5.5233  -5.5233  -5.5212  -5.5210
    -5.4994  -5.4993  -5.4991  -5.4990  -5.4893  -5.4890  -5.4885  -5.4882
    -5.4868  -5.4868  -5.4793  -5.4793  -5.4642  -5.4642  -5.4642  -5.4642
    -5.4514  -5.4514  -5.4511  -5.4511  -5.4400  -5.4400  -5.4230  -5.4227
    -5.4158  -5.4158  -5.4157  -5.4156  -5.4126  -5.4126  -5.4117  -5.4117
    -5.4050  -5.4050  -5.4029  -5.4026  -5.4006  -5.4003  -5.3708  -5.3705
    -5.3629  -5.3629  -5.3629  -5.3629  -5.3244  -5.3244  -5.3244  -5.3244
    -5.2546  -5.2546  -5.2542  -5.2542  -5.2354  -5.2353  -5.2347  -5.2346
    -5.2344  -5.2343  -5.2018  -5.2015  -5.1991  -5.1988  -4.7023  -4.7023
    -4.4186  -4.4186  -4.4186  -4.4186  -3.7285  -3.7285  -3.1108  -3.1106
    -3.0618  -3.0618  -3.0618  -3.0618  -2.3916  -2.3916  -2.2400  -2.2400
    -1.7583  -1.7582  -1.7580  -1.7579  -0.7555  -0.7555  -0.7555  -0.7555
    -0.3258  -0.3258  -0.3256  -0.3255  -0.0905  -0.0903   0.0129   0.0129
     1.0211   1.0211   1.0491   1.0491   1.3379   1.3379   1.3696   1.3697
     1.3698   1.3699   2.2234   2.2234   2.8998   2.8998   2.8999   2.8999
     3.1016   3.1016   3.1016   3.1016   3.3221   3.3221   3.5549   3.5551
     3.8664   3.8664   3.8665   3.8665   3.9982   3.9982   4.2578   4.2579
     4.4470   4.4470   4.7457   4.7457   4.8578   4.8578   5.4824   5.4824
     5.5257   5.5258   5.7254   5.7254   5.8009   5.8009   5.9294   5.9294
     5.9296   5.9297   5.9830   5.9830   5.9830   5.9830   6.1538   6.1538
     6.1538   6.1538   6.4273   6.4273   6.5596   6.5596   6.6438   6.6438
     6.6631   6.6631   6.8477   6.8478   6.8664   6.8664   7.0137   7.0137
     7.0137   7.0137   7.5858   7.5858   7.7452   7.7452   8.0644   8.0644
     8.0906   8.0906   8.0906   8.0906   8.2787   8.2787   8.4770   8.4770
     8.4770   8.4770   8.6266   8.6267   8.6267   8.6267   8.6680   8.6681
     8.7364   8.7364   8.8114   8.8115   8.9993   8.9993   8.9994   8.9994

     occupation numbers 
     1.0000   1.0000   1.0000   1.0000   1.0000   1.0000   1.0000   1.0000
     1.0000   1.0000   1.0000   1.0000   1.0000   1.0000   1.0000   1.0000
     1.0000   1.0000   1.0000   1.0000   1.0000   1.0000   1.0000   1.0000
     1.0000   1.0000   1.0000   1.0000   1.0000   1.0000   1.0000   1.0000
     1.0000   1.0000   1.0000   1.0000   1.0000   1.0000   1.0000   1.0000
     1.0000   1.0000   1.0000   1.0000   1.0000   1.0000   1.0000   1.0000
     1.0000   1.0000   1.0000   1.0000   1.0000   1.0000   1.0000   1.0000
     1.0000   1.0000   1.0000   1.0000   1.0000   1.0000   1.0000   1.0000
     1.0000   1.0000   1.0000   1.0000   1.0000   1.0000   1.0000   1.0000
     1.0000   1.0000   1.0000   1.0000   1.0000   1.0000   1.0000   1.0000
     1.0000   1.0000   1.0000   1.0000   1.0000   1.0000   1.0000   1.0000
     1.0000   1.0000   1.0000   1.0000   1.0000   1.0000   1.0000   1.0000
     1.0000   1.0000   1.0000   1.0000   1.0000   1.0000   1.0000   1.0000
     1.0000   1.0000   1.0000   1.0000   1.0000   1.0000   1.0000   1.0000
     1.0000   1.0000   1.0000   1.0000   1.0000   1.0000   1.0000   1.0000
     1.0000   1.0000   1.0000   1.0000   1.0000   1.0000   1.0000   1.0000
     1.0000   1.0000   1.0000   1.0000   1.0000   1.0000   1.0000   1.0000
     1.0000   1.0000   1.0000   1.0000   1.0000   1.0000   1.0000   1.0000
     1.0000   1.0000   1.0000   1.0000   1.0000   1.0000   1.0000   1.0000
     1.0000   1.0000   1.0000   1.0000   1.0000   1.0000   1.0000   1.0000
     1.0000   1.0000   1.0000   1.0000   1.0000   1.0000   1.0000   1.0000
     1.0000   1.0000   1.0000   1.0000   1.0000   1.0000   1.0000   1.0000
     1.0000   1.0000   1.0000   1.0000   1.0000   1.0000   1.0000   1.0000
     1.0000   1.0000   1.0000   1.0000   1.0000   1.0000   1.0000   1.0000
     1.0000   1.0000   1.0000   1.0000   1.0000   1.0000   1.0000   1.0000
     1.0000   1.0000   1.0000   1.0000   1.0000   1.0000   1.0000   1.0000
     1.0000   1.0000   1.0000   1.0000   1.0000   1.0000   1.0000   1.0000
     1.0000   1.0000   1.0000   1.0000   1.0000   1.0000   1.0000   1.0000
     1.0000   1.0000   1.0000   1.0000   1.0000   1.0000   1.0000   1.0000
     1.0000   1.0000   1.0000   1.0000   1.0000   1.0000   1.0000   1.0000
     1.0000   1.0000   1.0000   1.0000   1.0000   1.0000   1.0000   1.0000
     1.0000   1.0000   1.0000   1.0000   1.0000   1.0000   1.0000   1.0000
     1.0000   1.0000   1.0000   1.0000   1.0000   1.0000   1.0000   1.0000
     1.0000   1.0000   1.0000   1.0000   1.0000   1.0000   1.0000   1.0000
     1.0000   1.0000   1.0000   1.0000   1.0000   1.0000   1.0000   1.0000
     1.0000   1.0000   1.0000   1.0000   1.0000   1.0000   1.0000   1.0000
     1.0000   1.0000   1.0000   1.0000   1.0000   1.0000   1.0000   1.0000
     1.0000   1.0000   1.0000   1.0000   1.0000   1.0000   1.0000   1.0000
     1.0000   1.0000   1.0000   1.0000   1.0000   1.0000   1.0000   1.0000
     1.0000   1.0000   1.0000   1.0000   1.0000   1.0000   1.0000   1.0000
     1.0000   1.0000   1.0000   1.0000   1.0000   1.0000   1.0000   1.0000
     1.0000   1.0000   1.0000   1.0000   1.0000   1.0000   1.0000   1.0000
     1.0000   1.0000   1.0000   1.0000   1.0000   1.0000   1.0000   1.0000
     1.0000   1.0000   1.0000   1.0000   1.0000   1.0000   1.0000   1.0000
     1.0000   1.0000   1.0000   1.0000   1.0000   1.0000   1.0000   1.0000
     1.0000   1.0000   1.0000   1.0000   1.0000   1.0000   1.0000   1.0000
     1.0000   1.0000   1.0000   1.0000   1.0000   1.0000   1.0000   1.0000
     1.0000   1.0000   1.0000   1.0000   1.0000   1.0000   1.0000   1.0000
     1.0000   1.0000   1.0000   1.0000   1.0000   1.0000   1.0000   1.0000
     1.0000   1.0000   1.0000   1.0000   1.0000   1.0000   1.0000   1.0000
     1.0000   1.0000   1.0000   1.0000   1.0000   1.0000   1.0000   1.0000
     1.0000   1.0000   1.0000   1.0000   1.0000   1.0000   1.0000   1.0000
     1.0000   1.0000   1.0000   1.0000   1.0000   1.0000   1.0000   1.0000
     1.0000   1.0000   1.0000   1.0000   1.0000   1.0000   1.0000   1.0000
     1.0000   1.0000   1.0000   1.0000   1.0000   1.0000   1.0000   1.0000
     1.0000   1.0000   1.0000   1.0000   1.0000   1.0000   1.0000   1.0000
     1.0000   1.0000   1.0000   1.0000   1.0000   1.0000   1.0000   1.0000
     1.0000   1.0000   1.0000   1.0000   1.0000   1.0000   1.0000   1.0000
     1.0000   1.0000   1.0000   1.0000   1.0000   1.0000   1.0000   1.0000
     1.0812   1.0812   1.0833   1.0833   0.6571   0.6571   0.5692   0.5691
     0.5688   0.5686   0.0000   0.0000   0.0000   0.0000   0.0000   0.0000
     0.0000   0.0000   0.0000   0.0000   0.0000   0.0000   0.0000   0.0000
     0.0000   0.0000   0.0000   0.0000   0.0000   0.0000   0.0000   0.0000
     0.0000   0.0000   0.0000   0.0000   0.0000   0.0000   0.0000   0.0000
     0.0000   0.0000   0.0000   0.0000   0.0000   0.0000   0.0000   0.0000
     0.0000   0.0000   0.0000   0.0000   0.0000   0.0000   0.0000   0.0000
     0.0000   0.0000   0.0000   0.0000   0.0000   0.0000   0.0000   0.0000
     0.0000   0.0000   0.0000   0.0000   0.0000   0.0000   0.0000   0.0000
     0.0000   0.0000   0.0000   0.0000   0.0000   0.0000   0.0000   0.0000
     0.0000   0.0000   0.0000   0.0000   0.0000   0.0000   0.0000   0.0000
     0.0000   0.0000   0.0000   0.0000   0.0000   0.0000   0.0000   0.0000
     0.0000   0.0000   0.0000   0.0000   0.0000   0.0000   0.0000   0.0000

          k = 0.2500 0.1443 0.0000 ( 64808 PWs)   bands (ev):

  -125.0677-125.0668-125.0663-125.0662-125.0658-125.0656-125.0653-125.0649
  -125.0648-125.0644-125.0644-125.0643-125.0641-125.0640-125.0638-125.0638
  -124.8635-124.8633-124.8626-124.8623-124.8622-124.8621-124.8619-124.8618
  -124.8616-124.8615-124.8613-124.8612-124.8611-124.8609-124.8607-124.8606
  -124.8604-124.8603-124.8603-124.8602-124.8601-124.8600-124.8600-124.8599
  -124.8599-124.8599-124.8598-124.8598-124.8598-124.8597-124.8595-124.8595
   -79.2335 -79.2335 -79.2329 -79.2289 -79.2289 -79.2280 -79.2280 -79.2261
   -79.2261 -79.2232 -79.2200 -79.2200 -79.2173 -79.2173 -79.2160 -79.2149
   -79.2144 -79.2143 -79.2137 -79.2136 -79.2133 -79.2132 -79.2132 -79.2129
   -79.2129 -79.2127 -79.2126 -79.2122 -79.2122 -79.2121 -79.2119 -79.2118
   -79.2116 -79.2115 -79.2106 -79.2105 -79.2093 -79.2084 -79.2083 -79.2073
   -79.2048 -79.2044 -79.2043 -79.2025 -79.2024 -79.2011 -79.1995 -79.1985
   -79.0260 -79.0260 -79.0258 -79.0258 -79.0254 -79.0252 -79.0215 -79.0214
   -79.0212 -79.0212 -79.0205 -79.0205 -79.0203 -79.0203 -79.0201 -79.0197
   -79.0190 -79.0187 -79.0186 -79.0186 -79.0186 -79.0185 -79.0184 -79.0184
   -79.0183 -79.0182 -79.0179 -79.0178 -79.0176 -79.0176 -79.0175 -79.0172
   -79.0169 -79.0169 -79.0166 -79.0166 -79.0165 -79.0165 -79.0164 -79.0162
   -79.0162 -79.0162 -79.0161 -79.0161 -79.0160 -79.0160 -79.0160 -79.0159
   -79.0157 -79.0157 -79.0157 -79.0155 -79.0125 -79.0125 -79.0123 -79.0123
   -79.0098 -79.0098 -79.0096 -79.0096 -79.0058 -79.0058 -79.0056 -79.0055
   -79.0055 -79.0054 -79.0052 -79.0052 -79.0031 -79.0031 -79.0029 -79.0029
   -79.0019 -79.0017 -79.0009 -79.0009 -79.0007 -79.0007 -78.9998 -78.9996
   -78.9973 -78.9971 -78.9970 -78.9969 -78.9968 -78.9967 -78.9950 -78.9950
   -78.9948 -78.9948 -78.9937 -78.9934 -78.9921 -78.9919 -78.9911 -78.9909
    -8.5039  -7.6204  -7.3005  -7.2484  -7.2484  -7.0295  -6.8986  -6.8724
    -6.8724  -6.8497  -6.8463  -6.8463  -6.7070  -6.6920  -6.6920  -6.6907
    -6.6752  -6.6630  -6.6385  -6.6385  -6.5901  -6.5807  -6.5773  -6.5773
    -6.5681  -6.5681  -6.5484  -6.5484  -6.5285  -6.5285  -6.5188  -6.5188
    -6.5171  -6.5124  -6.5124  -6.5095  -6.5095  -6.5026  -6.5026  -6.4867
    -6.4867  -6.4610  -6.4610  -6.4235  -6.4235  -6.3954  -6.3954  -6.3805
    -6.3805  -6.3761  -6.3222  -6.3175  -6.3175  -6.3159  -6.3158  -6.3154
    -6.3154  -6.2692  -6.2692  -6.2592  -6.2520  -6.2298  -6.2298  -6.2235
    -6.2235  -6.2218  -6.2218  -6.2218  -6.2088  -6.2088  -6.2050  -6.2050
    -6.1959  -6.1959  -6.1842  -6.1842  -6.1801  -6.1783  -6.1783  -6.1544
    -6.1383  -6.1238  -6.1238  -6.1146  -6.1146  -6.1007  -6.1007  -6.0934
    -6.0907  -6.0907  -6.0783  -6.0637  -6.0637  -6.0499  -6.0499  -6.0487
    -6.0487  -5.9593  -5.9593  -5.9592  -5.9592  -5.9439  -5.9413  -5.9373
    -5.9373  -5.9349  -5.9349  -5.9243  -5.9243  -5.9132  -5.9114  -5.9114
    -5.8933  -5.8933  -5.8895  -5.8856  -5.8817  -5.8742  -5.8742  -5.8689
    -5.8463  -5.8463  -5.8392  -5.8392  -5.8252  -5.8114  -5.7956  -5.7956
    -5.7955  -5.7955  -5.7867  -5.7867  -5.7767  -5.7767  -5.7761  -5.7733
    -5.7733  -5.7556  -5.7556  -5.7475  -5.7475  -5.7403  -5.7304  -5.7304
    -5.7142  -5.7128  -5.7128  -5.7054  -5.7054  -5.6976  -5.6976  -5.6952
    -5.6952  -5.6924  -5.6924  -5.6794  -5.6680  -5.6680  -5.6573  -5.6440
    -5.6395  -5.6395  -5.6335  -5.6335  -5.6185  -5.6185  -5.6172  -5.6164
    -5.6164  -5.6126  -5.6112  -5.6055  -5.6054  -5.5800  -5.5641  -5.5608
    -5.5608  -5.5563  -5.5563  -5.5479  -5.5479  -5.5456  -5.5456  -5.5436
    -5.5436  -5.5411  -5.5268  -5.5268  -5.5259  -5.5214  -5.5214  -5.5127
    -5.5126  -5.4916  -5.4916  -5.4625  -5.4604  -5.4578  -5.4578  -5.4542
    -5.4542  -5.4518  -5.4518  -5.4398  -5.4398  -5.4306  -5.4259  -5.4259
    -5.4236  -5.4194  -5.4144  -5.4141  -5.4023  -5.4023  -5.3995  -5.3995
    -5.3885  -5.3870  -5.3870  -5.3805  -5.3683  -5.3683  -5.3644  -5.3592
    -5.3455  -5.3455  -5.3415  -5.3326  -5.3203  -5.3203  -5.3141  -5.3114
    -5.3114  -5.3017  -5.3017  -5.2932  -5.2932  -5.2826  -5.2826  -5.1440
    -5.1440  -5.1297  -5.1297  -5.1242  -5.1242  -5.1059  -5.1051  -4.9474
    -4.9346  -4.6385  -4.6385  -3.8813  -3.8813  -3.4803  -3.3941  -3.3941
    -3.3655  -2.6738  -2.3020  -2.3020  -2.2223  -2.0214  -2.0214  -1.9716
    -1.9716  -1.5151  -1.5151  -1.2924  -1.2924  -1.1172  -0.7952  -0.5732
    -0.5732  -0.5612  -0.5612  -0.5523   0.0235   0.0235   0.2687   0.2687
     0.5597   0.5597   0.6332   0.8763   0.8980   0.8980   1.1833   1.1833
     1.5562   1.5562   2.2261   2.2262   2.6470   2.6963   2.6963   2.7208
     2.7823   2.7823   2.9497   2.9497   3.2196   3.5463   3.6905   3.6905
     3.9084   3.9084   4.1120   4.1848   4.1849   4.5561   4.5561   4.8015
     4.8015   4.8429   4.8429   5.1515   5.1515   5.1602   5.1602   5.1873
     5.3806   5.4258   5.4258   5.5681   5.6424   5.7933   5.7933   5.8065
     6.0892   6.0938   6.0938   6.2995   6.3128   6.3128   6.3155   6.5105
     6.5389   6.5389   6.5942   6.5942   6.7100   6.7583   6.7583   7.0099
     7.0099   7.0867   7.0867   7.1719   7.1719   7.2402   7.3086   7.3086
     7.4086   7.4235   7.4235   7.4471   7.4471   7.6565   7.6565   7.6678
     7.6678   7.6997   7.6997   7.7427   7.8558   7.8558   7.9457   7.9457
     8.0231   8.0231   8.1337   8.3098   8.3222   8.4773   8.6363   8.6363
     8.6959   8.7076   8.8076   8.8077   8.8254   8.8256   8.8357   8.8361

     occupation numbers 
     1.0000   1.0000   1.0000   1.0000   1.0000   1.0000   1.0000   1.0000
     1.0000   1.0000   1.0000   1.0000   1.0000   1.0000   1.0000   1.0000
     1.0000   1.0000   1.0000   1.0000   1.0000   1.0000   1.0000   1.0000
     1.0000   1.0000   1.0000   1.0000   1.0000   1.0000   1.0000   1.0000
     1.0000   1.0000   1.0000   1.0000   1.0000   1.0000   1.0000   1.0000
     1.0000   1.0000   1.0000   1.0000   1.0000   1.0000   1.0000   1.0000
     1.0000   1.0000   1.0000   1.0000   1.0000   1.0000   1.0000   1.0000
     1.0000   1.0000   1.0000   1.0000   1.0000   1.0000   1.0000   1.0000
     1.0000   1.0000   1.0000   1.0000   1.0000   1.0000   1.0000   1.0000
     1.0000   1.0000   1.0000   1.0000   1.0000   1.0000   1.0000   1.0000
     1.0000   1.0000   1.0000   1.0000   1.0000   1.0000   1.0000   1.0000
     1.0000   1.0000   1.0000   1.0000   1.0000   1.0000   1.0000   1.0000
     1.0000   1.0000   1.0000   1.0000   1.0000   1.0000   1.0000   1.0000
     1.0000   1.0000   1.0000   1.0000   1.0000   1.0000   1.0000   1.0000
     1.0000   1.0000   1.0000   1.0000   1.0000   1.0000   1.0000   1.0000
     1.0000   1.0000   1.0000   1.0000   1.0000   1.0000   1.0000   1.0000
     1.0000   1.0000   1.0000   1.0000   1.0000   1.0000   1.0000   1.0000
     1.0000   1.0000   1.0000   1.0000   1.0000   1.0000   1.0000   1.0000
     1.0000   1.0000   1.0000   1.0000   1.0000   1.0000   1.0000   1.0000
     1.0000   1.0000   1.0000   1.0000   1.0000   1.0000   1.0000   1.0000
     1.0000   1.0000   1.0000   1.0000   1.0000   1.0000   1.0000   1.0000
     1.0000   1.0000   1.0000   1.0000   1.0000   1.0000   1.0000   1.0000
     1.0000   1.0000   1.0000   1.0000   1.0000   1.0000   1.0000   1.0000
     1.0000   1.0000   1.0000   1.0000   1.0000   1.0000   1.0000   1.0000
     1.0000   1.0000   1.0000   1.0000   1.0000   1.0000   1.0000   1.0000
     1.0000   1.0000   1.0000   1.0000   1.0000   1.0000   1.0000   1.0000
     1.0000   1.0000   1.0000   1.0000   1.0000   1.0000   1.0000   1.0000
     1.0000   1.0000   1.0000   1.0000   1.0000   1.0000   1.0000   1.0000
     1.0000   1.0000   1.0000   1.0000   1.0000   1.0000   1.0000   1.0000
     1.0000   1.0000   1.0000   1.0000   1.0000   1.0000   1.0000   1.0000
     1.0000   1.0000   1.0000   1.0000   1.0000   1.0000   1.0000   1.0000
     1.0000   1.0000   1.0000   1.0000   1.0000   1.0000   1.0000   1.0000
     1.0000   1.0000   1.0000   1.0000   1.0000   1.0000   1.0000   1.0000
     1.0000   1.0000   1.0000   1.0000   1.0000   1.0000   1.0000   1.0000
     1.0000   1.0000   1.0000   1.0000   1.0000   1.0000   1.0000   1.0000
     1.0000   1.0000   1.0000   1.0000   1.0000   1.0000   1.0000   1.0000
     1.0000   1.0000   1.0000   1.0000   1.0000   1.0000   1.0000   1.0000
     1.0000   1.0000   1.0000   1.0000   1.0000   1.0000   1.0000   1.0000
     1.0000   1.0000   1.0000   1.0000   1.0000   1.0000   1.0000   1.0000
     1.0000   1.0000   1.0000   1.0000   1.0000   1.0000   1.0000   1.0000
     1.0000   1.0000   1.0000   1.0000   1.0000   1.0000   1.0000   1.0000
     1.0000   1.0000   1.0000   1.0000   1.0000   1.0000   1.0000   1.0000
     1.0000   1.0000   1.0000   1.0000   1.0000   1.0000   1.0000   1.0000
     1.0000   1.0000   1.0000   1.0000   1.0000   1.0000   1.0000   1.0000
     1.0000   1.0000   1.0000   1.0000   1.0000   1.0000   1.0000   1.0000
     1.0000   1.0000   1.0000   1.0000   1.0000   1.0000   1.0000   1.0000
     1.0000   1.0000   1.0000   1.0000   1.0000   1.0000   1.0000   1.0000
     1.0000   1.0000   1.0000   1.0000   1.0000   1.0000   1.0000   1.0000
     1.0000   1.0000   1.0000   1.0000   1.0000   1.0000   1.0000   1.0000
     1.0000   1.0000   1.0000   1.0000   1.0000   1.0000   1.0000   1.0000
     1.0000   1.0000   1.0000   1.0000   1.0000   1.0000   1.0000   1.0000
     1.0000   1.0000   1.0000   1.0000   1.0000   1.0000   1.0000   1.0000
     1.0000   1.0000   1.0000   1.0000   1.0000   1.0000   1.0000   1.0000
     1.0000   1.0000   1.0000   1.0000   1.0000   1.0000   1.0000   1.0000
     1.0000   1.0000   1.0000   1.0000   1.0000   1.0000   1.0000   1.0000
     1.0000   1.0000   1.0000   1.0000   1.0000   1.0000   1.0000   1.0000
     1.0000   1.0000   1.0000   1.0000   1.0000   1.0000   1.0000   1.0000
     1.0000   1.0000   1.0000   1.0000   1.0000   1.0000   1.0000   1.0000
     1.0000   1.0000   1.0000   1.0000   1.0000   1.0000   1.0000   1.0000
     1.0006   1.0006   1.0019   1.0374   1.0443   1.0443   0.9984   0.9984
     0.1541   0.1541   0.0000   0.0000   0.0000   0.0000   0.0000   0.0000
     0.0000   0.0000   0.0000   0.0000   0.0000   0.0000   0.0000   0.0000
     0.0000   0.0000   0.0000   0.0000   0.0000   0.0000   0.0000   0.0000
     0.0000   0.0000   0.0000   0.0000   0.0000   0.0000   0.0000   0.0000
     0.0000   0.0000   0.0000   0.0000   0.0000   0.0000   0.0000   0.0000
     0.0000   0.0000   0.0000   0.0000   0.0000   0.0000   0.0000   0.0000
     0.0000   0.0000   0.0000   0.0000   0.0000   0.0000   0.0000   0.0000
     0.0000   0.0000   0.0000   0.0000   0.0000   0.0000   0.0000   0.0000
     0.0000   0.0000   0.0000   0.0000   0.0000   0.0000   0.0000   0.0000
     0.0000   0.0000   0.0000   0.0000   0.0000   0.0000   0.0000   0.0000
     0.0000   0.0000   0.0000   0.0000   0.0000   0.0000   0.0000   0.0000
     0.0000   0.0000   0.0000   0.0000   0.0000   0.0000   0.0000   0.0000

          k = 0.2500 0.4330 0.0000 ( 64876 PWs)   bands (ev):

  -125.0676-125.0670-125.0668-125.0659-125.0658-125.0653-125.0652-125.0649
  -125.0649-125.0646-125.0644-125.0643-125.0642-125.0639-125.0638-125.0637
  -124.8634-124.8630-124.8628-124.8627-124.8625-124.8624-124.8617-124.8616
  -124.8614-124.8614-124.8611-124.8610-124.8608-124.8608-124.8607-124.8607
  -124.8606-124.8605-124.8604-124.8603-124.8602-124.8602-124.8601-124.8601
  -124.8601-124.8598-124.8598-124.8597-124.8596-124.8596-124.8595-124.8594
   -79.2326 -79.2310 -79.2310 -79.2304 -79.2303 -79.2284 -79.2282 -79.2263
   -79.2261 -79.2257 -79.2222 -79.2214 -79.2177 -79.2177 -79.2157 -79.2151
   -79.2150 -79.2143 -79.2142 -79.2138 -79.2138 -79.2132 -79.2130 -79.2128
   -79.2127 -79.2124 -79.2122 -79.2122 -79.2120 -79.2117 -79.2116 -79.2115
   -79.2109 -79.2091 -79.2090 -79.2078 -79.2076 -79.2075 -79.2069 -79.2069
   -79.2063 -79.2061 -79.2047 -79.2047 -79.2022 -79.2006 -79.2006 -79.1992
   -79.0251 -79.0249 -79.0235 -79.0235 -79.0233 -79.0232 -79.0229 -79.0228
   -79.0227 -79.0227 -79.0209 -79.0207 -79.0206 -79.0205 -79.0199 -79.0195
   -79.0193 -79.0192 -79.0190 -79.0189 -79.0188 -79.0186 -79.0186 -79.0184
   -79.0182 -79.0180 -79.0180 -79.0180 -79.0177 -79.0177 -79.0174 -79.0173
   -79.0171 -79.0171 -79.0170 -79.0169 -79.0168 -79.0167 -79.0166 -79.0166
   -79.0165 -79.0165 -79.0163 -79.0163 -79.0163 -79.0160 -79.0160 -79.0159
   -79.0158 -79.0158 -79.0157 -79.0156 -79.0148 -79.0145 -79.0139 -79.0137
   -79.0103 -79.0103 -79.0101 -79.0100 -79.0068 -79.0068 -79.0066 -79.0066
   -79.0034 -79.0032 -79.0017 -79.0015 -79.0015 -79.0013 -79.0003 -79.0002
   -79.0001 -79.0001 -79.0000 -78.9999 -78.9995 -78.9995 -78.9993 -78.9993
   -78.9989 -78.9987 -78.9986 -78.9985 -78.9973 -78.9973 -78.9971 -78.9971
   -78.9947 -78.9945 -78.9932 -78.9932 -78.9930 -78.9930 -78.9918 -78.9916
    -8.2701  -7.8234  -7.8232  -7.1119  -6.9145  -6.8403  -6.8403  -6.8038
    -6.8038  -6.7974  -6.7973  -6.7930  -6.7929  -6.7691  -6.7279  -6.7277
    -6.6988  -6.6986  -6.6554  -6.6554  -6.6235  -6.6095  -6.6095  -6.6048
    -6.6047  -6.5883  -6.5883  -6.5682  -6.5682  -6.5602  -6.5600  -6.5441
    -6.5345  -6.5344  -6.4922  -6.4921  -6.4722  -6.4722  -6.4693  -6.4621
    -6.4621  -6.4404  -6.4402  -6.4178  -6.4126  -6.4126  -6.4123  -6.4122
    -6.4033  -6.4032  -6.3926  -6.3701  -6.3700  -6.3127  -6.3022  -6.3022
    -6.2974  -6.2974  -6.2923  -6.2923  -6.2919  -6.2787  -6.2674  -6.2634
    -6.2633  -6.2549  -6.2493  -6.2492  -6.2440  -6.2440  -6.2420  -6.2225
    -6.2225  -6.2022  -6.2021  -6.1778  -6.1778  -6.1661  -6.1476  -6.1458
    -6.1416  -6.1416  -6.1182  -6.1181  -6.1083  -6.1082  -6.0948  -6.0892
    -6.0563  -6.0563  -6.0468  -6.0467  -6.0422  -6.0333  -6.0202  -6.0202
    -5.9976  -5.9919  -5.9919  -5.9893  -5.9804  -5.9804  -5.9728  -5.9728
    -5.9704  -5.9704  -5.9573  -5.9490  -5.9423  -5.9158  -5.9157  -5.9077
    -5.9076  -5.9067  -5.8990  -5.8913  -5.8913  -5.8863  -5.8862  -5.8776
    -5.8775  -5.8535  -5.8534  -5.8465  -5.8465  -5.8338  -5.8337  -5.8333
    -5.8326  -5.8289  -5.8289  -5.8088  -5.7970  -5.7969  -5.7939  -5.7727
    -5.7632  -5.7632  -5.7558  -5.7523  -5.7523  -5.7499  -5.7132  -5.7132
    -5.6943  -5.6943  -5.6917  -5.6917  -5.6576  -5.6543  -5.6543  -5.6534
    -5.6534  -5.6468  -5.6326  -5.6310  -5.6309  -5.6239  -5.6239  -5.5928
    -5.5927  -5.5926  -5.5921  -5.5921  -5.5828  -5.5827  -5.5811  -5.5810
    -5.5787  -5.5786  -5.5745  -5.5745  -5.5667  -5.5667  -5.5495  -5.5494
    -5.5488  -5.5488  -5.5449  -5.5403  -5.5366  -5.5366  -5.5150  -5.5150
    -5.5125  -5.5099  -5.5099  -5.5072  -5.5031  -5.4839  -5.4838  -5.4822
    -5.4795  -5.4794  -5.4663  -5.4614  -5.4614  -5.4600  -5.4599  -5.4579
    -5.4578  -5.4558  -5.4558  -5.4432  -5.4432  -5.4407  -5.4407  -5.4337
    -5.4336  -5.4309  -5.4181  -5.4181  -5.4099  -5.4099  -5.4097  -5.3989
    -5.3951  -5.3866  -5.3865  -5.3748  -5.3748  -5.3747  -5.3691  -5.3678
    -5.3649  -5.3648  -5.3354  -5.3279  -5.3279  -5.3086  -5.3085  -5.2820
    -5.2762  -5.2761  -5.2730  -5.2730  -5.2720  -5.2720  -5.2572  -5.2288
    -5.1873  -5.1873  -5.1833  -5.1833  -5.1443  -5.1443  -5.0649  -5.0648
    -4.4566  -4.2334  -4.2333  -4.0441  -4.0441  -3.2453  -3.2453  -3.1957
    -3.1452  -2.8776  -2.8776  -2.8499  -2.8498  -2.7808  -2.7807  -1.7963
    -1.7962  -1.7017  -1.7017  -1.4136  -1.4136  -0.8452  -0.4761  -0.4760
    -0.4125  -0.4125  -0.3235  -0.2416   0.2943   0.3498   0.3499   0.4232
     0.4232   0.6995   0.6995   0.7888   0.9699   0.9699   1.0864   1.4154
     1.4155   1.9756   1.9756   2.5306   2.5517   2.8203   2.9854   3.0904
     3.3257   3.3257   3.3637   3.3638   3.4433   3.4463   3.4464   3.5745
     3.5745   3.6669   3.8899   3.8900   4.3745   4.3745   4.3914   4.4245
     4.4432   4.4432   4.5665   4.5665   4.8785   4.9325   5.1388   5.1388
     5.2199   5.2199   5.4130   5.4439   5.4440   5.4518   5.4518   5.6105
     5.8641   5.8641   6.0700   6.0700   6.0901   6.1236   6.1236   6.5417
     6.5417   6.5474   6.6433   6.6454   6.6454   6.7354   6.9517   6.9987
     6.9987   7.0015   7.0099   7.0099   7.0435   7.0435   7.1632   7.1632
     7.1847   7.1847   7.2113   7.2113   7.2216   7.2216   7.4457   7.4457
     8.0918   8.2142   8.2142   8.3526   8.3616   8.3831   8.3832   8.5223
     8.5223   8.5389   8.5529   8.5822   8.5822   8.6232   8.6233   8.6577
     8.6780   8.6780   8.7003   8.7424   8.8055   8.8055   9.0127   9.0127

     occupation numbers 
     1.0000   1.0000   1.0000   1.0000   1.0000   1.0000   1.0000   1.0000
     1.0000   1.0000   1.0000   1.0000   1.0000   1.0000   1.0000   1.0000
     1.0000   1.0000   1.0000   1.0000   1.0000   1.0000   1.0000   1.0000
     1.0000   1.0000   1.0000   1.0000   1.0000   1.0000   1.0000   1.0000
     1.0000   1.0000   1.0000   1.0000   1.0000   1.0000   1.0000   1.0000
     1.0000   1.0000   1.0000   1.0000   1.0000   1.0000   1.0000   1.0000
     1.0000   1.0000   1.0000   1.0000   1.0000   1.0000   1.0000   1.0000
     1.0000   1.0000   1.0000   1.0000   1.0000   1.0000   1.0000   1.0000
     1.0000   1.0000   1.0000   1.0000   1.0000   1.0000   1.0000   1.0000
     1.0000   1.0000   1.0000   1.0000   1.0000   1.0000   1.0000   1.0000
     1.0000   1.0000   1.0000   1.0000   1.0000   1.0000   1.0000   1.0000
     1.0000   1.0000   1.0000   1.0000   1.0000   1.0000   1.0000   1.0000
     1.0000   1.0000   1.0000   1.0000   1.0000   1.0000   1.0000   1.0000
     1.0000   1.0000   1.0000   1.0000   1.0000   1.0000   1.0000   1.0000
     1.0000   1.0000   1.0000   1.0000   1.0000   1.0000   1.0000   1.0000
     1.0000   1.0000   1.0000   1.0000   1.0000   1.0000   1.0000   1.0000
     1.0000   1.0000   1.0000   1.0000   1.0000   1.0000   1.0000   1.0000
     1.0000   1.0000   1.0000   1.0000   1.0000   1.0000   1.0000   1.0000
     1.0000   1.0000   1.0000   1.0000   1.0000   1.0000   1.0000   1.0000
     1.0000   1.0000   1.0000   1.0000   1.0000   1.0000   1.0000   1.0000
     1.0000   1.0000   1.0000   1.0000   1.0000   1.0000   1.0000   1.0000
     1.0000   1.0000   1.0000   1.0000   1.0000   1.0000   1.0000   1.0000
     1.0000   1.0000   1.0000   1.0000   1.0000   1.0000   1.0000   1.0000
     1.0000   1.0000   1.0000   1.0000   1.0000   1.0000   1.0000   1.0000
     1.0000   1.0000   1.0000   1.0000   1.0000   1.0000   1.0000   1.0000
     1.0000   1.0000   1.0000   1.0000   1.0000   1.0000   1.0000   1.0000
     1.0000   1.0000   1.0000   1.0000   1.0000   1.0000   1.0000   1.0000
     1.0000   1.0000   1.0000   1.0000   1.0000   1.0000   1.0000   1.0000
     1.0000   1.0000   1.0000   1.0000   1.0000   1.0000   1.0000   1.0000
     1.0000   1.0000   1.0000   1.0000   1.0000   1.0000   1.0000   1.0000
     1.0000   1.0000   1.0000   1.0000   1.0000   1.0000   1.0000   1.0000
     1.0000   1.0000   1.0000   1.0000   1.0000   1.0000   1.0000   1.0000
     1.0000   1.0000   1.0000   1.0000   1.0000   1.0000   1.0000   1.0000
     1.0000   1.0000   1.0000   1.0000   1.0000   1.0000   1.0000   1.0000
     1.0000   1.0000   1.0000   1.0000   1.0000   1.0000   1.0000   1.0000
     1.0000   1.0000   1.0000   1.0000   1.0000   1.0000   1.0000   1.0000
     1.0000   1.0000   1.0000   1.0000   1.0000   1.0000   1.0000   1.0000
     1.0000   1.0000   1.0000   1.0000   1.0000   1.0000   1.0000   1.0000
     1.0000   1.0000   1.0000   1.0000   1.0000   1.0000   1.0000   1.0000
     1.0000   1.0000   1.0000   1.0000   1.0000   1.0000   1.0000   1.0000
     1.0000   1.0000   1.0000   1.0000   1.0000   1.0000   1.0000   1.0000
     1.0000   1.0000   1.0000   1.0000   1.0000   1.0000   1.0000   1.0000
     1.0000   1.0000   1.0000   1.0000   1.0000   1.0000   1.0000   1.0000
     1.0000   1.0000   1.0000   1.0000   1.0000   1.0000   1.0000   1.0000
     1.0000   1.0000   1.0000   1.0000   1.0000   1.0000   1.0000   1.0000
     1.0000   1.0000   1.0000   1.0000   1.0000   1.0000   1.0000   1.0000
     1.0000   1.0000   1.0000   1.0000   1.0000   1.0000   1.0000   1.0000
     1.0000   1.0000   1.0000   1.0000   1.0000   1.0000   1.0000   1.0000
     1.0000   1.0000   1.0000   1.0000   1.0000   1.0000   1.0000   1.0000
     1.0000   1.0000   1.0000   1.0000   1.0000   1.0000   1.0000   1.0000
     1.0000   1.0000   1.0000   1.0000   1.0000   1.0000   1.0000   1.0000
     1.0000   1.0000   1.0000   1.0000   1.0000   1.0000   1.0000   1.0000
     1.0000   1.0000   1.0000   1.0000   1.0000   1.0000   1.0000   1.0000
     1.0000   1.0000   1.0000   1.0000   1.0000   1.0000   1.0000   1.0000
     1.0000   1.0000   1.0000   1.0000   1.0000   1.0000   1.0000   1.0000
     1.0000   1.0000   1.0000   1.0000   1.0000   1.0000   1.0000   1.0000
     1.0000   1.0000   1.0000   1.0000   1.0000   1.0000   1.0000   1.0000
     1.0000   1.0000   1.0000   1.0000   1.0000   1.0000   1.0000   1.0000
     1.0000   1.0000   1.0000   1.0000   1.0000   1.0000   1.0000   1.0000
     1.0000   1.0052   1.0052   1.0159   1.0686   1.0686   1.0779   0.4454
     0.4450   0.0003   0.0003   0.0000   0.0000   0.0000   0.0000   0.0000
     0.0000   0.0000   0.0000   0.0000   0.0000   0.0000   0.0000   0.0000
     0.0000   0.0000   0.0000   0.0000   0.0000   0.0000   0.0000   0.0000
     0.0000   0.0000   0.0000   0.0000   0.0000   0.0000   0.0000   0.0000
     0.0000   0.0000   0.0000   0.0000   0.0000   0.0000   0.0000   0.0000
     0.0000   0.0000   0.0000   0.0000   0.0000   0.0000   0.0000   0.0000
     0.0000   0.0000   0.0000   0.0000   0.0000   0.0000   0.0000   0.0000
     0.0000   0.0000   0.0000   0.0000   0.0000   0.0000   0.0000   0.0000
     0.0000   0.0000   0.0000   0.0000   0.0000   0.0000   0.0000   0.0000
     0.0000   0.0000   0.0000   0.0000   0.0000   0.0000   0.0000   0.0000
     0.0000   0.0000   0.0000   0.0000   0.0000   0.0000   0.0000   0.0000
     0.0000   0.0000   0.0000   0.0000   0.0000   0.0000   0.0000   0.0000

          k = 0.2500-0.4330 0.0000 ( 64876 PWs)   bands (ev):

  -125.0676-125.0670-125.0668-125.0659-125.0658-125.0653-125.0652-125.0649
  -125.0649-125.0646-125.0644-125.0643-125.0642-125.0639-125.0638-125.0637
  -124.8633-124.8630-124.8628-124.8627-124.8625-124.8624-124.8617-124.8616
  -124.8614-124.8614-124.8611-124.8610-124.8608-124.8608-124.8607-124.8607
  -124.8606-124.8605-124.8604-124.8603-124.8602-124.8602-124.8601-124.8601
  -124.8601-124.8598-124.8598-124.8597-124.8596-124.8596-124.8595-124.8594
   -79.2326 -79.2310 -79.2310 -79.2304 -79.2303 -79.2284 -79.2281 -79.2263
   -79.2261 -79.2257 -79.2222 -79.2214 -79.2177 -79.2177 -79.2157 -79.2151
   -79.2149 -79.2143 -79.2142 -79.2138 -79.2138 -79.2132 -79.2131 -79.2128
   -79.2127 -79.2124 -79.2123 -79.2122 -79.2120 -79.2117 -79.2116 -79.2114
   -79.2109 -79.2092 -79.2089 -79.2078 -79.2076 -79.2075 -79.2069 -79.2069
   -79.2063 -79.2061 -79.2047 -79.2047 -79.2022 -79.2006 -79.2006 -79.1992
   -79.0251 -79.0249 -79.0235 -79.0235 -79.0233 -79.0232 -79.0229 -79.0228
   -79.0227 -79.0227 -79.0209 -79.0207 -79.0206 -79.0205 -79.0199 -79.0195
   -79.0193 -79.0191 -79.0190 -79.0189 -79.0188 -79.0186 -79.0185 -79.0184
   -79.0182 -79.0180 -79.0180 -79.0180 -79.0177 -79.0177 -79.0174 -79.0173
   -79.0171 -79.0171 -79.0170 -79.0169 -79.0168 -79.0167 -79.0166 -79.0166
   -79.0165 -79.0165 -79.0163 -79.0163 -79.0163 -79.0160 -79.0160 -79.0159
   -79.0158 -79.0158 -79.0157 -79.0156 -79.0148 -79.0145 -79.0139 -79.0137
   -79.0103 -79.0103 -79.0100 -79.0100 -79.0068 -79.0068 -79.0066 -79.0066
   -79.0034 -79.0032 -79.0017 -79.0015 -79.0014 -79.0014 -79.0004 -79.0002
   -79.0001 -79.0000 -79.0000 -78.9999 -78.9995 -78.9995 -78.9993 -78.9993
   -78.9989 -78.9987 -78.9986 -78.9985 -78.9973 -78.9973 -78.9971 -78.9971
   -78.9947 -78.9945 -78.9932 -78.9932 -78.9930 -78.9930 -78.9918 -78.9916
    -8.2701  -7.8234  -7.8232  -7.1119  -6.9145  -6.8403  -6.8403  -6.8038
    -6.8038  -6.7974  -6.7973  -6.7930  -6.7929  -6.7691  -6.7279  -6.7277
    -6.6988  -6.6986  -6.6554  -6.6554  -6.6235  -6.6095  -6.6095  -6.6048
    -6.6047  -6.5883  -6.5883  -6.5682  -6.5682  -6.5602  -6.5600  -6.5441
[...]
     1.0000   1.0000   1.0000   1.0000   1.0000   1.0000   1.0000   1.0000
     1.0000   1.0000   1.0000   1.0000   1.0000   1.0000   1.0000   1.0000
     1.0000   1.0000   1.0000   1.0000   1.0000   1.0000   1.0000   1.0000
     1.0000   1.0000   1.0000   1.0000   1.0000   1.0000   1.0000   1.0000
     1.0000   1.0000   1.0000   1.0000   1.0000   1.0000   1.0000   1.0000
     1.0000   1.0000   1.0000   1.0000   1.0000   1.0000   1.0000   1.0000
     1.0000   1.0000   1.0000   1.0000   1.0000   1.0000   1.0000   1.0000
     1.0000   1.0000   1.0000   1.0000   1.0000   1.0000   1.0000   1.0000
     1.0000   1.0000   1.0000   1.0000   1.0000   1.0000   1.0000   1.0000
     1.0000   1.0000   1.0000   1.0000   1.0000   1.0000   1.0000   1.0000
     1.0000   1.0000   1.0000   1.0000   1.0000   1.0000   1.0000   1.0000
     1.0000   1.0000   1.0000   1.0000   1.0000   1.0000   1.0000   1.0000
     1.0000   1.0000   1.0000   1.0000   1.0000   1.0000   1.0000   1.0000
     1.0000   1.0000   1.0000   1.0000   1.0000   1.0000   1.0000   1.0000
     1.0000   1.0000   1.0000   1.0000   1.0000   1.0000   1.0000   1.0000
     1.0000   1.0000   1.0000   1.0000   1.0000   1.0000   1.0000   1.0000
     1.0000   1.0000   1.0000   1.0000   1.0000   1.0000   1.0000   1.0000
     1.0000   1.0000   1.0000   1.0000   1.0000   1.0000   1.0000   1.0000
     1.0000   1.0000   1.0000   1.0000   1.0000   1.0000   1.0000   1.0000
     1.0000   1.0000   1.0000   1.0000   1.0000   1.0000   1.0000   1.0000
     1.0000   1.0000   1.0000   1.0000   1.0000   1.0000   1.0000   1.0000
     1.0000   1.0000   1.0000   1.0000   1.0000   1.0000   1.0000   1.0000
     1.0000   1.0000   1.0000   1.0000   1.0000   1.0000   1.0000   1.0000
     1.0000   1.0000   1.0000   1.0000   1.0000   1.0000   1.0000   1.0000
     1.0000   1.0000   1.0000   1.0000   1.0000   1.0000   1.0000   1.0000
     1.0000   1.0000   1.0000   1.0000   1.0000   1.0000   1.0000   1.0000
     1.0000   1.0000   1.0000   1.0000   1.0000   1.0000   1.0000   1.0000
     1.0000   1.0000   1.0000   1.0000   1.0000   1.0000   1.0000   1.0000
     1.0000   1.0000   1.0000   1.0000   1.0000   1.0000   1.0000   1.0000
     1.0000   1.0000   1.0000   1.0000   1.0000   1.0000   1.0000   1.0000
     1.0000   1.0000   1.0000   1.0000   1.0000   1.0000   1.0000   1.0000
     1.0000   1.0000   1.0000   1.0000   1.0000   1.0000   1.0000   1.0000
     1.0000   1.0000   1.0000   1.0000   1.0000   1.0000   1.0000   1.0000
     1.0000   1.0000   1.0000   1.0000   1.0000   1.0000   1.0000   1.0000
     1.0000   1.0000   1.0000   1.0000   1.0000   1.0000   1.0000   1.0000
     1.0000   1.0000   1.0000   1.0000   1.0000   1.0000   1.0000   1.0000
     1.0000   1.0000   1.0000   1.0000   1.0000   1.0000   1.0000   1.0000
     1.0000   1.0000   1.0000   1.0000   1.0000   1.0000   1.0000   1.0000
     1.0000   1.0000   1.0000   1.0000   1.0000   1.0000   1.0000   1.0000
     1.0000   1.0000   1.0000   1.0000   1.0000   1.0000   1.0000   1.0000
     1.0000   1.0000   1.0000   1.0000   1.0000   1.0000   1.0000   1.0000
     1.0000   1.0052   1.0052   1.0159   1.0686   1.0686   1.0779   0.4456
     0.4449   0.0003   0.0003   0.0000   0.0000   0.0000   0.0000   0.0000
     0.0000   0.0000   0.0000   0.0000   0.0000   0.0000   0.0000   0.0000
     0.0000   0.0000   0.0000   0.0000   0.0000   0.0000   0.0000   0.0000
     0.0000   0.0000   0.0000   0.0000   0.0000   0.0000   0.0000   0.0000
     0.0000   0.0000   0.0000   0.0000   0.0000   0.0000   0.0000   0.0000
     0.0000   0.0000   0.0000   0.0000   0.0000   0.0000   0.0000   0.0000
     0.0000   0.0000   0.0000   0.0000   0.0000   0.0000   0.0000   0.0000
     0.0000   0.0000   0.0000   0.0000   0.0000   0.0000   0.0000   0.0000
     0.0000   0.0000   0.0000   0.0000   0.0000   0.0000   0.0000   0.0000
     0.0000   0.0000   0.0000   0.0000   0.0000   0.0000   0.0000   0.0000
     0.0000   0.0000   0.0000   0.0000   0.0000   0.0000   0.0000   0.0000
     0.0000   0.0000   0.0000   0.0000   0.0000   0.0000   0.0000   0.0000

          k =-0.5000-0.8660 0.0000 ( 64842 PWs)   bands (ev):

  -125.0675-125.0672-125.0664-125.0663-125.0654-125.0653-125.0652-125.0652
  -125.0648-125.0646-125.0644-125.0643-125.0641-125.0641-125.0638-125.0637
  -124.8633-124.8630-124.8630-124.8628-124.8623-124.8622-124.8620-124.8619
  -124.8612-124.8611-124.8611-124.8610-124.8608-124.8608-124.8608-124.8608
  -124.8607-124.8605-124.8604-124.8603-124.8602-124.8602-124.8600-124.8600
  -124.8600-124.8599-124.8598-124.8598-124.8597-124.8596-124.8595-124.8594
   -79.2316 -79.2316 -79.2314 -79.2313 -79.2292 -79.2289 -79.2280 -79.2279
   -79.2235 -79.2235 -79.2234 -79.2234 -79.2185 -79.2185 -79.2157 -79.2154
   -79.2145 -79.2144 -79.2133 -79.2132 -79.2131 -79.2130 -79.2127 -79.2125
   -79.2122 -79.2121 -79.2120 -79.2120 -79.2119 -79.2119 -79.2115 -79.2114
   -79.2106 -79.2105 -79.2103 -79.2103 -79.2071 -79.2071 -79.2071 -79.2070
   -79.2063 -79.2061 -79.2037 -79.2034 -79.2025 -79.2024 -79.1997 -79.1994
   -79.0241 -79.0241 -79.0239 -79.0239 -79.0239 -79.0238 -79.0237 -79.0237
   -79.0217 -79.0214 -79.0214 -79.0212 -79.0205 -79.0204 -79.0203 -79.0202
   -79.0198 -79.0195 -79.0194 -79.0193 -79.0187 -79.0186 -79.0184 -79.0183
   -79.0174 -79.0174 -79.0174 -79.0173 -79.0171 -79.0171 -79.0171 -79.0170
   -79.0169 -79.0168 -79.0167 -79.0166 -79.0164 -79.0164 -79.0162 -79.0162
   -79.0162 -79.0161 -79.0160 -79.0160 -79.0160 -79.0160 -79.0160 -79.0160
   -79.0159 -79.0158 -79.0158 -79.0157 -79.0157 -79.0157 -79.0156 -79.0156
   -79.0111 -79.0111 -79.0109 -79.0109 -79.0045 -79.0045 -79.0043 -79.0043
   -79.0031 -79.0031 -79.0029 -79.0028 -79.0028 -79.0028 -79.0027 -79.0026
   -78.9997 -78.9997 -78.9996 -78.9996 -78.9994 -78.9994 -78.9994 -78.9994
   -78.9989 -78.9987 -78.9986 -78.9985 -78.9962 -78.9959 -78.9959 -78.9958
   -78.9950 -78.9950 -78.9948 -78.9948 -78.9922 -78.9920 -78.9920 -78.9919
    -8.1560  -8.1559  -7.3171  -7.3171  -7.0260  -7.0258  -6.8642  -6.8640
    -6.8601  -6.8599  -6.7501  -6.7501  -6.7499  -6.7499  -6.6540  -6.6539
    -6.6473  -6.6473  -6.6473  -6.6473  -6.6250  -6.6248  -6.6074  -6.6073
    -6.6072  -6.6071  -6.5537  -6.5537  -6.5292  -6.5292  -6.5290  -6.5290
    -6.5061  -6.5061  -6.4877  -6.4877  -6.4877  -6.4877  -6.4634  -6.4634
    -6.4634  -6.4634  -6.4611  -6.4609  -6.4499  -6.4499  -6.4265  -6.4265
    -6.4222  -6.4221  -6.4220  -6.4220  -6.3104  -6.3104  -6.3017  -6.3017
    -6.2932  -6.2932  -6.2932  -6.2932  -6.2919  -6.2917  -6.2710  -6.2710
    -6.2708  -6.2708  -6.2364  -6.2363  -6.2214  -6.2214  -6.2214  -6.2214
    -6.2062  -6.2062  -6.2011  -6.2011  -6.1705  -6.1704  -6.1420  -6.1420
    -6.1120  -6.1120  -6.1036  -6.1036  -6.0828  -6.0828  -6.0827  -6.0827
    -6.0618  -6.0618  -6.0618  -6.0618  -6.0422  -6.0422  -6.0326  -6.0326
    -6.0261  -6.0260  -6.0225  -6.0224  -6.0096  -6.0094  -5.9901  -5.9901
    -5.9901  -5.9901  -5.9470  -5.9470  -5.9461  -5.9459  -5.9155  -5.9154
    -5.9056  -5.9056  -5.8722  -5.8721  -5.8720  -5.8720  -5.8153  -5.8151
    -5.8095  -5.8095  -5.8087  -5.8087  -5.8087  -5.8087  -5.8054  -5.8052
    -5.7875  -5.7875  -5.7852  -5.7851  -5.7759  -5.7759  -5.7758  -5.7758
    -5.7680  -5.7679  -5.7675  -5.7675  -5.7675  -5.7675  -5.7561  -5.7561
    -5.7540  -5.7540  -5.7540  -5.7540  -5.6755  -5.6755  -5.6741  -5.6741
    -5.6672  -5.6672  -5.6457  -5.6457  -5.6457  -5.6457  -5.6313  -5.6311
    -5.6240  -5.6240  -5.6048  -5.6048  -5.6047  -5.6047  -5.5946  -5.5946
    -5.5705  -5.5704  -5.5435  -5.5434  -5.5291  -5.5291  -5.5290  -5.5289
    -5.5266  -5.5266  -5.5265  -5.5265  -5.5233  -5.5233  -5.5212  -5.5211
    -5.4993  -5.4992  -5.4991  -5.4991  -5.4892  -5.4891  -5.4884  -5.4883
    -5.4868  -5.4868  -5.4793  -5.4793  -5.4642  -5.4642  -5.4642  -5.4642
    -5.4514  -5.4513  -5.4512  -5.4512  -5.4400  -5.4400  -5.4229  -5.4228
    -5.4158  -5.4158  -5.4157  -5.4157  -5.4126  -5.4126  -5.4117  -5.4117
    -5.4050  -5.4050  -5.4028  -5.4027  -5.4005  -5.4004  -5.3707  -5.3706
    -5.3629  -5.3629  -5.3629  -5.3629  -5.3244  -5.3244  -5.3244  -5.3244
    -5.2545  -5.2544  -5.2543  -5.2543  -5.2354  -5.2353  -5.2346  -5.2345
    -5.2345  -5.2344  -5.2018  -5.2016  -5.1991  -5.1989  -4.7023  -4.7023
    -4.4186  -4.4186  -4.4186  -4.4186  -3.7285  -3.7285  -3.1108  -3.1107
    -3.0618  -3.0618  -3.0618  -3.0618  -2.3916  -2.3916  -2.2400  -2.2400
    -1.7582  -1.7582  -1.7580  -1.7580  -0.7555  -0.7555  -0.7555  -0.7555
    -0.3258  -0.3257  -0.3256  -0.3256  -0.0905  -0.0904   0.0129   0.0129
     1.0211   1.0211   1.0491   1.0491   1.3379   1.3379   1.3697   1.3697
     1.3698   1.3698   2.2234   2.2234   2.8998   2.8999   2.8999   2.8999
     3.1016   3.1016   3.1016   3.1016   3.3221   3.3221   3.5549   3.5550
     3.8664   3.8664   3.8665   3.8665   3.9982   3.9982   4.2578   4.2579
     4.4470   4.4470   4.7457   4.7457   4.8578   4.8578   5.4824   5.4824
     5.5258   5.5258   5.7254   5.7254   5.8009   5.8009   5.9295   5.9295
     5.9296   5.9296   5.9830   5.9830   5.9830   5.9830   6.1538   6.1538
     6.1538   6.1538   6.4273   6.4273   6.5596   6.5596   6.6438   6.6438
     6.6631   6.6631   6.8477   6.8477   6.8664   6.8664   7.0137   7.0137
     7.0137   7.0137   7.5858   7.5858   7.7452   7.7452   8.0644   8.0644
     8.0906   8.0906   8.0906   8.0906   8.2787   8.2787   8.4770   8.4770
     8.4770   8.4770   8.6267   8.6267   8.6267   8.6267   8.6680   8.6681
     8.7364   8.7364   8.8114   8.8115   8.9993   8.9993   8.9994   8.9994

     occupation numbers 
     1.0000   1.0000   1.0000   1.0000   1.0000   1.0000   1.0000   1.0000
     1.0000   1.0000   1.0000   1.0000   1.0000   1.0000   1.0000   1.0000
     1.0000   1.0000   1.0000   1.0000   1.0000   1.0000   1.0000   1.0000
     1.0000   1.0000   1.0000   1.0000   1.0000   1.0000   1.0000   1.0000
     1.0000   1.0000   1.0000   1.0000   1.0000   1.0000   1.0000   1.0000
     1.0000   1.0000   1.0000   1.0000   1.0000   1.0000   1.0000   1.0000
     1.0000   1.0000   1.0000   1.0000   1.0000   1.0000   1.0000   1.0000
     1.0000   1.0000   1.0000   1.0000   1.0000   1.0000   1.0000   1.0000
     1.0000   1.0000   1.0000   1.0000   1.0000   1.0000   1.0000   1.0000
     1.0000   1.0000   1.0000   1.0000   1.0000   1.0000   1.0000   1.0000
     1.0000   1.0000   1.0000   1.0000   1.0000   1.0000   1.0000   1.0000
     1.0000   1.0000   1.0000   1.0000   1.0000   1.0000   1.0000   1.0000
     1.0000   1.0000   1.0000   1.0000   1.0000   1.0000   1.0000   1.0000
     1.0000   1.0000   1.0000   1.0000   1.0000   1.0000   1.0000   1.0000
     1.0000   1.0000   1.0000   1.0000   1.0000   1.0000   1.0000   1.0000
     1.0000   1.0000   1.0000   1.0000   1.0000   1.0000   1.0000   1.0000
     1.0000   1.0000   1.0000   1.0000   1.0000   1.0000   1.0000   1.0000
     1.0000   1.0000   1.0000   1.0000   1.0000   1.0000   1.0000   1.0000
     1.0000   1.0000   1.0000   1.0000   1.0000   1.0000   1.0000   1.0000
     1.0000   1.0000   1.0000   1.0000   1.0000   1.0000   1.0000   1.0000
     1.0000   1.0000   1.0000   1.0000   1.0000   1.0000   1.0000   1.0000
     1.0000   1.0000   1.0000   1.0000   1.0000   1.0000   1.0000   1.0000
     1.0000   1.0000   1.0000   1.0000   1.0000   1.0000   1.0000   1.0000
     1.0000   1.0000   1.0000   1.0000   1.0000   1.0000   1.0000   1.0000
     1.0000   1.0000   1.0000   1.0000   1.0000   1.0000   1.0000   1.0000
     1.0000   1.0000   1.0000   1.0000   1.0000   1.0000   1.0000   1.0000
     1.0000   1.0000   1.0000   1.0000   1.0000   1.0000   1.0000   1.0000
     1.0000   1.0000   1.0000   1.0000   1.0000   1.0000   1.0000   1.0000
     1.0000   1.0000   1.0000   1.0000   1.0000   1.0000   1.0000   1.0000
     1.0000   1.0000   1.0000   1.0000   1.0000   1.0000   1.0000   1.0000
     1.0000   1.0000   1.0000   1.0000   1.0000   1.0000   1.0000   1.0000
     1.0000   1.0000   1.0000   1.0000   1.0000   1.0000   1.0000   1.0000
     1.0000   1.0000   1.0000   1.0000   1.0000   1.0000   1.0000   1.0000
     1.0000   1.0000   1.0000   1.0000   1.0000   1.0000   1.0000   1.0000
     1.0000   1.0000   1.0000   1.0000   1.0000   1.0000   1.0000   1.0000
     1.0000   1.0000   1.0000   1.0000   1.0000   1.0000   1.0000   1.0000
     1.0000   1.0000   1.0000   1.0000   1.0000   1.0000   1.0000   1.0000
     1.0000   1.0000   1.0000   1.0000   1.0000   1.0000   1.0000   1.0000
     1.0000   1.0000   1.0000   1.0000   1.0000   1.0000   1.0000   1.0000
     1.0000   1.0000   1.0000   1.0000   1.0000   1.0000   1.0000   1.0000
     1.0000   1.0000   1.0000   1.0000   1.0000   1.0000   1.0000   1.0000
     1.0000   1.0000   1.0000   1.0000   1.0000   1.0000   1.0000   1.0000
     1.0000   1.0000   1.0000   1.0000   1.0000   1.0000   1.0000   1.0000
     1.0000   1.0000   1.0000   1.0000   1.0000   1.0000   1.0000   1.0000
     1.0000   1.0000   1.0000   1.0000   1.0000   1.0000   1.0000   1.0000
     1.0000   1.0000   1.0000   1.0000   1.0000   1.0000   1.0000   1.0000
     1.0000   1.0000   1.0000   1.0000   1.0000   1.0000   1.0000   1.0000
     1.0000   1.0000   1.0000   1.0000   1.0000   1.0000   1.0000   1.0000
     1.0000   1.0000   1.0000   1.0000   1.0000   1.0000   1.0000   1.0000
     1.0000   1.0000   1.0000   1.0000   1.0000   1.0000   1.0000   1.0000
     1.0000   1.0000   1.0000   1.0000   1.0000   1.0000   1.0000   1.0000
     1.0000   1.0000   1.0000   1.0000   1.0000   1.0000   1.0000   1.0000
     1.0000   1.0000   1.0000   1.0000   1.0000   1.0000   1.0000   1.0000
     1.0000   1.0000   1.0000   1.0000   1.0000   1.0000   1.0000   1.0000
     1.0000   1.0000   1.0000   1.0000   1.0000   1.0000   1.0000   1.0000
     1.0000   1.0000   1.0000   1.0000   1.0000   1.0000   1.0000   1.0000
     1.0000   1.0000   1.0000   1.0000   1.0000   1.0000   1.0000   1.0000
     1.0000   1.0000   1.0000   1.0000   1.0000   1.0000   1.0000   1.0000
     1.0000   1.0000   1.0000   1.0000   1.0000   1.0000   1.0000   1.0000
     1.0812   1.0812   1.0833   1.0833   0.6571   0.6571   0.5691   0.5690
     0.5688   0.5688   0.0000   0.0000   0.0000   0.0000   0.0000   0.0000
     0.0000   0.0000   0.0000   0.0000   0.0000   0.0000   0.0000   0.0000
     0.0000   0.0000   0.0000   0.0000   0.0000   0.0000   0.0000   0.0000
     0.0000   0.0000   0.0000   0.0000   0.0000   0.0000   0.0000   0.0000
     0.0000   0.0000   0.0000   0.0000   0.0000   0.0000   0.0000   0.0000
     0.0000   0.0000   0.0000   0.0000   0.0000   0.0000   0.0000   0.0000
     0.0000   0.0000   0.0000   0.0000   0.0000   0.0000   0.0000   0.0000
     0.0000   0.0000   0.0000   0.0000   0.0000   0.0000   0.0000   0.0000
     0.0000   0.0000   0.0000   0.0000   0.0000   0.0000   0.0000   0.0000
     0.0000   0.0000   0.0000   0.0000   0.0000   0.0000   0.0000   0.0000
     0.0000   0.0000   0.0000   0.0000   0.0000   0.0000   0.0000   0.0000
     0.0000   0.0000   0.0000   0.0000   0.0000   0.0000   0.0000   0.0000

     the Fermi energy is     1.4328 ev

!    total energy              =  -22154.25533499 Ry
     estimated scf accuracy    <       0.00000079 Ry
     smearing contrib. (-TS)   =       0.00133280 Ry
     internal energy E=F+TS    =  -22154.25666779 Ry

     The total energy is F=E-TS. E is the sum of the following terms:
     one-electron contribution = -144865.44566350 Ry
     hartree contribution      =   72366.09670306 Ry
     xc contribution           =   -2024.15565106 Ry
     ewald contribution        =   52369.24794370 Ry

     convergence has been achieved in  10 iterations

     Writing all to output data dir ./tmp/Zn002.save/ :
     XML data file, charge density, pseudopotentials, collected wavefunctions

     init_run     :    115.68s CPU    116.46s WALL (       1 calls)
     electrons    :   4575.51s CPU   4608.41s WALL (       1 calls)

     Called by init_run:
     wfcinit      :    114.37s CPU    115.11s WALL (       1 calls)
     wfcinit:atom :      0.07s CPU      0.13s WALL (      10 calls)
     wfcinit:wfcr :    113.23s CPU    113.82s WALL (      10 calls)
     potinit      :      0.08s CPU      0.09s WALL (       1 calls)
     hinit0       :      0.03s CPU      0.04s WALL (       1 calls)

     Called by electrons:
     c_bands      :   4263.31s CPU   4294.17s WALL (      11 calls)
     sum_band     :    302.59s CPU    304.27s WALL (      11 calls)
     v_of_rho     :      0.76s CPU      0.79s WALL (      11 calls)
     v_h          :      0.05s CPU      0.06s WALL (      11 calls)
     v_xc         :      0.71s CPU      0.73s WALL (      11 calls)
     newd         :      9.61s CPU      9.87s WALL (      11 calls)
     mix_rho      :      0.09s CPU      0.09s WALL (      11 calls)

     Called by c_bands:
     init_us_2    :      4.21s CPU      4.24s WALL (     230 calls)
     cegterg      :   4254.66s CPU   4285.37s WALL (     110 calls)

     Called by sum_band:
     sum_band:wei :      0.05s CPU      0.05s WALL (      11 calls)
     sum_band:loo :    292.74s CPU    294.14s WALL (      11 calls)
     sum_band:buf :      0.92s CPU      0.96s WALL (     110 calls)
     sum_band:ini :      2.02s CPU      2.03s WALL (     110 calls)
     sum_band:cal :    249.54s CPU    250.61s WALL (     110 calls)
     sum_band:bec :      2.24s CPU      2.25s WALL (     110 calls)
     addusdens    :      9.65s CPU      9.91s WALL (      11 calls)
                                        0.00s GPU  (      11 calls)
     addusd:skk   :      0.09s CPU      0.11s WALL (      11 calls)
                                        0.00s GPU  (      11 calls)

     Called by *egterg:
     cdiaghg      :    285.57s CPU    296.76s WALL (     663 calls)
     cegterg:over :    658.14s CPU    660.26s WALL (     563 calls)
     cegterg:upda :    299.38s CPU    301.19s WALL (     563 calls)
     cegterg:last :   1012.90s CPU   1019.19s WALL (     220 calls)
     cdiaghg:chol :     17.82s CPU     17.87s WALL (     663 calls)
     cdiaghg:inve :      2.84s CPU      2.85s WALL (     663 calls)
     cdiaghg:para :     74.07s CPU     75.40s WALL (    1326 calls)
     h_psi        :   1339.99s CPU   1346.22s WALL (     683 calls)
     s_psi        :    557.78s CPU    559.11s WALL (     683 calls)
     g_psi        :      0.56s CPU      0.56s WALL (     563 calls)

     Called by h_psi:
     h_psi:calbec :    603.06s CPU    605.77s WALL (     683 calls)
     vloc_psi     :    173.89s CPU    175.17s WALL (     683 calls)
     add_vuspsi   :    561.39s CPU    562.75s WALL (     683 calls)

     General routines
     calbec       :    852.60s CPU    856.38s WALL (     793 calls)
     fft          :      0.47s CPU      0.52s WALL (     141 calls)
     ffts         :      0.02s CPU      0.03s WALL (      22 calls)
     fftw         :    184.99s CPU    186.30s WALL (  368774 calls)
     interpolate  :      0.05s CPU      0.05s WALL (      11 calls)

     Parallel routines

     PWSCF        :      1h18m CPU      1h18m WALL


   This run was terminated on:   2:14:56  26Mar2025            

=------------------------------------------------------------------------------=
   JOB DONE.
=------------------------------------------------------------------------------=
Note: The following floating-point exceptions are signalling: IEEE_DENORMAL
Note: The following floating-point exceptions are signalling: IEEE_DENORMAL
Note: The following floating-point exceptions are signalling: IEEE_DENORMAL
Note: The following floating-point exceptions are signalling: IEEE_DENORMAL
Note: The following floating-point exceptions are signalling: IEEE_DENORMAL
Note: The following floating-point exceptions are signalling: IEEE_DENORMAL
Note: The following floating-point exceptions are signalling: IEEE_DENORMAL
Note: The following floating-point exceptions are signalling: IEEE_DENORMAL
Note: The following floating-point exceptions are signalling: IEEE_DENORMAL
Note: The following floating-point exceptions are signalling: IEEE_DENORMAL
Note: The following floating-point exceptions are signalling: IEEE_DENORMAL
