--------------------------------------------------------------------------
By default, for Open MPI 4.0 and later, infiniband ports on a device
are not used by default.  The intent is to use UCX for these devices.
You can override this policy by setting the btl_openib_allow_ib MCA parameter
to true.

  Local host:              psid05
  Local adapter:           mlx4_0
  Local port:              1

--------------------------------------------------------------------------
--------------------------------------------------------------------------
WARNING: There was an error initializing an OpenFabrics device.

  Local host:   psid05
  Local device: mlx4_0
--------------------------------------------------------------------------

     Program PWSCF v.7.3.1 starts on 14Apr2025 at  3:20:56 

     This program is part of the open-source Quantum ESPRESSO suite
     for quantum simulation of materials; please cite
         "P. Giannozzi et al., J. Phys.:Condens. Matter 21 395502 (2009);
         "P. Giannozzi et al., J. Phys.:Condens. Matter 29 465901 (2017);
         "P. Giannozzi et al., J. Chem. Phys. 152 154105 (2020);
          URL http://www.quantum-espresso.org", 
     in publications or presentations arising from this work. More details at
     http://www.quantum-espresso.org/quote

     Parallel version (MPI), running on    33 processors

     MPI processes distributed on     1 nodes
     36046 MiB available memory on the printing compute node when the environment starts

     Waiting for input...
     Reading input from standard input
Warning: card &CELL ignored
Warning: card   CELL_DOFREE = 'ALL' ignored
Warning: card / ignored

     Current dimensions of program PWSCF are:
     Max number of different atomic species (ntypx) = 10
     Max number of k-points (npk) =  40000
     Max angular momentum in pseudopotentials (lmaxx) =  4
     file C.pbe-n-kjpaw_psl.1.0.0.UPF: wavefunction(s)  2S 2P renormalized

     R & G space division:  proc/nbgrp/npool/nimage =      33
     Subspace diagonalization in iterative solution of the eigenvalue problem:
     one sub-group per band group will be used
     custom distributed-memory algorithm (size of sub-group:  5*  5 procs)


     Parallelization info
     --------------------
     sticks:   dense  smooth     PW     G-vecs:    dense   smooth      PW
     Min         270     154     42                40385    17444    2529
     Max         271     155     43                40396    17453    2536
     Sum        8941    5109   1411              1332973   575857   83601

     Using Slab Decomposition



     bravais-lattice index     =            0
     lattice parameter (alat)  =      20.9009  a.u.
     unit-cell volume          =   16846.7507 (a.u.)^3
     number of atoms/cell      =           65
     number of atomic types    =            4
     number of electrons       =      1002.00
     number of Kohn-Sham states=          601
     kinetic-energy cutoff     =      40.0000  Ry
     charge density cutoff     =     280.0000  Ry
     scf convergence threshold =      1.0E-06
     mixing beta               =       0.4000
     number of iterations used =            8  plain     mixing
     energy convergence thresh.=      5.0E-05
     force convergence thresh. =      1.0E-03
     Exchange-correlation= PBE
                           (   1   4   3   4   0   0   0)
     nstep                     =          300


     celldm(1)=  20.900943  celldm(2)=   0.000000  celldm(3)=   0.000000
     celldm(4)=   0.000000  celldm(5)=   0.000000  celldm(6)=   0.000000

     crystal axes: (cart. coord. in units of alat)
               a(1) = (   1.000000   0.000000   0.000000 )  
               a(2) = (  -0.223489   0.918700   0.000000 )  
               a(3) = (  -4.200249  -1.021781   2.008375 )  

     reciprocal axes: (cart. coord. in units 2 pi/alat)
               b(1) = (  1.000000  0.243267  2.215131 )  
               b(2) = ( -0.000000  1.088495  0.553783 )  
               b(3) = (  0.000000 -0.000000  0.497915 )  


     PseudoPot. # 1 for Zn read from file:
     /home/ys/qepseudo/SSSP_1.3.0_PBE_efficiency/Zn_pbe_v1.uspp.F.UPF
     MD5 check sum: df62231357ef9e81f77b2b3087fa5675
     Pseudo is Ultrasoft, Zval = 20.0
     Generated by new atomic code, or converted to UPF format
     Using radial grid of  943 points,  6 beta functions with: 
                l(1) =   0
                l(2) =   0
                l(3) =   1
                l(4) =   1
                l(5) =   2
                l(6) =   2
     Q(r) pseudized with  8 coefficients,  rinner =    1.100   1.100   1.100
                                                       1.100   1.100

     PseudoPot. # 2 for N  read from file:
     /home/ys/qepseudo/SSSP_1.3.0_PBE_efficiency/N.pbe-n-radius_5.UPF
     MD5 check sum: 16739722b17309cd8fe442a2ace49922
     Pseudo is Ultrasoft + core correction, Zval =  5.0
     Generated using "atomic" code by A. Dal Corso  v.5.1
     Using radial grid of 1085 points,  4 beta functions with: 
                l(1) =   0
                l(2) =   0
                l(3) =   1
                l(4) =   1
     Q(r) pseudized with 0 coefficients 


     PseudoPot. # 3 for C  read from file:
     /home/ys/qepseudo/SSSP_1.3.0_PBE_efficiency/C.pbe-n-kjpaw_psl.1.0.0.UPF
     MD5 check sum: 5d2aebdfa2cae82b50a7e79e9516da0f
     Pseudo is Projector augmented-wave + core cor, Zval =  4.0
     Generated using "atomic" code by A. Dal Corso  v.5.1
     Shape of augmentation charge: PSQ
     Using radial grid of 1073 points,  4 beta functions with: 
                l(1) =   0
                l(2) =   0
                l(3) =   1
                l(4) =   1
     Q(r) pseudized with 0 coefficients 


     PseudoPot. # 4 for H  read from file:
     /home/ys/qepseudo/SSSP_1.3.0_PBE_efficiency/H.pbe-rrkjus_psl.1.0.0.UPF
     MD5 check sum: f52b6d4d1c606e5624b1dc7b2218f220
     Pseudo is Ultrasoft, Zval =  1.0
     Generated using "atomic" code by A. Dal Corso  v.5.1
     Using radial grid of  929 points,  2 beta functions with: 
                l(1) =   0
                l(2) =   0
     Q(r) pseudized with 0 coefficients 


     atomic species   valence    mass     pseudopotential
     Zn               20.00    65.38000     Zn( 1.00)
     N                 5.00    14.00674     N ( 1.00)
     C                 4.00    12.01070     C ( 1.00)
     H                 1.00     1.00794     H ( 1.00)

     No symmetry found


                                    s                        frac. trans.

      isym =  1     identity                                     

 cryst.   s( 1) = (     1          0          0      )
                  (     0          1          0      )
                  (     0          0          1      )

 cart.    s( 1) = (  1.0000000  0.0000000  0.0000000 )
                  (  0.0000000  1.0000000  0.0000000 )
                  (  0.0000000  0.0000000  1.0000000 )


   Cartesian axes

     site n.     atom                  positions (alat units)
         1        Zn     tau(   1) = (  -0.0970639   0.0980210   0.1082940  )
         2        Zn     tau(   2) = (  -0.2088085   0.5573710   0.1082940  )
         3        Zn     tau(   3) = (  -0.4436296   0.0133021   0.3267644  )
         4        Zn     tau(   4) = (  -0.5553466   0.4727589   0.3266326  )
         5        Zn     tau(   5) = (  -0.8015675  -0.0738560   0.5204735  )
         6        Zn     tau(   6) = (  -0.9136705   0.3857182   0.5203452  )
         7        Zn     tau(   7) = (  -0.1529361   0.3276960   0.1082940  )
         8        Zn     tau(   8) = (  -0.2646808   0.7870460   0.1082940  )
         9        Zn     tau(   9) = (  -0.4994158   0.2431043   0.3267310  )
        10        Zn     tau(  10) = (  -0.6113085   0.7023487   0.3266788  )
        11        Zn     tau(  11) = (  -0.8577155   0.1559534   0.5203020  )
        12        Zn     tau(  12) = (  -0.9693047   0.6153537   0.5205194  )
        13        Zn     tau(  13) = (   0.4029362   0.0980210   0.1082940  )
        14        Zn     tau(  14) = (   0.2911915   0.5573710   0.1082940  )
        15        Zn     tau(  15) = (   0.0565086   0.0133360   0.3241562  )
        16        Zn     tau(  16) = (  -0.0552146   0.4727957   0.3239770  )
        17        Zn     tau(  17) = (  -0.2990019  -0.0732614   0.5203282  )
        18        Zn     tau(  18) = (  -0.4111263   0.3864037   0.5201985  )
        19        Zn     tau(  19) = (   0.3470638   0.3276960   0.1082940  )
        20        Zn     tau(  20) = (   0.2353192   0.7870460   0.1082940  )
        21        Zn     tau(  21) = (   0.0007168   0.2430908   0.3241551  )
        22        Zn     tau(  22) = (  -0.1111493   0.7024087   0.3239982  )
        23        Zn     tau(  23) = (  -0.3551819   0.1565713   0.5201829  )
        24        Zn     tau(  24) = (  -0.4667146   0.6159736   0.5203598  )
        25        Zn     tau(  25) = (   0.1529361   0.0372043   0.0773528  )
        26        Zn     tau(  26) = (   0.0411915   0.4965543   0.0773528  )
        27        Zn     tau(  27) = (  -0.2122732  -0.0516715   0.2654630  )
        28        Zn     tau(  28) = (  -0.3239465   0.4077318   0.2654478  )
        29        Zn     tau(  29) = (  -0.5765287  -0.1406552   0.4574179  )
        30        Zn     tau(  30) = (  -0.6884677   0.3189336   0.4575418  )
        31        Zn     tau(  31) = (   0.0970639   0.2668793   0.0773528  )
        32        Zn     tau(  32) = (  -0.0146808   0.7262293   0.0773528  )
        33        Zn     tau(  33) = (  -0.2680871   0.1780502   0.2653609  )
        34        Zn     tau(  34) = (  -0.3798692   0.6373411   0.2655337  )
        35        Zn     tau(  35) = (  -0.6325059   0.0891251   0.4575687  )
        36        Zn     tau(  36) = (  -0.7442124   0.5485014   0.4573723  )
        37        Zn     tau(  37) = (   0.6529362   0.0372043   0.0773528  )
        38        Zn     tau(  38) = (   0.5411915   0.4965543   0.0773528  )
        39        Zn     tau(  39) = (   0.2881095  -0.0515887   0.2651273  )
        40        Zn     tau(  40) = (   0.1764595   0.4078348   0.2650500  )
        41        Zn     tau(  41) = (  -0.0738569  -0.1399537   0.4576836  )
        42        Zn     tau(  42) = (  -0.1858471   0.3195453   0.4578116  )
        43        Zn     tau(  43) = (   0.5970639   0.2668793   0.0773528  )
        44        Zn     tau(  44) = (   0.4853193   0.7262293   0.0773528  )
        45        Zn     tau(  45) = (   0.2323041   0.1780975   0.2650220  )
        46        Zn     tau(  46) = (   0.1205228   0.6374688   0.2651506  )
        47        Zn     tau(  47) = (  -0.1298290   0.0898017   0.4578049  )
        48        Zn     tau(  48) = (  -0.2415973   0.5491238   0.4576724  )
        49        H      tau(  49) = (  -0.9323176   0.1601554   1.3802604  )
        50        C      tau(  50) = (  -0.8441671   0.1337097   1.3423054  )
        51        C      tau(  51) = (  -0.8247103   0.0261957   1.0134476  )
        52        C      tau(  52) = (  -0.8743020   0.2370774   1.1402666  )
        53        C      tau(  53) = (  -0.8523924   0.1318728   0.9483826  )
        54        C      tau(  54) = (  -0.8467275   0.1321507   1.2060419  )
        55        C      tau(  55) = (  -0.8772261   0.2378379   1.0145172  )
        56        C      tau(  56) = (  -0.8221084   0.0272311   1.1395326  )
        57        N      tau(  57) = (  -0.8552922   0.1319789   0.8237021  )
        58        H      tau(  58) = (  -0.8051411  -0.0573036   0.9644225  )
        59        H      tau(  59) = (  -0.8941166   0.3208171   1.1888597  )
        60        H      tau(  60) = (  -0.8211767   0.0444369   1.3791713  )
        61        H      tau(  61) = (  -0.8751288   0.2078144   0.7772206  )
        62        H      tau(  62) = (  -0.8374867   0.0562619   0.7761472  )
        63        H      tau(  63) = (  -0.8991085   0.3212385   0.9662655  )
        64        H      tau(  64) = (  -0.8003171  -0.0564796   1.1872871  )
        65        H      tau(  65) = (  -0.7771341   0.1987008   1.3768573  )

     --------------------------------------------
     DFT-D3 Dispersion Correction (3-body terms):
     --------------------------------------------
       Reference C6 values for interpolation: 

         atom   Coordination number   C6
         H          0.912             6.05
         H          0.000            15.18
         C          0.000            98.23
         C          0.987            86.49
         C          1.998            58.72
         C          2.999            51.56
         C          3.984            36.41
         N          0.000            50.54
         N          0.994            44.25
         N          2.014            39.35
         N          2.990            31.16
         Zn         0.000           681.04
         Zn         1.942           306.91

       Values used:

         atom   Coordination number  R0_AB[au]  C6      C8
         Zn         5.577            3.053    306.91  23930.67
         Zn         5.581            3.053    306.91  23930.67
         Zn         7.262            3.053    306.91  23930.67
         Zn         7.270            3.053    306.91  23930.67
         Zn         5.106            3.053    306.91  23930.67
         Zn         5.109            3.053    306.91  23930.67
         Zn         5.580            3.053    306.91  23930.67
         Zn         5.578            3.053    306.91  23930.67
         Zn         7.265            3.053    306.91  23930.67
         Zn         7.268            3.053    306.91  23930.67
         Zn         5.125            3.053    306.91  23930.67
         Zn         5.102            3.053    306.91  23930.67
         Zn         5.546            3.053    306.91  23930.67
         Zn         5.549            3.053    306.91  23930.67
         Zn         7.336            3.053    306.91  23930.67
         Zn         7.339            3.053    306.91  23930.67
         Zn         5.107            3.053    306.91  23930.67
         Zn         5.115            3.053    306.91  23930.67
         Zn         5.549            3.053    306.91  23930.67
         Zn         5.547            3.053    306.91  23930.67
         Zn         7.337            3.053    306.91  23930.67
         Zn         7.340            3.053    306.91  23930.67
         Zn         5.111            3.053    306.91  23930.67
         Zn         5.110            3.053    306.91  23930.67
         Zn         5.382            3.053    306.91  23930.67
         Zn         5.384            3.053    306.91  23930.67
         Zn         8.154            3.053    306.91  23930.67
         Zn         8.160            3.053    306.91  23930.67
         Zn         6.503            3.053    306.91  23930.67
         Zn         6.493            3.053    306.91  23930.67
         Zn         5.382            3.053    306.91  23930.67
         Zn         5.383            3.053    306.91  23930.67
         Zn         8.153            3.053    306.91  23930.67
         Zn         8.159            3.053    306.91  23930.67
         Zn         6.493            3.053    306.91  23930.67
         Zn         6.503            3.053    306.91  23930.67
         Zn         5.342            3.053    306.91  23930.67
         Zn         5.343            3.053    306.91  23930.67
         Zn         8.196            3.053    306.91  23930.67
         Zn         8.199            3.053    306.91  23930.67
         Zn         6.508            3.053    306.91  23930.67
         Zn         6.500            3.053    306.91  23930.67
         Zn         5.343            3.053    306.91  23930.67
         Zn         5.342            3.053    306.91  23930.67
         Zn         8.193            3.053    306.91  23930.67
         Zn         8.201            3.053    306.91  23930.67
         Zn         6.499            3.053    306.91  23930.67
         Zn         6.508            3.053    306.91  23930.67
         H          0.997            2.062      6.18     74.75
         C          4.038            2.750     36.59   1058.28
         C          3.164            2.750     50.42   1458.18
         C          3.166            2.750     50.40   1457.66
         C          3.139            2.750     50.62   1464.08
         C          3.128            2.750     50.70   1466.31
         C          3.164            2.750     50.42   1458.09
         C          3.163            2.750     50.42   1458.24
         N          3.092            2.478     31.24    689.17
         H          1.003            2.062      6.18     74.69
         H          1.003            2.062      6.18     74.68
         H          0.998            2.062      6.18     74.74
         H          1.010            2.062      6.17     74.61
         H          1.010            2.062      6.17     74.62
         H          1.003            2.062      6.18     74.69
         H          1.003            2.062      6.18     74.68
         H          0.997            2.062      6.18     74.75

         Molecular C6 ( Ry / a.u.^6 ) =    839481.53


   Crystallographic axes

     site n.     atom                  positions (cryst. coord.)
         1        Zn     tau(   1) = (  0.1666667  0.1666667  0.0539212  )
         2        Zn     tau(   2) = (  0.1666668  0.6666667  0.0539212  )
         3        Zn     tau(   3) = (  0.2834325  0.1954358  0.1627009  )
         4        Zn     tau(   4) = (  0.2831942  0.6954790  0.1626353  )
         5        Zn     tau(   5) = (  0.3333829  0.2078374  0.2591516  )
         6        Zn     tau(   6) = (  0.3327949  0.7080104  0.2590877  )
         7        Zn     tau(   7) = (  0.1666668  0.4166667  0.0539212  )
         8        Zn     tau(   8) = (  0.1666667  0.9166667  0.0539212  )
         9        Zn     tau(   9) = (  0.2834754  0.4455557  0.1626843  )
        10        Zn     tau(  10) = (  0.2831861  0.9454119  0.1626583  )
        11        Zn     tau(  11) = (  0.3327602  0.4578888  0.2590662  )
        12        Zn     tau(  12) = (  0.3334092  0.9580638  0.2591744  )
        13        Zn     tau(  13) = (  0.6666668  0.1666667  0.0539212  )
        14        Zn     tau(  14) = (  0.6666667  0.6666667  0.0539212  )
        15        Zn     tau(  15) = (  0.7778014  0.1940282  0.1614022  )
        16        Zn     tau(  16) = (  0.7774525  0.6940484  0.1613130  )
        17        Zn     tau(  17) = (  0.8357713  0.2084042  0.2590792  )
        18        Zn     tau(  18) = (  0.8351810  0.7086753  0.2590146  )
        19        Zn     tau(  19) = (  0.6666668  0.4166667  0.0539212  )
        20        Zn     tau(  20) = (  0.6666668  0.9166667  0.0539212  )
        21        Zn     tau(  21) = (  0.7778988  0.4441146  0.1614017  )
        22        Zn     tau(  22) = (  0.7774220  0.9439927  0.1613236  )
        23        Zn     tau(  23) = (  0.8351802  0.4584954  0.2590069  )
        24        Zn     tau(  24) = (  0.8357966  0.9586503  0.2590949  )
        25        Zn     tau(  25) = (  0.3333333  0.0833333  0.0385151  )
        26        Zn     tau(  26) = (  0.3333333  0.5833333  0.0385151  )
        27        Zn     tau(  27) = (  0.3631923  0.0907647  0.1321780  )
        28        Zn     tau(  28) = (  0.3632429  0.5908143  0.1321704  )
        29        Zn     tau(  29) = (  0.4024953  0.1002077  0.2277552  )
        30        Zn     tau(  30) = (  0.4026334  0.6005363  0.2278169  )
        31        Zn     tau(  31) = (  0.3333333  0.3333333  0.0385151  )
        32        Zn     tau(  32) = (  0.3333333  0.8333333  0.0385151  )
        33        Zn     tau(  33) = (  0.3630358  0.3407590  0.1321272  )
        34        Zn     tau(  34) = (  0.3633667  0.8407904  0.1322132  )
        35        Zn     tau(  35) = (  0.4027500  0.3504058  0.2278303  )
        36        Zn     tau(  36) = (  0.4023595  0.8503257  0.2277325  )
        37        Zn     tau(  37) = (  0.8333333  0.0833333  0.0385151  )
        38        Zn     tau(  38) = (  0.8333333  0.5833333  0.0385151  )
        39        Zn     tau(  39) = (  0.8628514  0.0906689  0.1320109  )
        40        Zn     tau(  40) = (  0.8627927  0.5907061  0.1319724  )
        41        Zn     tau(  41) = (  0.9059264  0.1011185  0.2278875  )
        42        Zn     tau(  42) = (  0.9060006  0.6013515  0.2279513  )
        43        Zn     tau(  43) = (  0.8333333  0.3333333  0.0385151  )
        44        Zn     tau(  44) = (  0.8333333  0.8333333  0.0385151  )
        45        Zn     tau(  45) = (  0.8626880  0.3406228  0.1319584  )
        46        Zn     tau(  46) = (  0.8629413  0.8407172  0.1320225  )
        47        Zn     tau(  47) = (  0.9061147  0.3512731  0.2279479  )
        48        Zn     tau(  48) = (  0.9057908  0.8511694  0.2278820  )
        49        H      tau(  49) = (  2.1641010  0.9386927  0.6872523  )
        50        C      tau(  50) = (  2.1617429  0.8888880  0.6683540  )
        51        C      tau(  51) = (  1.4265817  0.5897437  0.5046107  )
        52        C      tau(  52) = (  1.7092112  0.8895175  0.5677558  )
        53        C      tau(  53) = (  1.2804800  0.6687408  0.4722139  )
        54        C      tau(  54) = (  1.8569615  0.8117306  0.6005063  )
        55        C      tau(  55) = (  1.4279209  0.8207075  0.5051433  )
        56        C      tau(  56) = (  1.7087303  0.6606945  0.5673904  )
        57        N      tau(  57) = (  1.0014223  0.5998104  0.4101336  )
        58        H      tau(  58) = (  1.3172413  0.4717059  0.4802004  )
        59        H      tau(  59) = (  1.8174079  1.0075777  0.5919511  )
        60        H      tau(  60) = (  2.2446788  0.8121307  0.6867100  )
        61        H      tau(  61) = (  0.8970713  0.6566163  0.3869898  )
        62        H      tau(  62) = (  0.8954681  0.4910578  0.3864554  )
        63        H      tau(  63) = (  1.3194432  0.8847676  0.4811181  )
        64        H      tau(  64) = (  1.8159403  0.5960215  0.5911681  )
        65        H      tau(  65) = (  2.3211229  0.9787646  0.6855579  )

     number of k points=     5  Marzari-Vanderbilt smearing, width (Ry)=  0.0200
                       cart. coord. in units 2pi/alat
        k(    1) = (   0.0000000   0.0000000   0.0000000), wk =   0.2222222
        k(    2) = (   0.0000000   0.3628315   0.1845943), wk =   0.4444444
        k(    3) = (   0.3333333   0.0810890   0.7383771), wk =   0.4444444
        k(    4) = (   0.3333333   0.4439205   0.9229714), wk =   0.4444444
        k(    5) = (   0.3333333  -0.2817426   0.5537829), wk =   0.4444444

                       cryst. coord.
        k(    1) = (   0.0000000   0.0000000   0.0000000), wk =   0.2222222
        k(    2) = (   0.0000000   0.3333333   0.0000000), wk =   0.4444444
        k(    3) = (   0.3333333   0.0000000   0.0000000), wk =   0.4444444
        k(    4) = (   0.3333333   0.3333333   0.0000000), wk =   0.4444444
        k(    5) = (   0.3333333  -0.3333333   0.0000000), wk =   0.4444444

     Dense  grid:  1332973 G-vectors     FFT dimensions: ( 120, 108, 540)

     Smooth grid:   575857 G-vectors     FFT dimensions: (  90,  80, 405)

     Dynamical RAM for                 wfc:      19.99 MB

     Dynamical RAM for     wfc (w. buffer):     119.95 MB

     Dynamical RAM for           str. fact:       2.47 MB

     Dynamical RAM for           local pot:       0.00 MB

     Dynamical RAM for          nlocal pot:      31.47 MB

     Dynamical RAM for                qrad:       5.37 MB

     Dynamical RAM for          rho,v,vnew:       6.89 MB

     Dynamical RAM for               rhoin:       2.30 MB

     Dynamical RAM for            rho*nmix:       9.86 MB

     Dynamical RAM for           G-vectors:       2.44 MB

     Dynamical RAM for          h,s,v(r/c):       2.64 MB

     Dynamical RAM for          <psi|beta>:       8.68 MB

     Dynamical RAM for                 psi:      39.98 MB

     Dynamical RAM for                hpsi:      39.98 MB

     Dynamical RAM for                spsi:      39.98 MB

     Dynamical RAM for      wfcinit/wfcrot:      54.37 MB

     Dynamical RAM for           addusdens:     144.24 MB

     Dynamical RAM for          addusforce:     202.67 MB

     Dynamical RAM for         addusstress:     123.90 MB

     Estimated static dynamical RAM per process >     182.38 MB

     Estimated max dynamical RAM per process >     394.91 MB

     Estimated total dynamical RAM >      12.73 GB

     Initial potential from superposition of free atoms

     starting charge    1001.9928, renormalised to    1002.0000

     negative rho (up, down):  1.598E-03 0.000E+00
     Starting wfcs are  665 randomized atomic wfcs
[psid05:76129] 32 more processes have sent help message help-mpi-btl-openib.txt / ib port not selected
[psid05:76129] Set MCA parameter "orte_base_help_aggregate" to 0 to see all help / error messages
[psid05:76129] 32 more processes have sent help message help-mpi-btl-openib.txt / error in device init
     Checking if some PAW data can be deallocated... 
       PAW data deallocated on   29 nodes for type:  3

     total cpu time spent up to now is       85.3 secs

     Self-consistent Calculation

     iteration #  1     ecut=    40.00 Ry     beta= 0.40
     Davidson diagonalization with overlap

---- Real-time Memory Report at c_bands before calling an iterative solver
           265 MiB given to the printing process from OS
             0 MiB allocation reported by mallinfo(arena+hblkhd)
         29355 MiB available memory on the node where the printing process lives
------------------
     ethr =  1.00E-02,  avg # of iterations =  7.6

     negative rho (up, down):  2.037E-03 0.000E+00

     total cpu time spent up to now is      403.6 secs

     total energy              =  -22308.85642357 Ry
     estimated scf accuracy    <      11.77926811 Ry

     iteration #  2     ecut=    40.00 Ry     beta= 0.40
     Davidson diagonalization with overlap

---- Real-time Memory Report at c_bands before calling an iterative solver
           367 MiB given to the printing process from OS
             0 MiB allocation reported by mallinfo(arena+hblkhd)
         28023 MiB available memory on the node where the printing process lives
------------------
     ethr =  1.18E-03,  avg # of iterations = 10.2

     negative rho (up, down):  3.081E-03 0.000E+00

     total cpu time spent up to now is      729.5 secs

     total energy              =  -22294.24553068 Ry
     estimated scf accuracy    <     288.71418091 Ry

     iteration #  3     ecut=    40.00 Ry     beta= 0.40
     Davidson diagonalization with overlap

---- Real-time Memory Report at c_bands before calling an iterative solver
           384 MiB given to the printing process from OS
             0 MiB allocation reported by mallinfo(arena+hblkhd)
         28000 MiB available memory on the node where the printing process lives
------------------
     ethr =  1.18E-03,  avg # of iterations =  8.0

     negative rho (up, down):  2.890E-03 0.000E+00

     total cpu time spent up to now is     1124.0 secs

     total energy              =  -22313.84786607 Ry
     estimated scf accuracy    <       5.24289219 Ry

     iteration #  4     ecut=    40.00 Ry     beta= 0.40
     Davidson diagonalization with overlap

---- Real-time Memory Report at c_bands before calling an iterative solver
           385 MiB given to the printing process from OS
             0 MiB allocation reported by mallinfo(arena+hblkhd)
         27976 MiB available memory on the node where the printing process lives
------------------
     ethr =  5.23E-04,  avg # of iterations =  4.0

     negative rho (up, down):  2.829E-03 0.000E+00

     total cpu time spent up to now is     1396.7 secs

     total energy              =  -22314.08808737 Ry
     estimated scf accuracy    <       6.30052722 Ry

     iteration #  5     ecut=    40.00 Ry     beta= 0.40
     Davidson diagonalization with overlap

---- Real-time Memory Report at c_bands before calling an iterative solver
           386 MiB given to the printing process from OS
             0 MiB allocation reported by mallinfo(arena+hblkhd)
         27951 MiB available memory on the node where the printing process lives
------------------
     ethr =  5.23E-04,  avg # of iterations =  2.0

     negative rho (up, down):  2.860E-03 0.000E+00

     total cpu time spent up to now is     1655.8 secs

     total energy              =  -22314.45856676 Ry
     estimated scf accuracy    <       0.41507418 Ry

     iteration #  6     ecut=    40.00 Ry     beta= 0.40
     Davidson diagonalization with overlap

---- Real-time Memory Report at c_bands before calling an iterative solver
           387 MiB given to the printing process from OS
             0 MiB allocation reported by mallinfo(arena+hblkhd)
         27931 MiB available memory on the node where the printing process lives
------------------
     ethr =  4.14E-05,  avg # of iterations = 10.6

     negative rho (up, down):  3.002E-03 0.000E+00

     total cpu time spent up to now is     1944.1 secs

     total energy              =  -22314.45555109 Ry
     estimated scf accuracy    <       0.19902469 Ry

     iteration #  7     ecut=    40.00 Ry     beta= 0.40
     Davidson diagonalization with overlap

---- Real-time Memory Report at c_bands before calling an iterative solver
           387 MiB given to the printing process from OS
             0 MiB allocation reported by mallinfo(arena+hblkhd)
         27906 MiB available memory on the node where the printing process lives
------------------
     c_bands:  1 eigenvalues not converged
     ethr =  1.99E-05,  avg # of iterations = 12.8

     negative rho (up, down):  3.083E-03 0.000E+00

     total cpu time spent up to now is     2229.9 secs

     total energy              =  -22314.45063077 Ry
     estimated scf accuracy    <       0.10145978 Ry

     iteration #  8     ecut=    40.00 Ry     beta= 0.40
     Davidson diagonalization with overlap

---- Real-time Memory Report at c_bands before calling an iterative solver
           388 MiB given to the printing process from OS
             0 MiB allocation reported by mallinfo(arena+hblkhd)
         27883 MiB available memory on the node where the printing process lives
------------------
     c_bands:  1 eigenvalues not converged
     ethr =  1.01E-05,  avg # of iterations =  9.2

     negative rho (up, down):  3.159E-03 0.000E+00

     total cpu time spent up to now is     2505.0 secs

     total energy              =  -22314.44746167 Ry
     estimated scf accuracy    <       0.08795898 Ry

     iteration #  9     ecut=    40.00 Ry     beta= 0.40
     Davidson diagonalization with overlap

---- Real-time Memory Report at c_bands before calling an iterative solver
           389 MiB given to the printing process from OS
             0 MiB allocation reported by mallinfo(arena+hblkhd)
         27859 MiB available memory on the node where the printing process lives
------------------
     ethr =  8.78E-06,  avg # of iterations = 10.2

     negative rho (up, down):  3.199E-03 0.000E+00

     total cpu time spent up to now is     2777.1 secs

     total energy              =  -22314.44544396 Ry
     estimated scf accuracy    <       0.04891964 Ry

     iteration # 10     ecut=    40.00 Ry     beta= 0.40
     Davidson diagonalization with overlap

---- Real-time Memory Report at c_bands before calling an iterative solver
           390 MiB given to the printing process from OS
             0 MiB allocation reported by mallinfo(arena+hblkhd)
         27834 MiB available memory on the node where the printing process lives
------------------
     c_bands:  1 eigenvalues not converged
     c_bands:  1 eigenvalues not converged
     ethr =  4.88E-06,  avg # of iterations = 15.0

     negative rho (up, down):  3.230E-03 0.000E+00

     total cpu time spent up to now is     3061.8 secs

     total energy              =  -22314.44185993 Ry
     estimated scf accuracy    <       0.04105129 Ry

     iteration # 11     ecut=    40.00 Ry     beta= 0.40
     Davidson diagonalization with overlap

---- Real-time Memory Report at c_bands before calling an iterative solver
           390 MiB given to the printing process from OS
             0 MiB allocation reported by mallinfo(arena+hblkhd)
         27836 MiB available memory on the node where the printing process lives
------------------
     ethr =  4.10E-06,  avg # of iterations =  5.4

     negative rho (up, down):  3.451E-03 0.000E+00

     total cpu time spent up to now is     3323.9 secs

     total energy              =  -22314.41614777 Ry
     estimated scf accuracy    <       0.03437060 Ry

     iteration # 12     ecut=    40.00 Ry     beta= 0.40
     Davidson diagonalization with overlap

---- Real-time Memory Report at c_bands before calling an iterative solver
           390 MiB given to the printing process from OS
             0 MiB allocation reported by mallinfo(arena+hblkhd)
         27836 MiB available memory on the node where the printing process lives
------------------
     c_bands:  2 eigenvalues not converged
     ethr =  3.43E-06,  avg # of iterations = 17.8

     negative rho (up, down):  3.355E-03 0.000E+00

     total cpu time spent up to now is     3685.0 secs

     total energy              =  -22314.40830118 Ry
     estimated scf accuracy    <       0.03623336 Ry

     iteration # 13     ecut=    40.00 Ry     beta= 0.40
     Davidson diagonalization with overlap

---- Real-time Memory Report at c_bands before calling an iterative solver
           390 MiB given to the printing process from OS
             0 MiB allocation reported by mallinfo(arena+hblkhd)
         27834 MiB available memory on the node where the printing process lives
------------------
     c_bands:  1 eigenvalues not converged
     ethr =  3.43E-06,  avg # of iterations = 15.4

     negative rho (up, down):  3.348E-03 0.000E+00

     total cpu time spent up to now is     3993.3 secs

     total energy              =  -22314.42331954 Ry
     estimated scf accuracy    <       0.00744926 Ry

     iteration # 14     ecut=    40.00 Ry     beta= 0.40
     Davidson diagonalization with overlap

---- Real-time Memory Report at c_bands before calling an iterative solver
           390 MiB given to the printing process from OS
             0 MiB allocation reported by mallinfo(arena+hblkhd)
         27833 MiB available memory on the node where the printing process lives
------------------
     c_bands:  1 eigenvalues not converged
     c_bands:  1 eigenvalues not converged
     ethr =  7.43E-07,  avg # of iterations = 13.8

     negative rho (up, down):  3.348E-03 0.000E+00

     total cpu time spent up to now is     4266.7 secs

     total energy              =  -22314.42208403 Ry
     estimated scf accuracy    <       0.01131206 Ry

     iteration # 15     ecut=    40.00 Ry     beta= 0.40
     Davidson diagonalization with overlap

---- Real-time Memory Report at c_bands before calling an iterative solver
           390 MiB given to the printing process from OS
             0 MiB allocation reported by mallinfo(arena+hblkhd)
         27835 MiB available memory on the node where the printing process lives
------------------
     c_bands:  1 eigenvalues not converged
     ethr =  7.43E-07,  avg # of iterations = 11.6

     negative rho (up, down):  3.358E-03 0.000E+00

     total cpu time spent up to now is     4537.4 secs

     total energy              =  -22314.41895164 Ry
     estimated scf accuracy    <       0.01386310 Ry

     iteration # 16     ecut=    40.00 Ry     beta= 0.40
     Davidson diagonalization with overlap

---- Real-time Memory Report at c_bands before calling an iterative solver
           390 MiB given to the printing process from OS
             0 MiB allocation reported by mallinfo(arena+hblkhd)
         27834 MiB available memory on the node where the printing process lives
------------------
     ethr =  7.43E-07,  avg # of iterations = 14.2

     negative rho (up, down):  3.355E-03 0.000E+00

     total cpu time spent up to now is     4828.1 secs

     total energy              =  -22314.41894666 Ry
     estimated scf accuracy    <       0.00091043 Ry

     iteration # 17     ecut=    40.00 Ry     beta= 0.40
     Davidson diagonalization with overlap

---- Real-time Memory Report at c_bands before calling an iterative solver
           390 MiB given to the printing process from OS
             0 MiB allocation reported by mallinfo(arena+hblkhd)
         27835 MiB available memory on the node where the printing process lives
------------------
     ethr =  9.09E-08,  avg # of iterations =  4.8

     negative rho (up, down):  3.340E-03 0.000E+00

     total cpu time spent up to now is     5091.1 secs

     total energy              =  -22314.41806174 Ry
     estimated scf accuracy    <       0.01412453 Ry

     iteration # 18     ecut=    40.00 Ry     beta= 0.40
     Davidson diagonalization with overlap

---- Real-time Memory Report at c_bands before calling an iterative solver
           390 MiB given to the printing process from OS
             0 MiB allocation reported by mallinfo(arena+hblkhd)
         27837 MiB available memory on the node where the printing process lives
------------------
     ethr =  9.09E-08,  avg # of iterations =  2.0

     negative rho (up, down):  3.338E-03 0.000E+00

     total cpu time spent up to now is     5346.2 secs

     total energy              =  -22314.41919172 Ry
     estimated scf accuracy    <       0.00239675 Ry

     iteration # 19     ecut=    40.00 Ry     beta= 0.40
     Davidson diagonalization with overlap

---- Real-time Memory Report at c_bands before calling an iterative solver
           390 MiB given to the printing process from OS
             0 MiB allocation reported by mallinfo(arena+hblkhd)
         27833 MiB available memory on the node where the printing process lives
------------------
     ethr =  9.09E-08,  avg # of iterations =  1.0

     negative rho (up, down):  3.337E-03 0.000E+00

     total cpu time spent up to now is     5557.3 secs

     total energy              =  -22314.41923982 Ry
     estimated scf accuracy    <       0.00024512 Ry

     iteration # 20     ecut=    40.00 Ry     beta= 0.40
     Davidson diagonalization with overlap

---- Real-time Memory Report at c_bands before calling an iterative solver
           390 MiB given to the printing process from OS
             0 MiB allocation reported by mallinfo(arena+hblkhd)
         27837 MiB available memory on the node where the printing process lives
------------------
     ethr =  2.45E-08,  avg # of iterations =  1.0

     negative rho (up, down):  3.336E-03 0.000E+00

     total cpu time spent up to now is     5768.5 secs

     total energy              =  -22314.41924221 Ry
     estimated scf accuracy    <       0.00007961 Ry

     iteration # 21     ecut=    40.00 Ry     beta= 0.40
     Davidson diagonalization with overlap

---- Real-time Memory Report at c_bands before calling an iterative solver
           390 MiB given to the printing process from OS
             0 MiB allocation reported by mallinfo(arena+hblkhd)
         27834 MiB available memory on the node where the printing process lives
------------------
     ethr =  7.95E-09,  avg # of iterations =  1.0

     negative rho (up, down):  3.335E-03 0.000E+00

     total cpu time spent up to now is     5979.6 secs

     total energy              =  -22314.41923791 Ry
     estimated scf accuracy    <       0.00006457 Ry

     iteration # 22     ecut=    40.00 Ry     beta= 0.40
     Davidson diagonalization with overlap

---- Real-time Memory Report at c_bands before calling an iterative solver
           390 MiB given to the printing process from OS
             0 MiB allocation reported by mallinfo(arena+hblkhd)
         27833 MiB available memory on the node where the printing process lives
------------------
     ethr =  6.44E-09,  avg # of iterations =  1.0

     negative rho (up, down):  3.335E-03 0.000E+00

     total cpu time spent up to now is     6190.6 secs

     total energy              =  -22314.41923996 Ry
     estimated scf accuracy    <       0.00000357 Ry

     iteration # 23     ecut=    40.00 Ry     beta= 0.40
     Davidson diagonalization with overlap

---- Real-time Memory Report at c_bands before calling an iterative solver
           391 MiB given to the printing process from OS
             0 MiB allocation reported by mallinfo(arena+hblkhd)
         27836 MiB available memory on the node where the printing process lives
------------------
     ethr =  3.57E-10,  avg # of iterations =  1.0

     negative rho (up, down):  3.334E-03 0.000E+00

     total cpu time spent up to now is     6401.9 secs

     total energy              =  -22314.41923927 Ry
     estimated scf accuracy    <       0.00000824 Ry

     iteration # 24     ecut=    40.00 Ry     beta= 0.40
     Davidson diagonalization with overlap

---- Real-time Memory Report at c_bands before calling an iterative solver
           391 MiB given to the printing process from OS
             0 MiB allocation reported by mallinfo(arena+hblkhd)
         27836 MiB available memory on the node where the printing process lives
------------------
     ethr =  3.57E-10,  avg # of iterations =  2.0

     negative rho (up, down):  3.334E-03 0.000E+00

     total cpu time spent up to now is     6654.5 secs

     End of self-consistent calculation

          k = 0.0000 0.0000 0.0000 ( 71933 PWs)   bands (ev):

  -125.3443-125.3435-125.3431-125.3422-125.3378-125.3366-125.3362-125.3353
  -125.2720-125.2712-125.2709-125.2700-125.2664-125.2655-125.2652-125.2643
  -125.1972-125.1962-125.1956-125.1948-125.1946-125.1936-125.1924-125.1914
  -125.1044-125.1043-125.1034-125.1034-125.1032-125.1031-125.1020-125.1020
  -125.0196-125.0186-125.0184-125.0181-125.0175-125.0174-125.0171-125.0160
  -124.9512-124.9374-124.9350-124.9308-124.9273-124.9264-124.9262-124.9253
   -79.5044 -79.4989 -79.4979 -79.4976 -79.4975 -79.4965 -79.4945 -79.4935
   -79.4932 -79.4925 -79.4920 -79.4918 -79.4915 -79.4912 -79.4909 -79.4899
   -79.4880 -79.4867 -79.4864 -79.4853 -79.4849 -79.4847 -79.4794 -79.4726
   -79.4321 -79.4282 -79.4273 -79.4269 -79.4268 -79.4260 -79.4227 -79.4220
   -79.4217 -79.4214 -79.4212 -79.4208 -79.4204 -79.4198 -79.4198 -79.4195
   -79.4161 -79.4152 -79.4149 -79.4143 -79.4143 -79.4139 -79.4074 -79.4020
   -79.3571 -79.3567 -79.3557 -79.3552 -79.3548 -79.3541 -79.3539 -79.3526
   -79.3516 -79.3505 -79.3454 -79.3449 -79.3447 -79.3442 -79.3439 -79.3430
   -79.3430 -79.3426 -79.3424 -79.3417 -79.3406 -79.3396 -79.3324 -79.3301
   -79.2658 -79.2656 -79.2655 -79.2654 -79.2648 -79.2645 -79.2645 -79.2642
   -79.2633 -79.2631 -79.2553 -79.2550 -79.2544 -79.2541 -79.2541 -79.2538
   -79.2531 -79.2530 -79.2530 -79.2529 -79.2526 -79.2523 -79.2409 -79.2406
   -79.1842 -79.1831 -79.1826 -79.1826 -79.1819 -79.1817 -79.1813 -79.1801
   -79.1795 -79.1783 -79.1701 -79.1692 -79.1690 -79.1686 -79.1683 -79.1678
   -79.1678 -79.1674 -79.1668 -79.1667 -79.1661 -79.1657 -79.1549 -79.1537
   -79.1248 -79.1088 -79.1060 -79.1032 -79.1017 -79.0985 -79.0975 -79.0973
   -79.0964 -79.0928 -79.0900 -79.0880 -79.0842 -79.0808 -79.0798 -79.0797
   -79.0788 -79.0775 -79.0775 -79.0742 -79.0653 -79.0651 -79.0618 -79.0529
   -17.3264 -15.1464 -12.9754 -12.5964 -10.9309  -9.4138  -8.6998  -8.3701
    -7.5049  -7.2791  -7.2379  -7.1890  -7.0966  -7.0963  -7.0733  -7.0198
    -6.9869  -6.9257  -6.8952  -6.8889  -6.8746  -6.8710  -6.8476  -6.8474
    -6.8445  -6.8136  -6.8129  -6.7775  -6.7660  -6.7200  -6.7197  -6.7159
    -6.7021  -6.6939  -6.6938  -6.6874  -6.6810  -6.6808  -6.6782  -6.6435
    -6.6434  -6.6392  -6.6391  -6.6343  -6.6331  -6.6177  -6.6177  -6.6047
    -6.6046  -6.5792  -6.5753  -6.5752  -6.5685  -6.5683  -6.5650  -6.5481
    -6.5480  -6.5195  -6.5166  -6.5147  -6.5147  -6.5097  -6.4847  -6.4846
    -6.4772  -6.4771  -6.4576  -6.4532  -6.4336  -6.4082  -6.4080  -6.4055
    -6.4029  -6.3775  -6.3774  -6.3673  -6.3655  -6.3574  -6.3485  -6.3437
    -6.3412  -6.3408  -6.3407  -6.3354  -6.3210  -6.3209  -6.2974  -6.2973
    -6.2935  -6.2922  -6.2921  -6.2691  -6.2502  -6.2502  -6.2475  -6.2475
    -6.2341  -6.2310  -6.2193  -6.2190  -6.2111  -6.2101  -6.1924  -6.1885
    -6.1864  -6.1864  -6.1856  -6.1705  -6.1667  -6.1666  -6.1642  -6.1640
    -6.1519  -6.1324  -6.1323  -6.1239  -6.1237  -6.1167  -6.1137  -6.1002
    -6.0984  -6.0910  -6.0876  -6.0872  -6.0871  -6.0757  -6.0754  -6.0599
    -6.0598  -6.0547  -6.0545  -6.0491  -6.0491  -6.0290  -6.0243  -6.0210
    -6.0210  -6.0119  -6.0118  -5.9965  -5.9905  -5.9893  -5.9883  -5.9882
    -5.9877  -5.9840  -5.9837  -5.9667  -5.9552  -5.9376  -5.9375  -5.9348
    -5.9346  -5.9261  -5.9258  -5.9175  -5.9172  -5.9083  -5.8953  -5.8950
    -5.8934  -5.8932  -5.8929  -5.8851  -5.8831  -5.8829  -5.8643  -5.8635
    -5.8589  -5.8584  -5.8549  -5.8500  -5.8498  -5.8468  -5.8446  -5.8324
    -5.8318  -5.8283  -5.8257  -5.8244  -5.8191  -5.8187  -5.8054  -5.8049
    -5.7958  -5.7933  -5.7927  -5.7920  -5.7863  -5.7861  -5.7707  -5.7704
    -5.7650  -5.7647  -5.7593  -5.7472  -5.7460  -5.7421  -5.7420  -5.7399
    -5.7395  -5.7366  -5.7287  -5.7267  -5.7246  -5.7216  -5.7215  -5.7199
    -5.7192  -5.7138  -5.7121  -5.7113  -5.7107  -5.7046  -5.6990  -5.6932
    -5.6919  -5.6875  -5.6870  -5.6824  -5.6823  -5.6712  -5.6674  -5.6617
    -5.6611  -5.6530  -5.6520  -5.6498  -5.6478  -5.6347  -5.6345  -5.6118
    -5.6076  -5.6069  -5.6046  -5.5937  -5.5933  -5.5923  -5.5810  -5.5803
    -5.5566  -5.5535  -5.5463  -5.5453  -5.5340  -5.5335  -5.5205  -5.5182
    -5.5062  -5.4631  -5.4565  -5.4455  -5.4256  -5.4245  -5.3749  -5.3659
    -5.3347  -5.3333  -5.0984  -4.7709  -4.6309  -4.4166  -4.4000  -4.3973
    -4.3391  -4.1703  -4.1390  -4.1387  -3.7585  -3.7570  -3.5587  -3.4104
    -2.8824  -2.7722  -2.5133  -2.3681  -2.3663  -2.2642  -2.2295  -2.1800
    -2.1800  -1.9045  -1.8161  -1.8146  -1.6304  -1.6296  -1.6254  -1.5597
    -1.5557  -1.0732  -0.8468  -0.8432  -0.6187  -0.4626  -0.4253  -0.2922
    -0.2844  -0.2368  -0.2361   0.1903   0.1943   0.3950   0.3979   0.4444
     0.4451   0.4916   0.7880   0.7968   0.9390   1.1327   1.4852   1.4973
     1.7785   1.7891   2.1021   2.1463   2.3390   2.3501   2.3537   2.3572
     2.4723   2.4725   2.8947   2.8972   2.9911   3.0356   3.0495   3.1287
     3.1402   3.3803   3.4242   3.6621   3.7423   3.7901   3.7943   4.2016
     4.2065   4.2565   4.5664   4.6983   4.8701   4.8868   4.9112   5.0125
     5.0258   5.2618   5.2635   5.3192   5.4176   5.4431   5.4492   5.4631
     5.4966   5.5346   5.6859   5.7827   5.7846   5.8010   5.8191   5.8966
     5.9249   5.9483   6.0296   6.0305   6.0753   6.0982   6.1571   6.1881
     6.2121   6.2257   6.2425   6.2608   6.3127   6.4426   6.4596   6.4872
     6.5534   6.6366   6.6985   6.7046   6.7498   6.8167   6.9213   6.9585
     7.0356   7.1023   7.1402   7.1589   7.1877   7.2441   7.3117   7.3194
     7.3687   7.3825   7.4901   7.5118   7.5800   7.6265   7.7164   7.7272
     7.8017   7.8076   7.8398   7.8594   7.8617   7.9152   7.9695   8.0638
     8.1229

     occupation numbers 
     1.0000   1.0000   1.0000   1.0000   1.0000   1.0000   1.0000   1.0000
     1.0000   1.0000   1.0000   1.0000   1.0000   1.0000   1.0000   1.0000
     1.0000   1.0000   1.0000   1.0000   1.0000   1.0000   1.0000   1.0000
     1.0000   1.0000   1.0000   1.0000   1.0000   1.0000   1.0000   1.0000
     1.0000   1.0000   1.0000   1.0000   1.0000   1.0000   1.0000   1.0000
     1.0000   1.0000   1.0000   1.0000   1.0000   1.0000   1.0000   1.0000
     1.0000   1.0000   1.0000   1.0000   1.0000   1.0000   1.0000   1.0000
     1.0000   1.0000   1.0000   1.0000   1.0000   1.0000   1.0000   1.0000
     1.0000   1.0000   1.0000   1.0000   1.0000   1.0000   1.0000   1.0000
     1.0000   1.0000   1.0000   1.0000   1.0000   1.0000   1.0000   1.0000
     1.0000   1.0000   1.0000   1.0000   1.0000   1.0000   1.0000   1.0000
     1.0000   1.0000   1.0000   1.0000   1.0000   1.0000   1.0000   1.0000
     1.0000   1.0000   1.0000   1.0000   1.0000   1.0000   1.0000   1.0000
     1.0000   1.0000   1.0000   1.0000   1.0000   1.0000   1.0000   1.0000
     1.0000   1.0000   1.0000   1.0000   1.0000   1.0000   1.0000   1.0000
     1.0000   1.0000   1.0000   1.0000   1.0000   1.0000   1.0000   1.0000
     1.0000   1.0000   1.0000   1.0000   1.0000   1.0000   1.0000   1.0000
     1.0000   1.0000   1.0000   1.0000   1.0000   1.0000   1.0000   1.0000
     1.0000   1.0000   1.0000   1.0000   1.0000   1.0000   1.0000   1.0000
     1.0000   1.0000   1.0000   1.0000   1.0000   1.0000   1.0000   1.0000
     1.0000   1.0000   1.0000   1.0000   1.0000   1.0000   1.0000   1.0000
     1.0000   1.0000   1.0000   1.0000   1.0000   1.0000   1.0000   1.0000
     1.0000   1.0000   1.0000   1.0000   1.0000   1.0000   1.0000   1.0000
     1.0000   1.0000   1.0000   1.0000   1.0000   1.0000   1.0000   1.0000
     1.0000   1.0000   1.0000   1.0000   1.0000   1.0000   1.0000   1.0000
     1.0000   1.0000   1.0000   1.0000   1.0000   1.0000   1.0000   1.0000
     1.0000   1.0000   1.0000   1.0000   1.0000   1.0000   1.0000   1.0000
     1.0000   1.0000   1.0000   1.0000   1.0000   1.0000   1.0000   1.0000
     1.0000   1.0000   1.0000   1.0000   1.0000   1.0000   1.0000   1.0000
     1.0000   1.0000   1.0000   1.0000   1.0000   1.0000   1.0000   1.0000
     1.0000   1.0000   1.0000   1.0000   1.0000   1.0000   1.0000   1.0000
     1.0000   1.0000   1.0000   1.0000   1.0000   1.0000   1.0000   1.0000
     1.0000   1.0000   1.0000   1.0000   1.0000   1.0000   1.0000   1.0000
     1.0000   1.0000   1.0000   1.0000   1.0000   1.0000   1.0000   1.0000
     1.0000   1.0000   1.0000   1.0000   1.0000   1.0000   1.0000   1.0000
     1.0000   1.0000   1.0000   1.0000   1.0000   1.0000   1.0000   1.0000
     1.0000   1.0000   1.0000   1.0000   1.0000   1.0000   1.0000   1.0000
     1.0000   1.0000   1.0000   1.0000   1.0000   1.0000   1.0000   1.0000
     1.0000   1.0000   1.0000   1.0000   1.0000   1.0000   1.0000   1.0000
     1.0000   1.0000   1.0000   1.0000   1.0000   1.0000   1.0000   1.0000
     1.0000   1.0000   1.0000   1.0000   1.0000   1.0000   1.0000   1.0000
     1.0000   1.0000   1.0000   1.0000   1.0000   1.0000   1.0000   1.0000
     1.0000   1.0000   1.0000   1.0000   1.0000   1.0000   1.0000   1.0000
     1.0000   1.0000   1.0000   1.0000   1.0000   1.0000   1.0000   1.0000
     1.0000   1.0000   1.0000   1.0000   1.0000   1.0000   1.0000   1.0000
     1.0000   1.0000   1.0000   1.0000   1.0000   1.0000   1.0000   1.0000
     1.0000   1.0000   1.0000   1.0000   1.0000   1.0000   1.0000   1.0000
     1.0000   1.0000   1.0000   1.0000   1.0000   1.0000   1.0000   1.0000
     1.0000   1.0000   1.0000   1.0000   1.0000   1.0000   1.0000   1.0000
     1.0000   1.0000   1.0000   1.0000   1.0000   1.0000   1.0000   1.0000
     1.0000   1.0000   1.0000   1.0000   1.0000   1.0000   1.0000   1.0000
     1.0000   1.0000   1.0000   1.0000   1.0000   1.0000   1.0000   1.0000
     1.0000   1.0000   1.0000   1.0000   1.0000   1.0000   1.0000   1.0000
     1.0000   1.0000   1.0000   1.0000   1.0000   1.0000   1.0000   1.0000
     1.0000   1.0000   1.0000   1.0000   1.0000   1.0000   1.0000   1.0000
     1.0000   1.0000   1.0000   1.0000   1.0000   1.0000   1.0000   1.0000
     1.0000   1.0000   1.0000   1.0000   1.0000   1.0000   1.0000   1.0000
     1.0000   1.0000   1.0000   1.0000   1.0000   1.0000   1.0000   1.0000
     1.0000   1.0000   1.0000   1.0000   1.0000   1.0000   1.0000   1.0000
     1.0000   1.0000   1.0000   1.0000   1.0000   1.0000   1.0000   1.0000
     1.0000   1.0000   1.0000   1.0000   1.0000   1.0000   1.0000   1.0000
     1.0000   1.0000   1.0000   1.0001   1.0001   1.0025   1.0027   1.0052
     1.0053   1.0097   1.0832   1.0833   0.9824   0.5190   0.0183   0.0154
     0.0001   0.0001   0.0000   0.0000   0.0000   0.0000   0.0000   0.0000
     0.0000   0.0000   0.0000   0.0000   0.0000   0.0000   0.0000   0.0000
     0.0000   0.0000   0.0000   0.0000   0.0000   0.0000   0.0000   0.0000
     0.0000   0.0000   0.0000   0.0000   0.0000   0.0000   0.0000   0.0000
     0.0000   0.0000   0.0000   0.0000   0.0000   0.0000   0.0000   0.0000
     0.0000   0.0000   0.0000   0.0000   0.0000   0.0000   0.0000   0.0000
     0.0000   0.0000   0.0000   0.0000   0.0000   0.0000   0.0000   0.0000
     0.0000   0.0000   0.0000   0.0000   0.0000   0.0000   0.0000   0.0000
     0.0000   0.0000   0.0000   0.0000   0.0000   0.0000   0.0000   0.0000
     0.0000   0.0000   0.0000   0.0000   0.0000   0.0000   0.0000   0.0000
     0.0000   0.0000   0.0000   0.0000   0.0000   0.0000   0.0000   0.0000
     0.0000   0.0000   0.0000   0.0000   0.0000   0.0000   0.0000   0.0000
     0.0000

          k = 0.0000 0.3628 0.1846 ( 71963 PWs)   bands (ev):

  -125.3443-125.3437-125.3429-125.3423-125.3377-125.3367-125.3361-125.3354
  -125.2719-125.2714-125.2706-125.2701-125.2663-125.2657-125.2650-125.2644
  -125.1972-125.1963-125.1955-125.1948-125.1946-125.1936-125.1924-125.1914
  -125.1043-125.1043-125.1036-125.1036-125.1030-125.1029-125.1021-125.1021
  -125.0195-125.0187-125.0183-125.0179-125.0177-125.0175-125.0170-125.0161
  -124.9512-124.9374-124.9350-124.9308-124.9273-124.9267-124.9259-124.9254
   -79.5027 -79.4989 -79.4982 -79.4981 -79.4972 -79.4965 -79.4960 -79.4944
   -79.4937 -79.4926 -79.4924 -79.4920 -79.4915 -79.4914 -79.4906 -79.4899
   -79.4879 -79.4869 -79.4860 -79.4856 -79.4852 -79.4811 -79.4789 -79.4742
   -79.4305 -79.4281 -79.4276 -79.4268 -79.4261 -79.4256 -79.4252 -79.4226
   -79.4220 -79.4219 -79.4214 -79.4213 -79.4206 -79.4205 -79.4202 -79.4199
   -79.4160 -79.4154 -79.4146 -79.4140 -79.4135 -79.4090 -79.4082 -79.4036
   -79.3567 -79.3559 -79.3555 -79.3550 -79.3542 -79.3539 -79.3533 -79.3526
   -79.3515 -79.3507 -79.3506 -79.3484 -79.3453 -79.3446 -79.3439 -79.3431
   -79.3430 -79.3418 -79.3406 -79.3396 -79.3386 -79.3364 -79.3340 -79.3316
   -79.2657 -79.2655 -79.2650 -79.2648 -79.2644 -79.2641 -79.2639 -79.2637
   -79.2633 -79.2631 -79.2593 -79.2591 -79.2553 -79.2549 -79.2545 -79.2541
   -79.2538 -79.2534 -79.2529 -79.2524 -79.2470 -79.2468 -79.2425 -79.2423
   -79.1842 -79.1833 -79.1825 -79.1824 -79.1819 -79.1819 -79.1811 -79.1801
   -79.1779 -79.1767 -79.1733 -79.1721 -79.1700 -79.1693 -79.1690 -79.1684
   -79.1683 -79.1679 -79.1676 -79.1667 -79.1610 -79.1598 -79.1565 -79.1553
   -79.1248 -79.1088 -79.1060 -79.1032 -79.1017 -79.0984 -79.0978 -79.0970
   -79.0965 -79.0923 -79.0900 -79.0880 -79.0842 -79.0807 -79.0804 -79.0801
   -79.0793 -79.0788 -79.0759 -79.0714 -79.0709 -79.0626 -79.0591 -79.0546
   -17.3264 -15.1464 -12.9754 -12.5965 -10.9309  -9.4138  -8.6997  -8.2039
    -7.7287  -7.4105  -7.2778  -7.1887  -7.1261  -7.0998  -6.9829  -6.9483
    -6.9076  -6.8696  -6.8639  -6.8480  -6.8448  -6.8405  -6.8304  -6.8251
    -6.8147  -6.7906  -6.7868  -6.7789  -6.7748  -6.7690  -6.7622  -6.7563
    -6.7385  -6.7249  -6.7210  -6.7145  -6.7141  -6.7003  -6.6952  -6.6801
    -6.6759  -6.6694  -6.6606  -6.6563  -6.6534  -6.6499  -6.6477  -6.6250
    -6.6150  -6.6100  -6.6056  -6.6047  -6.5890  -6.5504  -6.5445  -6.5418
    -6.5371  -6.5288  -6.5261  -6.4955  -6.4888  -6.4884  -6.4854  -6.4633
    -6.4573  -6.4490  -6.4427  -6.4363  -6.4312  -6.4202  -6.4174  -6.4051
    -6.3915  -6.3910  -6.3891  -6.3837  -6.3740  -6.3680  -6.3643  -6.3606
    -6.3596  -6.3476  -6.3417  -6.3339  -6.3298  -6.3291  -6.3238  -6.3160
    -6.3114  -6.3026  -6.2999  -6.2790  -6.2668  -6.2572  -6.2467  -6.2389
    -6.2358  -6.2352  -6.2340  -6.2246  -6.2214  -6.2103  -6.2038  -6.1990
    -6.1974  -6.1925  -6.1900  -6.1847  -6.1823  -6.1744  -6.1740  -6.1719
    -6.1693  -6.1648  -6.1556  -6.1470  -6.1460  -6.1287  -6.1270  -6.1189
    -6.1153  -6.1058  -6.1020  -6.0922  -6.0885  -6.0873  -6.0810  -6.0753
    -6.0732  -6.0686  -6.0601  -6.0553  -6.0495  -6.0477  -6.0261  -6.0229
    -6.0161  -6.0078  -6.0046  -6.0027  -6.0020  -6.0009  -5.9980  -5.9923
    -5.9816  -5.9764  -5.9708  -5.9685  -5.9583  -5.9387  -5.9295  -5.9172
    -5.9132  -5.9112  -5.9102  -5.9095  -5.9038  -5.8883  -5.8870  -5.8815
    -5.8793  -5.8774  -5.8750  -5.8717  -5.8664  -5.8640  -5.8618  -5.8584
    -5.8527  -5.8521  -5.8508  -5.8382  -5.8369  -5.8285  -5.8164  -5.8113
    -5.8112  -5.8087  -5.8071  -5.8043  -5.7966  -5.7928  -5.7922  -5.7901
    -5.7879  -5.7766  -5.7727  -5.7711  -5.7688  -5.7666  -5.7624  -5.7581
    -5.7574  -5.7520  -5.7498  -5.7430  -5.7411  -5.7406  -5.7329  -5.7300
    -5.7245  -5.7222  -5.7212  -5.7205  -5.7170  -5.7123  -5.7071  -5.7044
    -5.7025  -5.6991  -5.6979  -5.6958  -5.6872  -5.6840  -5.6806  -5.6782
    -5.6746  -5.6724  -5.6684  -5.6658  -5.6631  -5.6571  -5.6558  -5.6430
    -5.6320  -5.6311  -5.6299  -5.6248  -5.6219  -5.6203  -5.6193  -5.6158
    -5.6090  -5.6074  -5.6068  -5.6042  -5.6038  -5.5898  -5.5815  -5.5758
    -5.5748  -5.5725  -5.5665  -5.5572  -5.5544  -5.5490  -5.5335  -5.5100
    -5.5008  -5.4912  -5.4894  -5.4807  -5.4325  -5.4265  -5.4190  -5.3491
    -5.1013  -5.0383  -4.9992  -4.9862  -4.6551  -4.6426  -4.6149  -4.4166
    -4.3401  -4.3106  -3.9486  -3.5707  -3.5589  -3.4119  -3.3764  -3.3286
    -3.3138  -2.9009  -2.8254  -2.7955  -2.7416  -2.6054  -2.5641  -2.2778
    -2.2547  -1.8244  -1.8005  -1.7436  -1.6285  -1.6121  -1.5214  -1.4609
    -1.2091  -1.0785  -0.8451  -0.8128  -0.7307  -0.6167  -0.5890  -0.5445
    -0.4628  -0.1995  -0.0086   0.0811   0.2065   0.3543   0.4761   0.5519
     0.7349   0.7630   0.8480   0.9317   1.2593   1.2653   1.4454   1.4490
     1.6694   1.8266   2.0533   2.1165   2.3078   2.3438   2.3764   2.4951
     2.5663   2.9382   3.0145   3.0580   3.2926   3.2971   3.4548   3.4877
     3.6078   3.6767   3.7082   3.7188   3.8276   3.8520   4.0123   4.2380
     4.3251   4.3795   4.3953   4.4124   4.5027   4.5527   4.5635   4.6001
     4.7032   4.8135   4.9080   4.9180   4.9431   4.9692   5.0460   5.0557
     5.2058   5.2645   5.3886   5.4125   5.4609   5.5382   5.5555   5.6206
     5.7484   5.8269   5.8411   5.9276   6.0052   6.1599   6.1718   6.2241
     6.2740   6.2874   6.3071   6.3350   6.3813   6.4701   6.5285   6.5557
     6.6471   6.6874   6.7088   6.7735   6.8671   6.9328   6.9502   6.9881
     7.1045   7.1123   7.2208   7.2393   7.2713   7.3146   7.3904   7.4134
     7.4264   7.4643   7.4972   7.5679   7.5993   7.6353   7.7113   7.7540
     7.7742   7.8463   7.8598   7.9187   7.9613   7.9999   8.0670   8.0820
     8.0984

     occupation numbers 
     1.0000   1.0000   1.0000   1.0000   1.0000   1.0000   1.0000   1.0000
     1.0000   1.0000   1.0000   1.0000   1.0000   1.0000   1.0000   1.0000
     1.0000   1.0000   1.0000   1.0000   1.0000   1.0000   1.0000   1.0000
     1.0000   1.0000   1.0000   1.0000   1.0000   1.0000   1.0000   1.0000
     1.0000   1.0000   1.0000   1.0000   1.0000   1.0000   1.0000   1.0000
     1.0000   1.0000   1.0000   1.0000   1.0000   1.0000   1.0000   1.0000
     1.0000   1.0000   1.0000   1.0000   1.0000   1.0000   1.0000   1.0000
     1.0000   1.0000   1.0000   1.0000   1.0000   1.0000   1.0000   1.0000
     1.0000   1.0000   1.0000   1.0000   1.0000   1.0000   1.0000   1.0000
     1.0000   1.0000   1.0000   1.0000   1.0000   1.0000   1.0000   1.0000
     1.0000   1.0000   1.0000   1.0000   1.0000   1.0000   1.0000   1.0000
     1.0000   1.0000   1.0000   1.0000   1.0000   1.0000   1.0000   1.0000
     1.0000   1.0000   1.0000   1.0000   1.0000   1.0000   1.0000   1.0000
     1.0000   1.0000   1.0000   1.0000   1.0000   1.0000   1.0000   1.0000
     1.0000   1.0000   1.0000   1.0000   1.0000   1.0000   1.0000   1.0000
     1.0000   1.0000   1.0000   1.0000   1.0000   1.0000   1.0000   1.0000
     1.0000   1.0000   1.0000   1.0000   1.0000   1.0000   1.0000   1.0000
     1.0000   1.0000   1.0000   1.0000   1.0000   1.0000   1.0000   1.0000
     1.0000   1.0000   1.0000   1.0000   1.0000   1.0000   1.0000   1.0000
     1.0000   1.0000   1.0000   1.0000   1.0000   1.0000   1.0000   1.0000
     1.0000   1.0000   1.0000   1.0000   1.0000   1.0000   1.0000   1.0000
     1.0000   1.0000   1.0000   1.0000   1.0000   1.0000   1.0000   1.0000
     1.0000   1.0000   1.0000   1.0000   1.0000   1.0000   1.0000   1.0000
     1.0000   1.0000   1.0000   1.0000   1.0000   1.0000   1.0000   1.0000
     1.0000   1.0000   1.0000   1.0000   1.0000   1.0000   1.0000   1.0000
     1.0000   1.0000   1.0000   1.0000   1.0000   1.0000   1.0000   1.0000
     1.0000   1.0000   1.0000   1.0000   1.0000   1.0000   1.0000   1.0000
     1.0000   1.0000   1.0000   1.0000   1.0000   1.0000   1.0000   1.0000
     1.0000   1.0000   1.0000   1.0000   1.0000   1.0000   1.0000   1.0000
     1.0000   1.0000   1.0000   1.0000   1.0000   1.0000   1.0000   1.0000
     1.0000   1.0000   1.0000   1.0000   1.0000   1.0000   1.0000   1.0000
     1.0000   1.0000   1.0000   1.0000   1.0000   1.0000   1.0000   1.0000
     1.0000   1.0000   1.0000   1.0000   1.0000   1.0000   1.0000   1.0000
     1.0000   1.0000   1.0000   1.0000   1.0000   1.0000   1.0000   1.0000
     1.0000   1.0000   1.0000   1.0000   1.0000   1.0000   1.0000   1.0000
     1.0000   1.0000   1.0000   1.0000   1.0000   1.0000   1.0000   1.0000
     1.0000   1.0000   1.0000   1.0000   1.0000   1.0000   1.0000   1.0000
     1.0000   1.0000   1.0000   1.0000   1.0000   1.0000   1.0000   1.0000
     1.0000   1.0000   1.0000   1.0000   1.0000   1.0000   1.0000   1.0000
     1.0000   1.0000   1.0000   1.0000   1.0000   1.0000   1.0000   1.0000
     1.0000   1.0000   1.0000   1.0000   1.0000   1.0000   1.0000   1.0000
     1.0000   1.0000   1.0000   1.0000   1.0000   1.0000   1.0000   1.0000
     1.0000   1.0000   1.0000   1.0000   1.0000   1.0000   1.0000   1.0000
     1.0000   1.0000   1.0000   1.0000   1.0000   1.0000   1.0000   1.0000
     1.0000   1.0000   1.0000   1.0000   1.0000   1.0000   1.0000   1.0000
     1.0000   1.0000   1.0000   1.0000   1.0000   1.0000   1.0000   1.0000
     1.0000   1.0000   1.0000   1.0000   1.0000   1.0000   1.0000   1.0000
     1.0000   1.0000   1.0000   1.0000   1.0000   1.0000   1.0000   1.0000
     1.0000   1.0000   1.0000   1.0000   1.0000   1.0000   1.0000   1.0000
     1.0000   1.0000   1.0000   1.0000   1.0000   1.0000   1.0000   1.0000
     1.0000   1.0000   1.0000   1.0000   1.0000   1.0000   1.0000   1.0000
     1.0000   1.0000   1.0000   1.0000   1.0000   1.0000   1.0000   1.0000
     1.0000   1.0000   1.0000   1.0000   1.0000   1.0000   1.0000   1.0000
     1.0000   1.0000   1.0000   1.0000   1.0000   1.0000   1.0000   1.0000
     1.0000   1.0000   1.0000   1.0000   1.0000   1.0000   1.0000   1.0000
     1.0000   1.0000   1.0000   1.0000   1.0000   1.0000   1.0000   1.0000
     1.0000   1.0000   1.0000   1.0000   1.0000   1.0000   1.0000   1.0000
     1.0000   1.0000   1.0000   1.0000   1.0000   1.0000   1.0000   1.0000
     1.0000   1.0000   1.0000   1.0000   1.0000   1.0000   1.0000   1.0000
     1.0000   1.0000   1.0000   1.0000   1.0000   1.0000   1.0000   1.0000
     1.0000   1.0000   1.0000   1.0000   1.0000   1.0000   1.0000   1.0000
     1.0000   1.0000   1.0000   1.0000   1.0001   1.0013   1.0080   1.0194
     1.0745   1.0807   1.0715   0.9933   0.2216   0.2109   0.0312   0.0298
     0.0009   0.0000   0.0000   0.0000   0.0000   0.0000   0.0000   0.0000
     0.0000   0.0000   0.0000   0.0000   0.0000   0.0000   0.0000   0.0000
     0.0000   0.0000   0.0000   0.0000   0.0000   0.0000   0.0000   0.0000
     0.0000   0.0000   0.0000   0.0000   0.0000   0.0000   0.0000   0.0000
     0.0000   0.0000   0.0000   0.0000   0.0000   0.0000   0.0000   0.0000
     0.0000   0.0000   0.0000   0.0000   0.0000   0.0000   0.0000   0.0000
     0.0000   0.0000   0.0000   0.0000   0.0000   0.0000   0.0000   0.0000
     0.0000   0.0000   0.0000   0.0000   0.0000   0.0000   0.0000   0.0000
     0.0000   0.0000   0.0000   0.0000   0.0000   0.0000   0.0000   0.0000
     0.0000   0.0000   0.0000   0.0000   0.0000   0.0000   0.0000   0.0000
     0.0000   0.0000   0.0000   0.0000   0.0000   0.0000   0.0000   0.0000
     0.0000   0.0000   0.0000   0.0000   0.0000   0.0000   0.0000   0.0000
     0.0000

          k = 0.3333 0.0811 0.7384 ( 72005 PWs)   bands (ev):

  -125.3443-125.3435-125.3431-125.3422-125.3378-125.3366-125.3362-125.3353
  -125.2720-125.2712-125.2709-125.2700-125.2664-125.2655-125.2652-125.2643
  -125.1972-125.1962-125.1956-125.1948-125.1946-125.1936-125.1924-125.1914
  -125.1044-125.1043-125.1034-125.1034-125.1032-125.1031-125.1020-125.1020
  -125.0196-125.0186-125.0184-125.0181-125.0175-125.0174-125.0171-125.0160
  -124.9512-124.9374-124.9350-124.9308-124.9273-124.9264-124.9262-124.9253
   -79.5044 -79.4989 -79.4979 -79.4976 -79.4975 -79.4965 -79.4945 -79.4935
   -79.4932 -79.4925 -79.4920 -79.4918 -79.4915 -79.4912 -79.4909 -79.4899
   -79.4880 -79.4867 -79.4864 -79.4853 -79.4849 -79.4847 -79.4794 -79.4726
   -79.4321 -79.4282 -79.4273 -79.4269 -79.4268 -79.4260 -79.4227 -79.4220
   -79.4217 -79.4214 -79.4212 -79.4208 -79.4204 -79.4198 -79.4198 -79.4195
   -79.4161 -79.4152 -79.4149 -79.4143 -79.4143 -79.4139 -79.4074 -79.4020
   -79.3571 -79.3567 -79.3557 -79.3552 -79.3548 -79.3541 -79.3539 -79.3526
   -79.3516 -79.3505 -79.3454 -79.3449 -79.3447 -79.3442 -79.3439 -79.3430
   -79.3430 -79.3426 -79.3424 -79.3417 -79.3406 -79.3396 -79.3324 -79.3301
   -79.2658 -79.2656 -79.2655 -79.2654 -79.2648 -79.2645 -79.2645 -79.2642
   -79.2633 -79.2631 -79.2553 -79.2550 -79.2544 -79.2541 -79.2541 -79.2538
   -79.2531 -79.2530 -79.2530 -79.2529 -79.2526 -79.2523 -79.2409 -79.2406
   -79.1842 -79.1831 -79.1826 -79.1826 -79.1819 -79.1817 -79.1813 -79.1801
   -79.1795 -79.1783 -79.1700 -79.1692 -79.1691 -79.1686 -79.1683 -79.1678
   -79.1678 -79.1674 -79.1668 -79.1667 -79.1661 -79.1657 -79.1549 -79.1537
   -79.1248 -79.1088 -79.1060 -79.1032 -79.1017 -79.0985 -79.0975 -79.0973
   -79.0964 -79.0928 -79.0900 -79.0880 -79.0842 -79.0808 -79.0798 -79.0797
   -79.0788 -79.0775 -79.0775 -79.0742 -79.0653 -79.0651 -79.0618 -79.0529
   -17.3264 -15.1464 -12.9754 -12.5964 -10.9309  -9.4138  -8.6997  -8.2369
    -7.8677  -7.2791  -7.1892  -7.1357  -7.1047  -7.0709  -7.0245  -7.0101
    -6.9962  -6.9353  -6.9091  -6.9055  -6.8900  -6.8646  -6.8554  -6.8515
    -6.8021  -6.7990  -6.7854  -6.7779  -6.7768  -6.7321  -6.7279  -6.7254
    -6.7052  -6.6977  -6.6973  -6.6873  -6.6847  -6.6798  -6.6737  -6.6490
    -6.6452  -6.6362  -6.6346  -6.6246  -6.6100  -6.6092  -6.6078  -6.6059
    -6.6038  -6.5876  -6.5776  -6.5771  -6.5737  -6.5701  -6.5682  -6.5500
    -6.5409  -6.5260  -6.5224  -6.5185  -6.5138  -6.4852  -6.4824  -6.4796
    -6.4764  -6.4753  -6.4580  -6.4534  -6.4528  -6.4188  -6.4000  -6.3921
    -6.3840  -6.3819  -6.3731  -6.3715  -6.3669  -6.3635  -6.3471  -6.3428
    -6.3369  -6.3361  -6.3346  -6.3338  -6.3088  -6.3071  -6.3052  -6.3020
    -6.2857  -6.2832  -6.2826  -6.2772  -6.2674  -6.2629  -6.2586  -6.2472
    -6.2457  -6.2384  -6.2356  -6.2223  -6.2193  -6.2155  -6.2094  -6.2075
    -6.1861  -6.1791  -6.1634  -6.1606  -6.1601  -6.1574  -6.1572  -6.1561
    -6.1539  -6.1536  -6.1422  -6.1338  -6.1265  -6.1256  -6.1179  -6.0979
    -6.0879  -6.0878  -6.0850  -6.0825  -6.0706  -6.0611  -6.0582  -6.0579
    -6.0568  -6.0564  -6.0556  -6.0539  -6.0431  -6.0405  -6.0315  -6.0248
    -6.0245  -6.0092  -5.9976  -5.9944  -5.9927  -5.9904  -5.9839  -5.9833
    -5.9753  -5.9701  -5.9689  -5.9682  -5.9404  -5.9393  -5.9377  -5.9364
    -5.9265  -5.9229  -5.9226  -5.9224  -5.9219  -5.9190  -5.9161  -5.9114
    -5.9047  -5.9010  -5.8989  -5.8903  -5.8858  -5.8834  -5.8789  -5.8772
    -5.8769  -5.8695  -5.8611  -5.8607  -5.8449  -5.8413  -5.8341  -5.8315
    -5.8273  -5.8266  -5.8247  -5.8236  -5.8224  -5.8207  -5.8111  -5.8073
    -5.8057  -5.8017  -5.7895  -5.7856  -5.7823  -5.7789  -5.7747  -5.7736
    -5.7696  -5.7657  -5.7631  -5.7584  -5.7543  -5.7446  -5.7442  -5.7431
    -5.7414  -5.7374  -5.7312  -5.7289  -5.7269  -5.7172  -5.7137  -5.7105
    -5.7082  -5.7032  -5.7023  -5.6996  -5.6945  -5.6922  -5.6894  -5.6873
    -5.6870  -5.6804  -5.6765  -5.6701  -5.6684  -5.6650  -5.6631  -5.6602
    -5.6532  -5.6498  -5.6495  -5.6478  -5.6474  -5.6314  -5.6247  -5.6204
    -5.6143  -5.6141  -5.6039  -5.5993  -5.5879  -5.5821  -5.5820  -5.5568
    -5.5546  -5.5526  -5.5472  -5.5347  -5.5328  -5.5301  -5.5179  -5.5076
    -5.5060  -5.4555  -5.4466  -5.4194  -5.4182  -5.4051  -5.3712  -5.3624
    -5.1870  -5.1027  -5.1009  -5.0786  -4.6338  -4.5893  -4.4707  -4.4166
    -4.3393  -4.2547  -4.0405  -3.9747  -3.5686  -3.5588  -3.4623  -3.4557
    -3.4093  -2.9128  -2.8150  -2.8015  -2.7596  -2.2648  -2.2388  -1.9907
    -1.9887  -1.9796  -1.8646  -1.6297  -1.6153  -1.5555  -1.3533  -1.2141
    -1.2133  -0.9952  -0.8269  -0.6722  -0.5740  -0.4768  -0.4626  -0.4511
    -0.4139  -0.4128  -0.2992  -0.2921   0.3296   0.4566   0.4718   0.6512
     0.6563   0.6906   0.8826   0.9499   1.2833   1.3350   1.3784   1.4242
     1.4311   1.7453   1.8348   1.8570   2.0160   2.0986   2.2527   2.5920
     2.6802   2.7012   2.8198   2.8250   2.8463   2.8967   3.3845   3.3956
     3.4305   3.5853   3.6183   3.7377   3.8274   4.0577   4.2136   4.2402
     4.2549   4.3226   4.3303   4.4751   4.5036   4.5667   4.6516   4.8086
     4.8783   4.9188   4.9266   4.9609   4.9810   5.0222   5.0761   5.2197
     5.3255   5.3980   5.4329   5.4657   5.5349   5.6470   5.6712   5.7244
     5.7980   6.0128   6.0199   6.0613   6.1169   6.2331   6.2575   6.2847
     6.3930   6.4978   6.5223   6.5527   6.5543   6.5933   6.6963   6.7448
     6.7693   6.8444   6.8583   6.9008   6.9442   6.9797   7.0604   7.0791
     7.0905   7.1841   7.1898   7.2553   7.2717   7.3506   7.3894   7.3995
     7.4119   7.4802   7.5011   7.5447   7.5712   7.5960   7.6805   7.6961
     7.7546   7.8490   7.8920   7.8960   7.9030   7.9509   7.9666   8.0192
     8.1081

     occupation numbers 
     1.0000   1.0000   1.0000   1.0000   1.0000   1.0000   1.0000   1.0000
     1.0000   1.0000   1.0000   1.0000   1.0000   1.0000   1.0000   1.0000
     1.0000   1.0000   1.0000   1.0000   1.0000   1.0000   1.0000   1.0000
     1.0000   1.0000   1.0000   1.0000   1.0000   1.0000   1.0000   1.0000
     1.0000   1.0000   1.0000   1.0000   1.0000   1.0000   1.0000   1.0000
     1.0000   1.0000   1.0000   1.0000   1.0000   1.0000   1.0000   1.0000
     1.0000   1.0000   1.0000   1.0000   1.0000   1.0000   1.0000   1.0000
     1.0000   1.0000   1.0000   1.0000   1.0000   1.0000   1.0000   1.0000
     1.0000   1.0000   1.0000   1.0000   1.0000   1.0000   1.0000   1.0000
     1.0000   1.0000   1.0000   1.0000   1.0000   1.0000   1.0000   1.0000
     1.0000   1.0000   1.0000   1.0000   1.0000   1.0000   1.0000   1.0000
     1.0000   1.0000   1.0000   1.0000   1.0000   1.0000   1.0000   1.0000
     1.0000   1.0000   1.0000   1.0000   1.0000   1.0000   1.0000   1.0000
     1.0000   1.0000   1.0000   1.0000   1.0000   1.0000   1.0000   1.0000
     1.0000   1.0000   1.0000   1.0000   1.0000   1.0000   1.0000   1.0000
     1.0000   1.0000   1.0000   1.0000   1.0000   1.0000   1.0000   1.0000
     1.0000   1.0000   1.0000   1.0000   1.0000   1.0000   1.0000   1.0000
     1.0000   1.0000   1.0000   1.0000   1.0000   1.0000   1.0000   1.0000
     1.0000   1.0000   1.0000   1.0000   1.0000   1.0000   1.0000   1.0000
     1.0000   1.0000   1.0000   1.0000   1.0000   1.0000   1.0000   1.0000
     1.0000   1.0000   1.0000   1.0000   1.0000   1.0000   1.0000   1.0000
     1.0000   1.0000   1.0000   1.0000   1.0000   1.0000   1.0000   1.0000
     1.0000   1.0000   1.0000   1.0000   1.0000   1.0000   1.0000   1.0000
     1.0000   1.0000   1.0000   1.0000   1.0000   1.0000   1.0000   1.0000
     1.0000   1.0000   1.0000   1.0000   1.0000   1.0000   1.0000   1.0000
     1.0000   1.0000   1.0000   1.0000   1.0000   1.0000   1.0000   1.0000
     1.0000   1.0000   1.0000   1.0000   1.0000   1.0000   1.0000   1.0000
     1.0000   1.0000   1.0000   1.0000   1.0000   1.0000   1.0000   1.0000
     1.0000   1.0000   1.0000   1.0000   1.0000   1.0000   1.0000   1.0000
     1.0000   1.0000   1.0000   1.0000   1.0000   1.0000   1.0000   1.0000
     1.0000   1.0000   1.0000   1.0000   1.0000   1.0000   1.0000   1.0000
     1.0000   1.0000   1.0000   1.0000   1.0000   1.0000   1.0000   1.0000
     1.0000   1.0000   1.0000   1.0000   1.0000   1.0000   1.0000   1.0000
     1.0000   1.0000   1.0000   1.0000   1.0000   1.0000   1.0000   1.0000
     1.0000   1.0000   1.0000   1.0000   1.0000   1.0000   1.0000   1.0000
     1.0000   1.0000   1.0000   1.0000   1.0000   1.0000   1.0000   1.0000
     1.0000   1.0000   1.0000   1.0000   1.0000   1.0000   1.0000   1.0000
     1.0000   1.0000   1.0000   1.0000   1.0000   1.0000   1.0000   1.0000
     1.0000   1.0000   1.0000   1.0000   1.0000   1.0000   1.0000   1.0000
     1.0000   1.0000   1.0000   1.0000   1.0000   1.0000   1.0000   1.0000
     1.0000   1.0000   1.0000   1.0000   1.0000   1.0000   1.0000   1.0000
     1.0000   1.0000   1.0000   1.0000   1.0000   1.0000   1.0000   1.0000
     1.0000   1.0000   1.0000   1.0000   1.0000   1.0000   1.0000   1.0000
     1.0000   1.0000   1.0000   1.0000   1.0000   1.0000   1.0000   1.0000
     1.0000   1.0000   1.0000   1.0000   1.0000   1.0000   1.0000   1.0000
     1.0000   1.0000   1.0000   1.0000   1.0000   1.0000   1.0000   1.0000
     1.0000   1.0000   1.0000   1.0000   1.0000   1.0000   1.0000   1.0000
     1.0000   1.0000   1.0000   1.0000   1.0000   1.0000   1.0000   1.0000
     1.0000   1.0000   1.0000   1.0000   1.0000   1.0000   1.0000   1.0000
     1.0000   1.0000   1.0000   1.0000   1.0000   1.0000   1.0000   1.0000
     1.0000   1.0000   1.0000   1.0000   1.0000   1.0000   1.0000   1.0000
     1.0000   1.0000   1.0000   1.0000   1.0000   1.0000   1.0000   1.0000
     1.0000   1.0000   1.0000   1.0000   1.0000   1.0000   1.0000   1.0000
     1.0000   1.0000   1.0000   1.0000   1.0000   1.0000   1.0000   1.0000
     1.0000   1.0000   1.0000   1.0000   1.0000   1.0000   1.0000   1.0000
     1.0000   1.0000   1.0000   1.0000   1.0000   1.0000   1.0000   1.0000
     1.0000   1.0000   1.0000   1.0000   1.0000   1.0000   1.0000   1.0000
     1.0000   1.0000   1.0000   1.0000   1.0000   1.0000   1.0000   1.0000
     1.0000   1.0000   1.0000   1.0000   1.0000   1.0000   1.0000   1.0000
     1.0000   1.0000   1.0000   1.0000   1.0000   1.0000   1.0000   1.0000
     1.0000   1.0000   1.0000   1.0000   1.0000   1.0000   1.0000   1.0000
     1.0000   1.0000   1.0000   1.0000   1.0009   1.0062   1.0075   1.0472
     1.0489   1.0607   1.0491   0.9650   0.1808   0.1109   0.0699   0.0408
     0.0374   0.0002   0.0000   0.0000   0.0000   0.0000   0.0000   0.0000
     0.0000   0.0000   0.0000   0.0000   0.0000   0.0000   0.0000   0.0000
     0.0000   0.0000   0.0000   0.0000   0.0000   0.0000   0.0000   0.0000
     0.0000   0.0000   0.0000   0.0000   0.0000   0.0000   0.0000   0.0000
     0.0000   0.0000   0.0000   0.0000   0.0000   0.0000   0.0000   0.0000
     0.0000   0.0000   0.0000   0.0000   0.0000   0.0000   0.0000   0.0000
     0.0000   0.0000   0.0000   0.0000   0.0000   0.0000   0.0000   0.0000
     0.0000   0.0000   0.0000   0.0000   0.0000   0.0000   0.0000   0.0000
     0.0000   0.0000   0.0000   0.0000   0.0000   0.0000   0.0000   0.0000
     0.0000   0.0000   0.0000   0.0000   0.0000   0.0000   0.0000   0.0000
     0.0000   0.0000   0.0000   0.0000   0.0000   0.0000   0.0000   0.0000
     0.0000   0.0000   0.0000   0.0000   0.0000   0.0000   0.0000   0.0000
     0.0000

          k = 0.3333 0.4439 0.9230 ( 71974 PWs)   bands (ev):

  -125.3443-125.3437-125.3429-125.3423-125.3377-125.3367-125.3361-125.3354
  -125.2719-125.2714-125.2706-125.2701-125.2663-125.2657-125.2650-125.2644
  -125.1972-125.1963-125.1955-125.1948-125.1946-125.1936-125.1924-125.1914
  -125.1043-125.1043-125.1036-125.1036-125.1030-125.1029-125.1021-125.1021
  -125.0195-125.0187-125.0183-125.0179-125.0177-125.0175-125.0170-125.0161
  -124.9512-124.9374-124.9350-124.9308-124.9273-124.9267-124.9259-124.9254
   -79.5027 -79.4989 -79.4982 -79.4981 -79.4972 -79.4965 -79.4960 -79.4944
   -79.4937 -79.4926 -79.4924 -79.4920 -79.4915 -79.4914 -79.4906 -79.4899
   -79.4879 -79.4869 -79.4860 -79.4856 -79.4852 -79.4811 -79.4789 -79.4742
   -79.4305 -79.4281 -79.4276 -79.4268 -79.4261 -79.4256 -79.4251 -79.4226
   -79.4220 -79.4219 -79.4214 -79.4213 -79.4206 -79.4205 -79.4202 -79.4199
   -79.4160 -79.4154 -79.4146 -79.4140 -79.4135 -79.4090 -79.4082 -79.4036
   -79.3567 -79.3559 -79.3555 -79.3550 -79.3542 -79.3539 -79.3533 -79.3526
   -79.3515 -79.3507 -79.3506 -79.3484 -79.3453 -79.3446 -79.3439 -79.3431
   -79.3430 -79.3418 -79.3406 -79.3396 -79.3386 -79.3364 -79.3340 -79.3316
   -79.2657 -79.2655 -79.2650 -79.2648 -79.2644 -79.2641 -79.2639 -79.2637
   -79.2633 -79.2631 -79.2593 -79.2591 -79.2553 -79.2549 -79.2545 -79.2541
   -79.2538 -79.2534 -79.2529 -79.2524 -79.2470 -79.2468 -79.2425 -79.2423
   -79.1842 -79.1833 -79.1825 -79.1824 -79.1819 -79.1819 -79.1811 -79.1801
   -79.1779 -79.1767 -79.1733 -79.1721 -79.1700 -79.1693 -79.1691 -79.1684
   -79.1683 -79.1679 -79.1676 -79.1667 -79.1610 -79.1598 -79.1565 -79.1553
   -79.1248 -79.1088 -79.1060 -79.1032 -79.1017 -79.0984 -79.0978 -79.0970
   -79.0965 -79.0923 -79.0900 -79.0880 -79.0842 -79.0807 -79.0804 -79.0801
   -79.0793 -79.0788 -79.0759 -79.0714 -79.0709 -79.0626 -79.0591 -79.0546
   -17.3264 -15.1464 -12.9754 -12.5965 -10.9309  -9.4138  -8.6996  -8.0089
    -7.8246  -7.7286  -7.2781  -7.1887  -7.1262  -7.0018  -6.9863  -6.9336
    -6.9257  -6.8909  -6.8744  -6.8382  -6.8297  -6.8252  -6.8232  -6.8155
    -6.7976  -6.7862  -6.7858  -6.7748  -6.7695  -6.7621  -6.7561  -6.7560
    -6.7387  -6.7316  -6.7248  -6.7214  -6.7141  -6.7107  -6.7050  -6.6900
    -6.6830  -6.6800  -6.6757  -6.6563  -6.6499  -6.6311  -6.6290  -6.6249
    -6.6149  -6.6098  -6.5891  -6.5854  -6.5739  -6.5506  -6.5445  -6.5423
    -6.5417  -6.5373  -6.5262  -6.5098  -6.4886  -6.4841  -6.4634  -6.4602
    -6.4576  -6.4490  -6.4480  -6.4476  -6.4312  -6.4278  -6.4178  -6.4048
    -6.3906  -6.3833  -6.3828  -6.3702  -6.3684  -6.3676  -6.3643  -6.3593
    -6.3578  -6.3499  -6.3340  -6.3339  -6.3293  -6.3225  -6.3122  -6.3058
    -6.3028  -6.3003  -6.2980  -6.2804  -6.2792  -6.2731  -6.2664  -6.2535
    -6.2389  -6.2354  -6.2352  -6.2343  -6.2245  -6.2200  -6.2124  -6.2101
    -6.1989  -6.1983  -6.1918  -6.1901  -6.1846  -6.1746  -6.1695  -6.1647
    -6.1628  -6.1478  -6.1467  -6.1419  -6.1417  -6.1290  -6.1271  -6.1058
    -6.1019  -6.1015  -6.0949  -6.0920  -6.0910  -6.0881  -6.0874  -6.0753
    -6.0732  -6.0599  -6.0543  -6.0501  -6.0470  -6.0459  -6.0246  -6.0205
    -6.0182  -6.0077  -6.0051  -6.0027  -6.0026  -6.0019  -5.9955  -5.9924
    -5.9923  -5.9817  -5.9683  -5.9629  -5.9585  -5.9485  -5.9418  -5.9386
    -5.9296  -5.9277  -5.9135  -5.9113  -5.9033  -5.8899  -5.8879  -5.8875
    -5.8867  -5.8843  -5.8793  -5.8716  -5.8700  -5.8664  -5.8585  -5.8530
    -5.8513  -5.8504  -5.8485  -5.8462  -5.8370  -5.8284  -5.8240  -5.8164
    -5.8119  -5.8113  -5.8112  -5.8071  -5.7954  -5.7944  -5.7940  -5.7922
    -5.7921  -5.7889  -5.7695  -5.7667  -5.7650  -5.7581  -5.7574  -5.7530
    -5.7522  -5.7504  -5.7496  -5.7447  -5.7432  -5.7330  -5.7255  -5.7230
    -5.7212  -5.7205  -5.7172  -5.7133  -5.7116  -5.7097  -5.7063  -5.7046
    -5.7026  -5.6961  -5.6941  -5.6873  -5.6860  -5.6840  -5.6832  -5.6818
    -5.6780  -5.6745  -5.6706  -5.6694  -5.6632  -5.6564  -5.6530  -5.6526
    -5.6428  -5.6341  -5.6308  -5.6300  -5.6229  -5.6214  -5.6193  -5.6147
    -5.6121  -5.6105  -5.6088  -5.6069  -5.5900  -5.5890  -5.5814  -5.5758
    -5.5744  -5.5710  -5.5578  -5.5555  -5.5527  -5.5495  -5.5433  -5.5032
    -5.5001  -5.4947  -5.4899  -5.4576  -5.4411  -5.4033  -5.2300  -5.1027
    -5.0851  -5.0384  -4.9993  -4.9866  -4.7234  -4.6445  -4.6289  -4.4166
    -4.3401  -4.3104  -4.1337  -3.7563  -3.5592  -3.4116  -3.3288  -3.3138
[...]
     atom   45 type  1   force =     0.00006951    0.00004073   -0.00007514
     atom   46 type  1   force =     0.00004073   -0.00001670   -0.00006668
     atom   47 type  1   force =    -0.00019614   -0.00000067   -0.00007542
     atom   48 type  1   force =    -0.00002566   -0.00005325   -0.00008229
     atom   49 type  4   force =    -0.00000041   -0.00000110   -0.00000059
     atom   50 type  3   force =    -0.00000023   -0.00000654   -0.00000186
     atom   51 type  3   force =    -0.00000298    0.00001157   -0.00000837
     atom   52 type  3   force =    -0.00000207   -0.00000428   -0.00001427
     atom   53 type  3   force =    -0.00000832    0.00000225    0.00000141
     atom   54 type  3   force =    -0.00000386   -0.00000133   -0.00000449
     atom   55 type  3   force =    -0.00000202   -0.00000468   -0.00001093
     atom   56 type  3   force =    -0.00000568    0.00001048   -0.00001519
     atom   57 type  2   force =    -0.00005082    0.00000354    0.00003739
     atom   58 type  4   force =    -0.00000080    0.00000362    0.00000150
     atom   59 type  4   force =    -0.00000050    0.00000034   -0.00000152
     atom   60 type  4   force =    -0.00000069    0.00000142    0.00000094
     atom   61 type  4   force =    -0.00000574   -0.00000130    0.00000740
     atom   62 type  4   force =    -0.00000561   -0.00000064    0.00000603
     atom   63 type  4   force =     0.00000026   -0.00000338    0.00000128
     atom   64 type  4   force =    -0.00000022   -0.00000108    0.00000006
     atom   65 type  4   force =     0.00000043   -0.00000088    0.00000000

     DFT-D3 dispersion contribution to forces:
     atom    1 type  1   force =    -0.00122160   -0.00029248    0.00221792
     atom    2 type  1   force =    -0.00124211   -0.00029472    0.00217038
     atom    3 type  1   force =     0.00101209    0.00024043    0.00056787
     atom    4 type  1   force =     0.00100704    0.00021683    0.00055669
     atom    5 type  1   force =     0.00030309    0.00061054   -0.00101565
     atom    6 type  1   force =     0.00056684   -0.00037900   -0.00116149
     atom    7 type  1   force =    -0.00123029   -0.00030503    0.00218923
     atom    8 type  1   force =    -0.00123349   -0.00028410    0.00219864
     atom    9 type  1   force =     0.00100624    0.00022255    0.00056375
     atom   10 type  1   force =     0.00102356    0.00023439    0.00057968
     atom   11 type  1   force =     0.00041304   -0.00001388   -0.00068482
     atom   12 type  1   force =     0.00045235    0.00014837   -0.00179720
     atom   13 type  1   force =    -0.00131635   -0.00031078    0.00209934
     atom   14 type  1   force =    -0.00130459   -0.00031212    0.00207969
     atom   15 type  1   force =     0.00095785    0.00021942    0.00055639
     atom   16 type  1   force =     0.00095041    0.00020981    0.00044333
     atom   17 type  1   force =     0.00066957    0.00017063   -0.00200922
     atom   18 type  1   force =     0.00063249    0.00014384   -0.00201312
     atom   19 type  1   force =    -0.00131037   -0.00031779    0.00209543
     atom   20 type  1   force =    -0.00130894   -0.00031192    0.00207976
     atom   21 type  1   force =     0.00093680    0.00020644    0.00051700
     atom   22 type  1   force =     0.00094677    0.00022418    0.00045235
     atom   23 type  1   force =     0.00064764    0.00015493   -0.00199632
     atom   24 type  1   force =     0.00064616    0.00015943   -0.00202759
     atom   25 type  1   force =     0.00055698    0.00013925    0.00269109
     atom   26 type  1   force =     0.00056062    0.00013885    0.00265831
     atom   27 type  1   force =    -0.00072134   -0.00015171    0.00002511
     atom   28 type  1   force =    -0.00075125   -0.00017264    0.00002028
     atom   29 type  1   force =    -0.00021298    0.00000536   -0.00320995
     atom   30 type  1   force =    -0.00033633   -0.00018160   -0.00291357
     atom   31 type  1   force =     0.00056107    0.00012836    0.00268732
     atom   32 type  1   force =     0.00056095    0.00013428    0.00266856
     atom   33 type  1   force =    -0.00072532   -0.00017106    0.00002597
     atom   34 type  1   force =    -0.00074512   -0.00016150    0.00002135
     atom   35 type  1   force =    -0.00042703   -0.00002139   -0.00282039
     atom   36 type  1   force =    -0.00017969   -0.00007928   -0.00324413
     atom   37 type  1   force =     0.00059125    0.00014429    0.00260411
     atom   38 type  1   force =     0.00059025    0.00014197    0.00261022
     atom   39 type  1   force =    -0.00075477   -0.00017557    0.00005052
     atom   40 type  1   force =    -0.00075970   -0.00016275    0.00003872
     atom   41 type  1   force =     0.00009000    0.00008446   -0.00310307
     atom   42 type  1   force =     0.00007612   -0.00002762   -0.00315176
     atom   43 type  1   force =     0.00059143    0.00014429    0.00260314
     atom   44 type  1   force =     0.00059022    0.00014226    0.00260612
     atom   45 type  1   force =    -0.00075661   -0.00017041    0.00012891
     atom   46 type  1   force =    -0.00076717   -0.00017378    0.00003146
     atom   47 type  1   force =     0.00020015    0.00003319   -0.00292728
     atom   48 type  1   force =     0.00000779    0.00000921   -0.00322122
     atom   49 type  4   force =    -0.00007474    0.00001393   -0.00010915
     atom   50 type  3   force =    -0.00000447   -0.00001068   -0.00010229
     atom   51 type  3   force =     0.00005448   -0.00019017   -0.00003065
     atom   52 type  3   force =    -0.00002572    0.00010516   -0.00004134
     atom   53 type  3   force =     0.00000410   -0.00000009   -0.00064214
     atom   54 type  3   force =    -0.00000168   -0.00000585   -0.00011255
     atom   55 type  3   force =    -0.00004000    0.00018956   -0.00001340
     atom   56 type  3   force =     0.00002414   -0.00010798   -0.00019764
     atom   57 type  2   force =     0.00003555    0.00001412   -0.00133847
     atom   58 type  4   force =    -0.00000191    0.00001377   -0.00016925
     atom   59 type  4   force =     0.00001373   -0.00005353    0.00005918
     atom   60 type  4   force =     0.00000976   -0.00002859    0.00015307
     atom   61 type  4   force =     0.00006653   -0.00002318   -0.00134716
     atom   62 type  4   force =     0.00004848    0.00005933   -0.00137395
     atom   63 type  4   force =     0.00000211   -0.00000106   -0.00015339
     atom   64 type  4   force =    -0.00001074    0.00004001   -0.00000982
     atom   65 type  4   force =     0.00005664    0.00004880   -0.00011290

     Total force =     0.002694     Total SCF correction =     0.000767

     DFT-D3 dispersion Force =     0.015229
     SCF correction compared to forces is large: reduce conv_thr to get better values


     Computing stress (Cartesian axis) and pressure


     negative rho (up, down):  3.339E-03 0.000E+00
          total   stress  (Ry/bohr**3)                   (kbar)     P=      -13.76
  -0.00015835   0.00000238   0.00000396          -23.29        0.35        0.58
   0.00000238  -0.00011745   0.00000114            0.35      -17.28        0.17
   0.00000396   0.00000114  -0.00000478            0.58        0.17       -0.70

     kinetic stress (kbar)  11691.51     21.16      5.94
                               21.16  11619.94      1.40
                                5.94      1.40  11677.50

     local   stress (kbar)-838622.68   3266.17   2962.96
                             3266.17-851064.23    722.34
                             2962.96    722.34 846544.20

     nonloc. stress (kbar)  -1127.35     -5.94     -2.86
                               -5.94  -1103.02     -0.73
                               -2.86     -0.73  -1139.05

     hartree stress (kbar) 444297.12  -1409.95  -1292.01
                            -1409.95 449661.64   -315.30
                            -1292.01   -315.30-391880.05

     exc-cor stress (kbar)  -5695.41     -1.38     -0.58
                               -1.38  -5690.06     -0.13
                               -0.58     -0.13  -5696.76

     corecor stress (kbar)    -71.33      0.21     -0.02
                                0.21    -72.11     -0.01
                               -0.02     -0.01    -72.09

     ewald   stress (kbar) 389511.27  -1870.36  -1673.27
                            -1870.36 396638.73   -407.50
                            -1673.27   -407.50-459431.13

     hubbard stress (kbar)      0.00      0.00      0.00
                                0.00      0.00      0.00
                                0.00      0.00      0.00

     DFT-D   stress (kbar)     -6.42      0.45      0.41
                                0.45     -8.16      0.10
                                0.41      0.10     -3.33

     XDM     stress (kbar)      0.00      0.00      0.00
                                0.00      0.00      0.00
                                0.00      0.00      0.00

     dft-nl  stress (kbar)      0.00      0.00      0.00
                                0.00      0.00      0.00
                                0.00      0.00      0.00

     TS-vdW  stress (kbar)      0.00      0.00      0.00
                                0.00      0.00      0.00
                                0.00      0.00      0.00

     MDB     stress (kbar)      0.00      0.00      0.00
                                0.00      0.00      0.00
                                0.00      0.00      0.00

     3D-RISM stress (kbar)      0.00      0.00      0.00
                                0.00      0.00      0.00
                                0.00      0.00      0.00

     Energy error            =      1.1E-05 Ry
     Gradient error          =      8.1E-04 Ry/Bohr

     bfgs converged in  15 scf cycles and  14 bfgs steps
     (criteria: energy <  5.0E-05 Ry, force <  1.0E-03 Ry/Bohr)

     End of BFGS Geometry Optimization

     Final energy             =  -22314.4195541559 Ry

     File ./tmp/Zn101_3layer_ptoluidine_relax.bfgs deleted, as requested
Begin final coordinates

ATOMIC_POSITIONS (angstrom)
Zn              -1.0735560000        1.0841420000        1.1977640000    0   0   0
Zn              -2.3094850000        6.1646920000        1.1977640000    0   0   0
Zn              -4.9032959966        0.1490514111        3.6226421347
Zn              -6.1394325376        5.2287502957        3.6208828062
Zn              -8.8771967068       -0.8179037995        5.7591355497
Zn             -10.1099065631        4.2591952319        5.7744645793
Zn              -1.6915200000        3.6244170000        1.1977640000    0   0   0
Zn              -2.9274500000        8.7049670000        1.1977640000    0   0   0
Zn              -5.5208123946        2.6883155249        3.6222737865
Zn              -6.7565334839        7.7698939005        3.6235361012
Zn              -9.4980618361        1.7215056564        5.7035191229
Zn             -10.7258859474        6.8031073942        5.7664288845
Zn               4.4565960000        1.0841420000        1.1977640000    0   0   0
Zn               3.2206660000        6.1646920000        1.1977640000    0   0   0
Zn               0.6196338837        0.1436356368        3.5778546798
Zn              -0.6102579024        5.2286941338        3.5893542471
Zn              -3.3034280582       -0.8067808769        5.7584135646
Zn              -4.5411109856        4.2733462812        5.7574146442
Zn               3.8386310000        3.6244170000        1.1977640000    0   0   0
Zn               2.6027020000        8.7049670000        1.1977640000    0   0   0
Zn              -0.0019187260        2.6898439540        3.5770439555
Zn              -1.2288831988        7.7676831873        3.5866001762
Zn              -3.9224140172        1.7329487706        5.7587291620
Zn              -5.1584114636        6.8140895909        5.7573301841
Zn               1.6915200000        0.4114910000        0.8555450000    0   0   0
Zn               0.4555910000        5.4920410000        0.8555450000    0   0   0
Zn              -2.3452148668       -0.5697521940        2.9367685902
Zn              -3.5832661927        4.5096595600        2.9352789292
Zn              -6.3820496568       -1.5551719474        5.0613943772
Zn              -7.6126752860        3.5282573902        5.0685928794
Zn               1.0735560000        2.9517660000        0.8555450000    0   0   0
Zn              -0.1623740000        8.0323160000        0.8555450000    0   0   0
Zn              -2.9638846944        1.9693858604        2.9363231283
Zn              -4.2006537173        7.0507076422        2.9356610068
Zn              -6.9954142397        0.9847247971        5.0705860596
Zn              -8.2373294484        6.0647295689        5.0617918014
Zn               7.2216720000        0.4114910000        0.8555450000    0   0   0
Zn               5.9857420000        5.4920410000        0.8555450000    0   0   0
Zn               3.1853573375       -0.5700792209        2.9350793372
Zn               1.9487028332        4.5096825696        2.9365733907
Zn              -0.8137118343       -1.5455457026        5.0710447079
Zn              -2.0521707327        3.5344706047        5.0689297514
Zn               6.6037070000        2.9517660000        0.8555450000    0   0   0
Zn               5.3677780000        8.0323160000        0.8555450000    0   0   0
Zn               2.5690728703        1.9704653167        2.9318534555
Zn               1.3307484949        7.0501124595        2.9312619163
Zn              -1.4311809118        0.9945618071        5.0749751103
Zn              -2.6706547474        6.0747482087        5.0655235388
H              -10.3107096827        1.7659637455       15.2673588661
C               -9.3362065111        1.4763932100       14.8442663068
C               -9.1231973902        0.2890848287       11.2082367980
C               -9.6719491797        2.6244557303       12.6079964476
C               -9.4294170845        1.4579058418       10.4862575067
C               -9.3672600052        1.4646170188       13.3372679439
C               -9.7049959109        2.6310544391       11.2178972950
C               -9.0951632039        0.3039547361       12.6016089019
N               -9.4597776310        1.4612196801        9.1095566164
H               -8.9044821505       -0.6358263198       10.6698685627
H               -9.8888255885        3.5512086376       13.1445018320
H               -9.0813240071        0.4865794246       15.2458315496
H               -9.6694891905        2.3033889583        8.5910671328
H               -9.2534061161        0.6289673081        8.5740189566
H               -9.9456249115        3.5527928602       10.6835784174
H               -8.8526458286       -0.6184168673       13.1342521172
H               -8.5935908655        2.1925848003       15.2292367000
End final coordinates



     Writing all to output data dir ./tmp/Zn101_3layer_ptoluidine_relax.save/ :
     XML data file, charge density, pseudopotentials, collected wavefunctions

     init_run     :     83.47s CPU     85.09s WALL (       1 calls)
     electrons    :  42335.83s CPU  42994.37s WALL (      15 calls)
     update_pot   :      4.66s CPU      4.82s WALL (      14 calls)
     forces       :    977.80s CPU    986.32s WALL (      15 calls)
     force_dftd3  :      3.98s CPU      4.80s WALL (      15 calls)
     stress       :   2516.10s CPU   2532.44s WALL (      15 calls)
     stres_dftd3  :      3.95s CPU      4.80s WALL (      15 calls)

     Called by init_run:
     wfcinit      :     81.63s CPU     83.07s WALL (       1 calls)
     wfcinit:atom :      0.04s CPU      0.08s WALL (       5 calls)
     wfcinit:wfcr :     80.96s CPU     82.16s WALL (       5 calls)
     potinit      :      0.30s CPU      0.33s WALL (       1 calls)
     hinit0       :      0.10s CPU      0.12s WALL (       1 calls)

     Called by electrons:
     c_bands      :  38506.67s CPU  39064.77s WALL (     159 calls)
     sum_band     :   3624.34s CPU   3710.66s WALL (     159 calls)
     v_of_rho     :     32.03s CPU     33.24s WALL (     161 calls)
     v_h          :      2.28s CPU      2.45s WALL (     161 calls)
     v_xc         :     35.24s CPU     36.64s WALL (     191 calls)
     newd         :    172.37s CPU    183.66s WALL (     161 calls)
     PAW_pot      :     11.51s CPU     11.57s WALL (     175 calls)
     mix_rho      :      3.93s CPU      4.27s WALL (     159 calls)
     energy_dftd3 :      2.09s CPU      2.09s WALL (      15 calls)

     Called by c_bands:
     init_us_2    :     45.82s CPU     46.66s WALL (    1815 calls)
     cegterg      :  38431.22s CPU  38983.58s WALL (     795 calls)

     Called by sum_band:
     sum_band:wei :      0.39s CPU      0.41s WALL (     159 calls)
     sum_band:loo :   3457.45s CPU   3532.02s WALL (     159 calls)
     sum_band:buf :      7.23s CPU      9.16s WALL (     795 calls)
     sum_band:ini :     20.57s CPU     20.73s WALL (     795 calls)
     sum_band:cal :   2632.14s CPU   2644.05s WALL (     865 calls)
     sum_band:bec :     19.98s CPU     20.04s WALL (     865 calls)
     addusdens    :    161.94s CPU    173.26s WALL (     159 calls)
                                        0.00s GPU  (     159 calls)
     addusd:skk   :      1.90s CPU      2.38s WALL (     636 calls)
                                        0.00s GPU  (     636 calls)

     Called by *egterg:
     cdiaghg      :   1796.20s CPU   1869.00s WALL (    3305 calls)
     cegterg:over :   5562.29s CPU   5582.11s WALL (    2645 calls)
     cegterg:upda :   2546.82s CPU   2565.81s WALL (    2645 calls)
     cegterg:last :   8578.29s CPU   8629.20s WALL (    1508 calls)
     cdiaghg:chol :    128.01s CPU    128.36s WALL (    3305 calls)
     cdiaghg:inve :     18.58s CPU     18.63s WALL (    3305 calls)
     cdiaghg:para :    493.92s CPU    504.43s WALL (    6610 calls)
     h_psi        :  13517.32s CPU  13840.69s WALL (    3445 calls)
     s_psi        :   4849.30s CPU   4861.81s WALL (    3445 calls)
     g_psi        :      4.52s CPU      4.59s WALL (    2645 calls)

     Called by h_psi:
     h_psi:calbec :   5270.23s CPU   5295.85s WALL (    3445 calls)
     vloc_psi     :   3370.62s CPU   3641.54s WALL (    3445 calls)
     add_vuspsi   :   4869.79s CPU   4882.90s WALL (    3445 calls)

     General routines
     calbec       :   9048.28s CPU   9090.99s WALL (    4685 calls)
     fft          :     24.96s CPU     27.08s WALL (    2465 calls)
     ffts         :      0.95s CPU      1.06s WALL (     320 calls)
     fftw         :   3201.65s CPU   3467.67s WALL ( 2558527 calls)
     interpolate  :      2.42s CPU      2.58s WALL (     161 calls)

     Parallel routines

     PAW routines
     PAW_pot      :     11.51s CPU     11.57s WALL (     175 calls)

     PWSCF        :     12h49m CPU     13h 0m WALL


   This run was terminated on:  16:21:43  14Apr2025            

=------------------------------------------------------------------------------=
   JOB DONE.
=------------------------------------------------------------------------------=
Note: The following floating-point exceptions are signalling: IEEE_DENORMAL
Note: The following floating-point exceptions are signalling: IEEE_DENORMAL
Note: The following floating-point exceptions are signalling: IEEE_DENORMAL
Note: The following floating-point exceptions are signalling: IEEE_DENORMAL
Note: The following floating-point exceptions are signalling: IEEE_DENORMAL
Note: The following floating-point exceptions are signalling: IEEE_DENORMAL
Note: The following floating-point exceptions are signalling: IEEE_DENORMAL
Note: The following floating-point exceptions are signalling: IEEE_DENORMAL
Note: The following floating-point exceptions are signalling: IEEE_DENORMAL
Note: The following floating-point exceptions are signalling: IEEE_DENORMAL
Note: The following floating-point exceptions are signalling: IEEE_DENORMAL
Note: The following floating-point exceptions are signalling: IEEE_DENORMAL
