
     Program PWSCF v.7.3.1 starts on 23Jan1998 at  9:41:45 

     This program is part of the open-source Quantum ESPRESSO suite
     for quantum simulation of materials; please cite
         "P. Giannozzi et al., J. Phys.:Condens. Matter 21 395502 (2009);
         "P. Giannozzi et al., J. Phys.:Condens. Matter 29 465901 (2017);
         "P. Giannozzi et al., J. Chem. Phys. 152 154105 (2020);
          URL http://www.quantum-espresso.org", 
     in publications or presentations arising from this work. More details at
     http://www.quantum-espresso.org/quote

     Parallel version (MPI), running on    30 processors

     MPI processes distributed on     1 nodes
     153309 MiB available memory on the printing compute node when the environment starts

     Waiting for input...
     Reading input from standard input
Warning: card &CELL ignored
Warning: card   CELL_DOFREE = 'ALL' ignored
Warning: card / ignored

     Current dimensions of program PWSCF are:
     Max number of different atomic species (ntypx) = 10
     Max number of k-points (npk) =  40000
     Max angular momentum in pseudopotentials (lmaxx) =  4

     File ./tmp/Zn002_2x2x4_relax_ecutrho250_ecutwfc25.update deleted, as requested

     File ./tmp/Zn002_2x2x4_relax_ecutrho250_ecutwfc25.bfgs deleted, as requested
     Found identity + (  0.0000 -0.5000  0.0000) symmetry
     This is a supercell, fractional translations are disabled
     Message from routine setup:
     using ibrav=0 with symmetry is DISCOURAGED, use correct ibrav instead

     R & G space division:  proc/nbgrp/npool/nimage =      30
     Subspace diagonalization in iterative solution of the eigenvalue problem:
     one sub-group per band group will be used
     custom distributed-memory algorithm (size of sub-group:  4*  4 procs)


     Parallelization info
     --------------------
     sticks:   dense  smooth     PW     G-vecs:    dense   smooth      PW
     Min          26      26      8                 2792     2792     436
     Max          27      27      9                 2815     2815     450
     Sum         805     805    241                84229    84229   13189

     Using Slab Decomposition



     bravais-lattice index     =            0
     lattice parameter (alat)  =       9.8808  a.u.
     unit-cell volume          =    3794.1483 (a.u.)^3
     number of atoms/cell      =           32
     number of atomic types    =            1
     number of electrons       =       640.00
     number of Kohn-Sham states=          384
     kinetic-energy cutoff     =      30.0000  Ry
     charge density cutoff     =     120.0000  Ry
     scf convergence threshold =      7.3E-07
     mixing beta               =       0.7000
     number of iterations used =            8  plain     mixing
     energy convergence thresh.=      1.0E-05
     force convergence thresh. =      5.0E-04
     Exchange-correlation= SLA  PW   PBE  PBE
                           (   1   4   3   4   0   0   0)
     nstep                     =          100


     celldm(1)=   9.880848  celldm(2)=   0.000000  celldm(3)=   0.000000
     celldm(4)=   0.000000  celldm(5)=   0.000000  celldm(6)=   0.000000

     crystal axes: (cart. coord. in units of alat)
               a(1) = (   1.000000   0.000000   0.000000 )  
               a(2) = (  -0.500000   0.866025   0.000000 )  
               a(3) = (   0.000000   0.000000   4.541517 )  

     reciprocal axes: (cart. coord. in units 2 pi/alat)
               b(1) = (  1.000000  0.577350 -0.000000 )  
               b(2) = (  0.000000  1.154701  0.000000 )  
               b(3) = (  0.000000 -0.000000  0.220191 )  


     PseudoPot. # 1 for Zn read from file:
     /home/ys/qepseudo/SSSP_1.3.0_PBE_efficiency/Zn_pbe_v1.uspp.F.UPF
     MD5 check sum: df62231357ef9e81f77b2b3087fa5675
     Pseudo is Ultrasoft, Zval = 20.0
     Generated by new atomic code, or converted to UPF format
     Using radial grid of  943 points,  6 beta functions with: 
                l(1) =   0
                l(2) =   0
                l(3) =   1
                l(4) =   1
                l(5) =   2
                l(6) =   2
     Q(r) pseudized with  8 coefficients,  rinner =    1.100   1.100   1.100
                                                       1.100   1.100

     atomic species   valence    mass     pseudopotential
     Zn               20.00    65.38000     Zn( 1.00)

     12 Sym. Ops. (no inversion) found


                                    s                        frac. trans.

      isym =  1     identity                                     

 cryst.   s( 1) = (     1          0          0      )
                  (     0          1          0      )
                  (     0          0          1      )

 cart.    s( 1) = (  1.0000000 -0.0000000  0.0000000 )
                  (  0.0000000  1.0000000  0.0000000 )
                  (  0.0000000  0.0000000  1.0000000 )


      isym =  2     180 deg rotation - cart. axis [0,0,1]        

 cryst.   s( 2) = (    -1          0          0      )
                  (     0         -1          0      )
                  (     0          0          1      )

 cart.    s( 2) = ( -1.0000000  0.0000000  0.0000000 )
                  (  0.0000000 -1.0000000  0.0000000 )
                  (  0.0000000  0.0000000  1.0000000 )


      isym =  3      60 deg rotation - cryst. axis [0,0,1]       

 cryst.   s( 3) = (     1          1          0      )
                  (    -1          0          0      )
                  (     0          0          1      )

 cart.    s( 3) = (  0.5000000 -0.8660254  0.0000000 )
                  (  0.8660254  0.5000000  0.0000000 )
                  (  0.0000000  0.0000000  1.0000000 )


      isym =  4      60 deg rotation - cryst. axis [0,0,-1]      

 cryst.   s( 4) = (     0         -1          0      )
                  (     1          1          0      )
                  (     0          0          1      )

 cart.    s( 4) = (  0.5000000  0.8660254  0.0000000 )
                  ( -0.8660254  0.5000000  0.0000000 )
                  (  0.0000000  0.0000000  1.0000000 )


      isym =  5     120 deg rotation - cryst. axis [0,0,1]       

 cryst.   s( 5) = (     0          1          0      )
                  (    -1         -1          0      )
                  (     0          0          1      )

 cart.    s( 5) = ( -0.5000000 -0.8660254  0.0000000 )
                  (  0.8660254 -0.5000000  0.0000000 )
                  (  0.0000000  0.0000000  1.0000000 )


      isym =  6     120 deg rotation - cryst. axis [0,0,-1]      

 cryst.   s( 6) = (    -1         -1          0      )
                  (     1          0          0      )
                  (     0          0          1      )

 cart.    s( 6) = ( -0.5000000  0.8660254  0.0000000 )
                  ( -0.8660254 -0.5000000  0.0000000 )
                  (  0.0000000  0.0000000  1.0000000 )


      isym =  7     inv. 180 deg rotation - cart. axis [0,1,0]   

 cryst.   s( 7) = (     1          0          0      )
                  (    -1         -1          0      )
                  (     0          0          1      )

 cart.    s( 7) = (  1.0000000  0.0000000  0.0000000 )
                  (  0.0000000 -1.0000000  0.0000000 )
                  (  0.0000000  0.0000000  1.0000000 )


      isym =  8     inv. 180 deg rotation - cart. axis [1,0,0]   

 cryst.   s( 8) = (    -1          0          0      )
                  (     1          1          0      )
                  (     0          0          1      )

 cart.    s( 8) = ( -1.0000000 -0.0000000  0.0000000 )
                  (  0.0000000  1.0000000  0.0000000 )
                  (  0.0000000  0.0000000  1.0000000 )


      isym =  9     inv. 180 deg rotation - cryst. axis [1,-1,0] 

 cryst.   s( 9) = (     0          1          0      )
                  (     1          0          0      )
                  (     0          0          1      )

 cart.    s( 9) = ( -0.5000000  0.8660254  0.0000000 )
                  (  0.8660254  0.5000000  0.0000000 )
                  (  0.0000000  0.0000000  1.0000000 )


      isym = 10     inv. 180 deg rotation - cryst. axis [2,1,0]  

 cryst.   s(10) = (    -1         -1          0      )
                  (     0          1          0      )
                  (     0          0          1      )

 cart.    s(10) = ( -0.5000000 -0.8660254  0.0000000 )
                  ( -0.8660254  0.5000000  0.0000000 )
                  (  0.0000000  0.0000000  1.0000000 )


      isym = 11     inv. 180 deg rotation - cryst. axis [0,1,0]  

 cryst.   s(11) = (     1          1          0      )
                  (     0         -1          0      )
                  (     0          0          1      )

 cart.    s(11) = (  0.5000000  0.8660254  0.0000000 )
                  (  0.8660254 -0.5000000  0.0000000 )
                  (  0.0000000  0.0000000  1.0000000 )


      isym = 12     inv. 180 deg rotation - cryst. axis [1,1,0]  

 cryst.   s(12) = (     0         -1          0      )
                  (    -1          0          0      )
                  (     0          0          1      )

 cart.    s(12) = (  0.5000000 -0.8660254  0.0000000 )
                  ( -0.8660254 -0.5000000  0.0000000 )
                  (  0.0000000  0.0000000  1.0000000 )


   Cartesian axes

     site n.     atom                  positions (alat units)
         1        Zn     tau(   1) = (  -0.0000000   0.2886751   0.2329997  )
         2        Zn     tau(   2) = (  -0.0000000   0.2886751   0.6989991  )
         3        Zn     tau(   3) = (  -0.0000000   0.2886751   1.1649986  )
         4        Zn     tau(   4) = (  -0.0000000   0.2886751   1.6309980  )
         5        Zn     tau(   5) = (  -0.2500000   0.7216878   0.2329997  )
         6        Zn     tau(   6) = (  -0.2500000   0.7216878   0.6989991  )
         7        Zn     tau(   7) = (  -0.2500000   0.7216878   1.1649986  )
         8        Zn     tau(   8) = (  -0.2500000   0.7216878   1.6309980  )
         9        Zn     tau(   9) = (   0.5000000   0.2886751   0.2329997  )
        10        Zn     tau(  10) = (   0.5000000   0.2886751   0.6989991  )
        11        Zn     tau(  11) = (   0.5000000   0.2886751   1.1649986  )
        12        Zn     tau(  12) = (   0.5000000   0.2886751   1.6309980  )
        13        Zn     tau(  13) = (   0.2500000   0.7216878   0.2329997  )
        14        Zn     tau(  14) = (   0.2500000   0.7216878   0.6989991  )
        15        Zn     tau(  15) = (   0.2500000   0.7216878   1.1649986  )
        16        Zn     tau(  16) = (   0.2500000   0.7216878   1.6309980  )
        17        Zn     tau(  17) = (   0.2500000   0.1443376   0.2329997  )
        18        Zn     tau(  18) = (   0.2500000   0.1443376   0.6989991  )
        19        Zn     tau(  19) = (   0.2500000   0.1443376   1.1649986  )
        20        Zn     tau(  20) = (   0.2500000   0.1443376   1.6309980  )
        21        Zn     tau(  21) = (   0.0000000   0.5773503   0.2329997  )
        22        Zn     tau(  22) = (   0.0000000   0.5773503   0.6989991  )
        23        Zn     tau(  23) = (   0.0000000   0.5773503   1.1649986  )
        24        Zn     tau(  24) = (   0.0000000   0.5773503   1.6309980  )
        25        Zn     tau(  25) = (   0.7500000   0.1443376   0.2329997  )
        26        Zn     tau(  26) = (   0.7500000   0.1443376   0.6989991  )
        27        Zn     tau(  27) = (   0.7500000   0.1443376   1.1649986  )
        28        Zn     tau(  28) = (   0.7500000   0.1443376   1.6309980  )
        29        Zn     tau(  29) = (   0.5000000   0.5773503   0.2329997  )
        30        Zn     tau(  30) = (   0.5000000   0.5773503   0.6989991  )
        31        Zn     tau(  31) = (   0.5000000   0.5773503   1.1649986  )
        32        Zn     tau(  32) = (   0.5000000   0.5773503   1.6309980  )

   Crystallographic axes

     site n.     atom                  positions (cryst. coord.)
         1        Zn     tau(   1) = (  0.1666667  0.3333333  0.0513044  )
         2        Zn     tau(   2) = (  0.1666667  0.3333333  0.1539131  )
         3        Zn     tau(   3) = (  0.1666667  0.3333333  0.2565219  )
         4        Zn     tau(   4) = (  0.1666667  0.3333333  0.3591306  )
         5        Zn     tau(   5) = (  0.1666667  0.8333333  0.0513044  )
         6        Zn     tau(   6) = (  0.1666667  0.8333333  0.1539131  )
         7        Zn     tau(   7) = (  0.1666667  0.8333333  0.2565219  )
         8        Zn     tau(   8) = (  0.1666667  0.8333333  0.3591306  )
         9        Zn     tau(   9) = (  0.6666667  0.3333333  0.0513044  )
        10        Zn     tau(  10) = (  0.6666667  0.3333333  0.1539131  )
        11        Zn     tau(  11) = (  0.6666667  0.3333333  0.2565219  )
        12        Zn     tau(  12) = (  0.6666667  0.3333333  0.3591306  )
        13        Zn     tau(  13) = (  0.6666667  0.8333333  0.0513044  )
        14        Zn     tau(  14) = (  0.6666667  0.8333333  0.1539131  )
        15        Zn     tau(  15) = (  0.6666667  0.8333333  0.2565219  )
        16        Zn     tau(  16) = (  0.6666667  0.8333333  0.3591306  )
        17        Zn     tau(  17) = (  0.3333333  0.1666667  0.0513044  )
        18        Zn     tau(  18) = (  0.3333333  0.1666667  0.1539131  )
        19        Zn     tau(  19) = (  0.3333333  0.1666667  0.2565219  )
        20        Zn     tau(  20) = (  0.3333333  0.1666667  0.3591306  )
        21        Zn     tau(  21) = (  0.3333333  0.6666667  0.0513044  )
        22        Zn     tau(  22) = (  0.3333333  0.6666667  0.1539131  )
        23        Zn     tau(  23) = (  0.3333333  0.6666667  0.2565219  )
        24        Zn     tau(  24) = (  0.3333333  0.6666667  0.3591306  )
        25        Zn     tau(  25) = (  0.8333333  0.1666667  0.0513044  )
        26        Zn     tau(  26) = (  0.8333333  0.1666667  0.1539131  )
        27        Zn     tau(  27) = (  0.8333333  0.1666667  0.2565219  )
        28        Zn     tau(  28) = (  0.8333333  0.1666667  0.3591306  )
        29        Zn     tau(  29) = (  0.8333333  0.6666667  0.0513044  )
        30        Zn     tau(  30) = (  0.8333333  0.6666667  0.1539131  )
        31        Zn     tau(  31) = (  0.8333333  0.6666667  0.2565219  )
        32        Zn     tau(  32) = (  0.8333333  0.6666667  0.3591306  )

     number of k points=     3  Marzari-Vanderbilt smearing, width (Ry)=  0.0200
                       cart. coord. in units 2pi/alat
        k(    1) = (   0.0000000   0.0000000   0.0000000), wk =   0.2222222
        k(    2) = (   0.0000000   0.3849002   0.0000000), wk =   1.3333333
        k(    3) = (   0.3333333   0.5773503   0.0000000), wk =   0.4444444

                       cryst. coord.
        k(    1) = (   0.0000000   0.0000000   0.0000000), wk =   0.2222222
        k(    2) = (   0.0000000   0.3333333   0.0000000), wk =   1.3333333
        k(    3) = (   0.3333333   0.3333333   0.0000000), wk =   0.4444444

     Dense  grid:    84229 G-vectors     FFT dimensions: (  36,  36, 160)

     Dynamical RAM for                 wfc:       2.05 MB

     Dynamical RAM for     wfc (w. buffer):       8.20 MB

     Dynamical RAM for           str. fact:       0.04 MB

     Dynamical RAM for           local pot:       0.00 MB

     Dynamical RAM for          nlocal pot:       3.08 MB

     Dynamical RAM for                qrad:       0.88 MB

     Dynamical RAM for          rho,v,vnew:       0.31 MB

     Dynamical RAM for               rhoin:       0.10 MB

     Dynamical RAM for            rho*nmix:       0.69 MB

     Dynamical RAM for           G-vectors:       0.18 MB

     Dynamical RAM for          h,s,v(r/c):       1.69 MB

     Dynamical RAM for          <psi|beta>:       3.38 MB

     Dynamical RAM for                 psi:       4.10 MB

     Dynamical RAM for                hpsi:       4.10 MB

     Dynamical RAM for                spsi:       4.10 MB

     Dynamical RAM for      wfcinit/wfcrot:       8.41 MB

     Dynamical RAM for           addusdens:       9.34 MB

     Dynamical RAM for          addusforce:      12.15 MB

     Dynamical RAM for         addusstress:       8.62 MB

     Estimated static dynamical RAM per process >      13.18 MB

     Estimated max dynamical RAM per process >      31.23 MB

     Estimated total dynamical RAM >     936.86 MB

     Initial potential from superposition of free atoms

     starting charge     639.9955, renormalised to     640.0000

     negative rho (up, down):  5.222E-04 0.000E+00
     Starting wfcs are  416 randomized atomic wfcs

     total cpu time spent up to now is        2.6 secs

     Self-consistent Calculation

     iteration #  1     ecut=    30.00 Ry     beta= 0.70
     Davidson diagonalization with overlap

---- Real-time Memory Report at c_bands before calling an iterative solver
            53 MiB given to the printing process from OS
             0 MiB allocation reported by mallinfo(arena+hblkhd)
        152328 MiB available memory on the node where the printing process lives
------------------
     ethr =  1.00E-02,  avg # of iterations =  8.0

     Threshold (ethr) on eigenvalues was too large:
     Diagonalizing with lowered threshold

     Davidson diagonalization with overlap

---- Real-time Memory Report at c_bands before calling an iterative solver
            64 MiB given to the printing process from OS
             0 MiB allocation reported by mallinfo(arena+hblkhd)
        152316 MiB available memory on the node where the printing process lives
------------------
     ethr =  8.43E-05,  avg # of iterations =  4.0

     negative rho (up, down):  1.955E-03 0.000E+00

     total cpu time spent up to now is       29.3 secs

     total energy              =  -14727.23510955 Ry
     estimated scf accuracy    <       0.53906056 Ry

     iteration #  2     ecut=    30.00 Ry     beta= 0.70
     Davidson diagonalization with overlap

---- Real-time Memory Report at c_bands before calling an iterative solver
            64 MiB given to the printing process from OS
             0 MiB allocation reported by mallinfo(arena+hblkhd)
        152301 MiB available memory on the node where the printing process lives
------------------
     ethr =  8.42E-05,  avg # of iterations =  7.3

     negative rho (up, down):  1.925E-03 0.000E+00

     total cpu time spent up to now is       45.8 secs

     total energy              =  -14726.50917154 Ry
     estimated scf accuracy    <       9.93162245 Ry

     iteration #  3     ecut=    30.00 Ry     beta= 0.70
     Davidson diagonalization with overlap

---- Real-time Memory Report at c_bands before calling an iterative solver
            64 MiB given to the printing process from OS
             0 MiB allocation reported by mallinfo(arena+hblkhd)
        152273 MiB available memory on the node where the printing process lives
------------------
     ethr =  8.42E-05,  avg # of iterations =  5.7

     negative rho (up, down):  2.377E-03 0.000E+00

     total cpu time spent up to now is       57.9 secs

     total energy              =  -14727.33185288 Ry
     estimated scf accuracy    <       1.19223456 Ry

     iteration #  4     ecut=    30.00 Ry     beta= 0.70
     Davidson diagonalization with overlap

---- Real-time Memory Report at c_bands before calling an iterative solver
            64 MiB given to the printing process from OS
             0 MiB allocation reported by mallinfo(arena+hblkhd)
        152269 MiB available memory on the node where the printing process lives
------------------
     ethr =  8.42E-05,  avg # of iterations =  4.0

     negative rho (up, down):  2.966E-03 0.000E+00

     total cpu time spent up to now is       67.4 secs

     total energy              =  -14727.42561998 Ry
     estimated scf accuracy    <       0.01530564 Ry

     iteration #  5     ecut=    30.00 Ry     beta= 0.70
     Davidson diagonalization with overlap

---- Real-time Memory Report at c_bands before calling an iterative solver
            64 MiB given to the printing process from OS
             0 MiB allocation reported by mallinfo(arena+hblkhd)
        152269 MiB available memory on the node where the printing process lives
------------------
     ethr =  2.39E-06,  avg # of iterations =  6.7

     negative rho (up, down):  2.972E-03 0.000E+00

     total cpu time spent up to now is       81.5 secs

     total energy              =  -14727.42277699 Ry
     estimated scf accuracy    <       0.21852777 Ry

     iteration #  6     ecut=    30.00 Ry     beta= 0.70
     Davidson diagonalization with overlap

---- Real-time Memory Report at c_bands before calling an iterative solver
            64 MiB given to the printing process from OS
             0 MiB allocation reported by mallinfo(arena+hblkhd)
        152268 MiB available memory on the node where the printing process lives
------------------
     ethr =  2.39E-06,  avg # of iterations =  4.0

     negative rho (up, down):  3.059E-03 0.000E+00

     total cpu time spent up to now is       90.5 secs

     total energy              =  -14727.42794279 Ry
     estimated scf accuracy    <       0.01873617 Ry

     iteration #  7     ecut=    30.00 Ry     beta= 0.70
     Davidson diagonalization with overlap

---- Real-time Memory Report at c_bands before calling an iterative solver
            64 MiB given to the printing process from OS
             0 MiB allocation reported by mallinfo(arena+hblkhd)
        152270 MiB available memory on the node where the printing process lives
------------------
     ethr =  2.39E-06,  avg # of iterations =  3.7

     negative rho (up, down):  3.109E-03 0.000E+00

     total cpu time spent up to now is       99.2 secs

     total energy              =  -14727.42843894 Ry
     estimated scf accuracy    <       0.00055224 Ry

     iteration #  8     ecut=    30.00 Ry     beta= 0.70
     Davidson diagonalization with overlap

---- Real-time Memory Report at c_bands before calling an iterative solver
            64 MiB given to the printing process from OS
             0 MiB allocation reported by mallinfo(arena+hblkhd)
        152269 MiB available memory on the node where the printing process lives
------------------
     ethr =  8.63E-08,  avg # of iterations =  2.0

     negative rho (up, down):  3.119E-03 0.000E+00

     total cpu time spent up to now is      107.4 secs

     total energy              =  -14727.42853070 Ry
     estimated scf accuracy    <       0.00008537 Ry

     iteration #  9     ecut=    30.00 Ry     beta= 0.70
     Davidson diagonalization with overlap

---- Real-time Memory Report at c_bands before calling an iterative solver
            64 MiB given to the printing process from OS
             0 MiB allocation reported by mallinfo(arena+hblkhd)
        152271 MiB available memory on the node where the printing process lives
------------------
     ethr =  1.33E-08,  avg # of iterations =  2.0

     negative rho (up, down):  3.121E-03 0.000E+00

     total cpu time spent up to now is      115.6 secs

     total energy              =  -14727.42853670 Ry
     estimated scf accuracy    <       0.00000686 Ry

     iteration # 10     ecut=    30.00 Ry     beta= 0.70
     Davidson diagonalization with overlap

---- Real-time Memory Report at c_bands before calling an iterative solver
            65 MiB given to the printing process from OS
             0 MiB allocation reported by mallinfo(arena+hblkhd)
        152269 MiB available memory on the node where the printing process lives
------------------
     ethr =  1.07E-09,  avg # of iterations =  2.0

     negative rho (up, down):  3.121E-03 0.000E+00

     total cpu time spent up to now is      123.8 secs

     total energy              =  -14727.42853723 Ry
     estimated scf accuracy    <       0.00000697 Ry

     iteration # 11     ecut=    30.00 Ry     beta= 0.70
     Davidson diagonalization with overlap

---- Real-time Memory Report at c_bands before calling an iterative solver
            65 MiB given to the printing process from OS
             0 MiB allocation reported by mallinfo(arena+hblkhd)
        152269 MiB available memory on the node where the printing process lives
------------------
     ethr =  1.07E-09,  avg # of iterations =  2.0

     negative rho (up, down):  3.121E-03 0.000E+00

     total cpu time spent up to now is      131.9 secs

     total energy              =  -14727.42853804 Ry
     estimated scf accuracy    <       0.00000079 Ry

     iteration # 12     ecut=    30.00 Ry     beta= 0.70
     Davidson diagonalization with overlap

---- Real-time Memory Report at c_bands before calling an iterative solver
            65 MiB given to the printing process from OS
             0 MiB allocation reported by mallinfo(arena+hblkhd)
        152269 MiB available memory on the node where the printing process lives
------------------
     ethr =  1.24E-10,  avg # of iterations =  1.7

     negative rho (up, down):  3.121E-03 0.000E+00

     total cpu time spent up to now is      139.6 secs

     End of self-consistent calculation

          k = 0.0000 0.0000 0.0000 ( 10573 PWs)   bands (ev):

  -121.9652-121.9593-121.9149-121.9131-121.2910-121.2910-121.2910-121.2861
  -121.2861-121.2861-121.2416-121.2416-121.2416-121.2408-121.2408-121.2408
  -120.5972-120.5972-120.5972-120.5952-120.5952-120.5952-120.5499-120.5499
  -120.5499-120.5496-120.5496-120.5496-119.8982-119.8975-119.8540-119.8503
   -77.7129 -77.7129 -77.7129 -77.7086 -77.7086 -77.7086 -77.6707 -77.6707
   -77.6707 -77.6697 -77.6697 -77.6697 -77.3862 -77.3862 -77.3803 -77.3803
   -77.3490 -77.3490 -77.3372 -77.3372 -76.5744 -76.5744 -76.5744 -76.5618
   -76.5618 -76.5618 -76.5255 -76.5255 -76.5255 -76.5254 -76.5254 -76.5254
   -75.0487 -75.0251 -74.9293 -74.9288 -74.6815 -74.6815 -74.6815 -74.6494
   -74.6494 -74.6494 -74.6469 -74.6469 -74.6469 -74.6316 -74.6316 -74.6316
   -74.6063 -74.6063 -74.6063 -74.5994 -74.5994 -74.5994 -74.5601 -74.5601
   -74.5601 -74.5536 -74.5536 -74.5536 -74.3087 -74.3087 -74.3087 -74.2741
   -74.2741 -74.2741 -74.1893 -74.1893 -74.1893 -74.1848 -74.1848 -74.1848
   -73.9454 -73.9074 -73.8107 -73.8033 -73.7980 -73.7980 -73.7885 -73.7885
   -73.7624 -73.7624 -73.7518 -73.7518 -73.4262 -73.4262 -73.4262 -73.4194
   -73.4194 -73.4194 -73.3909 -73.3909 -73.3909 -73.3858 -73.3858 -73.3858
    -7.8328  -7.8328  -7.8328  -7.7431  -7.7431  -7.7431  -7.6390  -7.6390
    -7.6390  -7.5996  -7.5996  -7.5996  -6.6354  -6.4174  -6.4174  -6.4174
    -6.3974  -6.3974  -6.3974  -6.3467  -6.3467  -6.3467  -6.3467  -6.3467
    -6.3466  -6.2814  -6.0609  -6.0023  -5.3580  -5.3580  -5.3580  -5.3436
    -5.0662  -5.0662  -5.0661  -5.0216  -5.0216  -5.0216  -4.7496  -4.7496
    -4.7496  -4.6030  -4.6030  -4.6030  -4.5844  -4.5844  -4.5844  -4.4301
    -4.4301  -4.3965  -4.2102  -4.2102  -4.0621  -4.0621  -4.0621  -3.9730
    -3.9730  -3.9730  -3.9453  -3.9453  -3.8128  -3.8128  -3.8060  -3.8060
    -3.8060  -3.6918  -3.6918  -3.6918  -3.6557  -3.6557  -3.6557  -3.6097
    -3.6097  -3.6097  -3.2242  -3.2242  -3.2080  -3.2080  -3.1654  -3.1654
    -3.1475  -3.1475  -3.1294  -3.1294  -3.1177  -3.1177  -3.0798  -3.0798
    -3.0540  -3.0540  -2.4601  -1.5574  -1.5574  -1.5574  -1.4752  -1.4752
    -1.4752  -1.3500  -1.3500  -1.3500  -0.9836  -0.9836  -0.9836  -0.5798
    -0.5798  -0.5798  -0.4875  -0.4875  -0.4875  -0.2547  -0.2547  -0.2547
    -0.1975  -0.1975  -0.1975  -0.0052  -0.0052  -0.0052   0.5065   0.5065
     0.5065   0.5118   0.5118   0.6330   0.6330   0.7720   0.7720   0.8172
     0.8172   0.8301   0.8382   1.1949   1.4461   1.4461   1.4461   1.5453
     1.5453   1.5453   1.5912   1.6082   1.6082   1.6082   1.6944   1.6944
     1.6944   1.7081   1.7081   1.7081   1.8368   1.8704   1.8704   1.8704
     1.8861   1.8861   1.8861   1.9115   1.9115   1.9115   1.9164   1.9164
     1.9164   1.9164   1.9164   1.9164   2.0805   2.0805   2.0805   2.4834
     3.1907   3.1907   3.1907   4.9974   4.9974   4.9974   5.7873   5.7873
     5.7873   6.1767   6.1767   6.1767   6.4133   6.7187   6.7187   6.7187
     7.1360   7.1360   7.1360   9.6015   9.6015   9.6015  10.0443  10.8865
    10.8865  10.8865  13.1996  13.1996  13.1996  13.4040  14.4150  14.5840
    14.5840  14.5840  14.7227  14.7227  14.7227  15.1220  15.3732  15.5870
    15.5870  15.5870  15.8472  15.8472  15.8472  16.8580  17.6167  17.6167
    17.6167  17.8972  18.2792  18.2792  18.2792  18.3337  18.3337  18.3337
    19.1665  19.1665  19.1665  19.8711  20.5769  20.5769  20.5769  21.2322
    21.2322  21.2322  21.2746  21.6071  21.6071  21.6071  21.8307  21.8307
    21.8307  21.9477  21.9477  21.9477  22.1415  22.1415  22.1415  22.2020
    22.2020  22.2020  22.8251  22.8251  22.8252  22.8709  22.8709  22.8709

     occupation numbers 
     1.0000   1.0000   1.0000   1.0000   1.0000   1.0000   1.0000   1.0000
     1.0000   1.0000   1.0000   1.0000   1.0000   1.0000   1.0000   1.0000
     1.0000   1.0000   1.0000   1.0000   1.0000   1.0000   1.0000   1.0000
     1.0000   1.0000   1.0000   1.0000   1.0000   1.0000   1.0000   1.0000
     1.0000   1.0000   1.0000   1.0000   1.0000   1.0000   1.0000   1.0000
     1.0000   1.0000   1.0000   1.0000   1.0000   1.0000   1.0000   1.0000
     1.0000   1.0000   1.0000   1.0000   1.0000   1.0000   1.0000   1.0000
     1.0000   1.0000   1.0000   1.0000   1.0000   1.0000   1.0000   1.0000
     1.0000   1.0000   1.0000   1.0000   1.0000   1.0000   1.0000   1.0000
     1.0000   1.0000   1.0000   1.0000   1.0000   1.0000   1.0000   1.0000
     1.0000   1.0000   1.0000   1.0000   1.0000   1.0000   1.0000   1.0000
     1.0000   1.0000   1.0000   1.0000   1.0000   1.0000   1.0000   1.0000
     1.0000   1.0000   1.0000   1.0000   1.0000   1.0000   1.0000   1.0000
     1.0000   1.0000   1.0000   1.0000   1.0000   1.0000   1.0000   1.0000
     1.0000   1.0000   1.0000   1.0000   1.0000   1.0000   1.0000   1.0000
     1.0000   1.0000   1.0000   1.0000   1.0000   1.0000   1.0000   1.0000
     1.0000   1.0000   1.0000   1.0000   1.0000   1.0000   1.0000   1.0000
     1.0000   1.0000   1.0000   1.0000   1.0000   1.0000   1.0000   1.0000
     1.0000   1.0000   1.0000   1.0000   1.0000   1.0000   1.0000   1.0000
     1.0000   1.0000   1.0000   1.0000   1.0000   1.0000   1.0000   1.0000
     1.0000   1.0000   1.0000   1.0000   1.0000   1.0000   1.0000   1.0000
     1.0000   1.0000   1.0000   1.0000   1.0000   1.0000   1.0000   1.0000
     1.0000   1.0000   1.0000   1.0000   1.0000   1.0000   1.0000   1.0000
     1.0000   1.0000   1.0000   1.0000   1.0000   1.0000   1.0000   1.0000
     1.0000   1.0000   1.0000   1.0000   1.0000   1.0000   1.0000   1.0000
     1.0000   1.0000   1.0000   1.0000   1.0000   1.0000   1.0000   1.0000
     1.0000   1.0000   1.0000   1.0000   1.0000   1.0000   1.0000   1.0000
     1.0000   1.0000   1.0000   1.0000   1.0000   1.0000   1.0000   1.0000
     1.0000   1.0000   1.0000   1.0000   1.0000   1.0000   1.0000   1.0000
     1.0000   1.0000   1.0000   1.0000   1.0000   1.0000   1.0000   1.0000
     1.0000   1.0000   1.0000   1.0000   1.0000   1.0000   1.0000   1.0000
     1.0000   1.0000   1.0000   1.0000   1.0000   1.0000   1.0000   1.0000
     1.0000   1.0000   1.0000   1.0000   1.0000   1.0000   1.0000   1.0000
     1.0000   1.0000   1.0000   1.0000   1.0000   1.0000   1.0000   1.0000
     1.0000   1.0000   1.0000   1.0000   1.0000   1.0000   1.0000   1.0000
     1.0000   1.0000   1.0000   1.0000   1.0000   1.0000   1.0000   1.0000
     1.0000   1.0000   1.0000   1.0000   1.0000   1.0000   1.0000   1.0000
     1.0000   1.0000   1.0000   1.0000   1.0000   1.0000   1.0000   1.0000
     1.0000   1.0000   1.0000   1.0000   1.0000   1.0000   1.0000   1.0000
     1.0000   1.0000   1.0000   1.0000   1.0000   1.0000   1.0000   1.0805
     1.0805   1.0805   0.0000   0.0000   0.0000   0.0000   0.0000   0.0000
     0.0000   0.0000   0.0000   0.0000   0.0000   0.0000   0.0000   0.0000
     0.0000   0.0000   0.0000   0.0000   0.0000   0.0000   0.0000   0.0000
     0.0000   0.0000   0.0000   0.0000   0.0000   0.0000   0.0000   0.0000
     0.0000   0.0000   0.0000   0.0000   0.0000   0.0000   0.0000   0.0000
     0.0000   0.0000   0.0000   0.0000   0.0000   0.0000   0.0000   0.0000
     0.0000   0.0000   0.0000   0.0000   0.0000   0.0000   0.0000   0.0000
     0.0000   0.0000   0.0000   0.0000   0.0000   0.0000   0.0000   0.0000

          k = 0.0000 0.3849 0.0000 ( 10529 PWs)   bands (ev):

  -121.8437-121.8401-121.7943-121.7940-121.5351-121.5327-121.4870-121.4860
  -121.2886-121.2886-121.2861-121.2861-121.2406-121.2406-121.2399-121.2399
  -120.6012-120.6012-120.5998-120.5998-120.5543-120.5543-120.5539-120.5539
  -120.3438-120.3413-120.2966-120.2961-120.0201-120.0183-119.9734-119.9733
   -77.8145 -77.8145 -77.8080 -77.8080 -77.7710 -77.7710 -77.7697 -77.7697
   -77.6406 -77.6319 -77.5946 -77.5935 -77.4697 -77.4627 -77.4259 -77.4240
   -77.1985 -77.1943 -77.1584 -77.1553 -76.8172 -76.8145 -76.7806 -76.7736
   -76.3655 -76.3655 -76.3576 -76.3576 -76.3233 -76.3233 -76.3226 -76.3226
   -74.9840 -74.9543 -74.8624 -74.8613 -74.8326 -74.8326 -74.8295 -74.8295
   -74.8165 -74.7962 -74.7962 -74.7961 -74.7960 -74.7844 -74.6936 -74.6919
   -74.6778 -74.6778 -74.6460 -74.6460 -74.5575 -74.5575 -74.5526 -74.5526
   -74.3655 -74.3637 -74.3324 -74.3282 -74.3105 -74.3105 -74.2751 -74.2751
   -74.1878 -74.1878 -74.1864 -74.1864 -74.1697 -74.1393 -74.0515 -74.0481
   -74.0061 -73.9697 -73.9584 -73.9548 -73.9244 -73.9223 -73.8830 -73.8709
   -73.6937 -73.6863 -73.6571 -73.6561 -73.5113 -73.5009 -73.4730 -73.4722
   -73.3451 -73.3451 -73.3421 -73.3421 -73.3129 -73.3129 -73.3104 -73.3104
    -8.3921  -8.3921  -8.3069  -8.3069  -8.2154  -8.2154  -8.1855  -8.1855
    -7.1642  -7.0796  -6.9775  -6.9383  -6.0249  -5.9929  -5.9477  -5.9459
    -5.9358  -5.9358  -5.7582  -5.6283  -5.6133  -5.5774  -5.5774  -5.5396
    -5.5387  -5.4330  -5.4330  -5.3999  -5.3999  -5.3561  -5.3561  -5.3543
    -5.3543  -5.2892  -5.1507  -5.1454  -5.1454  -5.0808  -5.0196  -4.9143
    -4.9071  -4.9071  -4.8753  -4.8738  -4.8258  -4.8089  -4.8075  -4.6872
    -4.6425  -4.5740  -4.4767  -4.4627  -4.4457  -4.4430  -4.4125  -4.3108
    -4.2580  -4.1927  -4.1694  -4.1641  -4.1581  -4.1581  -4.0744  -4.0744
    -4.0457  -4.0457  -4.0224  -4.0103  -3.9383  -3.9383  -3.9212  -3.9212
    -3.8997  -3.7897  -3.7530  -3.7530  -3.7475  -3.6956  -3.3445  -3.3445
    -3.0820  -3.0820  -2.8668  -2.2949  -2.2594  -2.0733  -2.0733  -1.9802
    -1.9802  -1.8795  -1.8795  -1.8024  -1.5185  -1.4290  -1.3698  -1.3387
    -1.1240  -1.0633  -0.9974  -0.9804  -0.9077  -0.9077  -0.9048  -0.9048
    -0.7818  -0.6649  -0.6649  -0.5649  -0.4808  -0.4808  -0.3403  -0.3393
    -0.3221  -0.2280  -0.0641  -0.0641  -0.0629  -0.0629  -0.0429  -0.0225
     0.1497   0.1497   0.1857   0.4421   0.5193   0.5193   0.5739   0.6534
     0.6595   0.8051   0.8191   0.8191   0.8971   0.9162   0.9409   0.9892
     1.0061   1.0330   1.0603   1.0640   1.1891   1.2376   1.2376   1.2477
     1.3203   1.4044   1.4953   1.5013   1.5079   1.7054   1.7054   1.7641
     1.7641   1.7754   1.8472   1.8472   1.8522   1.8522   1.8525   1.8531
     1.9848   2.1034   2.1034   2.7761   2.7761   2.9614   2.9614   3.0127
     3.0127   3.1644   3.1644   3.8250   3.9607   3.9607   4.2357   5.8791
     5.8791   7.2565   7.2565   7.3296   7.6221   8.0092   8.0092   8.9736
     8.9736   9.9956  10.0360  10.5069  10.5069  11.1391  11.1391  11.1431
    11.2852  11.4071  11.4071  12.1222  12.1222  12.2711  13.7253  13.7253
    13.7366  13.7366  14.3286  14.4426  14.9692  15.2466  15.3582  15.3582
    16.0318  16.0318  16.0458  16.0664  16.1877  16.8470  16.8470  16.9727
    17.0169  17.3147  17.5747  17.7790  17.7860  18.1173  18.2999  18.2999
    18.7199  18.7270  18.7524  19.1168  19.4163  19.4163  19.4551  19.4551
    19.6012  19.7929  20.2098  20.2098  20.3949  20.7428  20.7647  20.7657
    20.8428  21.1018  21.1542  21.1542  21.2217  21.2217  21.4746  21.4746
    21.9975  22.1779  22.1779  22.1945  22.4583  22.7411  22.7634  22.8489

     occupation numbers 
     1.0000   1.0000   1.0000   1.0000   1.0000   1.0000   1.0000   1.0000
     1.0000   1.0000   1.0000   1.0000   1.0000   1.0000   1.0000   1.0000
     1.0000   1.0000   1.0000   1.0000   1.0000   1.0000   1.0000   1.0000
     1.0000   1.0000   1.0000   1.0000   1.0000   1.0000   1.0000   1.0000
     1.0000   1.0000   1.0000   1.0000   1.0000   1.0000   1.0000   1.0000
     1.0000   1.0000   1.0000   1.0000   1.0000   1.0000   1.0000   1.0000
     1.0000   1.0000   1.0000   1.0000   1.0000   1.0000   1.0000   1.0000
     1.0000   1.0000   1.0000   1.0000   1.0000   1.0000   1.0000   1.0000
     1.0000   1.0000   1.0000   1.0000   1.0000   1.0000   1.0000   1.0000
     1.0000   1.0000   1.0000   1.0000   1.0000   1.0000   1.0000   1.0000
     1.0000   1.0000   1.0000   1.0000   1.0000   1.0000   1.0000   1.0000
     1.0000   1.0000   1.0000   1.0000   1.0000   1.0000   1.0000   1.0000
     1.0000   1.0000   1.0000   1.0000   1.0000   1.0000   1.0000   1.0000
     1.0000   1.0000   1.0000   1.0000   1.0000   1.0000   1.0000   1.0000
     1.0000   1.0000   1.0000   1.0000   1.0000   1.0000   1.0000   1.0000
     1.0000   1.0000   1.0000   1.0000   1.0000   1.0000   1.0000   1.0000
     1.0000   1.0000   1.0000   1.0000   1.0000   1.0000   1.0000   1.0000
     1.0000   1.0000   1.0000   1.0000   1.0000   1.0000   1.0000   1.0000
     1.0000   1.0000   1.0000   1.0000   1.0000   1.0000   1.0000   1.0000
     1.0000   1.0000   1.0000   1.0000   1.0000   1.0000   1.0000   1.0000
     1.0000   1.0000   1.0000   1.0000   1.0000   1.0000   1.0000   1.0000
     1.0000   1.0000   1.0000   1.0000   1.0000   1.0000   1.0000   1.0000
     1.0000   1.0000   1.0000   1.0000   1.0000   1.0000   1.0000   1.0000
     1.0000   1.0000   1.0000   1.0000   1.0000   1.0000   1.0000   1.0000
     1.0000   1.0000   1.0000   1.0000   1.0000   1.0000   1.0000   1.0000
     1.0000   1.0000   1.0000   1.0000   1.0000   1.0000   1.0000   1.0000
     1.0000   1.0000   1.0000   1.0000   1.0000   1.0000   1.0000   1.0000
     1.0000   1.0000   1.0000   1.0000   1.0000   1.0000   1.0000   1.0000
     1.0000   1.0000   1.0000   1.0000   1.0000   1.0000   1.0000   1.0000
     1.0000   1.0000   1.0000   1.0000   1.0000   1.0000   1.0000   1.0000
     1.0000   1.0000   1.0000   1.0000   1.0000   1.0000   1.0000   1.0000
     1.0000   1.0000   1.0000   1.0000   1.0000   1.0000   1.0000   1.0000
     1.0000   1.0000   1.0000   1.0000   1.0000   1.0000   1.0000   1.0000
     1.0000   1.0000   1.0000   1.0000   1.0000   1.0000   1.0000   1.0000
     1.0000   1.0000   1.0000   1.0000   1.0000   1.0000   1.0000   1.0000
     1.0000   1.0000   1.0000   1.0000   1.0000   1.0000   1.0000   1.0000
     1.0000   1.0000   1.0000   1.0000   1.0000   1.0000   1.0000   1.0000
     1.0000   1.0000   1.0000   1.0000   1.0000   1.0000   1.0000   1.0000
     1.0000   1.0000   1.0000   1.0000   1.0000   1.0000   1.0000   1.0000
     1.0000   1.0000   1.0000   1.0021   1.0021   0.8340   0.8340   0.8246
     0.4445   0.1822   0.1822   0.0000   0.0000   0.0000   0.0000   0.0000
     0.0000   0.0000   0.0000   0.0000   0.0000   0.0000   0.0000   0.0000
     0.0000   0.0000   0.0000   0.0000   0.0000   0.0000   0.0000   0.0000
     0.0000   0.0000   0.0000   0.0000   0.0000   0.0000   0.0000   0.0000
     0.0000   0.0000   0.0000   0.0000   0.0000   0.0000   0.0000   0.0000
     0.0000   0.0000   0.0000   0.0000   0.0000   0.0000   0.0000   0.0000
     0.0000   0.0000   0.0000   0.0000   0.0000   0.0000   0.0000   0.0000
     0.0000   0.0000   0.0000   0.0000   0.0000   0.0000   0.0000   0.0000

          k = 0.3333 0.5774 0.0000 ( 10518 PWs)   bands (ev):

  -121.6259-121.6259-121.6259-121.6235-121.6235-121.6235-121.5780-121.5780
  -121.5780-121.5765-121.5765-121.5765-120.9485-120.9485-120.9440-120.9440
  -120.8993-120.8993-120.8990-120.8990-120.2486-120.2486-120.2486-120.2480
  -120.2480-120.2480-120.2024-120.2024-120.2024-120.2021-120.2021-120.2021
   -77.9270 -77.9171 -77.8796 -77.8753 -77.6368 -77.6368 -77.6368 -77.6344
   -77.6344 -77.6344 -77.5960 -77.5960 -77.5960 -77.5947 -77.5947 -77.5947
   -76.8616 -76.8616 -76.8616 -76.8592 -76.8592 -76.8592 -76.8228 -76.8228
   -76.8228 -76.8204 -76.8204 -76.8204 -75.5980 -75.5980 -75.5898 -75.5898
   -75.5553 -75.5553 -75.5549 -75.5549 -74.8684 -74.8684 -74.8684 -74.8365
   -74.8365 -74.8365 -74.7476 -74.7476 -74.7476 -74.7419 -74.7419 -74.7419
   -74.4894 -74.4894 -74.4609 -74.4609 -74.3772 -74.3772 -74.3621 -74.3621
   -74.3076 -74.3076 -74.3076 -74.3015 -74.3015 -74.3015 -74.2718 -74.2718
   -74.2718 -74.2688 -74.2688 -74.2688 -74.1258 -74.1258 -74.1258 -74.0884
   -74.0884 -74.0884 -74.0032 -74.0032 -74.0032 -73.9984 -73.9984 -73.9984
   -73.5230 -73.5230 -73.5230 -73.5157 -73.5157 -73.5157 -73.4865 -73.4865
   -73.4865 -73.4853 -73.4853 -73.4853 -73.2380 -73.2363 -73.2074 -73.2025
    -9.0076  -8.9229  -8.8239  -8.7836  -7.1602  -7.1602  -7.1602  -7.0669
    -7.0669  -7.0669  -6.9758  -6.9758  -6.9758  -6.9483  -6.9483  -6.9483
    -6.2914  -5.9114  -5.4665  -5.3527  -5.3527  -5.3527  -5.1919  -5.1910
    -5.1910  -5.1910  -5.1704  -5.1704  -5.1704  -5.1222  -5.1222  -5.1222
    -5.1191  -5.1191  -5.1191  -5.0537  -5.0537  -5.0537  -4.7796  -4.7796
    -4.7796  -4.7005  -4.7005  -4.7005  -4.6817  -4.6817  -4.6817  -4.5856
    -4.5856  -4.5856  -4.5715  -4.5715  -4.5715  -4.5107  -4.5107  -4.4790
    -4.4790  -4.4790  -4.4719  -4.4719  -4.4090  -4.4090  -4.4052  -4.4052
    -4.2632  -4.2632  -4.2632  -3.9777  -3.9777  -3.9777  -3.6545  -3.6545
    -3.6545  -3.5989  -3.5989  -3.5989  -3.4841  -3.4841  -3.4841  -2.9881
    -2.9881  -2.8387  -2.8387  -2.8387  -2.7268  -2.7268  -2.3360  -2.3360
    -2.1120  -2.1120  -2.1120  -1.9676  -1.9676  -1.1143  -1.1143  -0.9684
    -0.9684  -0.9684  -0.8408  -0.8408  -0.8408  -0.7065  -0.7065  -0.7065
    -0.6473  -0.6473  -0.6473  -0.4490  -0.4490  -0.4191  -0.4191  -0.4191
    -0.4172  -0.4172  -0.4172  -0.1748  -0.1748  -0.1748   0.0495   0.0495
     0.0495   0.1217   0.1217   0.1217   0.1700   0.1700   0.3628   0.3628
     0.3628   0.4512   0.4512   0.4512   0.5107   0.5107   1.0687   1.0687
     1.0687   1.1840   1.1840   1.1840   1.2673   1.2673   1.2673   1.3479
     1.3479   1.3479   1.4456   1.4456   1.4456   1.4551   1.4552   1.4552
     1.4719   1.4719   1.4719   1.7798   1.7798   1.7798   1.9425   1.9848
     2.0133   2.0133   2.0133   2.0578   2.0717   3.1112   3.1112   3.1112
     4.1306   4.1360   4.1609   4.1627   4.7036   5.7772   5.8388   5.8388
     6.4548   6.4548   6.4548   6.7672   6.7672   7.2335   8.4720   8.4720
     8.4910   9.5634   9.5634   9.5634  11.0647  11.0647  12.8068  12.8068
    12.8068  13.4199  13.4199  13.4199  13.4542  13.4542  13.7444  13.7444
    13.7444  14.4385  14.4385  14.4385  14.4676  14.4676  14.4676  15.8891
    16.1749  16.1749  16.1749  16.3904  16.3904  16.3904  16.6143  16.6143
    16.6144  16.9533  16.9533  16.9533  17.0341  17.0341  17.8757  17.8757
    17.8757  17.9136  17.9136  17.9136  17.9967  18.4556  18.4556  18.4556
    18.6782  18.6782  18.6782  19.6639  19.6639  19.6639  20.4051  20.4051
    20.4051  20.5416  20.6106  20.6106  20.8565  20.8565  20.8565  21.4547
    21.4547  21.4547  22.5335  22.5335  22.5335  22.8296  23.5412  23.5412

     occupation numbers 
     1.0000   1.0000   1.0000   1.0000   1.0000   1.0000   1.0000   1.0000
     1.0000   1.0000   1.0000   1.0000   1.0000   1.0000   1.0000   1.0000
     1.0000   1.0000   1.0000   1.0000   1.0000   1.0000   1.0000   1.0000
     1.0000   1.0000   1.0000   1.0000   1.0000   1.0000   1.0000   1.0000
     1.0000   1.0000   1.0000   1.0000   1.0000   1.0000   1.0000   1.0000
     1.0000   1.0000   1.0000   1.0000   1.0000   1.0000   1.0000   1.0000
     1.0000   1.0000   1.0000   1.0000   1.0000   1.0000   1.0000   1.0000
     1.0000   1.0000   1.0000   1.0000   1.0000   1.0000   1.0000   1.0000
     1.0000   1.0000   1.0000   1.0000   1.0000   1.0000   1.0000   1.0000
     1.0000   1.0000   1.0000   1.0000   1.0000   1.0000   1.0000   1.0000
     1.0000   1.0000   1.0000   1.0000   1.0000   1.0000   1.0000   1.0000
     1.0000   1.0000   1.0000   1.0000   1.0000   1.0000   1.0000   1.0000
     1.0000   1.0000   1.0000   1.0000   1.0000   1.0000   1.0000   1.0000
     1.0000   1.0000   1.0000   1.0000   1.0000   1.0000   1.0000   1.0000
     1.0000   1.0000   1.0000   1.0000   1.0000   1.0000   1.0000   1.0000
     1.0000   1.0000   1.0000   1.0000   1.0000   1.0000   1.0000   1.0000
     1.0000   1.0000   1.0000   1.0000   1.0000   1.0000   1.0000   1.0000
     1.0000   1.0000   1.0000   1.0000   1.0000   1.0000   1.0000   1.0000
     1.0000   1.0000   1.0000   1.0000   1.0000   1.0000   1.0000   1.0000
     1.0000   1.0000   1.0000   1.0000   1.0000   1.0000   1.0000   1.0000
     1.0000   1.0000   1.0000   1.0000   1.0000   1.0000   1.0000   1.0000
     1.0000   1.0000   1.0000   1.0000   1.0000   1.0000   1.0000   1.0000
     1.0000   1.0000   1.0000   1.0000   1.0000   1.0000   1.0000   1.0000
     1.0000   1.0000   1.0000   1.0000   1.0000   1.0000   1.0000   1.0000
     1.0000   1.0000   1.0000   1.0000   1.0000   1.0000   1.0000   1.0000
     1.0000   1.0000   1.0000   1.0000   1.0000   1.0000   1.0000   1.0000
     1.0000   1.0000   1.0000   1.0000   1.0000   1.0000   1.0000   1.0000
     1.0000   1.0000   1.0000   1.0000   1.0000   1.0000   1.0000   1.0000
     1.0000   1.0000   1.0000   1.0000   1.0000   1.0000   1.0000   1.0000
     1.0000   1.0000   1.0000   1.0000   1.0000   1.0000   1.0000   1.0000
     1.0000   1.0000   1.0000   1.0000   1.0000   1.0000   1.0000   1.0000
     1.0000   1.0000   1.0000   1.0000   1.0000   1.0000   1.0000   1.0000
     1.0000   1.0000   1.0000   1.0000   1.0000   1.0000   1.0000   1.0000
     1.0000   1.0000   1.0000   1.0000   1.0000   1.0000   1.0000   1.0000
     1.0000   1.0000   1.0000   1.0000   1.0000   1.0000   1.0000   1.0000
     1.0000   1.0000   1.0000   1.0000   1.0000   1.0000   1.0000   1.0000
     1.0000   1.0000   1.0000   1.0000   1.0000   1.0000   1.0000   1.0000
     1.0000   1.0000   1.0000   1.0000   1.0000   1.0000   1.0000   1.0000
     1.0000   1.0000   1.0000   1.0000   1.0000   1.0000   1.0000   1.0000
     1.0000   1.0000   1.0000   1.0000   0.9809   0.9809   0.0000   0.0000
     0.0000   0.0000   0.0000   0.0000   0.0000   0.0000   0.0000   0.0000
     0.0000   0.0000   0.0000   0.0000   0.0000   0.0000   0.0000   0.0000
     0.0000   0.0000   0.0000   0.0000   0.0000   0.0000   0.0000   0.0000
     0.0000   0.0000   0.0000   0.0000   0.0000   0.0000   0.0000   0.0000
     0.0000   0.0000   0.0000   0.0000   0.0000   0.0000   0.0000   0.0000
     0.0000   0.0000   0.0000   0.0000   0.0000   0.0000   0.0000   0.0000
     0.0000   0.0000   0.0000   0.0000   0.0000   0.0000   0.0000   0.0000
     0.0000   0.0000   0.0000   0.0000   0.0000   0.0000   0.0000   0.0000

     the Fermi energy is    11.3023 ev

!    total energy              =  -14727.42853807 Ry
     estimated scf accuracy    <       0.00000003 Ry
     smearing contrib. (-TS)   =      -0.01139150 Ry
     internal energy E=F+TS    =  -14727.41714657 Ry

     The total energy is F=E-TS. E is the sum of the following terms:
     one-electron contribution = -173862.46873197 Ry
     hartree contribution      =   87002.38047784 Ry
     xc contribution           =   -1379.09915680 Ry
     ewald contribution        =   73511.77026437 Ry

     convergence has been achieved in  12 iterations

     Forces acting on atoms (cartesian axes, Ry/au):

     atom    1 type  1   force =     0.00000000   -0.00000232   -0.10640920
     atom    2 type  1   force =     0.00000000   -0.00000331    0.01178837
     atom    3 type  1   force =     0.00000000   -0.00000347   -0.01167028
     atom    4 type  1   force =    -0.00000000   -0.00000414    0.10629140
     atom    5 type  1   force =    -0.00000201    0.00000116   -0.10640920
     atom    6 type  1   force =    -0.00000287    0.00000165    0.01178837
     atom    7 type  1   force =    -0.00000300    0.00000173   -0.01167028
     atom    8 type  1   force =    -0.00000359    0.00000207    0.10629140
     atom    9 type  1   force =    -0.00000000   -0.00000000   -0.10640962
     atom   10 type  1   force =    -0.00000000   -0.00000000    0.01178795
     atom   11 type  1   force =     0.00000000   -0.00000000   -0.01167055
     atom   12 type  1   force =     0.00000000    0.00000000    0.10629134
     atom   13 type  1   force =     0.00000201    0.00000116   -0.10640920
     atom   14 type  1   force =     0.00000287    0.00000165    0.01178837
     atom   15 type  1   force =     0.00000300    0.00000173   -0.01167028
     atom   16 type  1   force =     0.00000359    0.00000207    0.10629140
     atom   17 type  1   force =    -0.00000201   -0.00000116   -0.10640920
     atom   18 type  1   force =    -0.00000287   -0.00000165    0.01178837
     atom   19 type  1   force =    -0.00000300   -0.00000173   -0.01167028
     atom   20 type  1   force =    -0.00000359   -0.00000207    0.10629140
     atom   21 type  1   force =     0.00000000    0.00000000   -0.10640962
     atom   22 type  1   force =     0.00000000   -0.00000000    0.01178795
     atom   23 type  1   force =     0.00000000    0.00000000   -0.01167055
     atom   24 type  1   force =     0.00000000    0.00000000    0.10629134
     atom   25 type  1   force =     0.00000201   -0.00000116   -0.10640920
     atom   26 type  1   force =     0.00000287   -0.00000165    0.01178837
     atom   27 type  1   force =     0.00000300   -0.00000173   -0.01167028
     atom   28 type  1   force =     0.00000359   -0.00000207    0.10629140
     atom   29 type  1   force =     0.00000000    0.00000232   -0.10640920
     atom   30 type  1   force =     0.00000000    0.00000331    0.01178837
     atom   31 type  1   force =     0.00000000    0.00000347   -0.01167028
     atom   32 type  1   force =    -0.00000000    0.00000414    0.10629140
     The non-local contrib.  to forces
     atom    1 type  1   force =     0.00000000   -0.00000144    0.36639564
     atom    2 type  1   force =     0.00000000   -0.00000194   -0.04902846
     atom    3 type  1   force =     0.00000000   -0.00000213    0.04911239
     atom    4 type  1   force =     0.00000000   -0.00000252   -0.36648172
     atom    5 type  1   force =    -0.00000125    0.00000072    0.36639564
     atom    6 type  1   force =    -0.00000168    0.00000097   -0.04902846
     atom    7 type  1   force =    -0.00000184    0.00000106    0.04911239
     atom    8 type  1   force =    -0.00000219    0.00000126   -0.36648172
     atom    9 type  1   force =     0.00000000   -0.00000000    0.36639538
     atom   10 type  1   force =     0.00000000    0.00000000   -0.04902862
     atom   11 type  1   force =     0.00000000   -0.00000000    0.04911222
     atom   12 type  1   force =     0.00000000    0.00000000   -0.36648167
     atom   13 type  1   force =     0.00000125    0.00000072    0.36639564
     atom   14 type  1   force =     0.00000168    0.00000097   -0.04902846
     atom   15 type  1   force =     0.00000184    0.00000106    0.04911239
     atom   16 type  1   force =     0.00000219    0.00000126   -0.36648172
     atom   17 type  1   force =    -0.00000125   -0.00000072    0.36639564
     atom   18 type  1   force =    -0.00000168   -0.00000097   -0.04902846
     atom   19 type  1   force =    -0.00000184   -0.00000106    0.04911239
     atom   20 type  1   force =    -0.00000219   -0.00000126   -0.36648172
     atom   21 type  1   force =     0.00000000    0.00000000    0.36639538
     atom   22 type  1   force =     0.00000000    0.00000000   -0.04902862
     atom   23 type  1   force =     0.00000000    0.00000000    0.04911222
     atom   24 type  1   force =     0.00000000    0.00000000   -0.36648167
     atom   25 type  1   force =     0.00000125   -0.00000072    0.36639564
     atom   26 type  1   force =     0.00000168   -0.00000097   -0.04902846
     atom   27 type  1   force =     0.00000184   -0.00000106    0.04911239
     atom   28 type  1   force =     0.00000219   -0.00000126   -0.36648172
     atom   29 type  1   force =     0.00000000    0.00000144    0.36639564
     atom   30 type  1   force =     0.00000000    0.00000194   -0.04902846
     atom   31 type  1   force =     0.00000000    0.00000213    0.04911239
     atom   32 type  1   force =     0.00000000    0.00000252   -0.36648172
     The ionic contribution  to forces
     atom    1 type  1   force =     0.00000390   -0.00000203 -842.04002068
     atom    2 type  1   force =     0.00000393   -0.00000204 -280.39736088
     atom    3 type  1   force =     0.00000393   -0.00000204  280.39736088
     atom    4 type  1   force =     0.00000390   -0.00000203  842.04002068
     atom    5 type  1   force =     0.00000389   -0.00000220 -842.04002068
     atom    6 type  1   force =     0.00000392   -0.00000222 -280.39736088
     atom    7 type  1   force =     0.00000392   -0.00000222  280.39736088
     atom    8 type  1   force =     0.00000389   -0.00000220  842.04002068
     atom    9 type  1   force =     0.00000377   -0.00000212 -842.04002067
     atom   10 type  1   force =     0.00000380   -0.00000213 -280.39736088
     atom   11 type  1   force =     0.00000380   -0.00000213  280.39736088
     atom   12 type  1   force =     0.00000377   -0.00000212  842.04002067
     atom   13 type  1   force =     0.00000376   -0.00000229 -842.04002068
     atom   14 type  1   force =     0.00000379   -0.00000231 -280.39736088
     atom   15 type  1   force =     0.00000379   -0.00000231  280.39736088
     atom   16 type  1   force =     0.00000376   -0.00000229  842.04002068
     atom   17 type  1   force =    -0.00000376    0.00000229 -842.04002068
     atom   18 type  1   force =    -0.00000379    0.00000231 -280.39736088
     atom   19 type  1   force =    -0.00000379    0.00000231  280.39736088
     atom   20 type  1   force =    -0.00000376    0.00000229  842.04002068
     atom   21 type  1   force =    -0.00000377    0.00000212 -842.04002067
     atom   22 type  1   force =    -0.00000380    0.00000213 -280.39736088
     atom   23 type  1   force =    -0.00000380    0.00000213  280.39736088
     atom   24 type  1   force =    -0.00000377    0.00000212  842.04002067
     atom   25 type  1   force =    -0.00000389    0.00000220 -842.04002068
     atom   26 type  1   force =    -0.00000392    0.00000222 -280.39736088
     atom   27 type  1   force =    -0.00000392    0.00000222  280.39736088
     atom   28 type  1   force =    -0.00000389    0.00000220  842.04002068
     atom   29 type  1   force =    -0.00000390    0.00000203 -842.04002068
     atom   30 type  1   force =    -0.00000393    0.00000204 -280.39736088
     atom   31 type  1   force =    -0.00000393    0.00000204  280.39736088
     atom   32 type  1   force =    -0.00000390    0.00000203  842.04002068
     The local contribution  to forces
     atom    1 type  1   force =     0.00001365   -0.00000483  841.56665868
     atom    2 type  1   force =     0.00001366   -0.00000325  280.45754954
     atom    3 type  1   force =     0.00001366   -0.00000308 -280.45769618
     atom    4 type  1   force =     0.00001365   -0.00000216 -841.56658478
     atom    5 type  1   force =     0.00001651   -0.00000988  841.56665868
     atom    6 type  1   force =     0.00001791   -0.00001069  280.45754954
     atom    7 type  1   force =     0.00001806   -0.00001078 -280.45769618
     atom    8 type  1   force =     0.00001883   -0.00001122 -841.56658478
     atom    9 type  1   force =     0.00001328   -0.00000796  841.56665894
     atom   10 type  1   force =     0.00001330   -0.00000797  280.45754930
     atom   11 type  1   force =     0.00001330   -0.00000797 -280.45769646
     atom   12 type  1   force =     0.00001328   -0.00000796 -841.56658571
     atom   13 type  1   force =     0.00001073   -0.00000988  841.56665868
     atom   14 type  1   force =     0.00000937   -0.00001069  280.45754954
     atom   15 type  1   force =     0.00000922   -0.00001078 -280.45769618
     atom   16 type  1   force =     0.00000841   -0.00001122 -841.56658478
     atom   17 type  1   force =    -0.00001115    0.00000915  841.56665868
     atom   18 type  1   force =    -0.00000979    0.00000996  280.45754954
     atom   19 type  1   force =    -0.00000964    0.00001004 -280.45769618
     atom   20 type  1   force =    -0.00000883    0.00001049 -841.56658478
     atom   21 type  1   force =    -0.00001370    0.00000722  841.56665894
     atom   22 type  1   force =    -0.00001372    0.00000723  280.45754930
     atom   23 type  1   force =    -0.00001372    0.00000723 -280.45769646
     atom   24 type  1   force =    -0.00001370    0.00000722 -841.56658571
     atom   25 type  1   force =    -0.00001693    0.00000915  841.56665868
     atom   26 type  1   force =    -0.00001833    0.00000996  280.45754954
     atom   27 type  1   force =    -0.00001848    0.00001004 -280.45769618
     atom   28 type  1   force =    -0.00001925    0.00001049 -841.56658478
     atom   29 type  1   force =    -0.00001407    0.00000410  841.56665868
     atom   30 type  1   force =    -0.00001408    0.00000251  280.45754954
     atom   31 type  1   force =    -0.00001408    0.00000234 -280.45769618
     atom   32 type  1   force =    -0.00001407    0.00000142 -841.56658478
     The core correction contribution to forces
     atom    1 type  1   force =     0.00000000    0.00000000    0.00000000
     atom    2 type  1   force =     0.00000000    0.00000000    0.00000000
     atom    3 type  1   force =     0.00000000    0.00000000    0.00000000
     atom    4 type  1   force =     0.00000000    0.00000000    0.00000000
     atom    5 type  1   force =     0.00000000    0.00000000    0.00000000
     atom    6 type  1   force =     0.00000000    0.00000000    0.00000000
     atom    7 type  1   force =     0.00000000    0.00000000    0.00000000
     atom    8 type  1   force =     0.00000000    0.00000000    0.00000000
     atom    9 type  1   force =     0.00000000    0.00000000    0.00000000
     atom   10 type  1   force =     0.00000000    0.00000000    0.00000000
     atom   11 type  1   force =     0.00000000    0.00000000    0.00000000
     atom   12 type  1   force =     0.00000000    0.00000000    0.00000000
     atom   13 type  1   force =     0.00000000    0.00000000    0.00000000
     atom   14 type  1   force =     0.00000000    0.00000000    0.00000000
     atom   15 type  1   force =     0.00000000    0.00000000    0.00000000
     atom   16 type  1   force =     0.00000000    0.00000000    0.00000000
     atom   17 type  1   force =     0.00000000    0.00000000    0.00000000
     atom   18 type  1   force =     0.00000000    0.00000000    0.00000000
     atom   19 type  1   force =     0.00000000    0.00000000    0.00000000
     atom   20 type  1   force =     0.00000000    0.00000000    0.00000000
     atom   21 type  1   force =     0.00000000    0.00000000    0.00000000
     atom   22 type  1   force =     0.00000000    0.00000000    0.00000000
     atom   23 type  1   force =     0.00000000    0.00000000    0.00000000
     atom   24 type  1   force =     0.00000000    0.00000000    0.00000000
     atom   25 type  1   force =     0.00000000    0.00000000    0.00000000
     atom   26 type  1   force =     0.00000000    0.00000000    0.00000000
     atom   27 type  1   force =     0.00000000    0.00000000    0.00000000
     atom   28 type  1   force =     0.00000000    0.00000000    0.00000000
     atom   29 type  1   force =     0.00000000    0.00000000    0.00000000
     atom   30 type  1   force =     0.00000000    0.00000000    0.00000000
     atom   31 type  1   force =     0.00000000    0.00000000    0.00000000
     atom   32 type  1   force =     0.00000000    0.00000000    0.00000000
     The Hubbard contrib.    to forces
     atom    1 type  1   force =     0.00000000    0.00000000    0.00000000
     atom    2 type  1   force =     0.00000000    0.00000000    0.00000000
     atom    3 type  1   force =     0.00000000    0.00000000    0.00000000
     atom    4 type  1   force =     0.00000000    0.00000000    0.00000000
     atom    5 type  1   force =     0.00000000    0.00000000    0.00000000
     atom    6 type  1   force =     0.00000000    0.00000000    0.00000000
     atom    7 type  1   force =     0.00000000    0.00000000    0.00000000
     atom    8 type  1   force =     0.00000000    0.00000000    0.00000000
     atom    9 type  1   force =     0.00000000    0.00000000    0.00000000
     atom   10 type  1   force =     0.00000000    0.00000000    0.00000000
     atom   11 type  1   force =     0.00000000    0.00000000    0.00000000
     atom   12 type  1   force =     0.00000000    0.00000000    0.00000000
     atom   13 type  1   force =     0.00000000    0.00000000    0.00000000
     atom   14 type  1   force =     0.00000000    0.00000000    0.00000000
     atom   15 type  1   force =     0.00000000    0.00000000    0.00000000
     atom   16 type  1   force =     0.00000000    0.00000000    0.00000000
     atom   17 type  1   force =     0.00000000    0.00000000    0.00000000
     atom   18 type  1   force =     0.00000000    0.00000000    0.00000000
     atom   19 type  1   force =     0.00000000    0.00000000    0.00000000
     atom   20 type  1   force =     0.00000000    0.00000000    0.00000000
     atom   21 type  1   force =     0.00000000    0.00000000    0.00000000
     atom   22 type  1   force =     0.00000000    0.00000000    0.00000000
     atom   23 type  1   force =     0.00000000    0.00000000    0.00000000
     atom   24 type  1   force =     0.00000000    0.00000000    0.00000000
     atom   25 type  1   force =     0.00000000    0.00000000    0.00000000
     atom   26 type  1   force =     0.00000000    0.00000000    0.00000000
     atom   27 type  1   force =     0.00000000    0.00000000    0.00000000
     atom   28 type  1   force =     0.00000000    0.00000000    0.00000000
     atom   29 type  1   force =     0.00000000    0.00000000    0.00000000
     atom   30 type  1   force =     0.00000000    0.00000000    0.00000000
     atom   31 type  1   force =     0.00000000    0.00000000    0.00000000
     atom   32 type  1   force =     0.00000000    0.00000000    0.00000000
     The SCF correction term to forces
     atom    1 type  1   force =    -0.00000000   -0.00000434    0.00054208
     atom    2 type  1   force =    -0.00000000   -0.00000643    0.00061308
     atom    3 type  1   force =    -0.00000000   -0.00000657   -0.00046245
     atom    4 type  1   force =    -0.00000000   -0.00000775   -0.00067786
     atom    5 type  1   force =    -0.00000376    0.00000217    0.00054208
     atom    6 type  1   force =    -0.00000557    0.00000322    0.00061308
     atom    7 type  1   force =    -0.00000569    0.00000329   -0.00046245
     atom    8 type  1   force =    -0.00000671    0.00000388   -0.00067786
     atom    9 type  1   force =    -0.00000000    0.00000000    0.00054164
     atom   10 type  1   force =    -0.00000000    0.00000000    0.00061305
     atom   11 type  1   force =    -0.00000000    0.00000000   -0.00046227
     atom   12 type  1   force =    -0.00000000    0.00000000   -0.00067704
     atom   13 type  1   force =     0.00000376    0.00000217    0.00054208
     atom   14 type  1   force =     0.00000557    0.00000322    0.00061308
     atom   15 type  1   force =     0.00000569    0.00000329   -0.00046245
     atom   16 type  1   force =     0.00000671    0.00000388   -0.00067786
     atom   17 type  1   force =    -0.00000376   -0.00000217    0.00054208
     atom   18 type  1   force =    -0.00000557   -0.00000322    0.00061308
     atom   19 type  1   force =    -0.00000569   -0.00000329   -0.00046245
     atom   20 type  1   force =    -0.00000671   -0.00000388   -0.00067786
     atom   21 type  1   force =     0.00000000   -0.00000000    0.00054164
     atom   22 type  1   force =     0.00000000   -0.00000000    0.00061305
     atom   23 type  1   force =     0.00000000   -0.00000000   -0.00046227
     atom   24 type  1   force =     0.00000000   -0.00000000   -0.00067704
     atom   25 type  1   force =     0.00000376   -0.00000217    0.00054208
     atom   26 type  1   force =     0.00000557   -0.00000322    0.00061308
     atom   27 type  1   force =     0.00000569   -0.00000329   -0.00046245
     atom   28 type  1   force =     0.00000671   -0.00000388   -0.00067786
     atom   29 type  1   force =     0.00000000    0.00000434    0.00054208
     atom   30 type  1   force =     0.00000000    0.00000643    0.00061308
     atom   31 type  1   force =     0.00000000    0.00000657   -0.00046245
     atom   32 type  1   force =     0.00000000    0.00000775   -0.00067786

     Total force =     0.427981     Total SCF correction =     0.003278


     Computing stress (Cartesian axis) and pressure

          total   stress  (Ry/bohr**3)                   (kbar)     P=     2996.37
   0.03108342   0.00000000   0.00000000         4572.53        0.00        0.00
   0.00000000   0.03108342   0.00000000            0.00     4572.53        0.00
   0.00000000   0.00000000  -0.00106004            0.00        0.00     -155.94

     kinetic stress (kbar)  35104.25      0.00      0.00
                                0.00  35104.25      0.00
                                0.00      0.00  35245.34

     local   stress (kbar)**********     -0.00     -0.00
                               -0.00**********     -0.00
                               -0.00     -0.006561603.78

     nonloc. stress (kbar)  -3572.80     -0.00      0.00
                               -0.00  -3572.80      0.00
                                0.00      0.00  -2433.87

     hartree stress (kbar)3263237.47     -0.00     -0.00
                               -0.003263237.47      0.00
                               -0.00      0.00**********

     exc-cor stress (kbar) -17083.48     -0.00      0.00
                               -0.00 -17083.48     -0.00
                                0.00     -0.00 -17160.88

     corecor stress (kbar)      0.00      0.00      0.00
                                0.00      0.00      0.00
                                0.00      0.00      0.00

     ewald   stress (kbar)3137160.32      0.01     -0.00
                                0.013137160.33     -0.00
                               -0.00     -0.00**********

     hubbard stress (kbar)      0.00      0.00      0.00
                                0.00      0.00      0.00
                                0.00      0.00      0.00

     DFT-D   stress (kbar)      0.00      0.00      0.00
                                0.00      0.00      0.00
                                0.00      0.00      0.00

     XDM     stress (kbar)      0.00      0.00      0.00
                                0.00      0.00      0.00
                                0.00      0.00      0.00

     dft-nl  stress (kbar)      0.00      0.00      0.00
                                0.00      0.00      0.00
                                0.00      0.00      0.00

     TS-vdW  stress (kbar)      0.00      0.00      0.00
                                0.00      0.00      0.00
                                0.00      0.00      0.00

     MDB     stress (kbar)      0.00      0.00      0.00
                                0.00      0.00      0.00
                                0.00      0.00      0.00

     3D-RISM stress (kbar)      0.00      0.00      0.00
                                0.00      0.00      0.00
                                0.00      0.00      0.00


     BFGS Geometry Optimization
     Energy error            =      0.0E+00 Ry
     Gradient error          =      1.1E-01 Ry/Bohr

     number of scf cycles    =   1
     number of bfgs steps    =   0

     energy             new  =  -14727.4285380712 Ry

     new trust radius        =       0.1064096249 bohr
     new conv_thr            =       0.0000007350 Ry


ATOMIC_POSITIONS (angstrom)
Zn              -0.0000000130        1.5094001442        1.1619808877
Zn              -0.0000000130        1.5093996228        3.6611087684
Zn              -0.0000000130        1.5093995387        6.0852754047
Zn              -0.0000000130        1.5093991829        8.5842784543
Zn              -1.3071810060        3.7735040389        1.1619808877
Zn              -1.3071814576        3.7735042996        3.6611087684
Zn              -1.3071815304        3.7735043416        6.0852754047
Zn              -1.3071818385        3.7735045195        8.5842784543
Zn               2.6143598430        1.5094013740        1.1619806615
Zn               2.6143598430        1.5094013740        3.6611085426
Zn               2.6143598430        1.5094013740        6.0852752577
Zn               2.6143598430        1.5094013740        8.5842784248
Zn               1.3071809800        3.7735040389        1.1619808877
Zn               1.3071814316        3.7735042996        3.6611087684
Zn               1.3071815044        3.7735043416        6.0852754047
Zn               1.3071818125        3.7735045195        8.5842784543
Zn               1.3071788760        0.7547000611        1.1619808877
Zn               1.3071784244        0.7546998004        3.6611087684
Zn               1.3071783516        0.7546997584        6.0852754047
Zn               1.3071780435        0.7546995805        8.5842784543
Zn               0.0000000130        3.0188027260        1.1619806615
Zn               0.0000000130        3.0188027260        3.6611085426
Zn               0.0000000130        3.0188027260        6.0852752577
Zn               0.0000000130        3.0188027260        8.5842784248
Zn               3.9215408620        0.7547000611        1.1619808877
Zn               3.9215413136        0.7546998004        3.6611087684
Zn               3.9215413864        0.7546997584        6.0852754047
Zn               3.9215416945        0.7546995805        8.5842784543
Zn               2.6143598690        3.0188039558        1.1619808877
Zn               2.6143598690        3.0188044772        3.6611087684
Zn               2.6143598690        3.0188045613        6.0852754047
Zn               2.6143598690        3.0188049171        8.5842784543



     Writing config-only to output data dir ./tmp/Zn002_2x2x4_relax_ecutrho250_ecutwfc25.save/ :
     XML data file
     NEW-OLD atomic charge density approx. for the potential

     negative rho (up, down):  3.169E-03 0.000E+00

     total cpu time spent up to now is      148.5 secs

     Self-consistent Calculation

     iteration #  1     ecut=    30.00 Ry     beta= 0.70
     Davidson diagonalization with overlap

---- Real-time Memory Report at c_bands before calling an iterative solver
            65 MiB given to the printing process from OS
             0 MiB allocation reported by mallinfo(arena+hblkhd)
        151981 MiB available memory on the node where the printing process lives
------------------
     ethr =  1.00E-06,  avg # of iterations =  8.7

     negative rho (up, down):  3.001E-03 0.000E+00

     total cpu time spent up to now is      173.6 secs

     total energy              =  -14727.59599902 Ry
     estimated scf accuracy    <       0.01189256 Ry

     iteration #  2     ecut=    30.00 Ry     beta= 0.70
     Davidson diagonalization with overlap

---- Real-time Memory Report at c_bands before calling an iterative solver
            65 MiB given to the printing process from OS
             0 MiB allocation reported by mallinfo(arena+hblkhd)
        151971 MiB available memory on the node where the printing process lives
------------------
     ethr =  1.86E-06,  avg # of iterations =  8.0

     negative rho (up, down):  3.023E-03 0.000E+00

     total cpu time spent up to now is      189.8 secs

     total energy              =  -14727.55255292 Ry
     estimated scf accuracy    <       0.97185509 Ry

     iteration #  3     ecut=    30.00 Ry     beta= 0.70
     Davidson diagonalization with overlap

---- Real-time Memory Report at c_bands before calling an iterative solver
            65 MiB given to the printing process from OS
             0 MiB allocation reported by mallinfo(arena+hblkhd)
        151968 MiB available memory on the node where the printing process lives
------------------
     ethr =  1.86E-06,  avg # of iterations =  6.7

     negative rho (up, down):  3.197E-03 0.000E+00

     total cpu time spent up to now is      204.4 secs

     total energy              =  -14727.60101790 Ry
     estimated scf accuracy    <       0.00324848 Ry

     iteration #  4     ecut=    30.00 Ry     beta= 0.70
     Davidson diagonalization with overlap

---- Real-time Memory Report at c_bands before calling an iterative solver
            65 MiB given to the printing process from OS
             0 MiB allocation reported by mallinfo(arena+hblkhd)
        151966 MiB available memory on the node where the printing process lives
------------------
     ethr =  5.08E-07,  avg # of iterations =  8.3

     negative rho (up, down):  3.300E-03 0.000E+00

     total cpu time spent up to now is      216.2 secs

     total energy              =  -14727.58288744 Ry
     estimated scf accuracy    <       0.97412746 Ry

     iteration #  5     ecut=    30.00 Ry     beta= 0.70
     Davidson diagonalization with overlap

---- Real-time Memory Report at c_bands before calling an iterative solver
            65 MiB given to the printing process from OS
             0 MiB allocation reported by mallinfo(arena+hblkhd)
        151966 MiB available memory on the node where the printing process lives
------------------
     ethr =  5.08E-07,  avg # of iterations =  6.7

     negative rho (up, down):  3.337E-03 0.000E+00

     total cpu time spent up to now is      226.8 secs

     total energy              =  -14727.60209384 Ry
     estimated scf accuracy    <       0.00048426 Ry

     iteration #  6     ecut=    30.00 Ry     beta= 0.70
     Davidson diagonalization with overlap

---- Real-time Memory Report at c_bands before calling an iterative solver
            65 MiB given to the printing process from OS
             0 MiB allocation reported by mallinfo(arena+hblkhd)
        151964 MiB available memory on the node where the printing process lives
------------------
     ethr =  7.57E-08,  avg # of iterations =  2.0

     negative rho (up, down):  3.365E-03 0.000E+00

     total cpu time spent up to now is      235.0 secs

     total energy              =  -14727.60216479 Ry
     estimated scf accuracy    <       0.00001571 Ry

     iteration #  7     ecut=    30.00 Ry     beta= 0.70
     Davidson diagonalization with overlap

---- Real-time Memory Report at c_bands before calling an iterative solver
            66 MiB given to the printing process from OS
             0 MiB allocation reported by mallinfo(arena+hblkhd)
        151964 MiB available memory on the node where the printing process lives
------------------
     ethr =  2.45E-09,  avg # of iterations =  2.0

     negative rho (up, down):  3.374E-03 0.000E+00

     total cpu time spent up to now is      244.1 secs

     total energy              =  -14727.60216787 Ry
     estimated scf accuracy    <       0.00000180 Ry

     iteration #  8     ecut=    30.00 Ry     beta= 0.70
     Davidson diagonalization with overlap

---- Real-time Memory Report at c_bands before calling an iterative solver
            66 MiB given to the printing process from OS
             0 MiB allocation reported by mallinfo(arena+hblkhd)
        151962 MiB available memory on the node where the printing process lives
------------------
     ethr =  2.81E-10,  avg # of iterations =  2.0

     negative rho (up, down):  3.375E-03 0.000E+00

     total cpu time spent up to now is      253.6 secs

     total energy              =  -14727.60216807 Ry
     estimated scf accuracy    <       0.00000152 Ry

     iteration #  9     ecut=    30.00 Ry     beta= 0.70
     Davidson diagonalization with overlap

---- Real-time Memory Report at c_bands before calling an iterative solver
            66 MiB given to the printing process from OS
             0 MiB allocation reported by mallinfo(arena+hblkhd)
        151954 MiB available memory on the node where the printing process lives
------------------
     ethr =  2.37E-10,  avg # of iterations =  2.0

     negative rho (up, down):  3.378E-03 0.000E+00

     total cpu time spent up to now is      261.7 secs

     End of self-consistent calculation

          k = 0.0000 0.0000 0.0000 ( 10573 PWs)   bands (ev):

  -121.9965-121.9891-121.8914-121.8894-121.3219-121.3219-121.3219-121.3167
  -121.3167-121.3167-121.2177-121.2177-121.2176-121.2175-121.2175-121.2175
  -120.6281-120.6281-120.6281-120.6260-120.6260-120.6260-120.5264-120.5264
  -120.5264-120.5259-120.5259-120.5259-119.9291-119.9283-119.8297-119.8275
   -77.7449 -77.7448 -77.7448 -77.7408 -77.7407 -77.7407 -77.6475 -77.6475
   -77.6475 -77.6470 -77.6469 -77.6469 -77.4182 -77.4182 -77.4121 -77.4121
   -77.3229 -77.3229 -77.3178 -77.3178 -76.6061 -76.6061 -76.6061 -76.5921
   -76.5921 -76.5921 -76.5048 -76.5048 -76.5048 -76.5031 -76.5030 -76.5030
   -75.0745 -75.0492 -74.9048 -74.8924 -74.7060 -74.7060 -74.7059 -74.6799
   -74.6799 -74.6799 -74.6701 -74.6701 -74.6701 -74.6646 -74.6646 -74.6646
   -74.5847 -74.5847 -74.5847 -74.5779 -74.5779 -74.5779 -74.5296 -74.5296
   -74.5295 -74.5263 -74.5263 -74.5262 -74.3329 -74.3329 -74.3329 -74.2970
   -74.2970 -74.2970 -74.1602 -74.1602 -74.1602 -74.1570 -74.1570 -74.1570
   -73.9700 -73.9247 -73.8311 -73.8311 -73.8172 -73.8172 -73.7933 -73.7706
   -73.7375 -73.7375 -73.7359 -73.7359 -73.4593 -73.4593 -73.4593 -73.4495
   -73.4495 -73.4495 -73.3701 -73.3701 -73.3701 -73.3649 -73.3649 -73.3649
    -7.8533  -7.8533  -7.8533  -7.7398  -7.7398  -7.7397  -7.6200  -7.6200
    -7.6200  -7.5989  -7.5989  -7.5989  -6.6135  -6.4486  -6.4486  -6.4486
    -6.4243  -6.4242  -6.4242  -6.3245  -6.3244  -6.3244  -6.3231  -6.3231
    -6.3231  -6.2412  -6.0433  -6.0116  -5.3490  -5.3489  -5.3489  -5.2847
    -5.0022  -5.0022  -5.0022  -4.9966  -4.9966  -4.9966  -4.7486  -4.7486
    -4.7486  -4.6133  -4.6133  -4.6133  -4.5101  -4.5100  -4.5100  -4.4298
    -4.4298  -4.1613  -4.1613  -4.1515  -4.0608  -4.0608  -4.0608  -3.9791
    -3.9791  -3.9791  -3.9406  -3.9406  -3.8269  -3.8269  -3.7871  -3.7871
    -3.7871  -3.7261  -3.7261  -3.7261  -3.6363  -3.6363  -3.6363  -3.6065
    -3.6065  -3.6064  -3.2467  -3.2467  -3.2368  -3.2368  -3.1897  -3.1897
    -3.1551  -3.1551  -3.1089  -3.1089  -3.1036  -3.1036  -3.0611  -3.0611
    -3.0481  -3.0481  -2.4576  -1.5684  -1.5684  -1.5684  -1.3425  -1.3425
    -1.3425  -1.2636  -1.2636  -1.2636  -0.9626  -0.9626  -0.9626  -0.5079
    -0.5079  -0.5079  -0.4990  -0.4990  -0.4990  -0.2371  -0.2371  -0.2371
    -0.1997  -0.1997  -0.1997  -0.0329  -0.0329  -0.0329   0.4942   0.4942
     0.5759   0.5759   0.5759   0.6439   0.6439   0.7346   0.7896   0.7896
     0.8200   0.8200   0.8589   1.2674   1.4021   1.4021   1.4021   1.5219
     1.5219   1.5219   1.5926   1.5952   1.5952   1.5953   1.7191   1.7191
     1.7191   1.7263   1.7263   1.7263   1.8001   1.8393   1.8393   1.8394
     1.8546   1.8546   1.8546   1.9371   1.9371   1.9371   1.9386   1.9386
     1.9386   1.9659   1.9659   1.9659   2.0281   2.0281   2.0281   2.4665
     3.3296   3.3296   3.3296   4.9227   4.9227   4.9227   5.7874   5.7874
     5.7874   6.2517   6.2517   6.2517   6.2968   6.6081   6.6081   6.6081
     7.1319   7.1319   7.1319   9.5341   9.5341   9.5341   9.6477  10.8626
    10.8626  10.8626  13.1459  13.1459  13.1459  13.2592  14.4138  14.5890
    14.5890  14.5890  14.6571  14.6571  14.6571  15.0424  15.3773  15.5036
    15.5036  15.5036  16.0212  16.0212  16.0212  16.8255  17.5557  17.5557
    17.5557  17.9023  17.9023  17.9023  17.9234  18.2036  18.2036  18.2036
[...]
     atom   10 type  1   force =     0.00000000   -0.00000000    0.02023467
     atom   11 type  1   force =     0.00000000    0.00000000   -0.02031416
     atom   12 type  1   force =     0.00000000    0.00000000   -0.35377995
     atom   13 type  1   force =     0.00002113    0.00001220    0.35482975
     atom   14 type  1   force =     0.00003146    0.00001816    0.02023335
     atom   15 type  1   force =     0.00003256    0.00001880   -0.02031497
     atom   16 type  1   force =     0.00003800    0.00002194   -0.35378242
     atom   17 type  1   force =    -0.00002113   -0.00001220    0.35482975
     atom   18 type  1   force =    -0.00003146   -0.00001816    0.02023335
     atom   19 type  1   force =    -0.00003256   -0.00001880   -0.02031497
     atom   20 type  1   force =    -0.00003800   -0.00002194   -0.35378242
     atom   21 type  1   force =     0.00000000   -0.00000000    0.35482894
     atom   22 type  1   force =     0.00000000    0.00000000    0.02023467
     atom   23 type  1   force =     0.00000000    0.00000000   -0.02031416
     atom   24 type  1   force =     0.00000000   -0.00000000   -0.35377995
     atom   25 type  1   force =     0.00002113   -0.00001220    0.35482975
     atom   26 type  1   force =     0.00003146   -0.00001816    0.02023335
     atom   27 type  1   force =     0.00003256   -0.00001880   -0.02031497
     atom   28 type  1   force =     0.00003800   -0.00002194   -0.35378242
     atom   29 type  1   force =     0.00000000    0.00002440    0.35482975
     atom   30 type  1   force =     0.00000000    0.00003632    0.02023335
     atom   31 type  1   force =     0.00000000    0.00003759   -0.02031497
     atom   32 type  1   force =     0.00000000    0.00004388   -0.35378242
     The ionic contribution  to forces
     atom    1 type  1   force =     0.00000389    0.00061612 -832.87973467
     atom    2 type  1   force =     0.00000393    0.00090316 -281.56507431
     atom    3 type  1   force =     0.00000393    0.00096909  281.55484897
     atom    4 type  1   force =     0.00000389    0.00106257  832.89000834
     atom    5 type  1   force =     0.00053922   -0.00031128 -832.87973467
     atom    6 type  1   force =     0.00078784   -0.00045482 -281.56507432
     atom    7 type  1   force =     0.00084494   -0.00048778  281.55484897
     atom    8 type  1   force =     0.00092585   -0.00053450  832.89000835
     atom    9 type  1   force =     0.00000377   -0.00000211 -832.87975084
     atom   10 type  1   force =     0.00000379   -0.00000213 -281.56512553
     atom   11 type  1   force =     0.00000379   -0.00000213  281.55480230
     atom   12 type  1   force =     0.00000377   -0.00000211  832.88992909
     atom   13 type  1   force =    -0.00053158   -0.00031136 -832.87973467
     atom   14 type  1   force =    -0.00078014   -0.00045491 -281.56507431
     atom   15 type  1   force =    -0.00083724   -0.00048787  281.55484897
     atom   16 type  1   force =    -0.00091821   -0.00053458  832.89000834
     atom   17 type  1   force =     0.00053158    0.00031136 -832.87973467
     atom   18 type  1   force =     0.00078014    0.00045491 -281.56507431
     atom   19 type  1   force =     0.00083724    0.00048787  281.55484897
     atom   20 type  1   force =     0.00091821    0.00053458  832.89000834
     atom   21 type  1   force =    -0.00000377    0.00000211 -832.87975084
     atom   22 type  1   force =    -0.00000379    0.00000213 -281.56512553
     atom   23 type  1   force =    -0.00000379    0.00000213  281.55480230
     atom   24 type  1   force =    -0.00000377    0.00000211  832.88992909
     atom   25 type  1   force =    -0.00053922    0.00031128 -832.87973467
     atom   26 type  1   force =    -0.00078784    0.00045482 -281.56507432
     atom   27 type  1   force =    -0.00084494    0.00048778  281.55484897
     atom   28 type  1   force =    -0.00092585    0.00053450  832.89000835
     atom   29 type  1   force =    -0.00000389   -0.00061612 -832.87973467
     atom   30 type  1   force =    -0.00000393   -0.00090316 -281.56507431
     atom   31 type  1   force =    -0.00000393   -0.00096909  281.55484897
     atom   32 type  1   force =    -0.00000389   -0.00106257  832.89000834
     The local contribution  to forces
     atom    1 type  1   force =     0.00001364   -0.00058426  832.42974429
     atom    2 type  1   force =     0.00001366   -0.00085056  281.53773497
     atom    3 type  1   force =     0.00001366   -0.00091453 -281.52720980
     atom    4 type  1   force =     0.00001364   -0.00099800 -832.44219439
     atom    5 type  1   force =    -0.00048530    0.00027983  832.42974429
     atom    6 type  1   force =    -0.00071589    0.00041297  281.53773497
     atom    7 type  1   force =    -0.00077129    0.00044495 -281.52720980
     atom    8 type  1   force =    -0.00084360    0.00048670 -832.44219439
     atom    9 type  1   force =     0.00001328   -0.00000795  832.42976079
     atom   10 type  1   force =     0.00001329   -0.00000796  281.53778337
     atom   11 type  1   force =     0.00001329   -0.00000796 -281.52716487
     atom   12 type  1   force =     0.00001328   -0.00000795 -832.44211818
     atom   13 type  1   force =     0.00051253    0.00027983  832.42974429
     atom   14 type  1   force =     0.00074316    0.00041297  281.53773497
     atom   15 type  1   force =     0.00079856    0.00044495 -281.52720980
     atom   16 type  1   force =     0.00087083    0.00048670 -832.44219439
     atom   17 type  1   force =    -0.00051295   -0.00028057  832.42974429
     atom   18 type  1   force =    -0.00074359   -0.00041370  281.53773497
     atom   19 type  1   force =    -0.00079898   -0.00044569 -281.52720980
     atom   20 type  1   force =    -0.00087125   -0.00048743 -832.44219439
     atom   21 type  1   force =    -0.00001370    0.00000722  832.42976079
     atom   22 type  1   force =    -0.00001371    0.00000723  281.53778337
     atom   23 type  1   force =    -0.00001371    0.00000723 -281.52716487
     atom   24 type  1   force =    -0.00001370    0.00000722 -832.44211818
     atom   25 type  1   force =     0.00048488   -0.00028057  832.42974429
     atom   26 type  1   force =     0.00071547   -0.00041370  281.53773497
     atom   27 type  1   force =     0.00077087   -0.00044569 -281.52720980
     atom   28 type  1   force =     0.00084318   -0.00048743 -832.44219439
     atom   29 type  1   force =    -0.00001406    0.00058353  832.42974429
     atom   30 type  1   force =    -0.00001408    0.00084983  281.53773497
     atom   31 type  1   force =    -0.00001408    0.00091379 -281.52720980
     atom   32 type  1   force =    -0.00001406    0.00099726 -832.44219439
     The core correction contribution to forces
     atom    1 type  1   force =     0.00000000    0.00000000    0.00000000
     atom    2 type  1   force =     0.00000000    0.00000000    0.00000000
     atom    3 type  1   force =     0.00000000    0.00000000    0.00000000
     atom    4 type  1   force =     0.00000000    0.00000000    0.00000000
     atom    5 type  1   force =     0.00000000    0.00000000    0.00000000
     atom    6 type  1   force =     0.00000000    0.00000000    0.00000000
     atom    7 type  1   force =     0.00000000    0.00000000    0.00000000
     atom    8 type  1   force =     0.00000000    0.00000000    0.00000000
     atom    9 type  1   force =     0.00000000    0.00000000    0.00000000
     atom   10 type  1   force =     0.00000000    0.00000000    0.00000000
     atom   11 type  1   force =     0.00000000    0.00000000    0.00000000
     atom   12 type  1   force =     0.00000000    0.00000000    0.00000000
     atom   13 type  1   force =     0.00000000    0.00000000    0.00000000
     atom   14 type  1   force =     0.00000000    0.00000000    0.00000000
     atom   15 type  1   force =     0.00000000    0.00000000    0.00000000
     atom   16 type  1   force =     0.00000000    0.00000000    0.00000000
     atom   17 type  1   force =     0.00000000    0.00000000    0.00000000
     atom   18 type  1   force =     0.00000000    0.00000000    0.00000000
     atom   19 type  1   force =     0.00000000    0.00000000    0.00000000
     atom   20 type  1   force =     0.00000000    0.00000000    0.00000000
     atom   21 type  1   force =     0.00000000    0.00000000    0.00000000
     atom   22 type  1   force =     0.00000000    0.00000000    0.00000000
     atom   23 type  1   force =     0.00000000    0.00000000    0.00000000
     atom   24 type  1   force =     0.00000000    0.00000000    0.00000000
     atom   25 type  1   force =     0.00000000    0.00000000    0.00000000
     atom   26 type  1   force =     0.00000000    0.00000000    0.00000000
     atom   27 type  1   force =     0.00000000    0.00000000    0.00000000
     atom   28 type  1   force =     0.00000000    0.00000000    0.00000000
     atom   29 type  1   force =     0.00000000    0.00000000    0.00000000
     atom   30 type  1   force =     0.00000000    0.00000000    0.00000000
     atom   31 type  1   force =     0.00000000    0.00000000    0.00000000
     atom   32 type  1   force =     0.00000000    0.00000000    0.00000000
     The Hubbard contrib.    to forces
     atom    1 type  1   force =     0.00000000    0.00000000    0.00000000
     atom    2 type  1   force =     0.00000000    0.00000000    0.00000000
     atom    3 type  1   force =     0.00000000    0.00000000    0.00000000
     atom    4 type  1   force =     0.00000000    0.00000000    0.00000000
     atom    5 type  1   force =     0.00000000    0.00000000    0.00000000
     atom    6 type  1   force =     0.00000000    0.00000000    0.00000000
     atom    7 type  1   force =     0.00000000    0.00000000    0.00000000
     atom    8 type  1   force =     0.00000000    0.00000000    0.00000000
     atom    9 type  1   force =     0.00000000    0.00000000    0.00000000
     atom   10 type  1   force =     0.00000000    0.00000000    0.00000000
     atom   11 type  1   force =     0.00000000    0.00000000    0.00000000
     atom   12 type  1   force =     0.00000000    0.00000000    0.00000000
     atom   13 type  1   force =     0.00000000    0.00000000    0.00000000
     atom   14 type  1   force =     0.00000000    0.00000000    0.00000000
     atom   15 type  1   force =     0.00000000    0.00000000    0.00000000
     atom   16 type  1   force =     0.00000000    0.00000000    0.00000000
     atom   17 type  1   force =     0.00000000    0.00000000    0.00000000
     atom   18 type  1   force =     0.00000000    0.00000000    0.00000000
     atom   19 type  1   force =     0.00000000    0.00000000    0.00000000
     atom   20 type  1   force =     0.00000000    0.00000000    0.00000000
     atom   21 type  1   force =     0.00000000    0.00000000    0.00000000
     atom   22 type  1   force =     0.00000000    0.00000000    0.00000000
     atom   23 type  1   force =     0.00000000    0.00000000    0.00000000
     atom   24 type  1   force =     0.00000000    0.00000000    0.00000000
     atom   25 type  1   force =     0.00000000    0.00000000    0.00000000
     atom   26 type  1   force =     0.00000000    0.00000000    0.00000000
     atom   27 type  1   force =     0.00000000    0.00000000    0.00000000
     atom   28 type  1   force =     0.00000000    0.00000000    0.00000000
     atom   29 type  1   force =     0.00000000    0.00000000    0.00000000
     atom   30 type  1   force =     0.00000000    0.00000000    0.00000000
     atom   31 type  1   force =     0.00000000    0.00000000    0.00000000
     atom   32 type  1   force =     0.00000000    0.00000000    0.00000000
     The SCF correction term to forces
     atom    1 type  1   force =    -0.00000000    0.00000218    0.00246462
     atom    2 type  1   force =     0.00000000    0.00000105    0.00007940
     atom    3 type  1   force =    -0.00000000    0.00000249   -0.00060889
     atom    4 type  1   force =    -0.00000000    0.00000464   -0.00010181
     atom    5 type  1   force =     0.00000189   -0.00000109    0.00246462
     atom    6 type  1   force =     0.00000091   -0.00000053    0.00007940
     atom    7 type  1   force =     0.00000215   -0.00000124   -0.00060889
     atom    8 type  1   force =     0.00000401   -0.00000232   -0.00010181
     atom    9 type  1   force =    -0.00000000    0.00000000    0.00246401
     atom   10 type  1   force =     0.00000000   -0.00000000    0.00008091
     atom   11 type  1   force =    -0.00000000    0.00000000   -0.00060821
     atom   12 type  1   force =    -0.00000000    0.00000000   -0.00010129
     atom   13 type  1   force =    -0.00000189   -0.00000109    0.00246462
     atom   14 type  1   force =    -0.00000091   -0.00000053    0.00007940
     atom   15 type  1   force =    -0.00000215   -0.00000124   -0.00060889
     atom   16 type  1   force =    -0.00000402   -0.00000232   -0.00010181
     atom   17 type  1   force =     0.00000189    0.00000109    0.00246462
     atom   18 type  1   force =     0.00000091    0.00000053    0.00007940
     atom   19 type  1   force =     0.00000215    0.00000124   -0.00060889
     atom   20 type  1   force =     0.00000402    0.00000232   -0.00010181
     atom   21 type  1   force =     0.00000000   -0.00000000    0.00246401
     atom   22 type  1   force =    -0.00000000    0.00000000    0.00008091
     atom   23 type  1   force =     0.00000000   -0.00000000   -0.00060821
     atom   24 type  1   force =     0.00000000   -0.00000000   -0.00010129
     atom   25 type  1   force =    -0.00000189    0.00000109    0.00246462
     atom   26 type  1   force =    -0.00000091    0.00000053    0.00007940
     atom   27 type  1   force =    -0.00000215    0.00000124   -0.00060889
     atom   28 type  1   force =    -0.00000401    0.00000232   -0.00010181
     atom   29 type  1   force =     0.00000000   -0.00000218    0.00246462
     atom   30 type  1   force =    -0.00000000   -0.00000105    0.00007940
     atom   31 type  1   force =     0.00000000   -0.00000249   -0.00060889
     atom   32 type  1   force =     0.00000000   -0.00000464   -0.00010181

     Total force =     0.374269     Total SCF correction =     0.007189


     Computing stress (Cartesian axis) and pressure

          total   stress  (Ry/bohr**3)                   (kbar)     P=     2976.11
   0.03095427   0.00000000   0.00000000         4553.53        0.00        0.00
   0.00000000   0.03095427   0.00000000            0.00     4553.53        0.00
   0.00000000   0.00000000  -0.00121493            0.00        0.00     -178.72

     kinetic stress (kbar)  35078.25      0.00      0.00
                                0.00  35078.25      0.00
                                0.00      0.00  35257.28

     local   stress (kbar)**********     -0.00     -0.00
                               -0.00**********     -0.00
                               -0.00     -0.006455766.01

     nonloc. stress (kbar)  -3582.28     -0.00      0.00
                               -0.00  -3582.28      0.00
                                0.00      0.00  -2432.72

     hartree stress (kbar)3210163.45     -0.00      0.00
                               -0.003210163.45      0.00
                                0.00      0.00**********

     exc-cor stress (kbar) -17080.08     -0.00     -0.00
                               -0.00 -17080.08      0.00
                               -0.00      0.00 -17158.59

     corecor stress (kbar)      0.00      0.00      0.00
                                0.00      0.00      0.00
                                0.00      0.00      0.00

     ewald   stress (kbar)3084132.15      0.01     -0.00
                                0.013084132.16      0.00
                               -0.00      0.00**********

     hubbard stress (kbar)      0.00      0.00      0.00
                                0.00      0.00      0.00
                                0.00      0.00      0.00

     DFT-D   stress (kbar)      0.00      0.00      0.00
                                0.00      0.00      0.00
                                0.00      0.00      0.00

     XDM     stress (kbar)      0.00      0.00      0.00
                                0.00      0.00      0.00
                                0.00      0.00      0.00

     dft-nl  stress (kbar)      0.00      0.00      0.00
                                0.00      0.00      0.00
                                0.00      0.00      0.00

     TS-vdW  stress (kbar)      0.00      0.00      0.00
                                0.00      0.00      0.00
                                0.00      0.00      0.00

     MDB     stress (kbar)      0.00      0.00      0.00
                                0.00      0.00      0.00
                                0.00      0.00      0.00

     3D-RISM stress (kbar)      0.00      0.00      0.00
                                0.00      0.00      0.00
                                0.00      0.00      0.00

     Energy error            =      4.0E+01 Ry
     Gradient error          =      9.4E-02 Ry/Bohr

     number of scf cycles    =   3
     number of bfgs steps    =   2

     energy             old  =  -14767.5583845315 Ry
     energy             new  =  -14727.6021681931 Ry

     CASE: energy            _new > energy            _old

     new trust radius        =       0.0001327609 bohr
     new conv_thr            =       0.0000007350 Ry


ATOMIC_POSITIONS (angstrom)
Zn              -0.1515704326        1.4291782445        0.8602233670
Zn               0.1191375773        1.5861094486        3.3202697494
Zn               0.0442108701        1.5421397935        5.8809787250
Zn               0.2046522915        1.6378242296        8.1018024933
Zn              -1.4524228920        3.6823273194        0.8602194626
Zn              -1.1811744423        3.8383160448        3.3202679271
Zn              -1.2567199648        3.7954146123        5.8809775302
Zn              -1.0936533567        3.8865568929        8.1018043504
Zn               2.4556002577        1.4177286136        0.8639219547
Zn               2.7375140244        1.5804970230        3.3127401992
Zn               2.6588752085        1.5351030518        5.8806913424
Zn               2.8066013350        1.6204120079        8.1086205845
Zn               1.1436603324        3.6790790623        0.8564677674
Zn               1.4178003470        3.8373627903        3.3148886917
Zn               1.3397714194        3.7923182515        5.8815481605
Zn               1.4938143201        3.8812778334        8.0916568240
Zn               1.1154984989        0.6440101347        0.5282177279
Zn               1.2719822796        0.7343814051        2.7446033516
Zn               1.1983482601        0.6918693014        5.3104756251
Zn               1.4776421437        0.8531321562        7.7764737874
Zn              -0.1937134040        2.9069394882        0.5186597595
Zn              -0.0464519329        2.9919844765        2.7446028504
Zn              -0.1215556670        2.9486276209        5.3127860903
Zn               0.1614970740        3.1120568898        7.7623015500
Zn               3.7129119396        0.6396920441        0.5298517060
Zn               3.8727123106        0.7331384726        2.7440723841
Zn               3.7953140020        0.6900468290        5.3064936516
Zn               4.0596210602        0.8464918403        7.7657718727
Zn               2.4104604342        2.8956071902        0.5298499142
Zn               2.5712691220        2.9873005017        2.7440733336
Zn               2.4952451864        2.9418275963        5.3064928607
Zn               2.7628794996        3.0925143986        7.7657666796



 %%%%%%%%%%%%%%%%%%%%%%%%%%%%%%%%%%%%%%%%%%%%%%%%%%%%%%%%%%%%%%%%%%%%%%%%%%%%%%
     Error in routine checkallsym (1):
     some of the original symmetry operations not satisfied
 %%%%%%%%%%%%%%%%%%%%%%%%%%%%%%%%%%%%%%%%%%%%%%%%%%%%%%%%%%%%%%%%%%%%%%%%%%%%%%

     stopping ...
