--------------------------------------------------------------------------
By default, for Open MPI 4.0 and later, infiniband ports on a device
are not used by default.  The intent is to use UCX for these devices.
You can override this policy by setting the btl_openib_allow_ib MCA parameter
to true.

  Local host:              psid00
  Local adapter:           mlx5_0
  Local port:              1

--------------------------------------------------------------------------
--------------------------------------------------------------------------
WARNING: There was an error initializing an OpenFabrics device.

  Local host:   psid00
  Local device: mlx5_0
--------------------------------------------------------------------------

     Program PWSCF v.7.3.1 starts on 26Mar2025 at  1: 9: 9 

     This program is part of the open-source Quantum ESPRESSO suite
     for quantum simulation of materials; please cite
         "P. Giannozzi et al., J. Phys.:Condens. Matter 21 395502 (2009);
         "P. Giannozzi et al., J. Phys.:Condens. Matter 29 465901 (2017);
         "P. Giannozzi et al., J. Chem. Phys. 152 154105 (2020);
          URL http://www.quantum-espresso.org", 
     in publications or presentations arising from this work. More details at
     http://www.quantum-espresso.org/quote

     Parallel version (MPI), running on    40 processors

     MPI processes distributed on     1 nodes
     27585 MiB available memory on the printing compute node when the environment starts

     Waiting for input...
     Reading input from standard input

     Current dimensions of program PWSCF are:
     Max number of different atomic species (ntypx) = 10
     Max number of k-points (npk) =  40000
     Max angular momentum in pseudopotentials (lmaxx) =  4
     Found identity + ( -0.5000  0.0000  0.0000) symmetry
     This is a supercell, fractional translations are disabled

     R & G space division:  proc/nbgrp/npool/nimage =      40
     Subspace diagonalization in iterative solution of the eigenvalue problem:
     one sub-group per band group will be used
     custom distributed-memory algorithm (size of sub-group:  6*  6 procs)


     Parallelization info
     --------------------
     sticks:   dense  smooth     PW     G-vecs:    dense   smooth      PW
     Min         268     107     29                51252    12965    1873
     Max         269     108     31                51263    12976    1880
     Sum       10747    4303   1189              2050275   518755   75035

     Using Slab Decomposition



     bravais-lattice index     =            0
     lattice parameter (alat)  =      19.7617  a.u.
     unit-cell volume          =   15176.5939 (a.u.)^3
     number of atoms/cell      =           48
     number of atomic types    =            1
     number of electrons       =       960.00
     number of Kohn-Sham states=          576
     kinetic-energy cutoff     =      40.0000  Ry
     charge density cutoff     =     400.0000  Ry
     scf convergence threshold =      1.0E-06
     mixing beta               =       0.4000
     number of iterations used =            8  plain     mixing
     Exchange-correlation= SLA  PW   PBE  PBE
                           (   1   4   3   4   0   0   0)

     celldm(1)=  19.761696  celldm(2)=   0.000000  celldm(3)=   0.000000
     celldm(4)=   0.000000  celldm(5)=   0.000000  celldm(6)=   0.000000

     crystal axes: (cart. coord. in units of alat)
               a(1) = (   1.000000   0.000000   0.000000 )  
               a(2) = (  -0.500000   0.866025   0.000000 )  
               a(3) = (   0.000000   0.000000   2.270759 )  

     reciprocal axes: (cart. coord. in units 2 pi/alat)
               b(1) = (  1.000000  0.577350 -0.000000 )  
               b(2) = (  0.000000  1.154701  0.000000 )  
               b(3) = (  0.000000 -0.000000  0.440381 )  


     PseudoPot. # 1 for Zn read from file:
     /home/ys/qepseudo/SSSP_1.3.0_PBE_efficiency/Zn_pbe_v1.uspp.F.UPF
     MD5 check sum: df62231357ef9e81f77b2b3087fa5675
     Pseudo is Ultrasoft, Zval = 20.0
     Generated by new atomic code, or converted to UPF format
     Using radial grid of  943 points,  6 beta functions with: 
                l(1) =   0
                l(2) =   0
                l(3) =   1
                l(4) =   1
                l(5) =   2
                l(6) =   2
     Q(r) pseudized with  8 coefficients,  rinner =    1.100   1.100   1.100
                                                       1.100   1.100

     atomic species   valence    mass     pseudopotential
     Zn               20.00    65.38000     Zn( 1.00)

     No symmetry found


                                    s                        frac. trans.

      isym =  1     identity                                     

 cryst.   s( 1) = (     1          0          0      )
                  (     0          1          0      )
                  (     0          0          1      )

 cart.    s( 1) = (  1.0000000  0.0000000  0.0000000 )
                  (  0.0000000  1.0000000  0.0000000 )
                  (  0.0000000  0.0000000  1.0000000 )


   Cartesian axes

     site n.     atom                  positions (alat units)
         1        Zn     tau(   1) = (   0.0000000   0.1443375   0.1164998  )
         2        Zn     tau(   2) = (   0.5000000   0.1443375   0.1164998  )
         3        Zn     tau(   3) = (   0.0000000   0.1443375   0.5824993  )
         4        Zn     tau(   4) = (   0.5000000   0.1443375   0.5824993  )
         5        Zn     tau(   5) = (  -0.1250000   0.3608439   0.1164998  )
         6        Zn     tau(   6) = (   0.3750000   0.3608439   0.1164998  )
         7        Zn     tau(   7) = (  -0.1250000   0.3608439   0.5824993  )
         8        Zn     tau(   8) = (   0.3750000   0.3608439   0.5824993  )
         9        Zn     tau(   9) = (  -0.2500000   0.5773502   0.1164998  )
        10        Zn     tau(  10) = (   0.2500000   0.5773502   0.1164998  )
        11        Zn     tau(  11) = (  -0.2500000   0.5773502   0.5824993  )
        12        Zn     tau(  12) = (   0.2500000   0.5773502   0.5824993  )
        13        Zn     tau(  13) = (  -0.3750000   0.7938567   0.1164998  )
        14        Zn     tau(  14) = (   0.1250000   0.7938567   0.1164998  )
        15        Zn     tau(  15) = (  -0.3750000   0.7938567   0.5824993  )
        16        Zn     tau(  16) = (   0.1250000   0.7938567   0.5824993  )
        17        Zn     tau(  17) = (   0.2500000   0.1443375   0.1164998  )
        18        Zn     tau(  18) = (   0.7500000   0.1443375   0.1164998  )
        19        Zn     tau(  19) = (   0.2500000   0.1443375   0.5824993  )
        20        Zn     tau(  20) = (   0.7500000   0.1443375   0.5824993  )
        21        Zn     tau(  21) = (   0.1250000   0.3608439   0.1164998  )
        22        Zn     tau(  22) = (   0.6250000   0.3608439   0.1164998  )
        23        Zn     tau(  23) = (   0.1250000   0.3608439   0.5824993  )
        24        Zn     tau(  24) = (   0.6250000   0.3608439   0.5824993  )
        25        Zn     tau(  25) = (   0.0000000   0.5773502   0.1164998  )
        26        Zn     tau(  26) = (   0.5000000   0.5773502   0.1164998  )
        27        Zn     tau(  27) = (   0.0000000   0.5773502   0.5824993  )
        28        Zn     tau(  28) = (   0.5000000   0.5773502   0.5824993  )
        29        Zn     tau(  29) = (  -0.1250000   0.7938567   0.1164998  )
        30        Zn     tau(  30) = (   0.3750000   0.7938567   0.1164998  )
        31        Zn     tau(  31) = (  -0.1250000   0.7938567   0.5824993  )
        32        Zn     tau(  32) = (   0.3750000   0.7938567   0.5824993  )
        33        Zn     tau(  33) = (   0.1250000   0.0721688   0.3494996  )
        34        Zn     tau(  34) = (   0.6250000   0.0721688   0.3494996  )
        35        Zn     tau(  35) = (   0.0000000   0.2886752   0.3494996  )
        36        Zn     tau(  36) = (   0.5000000   0.2886752   0.3494996  )
        37        Zn     tau(  37) = (  -0.1250000   0.5051815   0.3494996  )
        38        Zn     tau(  38) = (   0.3750000   0.5051815   0.3494996  )
        39        Zn     tau(  39) = (  -0.2500000   0.7216879   0.3494996  )
        40        Zn     tau(  40) = (   0.2500000   0.7216879   0.3494996  )
        41        Zn     tau(  41) = (   0.3750000   0.0721688   0.3494996  )
        42        Zn     tau(  42) = (   0.8750000   0.0721688   0.3494996  )
        43        Zn     tau(  43) = (   0.2500000   0.2886752   0.3494996  )
        44        Zn     tau(  44) = (   0.7500000   0.2886752   0.3494996  )
        45        Zn     tau(  45) = (   0.1250000   0.5051815   0.3494996  )
        46        Zn     tau(  46) = (   0.6250000   0.5051815   0.3494996  )
        47        Zn     tau(  47) = (   0.0000000   0.7216879   0.3494996  )
        48        Zn     tau(  48) = (   0.5000000   0.7216879   0.3494996  )

   Crystallographic axes

     site n.     atom                  positions (cryst. coord.)
         1        Zn     tau(   1) = (  0.0833333  0.1666666  0.0513044  )
         2        Zn     tau(   2) = (  0.5833333  0.1666666  0.0513044  )
         3        Zn     tau(   3) = (  0.0833333  0.1666666  0.2565219  )
         4        Zn     tau(   4) = (  0.5833333  0.1666666  0.2565219  )
         5        Zn     tau(   5) = (  0.0833333  0.4166666  0.0513044  )
         6        Zn     tau(   6) = (  0.5833333  0.4166666  0.0513044  )
         7        Zn     tau(   7) = (  0.0833333  0.4166666  0.2565219  )
         8        Zn     tau(   8) = (  0.5833333  0.4166666  0.2565219  )
         9        Zn     tau(   9) = (  0.0833333  0.6666666  0.0513044  )
        10        Zn     tau(  10) = (  0.5833333  0.6666666  0.0513044  )
        11        Zn     tau(  11) = (  0.0833333  0.6666666  0.2565219  )
        12        Zn     tau(  12) = (  0.5833333  0.6666666  0.2565219  )
        13        Zn     tau(  13) = (  0.0833333  0.9166667  0.0513044  )
        14        Zn     tau(  14) = (  0.5833334  0.9166667  0.0513044  )
        15        Zn     tau(  15) = (  0.0833333  0.9166667  0.2565219  )
        16        Zn     tau(  16) = (  0.5833334  0.9166667  0.2565219  )
        17        Zn     tau(  17) = (  0.3333333  0.1666666  0.0513044  )
        18        Zn     tau(  18) = (  0.8333334  0.1666666  0.0513044  )
        19        Zn     tau(  19) = (  0.3333333  0.1666666  0.2565219  )
        20        Zn     tau(  20) = (  0.8333334  0.1666666  0.2565219  )
        21        Zn     tau(  21) = (  0.3333333  0.4166666  0.0513044  )
        22        Zn     tau(  22) = (  0.8333333  0.4166666  0.0513044  )
        23        Zn     tau(  23) = (  0.3333333  0.4166666  0.2565219  )
        24        Zn     tau(  24) = (  0.8333333  0.4166666  0.2565219  )
        25        Zn     tau(  25) = (  0.3333333  0.6666666  0.0513044  )
        26        Zn     tau(  26) = (  0.8333333  0.6666666  0.0513044  )
        27        Zn     tau(  27) = (  0.3333333  0.6666666  0.2565219  )
        28        Zn     tau(  28) = (  0.8333333  0.6666666  0.2565219  )
        29        Zn     tau(  29) = (  0.3333334  0.9166667  0.0513044  )
        30        Zn     tau(  30) = (  0.8333334  0.9166667  0.0513044  )
        31        Zn     tau(  31) = (  0.3333334  0.9166667  0.2565219  )
        32        Zn     tau(  32) = (  0.8333334  0.9166667  0.2565219  )
        33        Zn     tau(  33) = (  0.1666667  0.0833334  0.1539131  )
        34        Zn     tau(  34) = (  0.6666667  0.0833334  0.1539131  )
        35        Zn     tau(  35) = (  0.1666667  0.3333334  0.1539131  )
        36        Zn     tau(  36) = (  0.6666667  0.3333334  0.1539131  )
        37        Zn     tau(  37) = (  0.1666667  0.5833334  0.1539131  )
        38        Zn     tau(  38) = (  0.6666667  0.5833334  0.1539131  )
        39        Zn     tau(  39) = (  0.1666667  0.8333334  0.1539131  )
        40        Zn     tau(  40) = (  0.6666667  0.8333334  0.1539131  )
        41        Zn     tau(  41) = (  0.4166667  0.0833334  0.1539131  )
        42        Zn     tau(  42) = (  0.9166667  0.0833334  0.1539131  )
        43        Zn     tau(  43) = (  0.4166667  0.3333334  0.1539131  )
        44        Zn     tau(  44) = (  0.9166667  0.3333334  0.1539131  )
        45        Zn     tau(  45) = (  0.4166667  0.5833334  0.1539131  )
        46        Zn     tau(  46) = (  0.9166667  0.5833334  0.1539131  )
        47        Zn     tau(  47) = (  0.4166667  0.8333334  0.1539131  )
        48        Zn     tau(  48) = (  0.9166667  0.8333334  0.1539131  )

     number of k points=    10  Marzari-Vanderbilt smearing, width (Ry)=  0.0200
                       cart. coord. in units 2pi/alat
        k(    1) = (   0.0000000   0.0000000   0.0000000), wk =   0.1250000
        k(    2) = (   0.0000000   0.2886751   0.0000000), wk =   0.2500000
        k(    3) = (   0.0000000  -0.5773503   0.0000000), wk =   0.1250000
        k(    4) = (   0.2500000   0.1443376   0.0000000), wk =   0.2500000
        k(    5) = (   0.2500000   0.4330127   0.0000000), wk =   0.2500000
        k(    6) = (   0.2500000  -0.4330127   0.0000000), wk =   0.2500000
        k(    7) = (   0.2500000  -0.1443376   0.0000000), wk =   0.2500000
        k(    8) = (  -0.5000000  -0.2886751   0.0000000), wk =   0.1250000
        k(    9) = (  -0.5000000   0.0000000   0.0000000), wk =   0.2500000
        k(   10) = (  -0.5000000  -0.8660254   0.0000000), wk =   0.1250000

                       cryst. coord.
        k(    1) = (   0.0000000   0.0000000   0.0000000), wk =   0.1250000
        k(    2) = (   0.0000000   0.2500000   0.0000000), wk =   0.2500000
        k(    3) = (   0.0000000  -0.5000000   0.0000000), wk =   0.1250000
        k(    4) = (   0.2500000   0.0000000   0.0000000), wk =   0.2500000
        k(    5) = (   0.2500000   0.2500000   0.0000000), wk =   0.2500000
        k(    6) = (   0.2500000  -0.5000000   0.0000000), wk =   0.2500000
        k(    7) = (   0.2500000  -0.2500000   0.0000000), wk =   0.2500000
        k(    8) = (  -0.5000000   0.0000000   0.0000000), wk =   0.1250000
        k(    9) = (  -0.5000000   0.2500000   0.0000000), wk =   0.2500000
        k(   10) = (  -0.5000000  -0.5000000   0.0000000), wk =   0.1250000

     Dense  grid:  2050275 G-vectors     FFT dimensions: ( 125, 125, 288)

     Smooth grid:   518755 G-vectors     FFT dimensions: (  80,  80, 192)

     Dynamical RAM for                 wfc:      14.24 MB

     Dynamical RAM for     wfc (w. buffer):     156.62 MB

     Dynamical RAM for           str. fact:       0.78 MB

     Dynamical RAM for           local pot:       0.00 MB

     Dynamical RAM for          nlocal pot:      21.36 MB

     Dynamical RAM for                qrad:       1.61 MB

     Dynamical RAM for          rho,v,vnew:       5.21 MB

     Dynamical RAM for               rhoin:       1.74 MB

     Dynamical RAM for            rho*nmix:      12.51 MB

     Dynamical RAM for           G-vectors:       3.03 MB

     Dynamical RAM for          h,s,v(r/c):       1.69 MB

     Dynamical RAM for          <psi|beta>:       7.59 MB

     Dynamical RAM for                 psi:      28.48 MB

     Dynamical RAM for                hpsi:      28.48 MB

     Dynamical RAM for                spsi:      28.48 MB

     Dynamical RAM for      wfcinit/wfcrot:      39.77 MB

     Dynamical RAM for           addusdens:     183.02 MB

     Estimated static dynamical RAM per process >     196.67 MB

     Estimated max dynamical RAM per process >     392.21 MB

     Estimated total dynamical RAM >      15.32 GB

     Initial potential from superposition of free atoms

     starting charge     959.9932, renormalised to     960.0000

     negative rho (up, down):  1.884E-03 0.000E+00
     Starting wfcs are  624 randomized atomic wfcs
[psid00:67285] 39 more processes have sent help message help-mpi-btl-openib.txt / ib port not selected
[psid00:67285] Set MCA parameter "orte_base_help_aggregate" to 0 to see all help / error messages
[psid00:67285] 39 more processes have sent help message help-mpi-btl-openib.txt / error in device init

     total cpu time spent up to now is      111.8 secs

     Self-consistent Calculation

     iteration #  1     ecut=    40.00 Ry     beta= 0.40
     Davidson diagonalization with overlap

---- Real-time Memory Report at c_bands before calling an iterative solver
           264 MiB given to the printing process from OS
             0 MiB allocation reported by mallinfo(arena+hblkhd)
         18816 MiB available memory on the node where the printing process lives
------------------
     ethr =  1.00E-02,  avg # of iterations =  9.6

     Threshold (ethr) on eigenvalues was too large:
     Diagonalizing with lowered threshold

     Davidson diagonalization with overlap

---- Real-time Memory Report at c_bands before calling an iterative solver
           439 MiB given to the printing process from OS
             0 MiB allocation reported by mallinfo(arena+hblkhd)
         16374 MiB available memory on the node where the printing process lives
------------------
     ethr =  1.61E-04,  avg # of iterations =  9.8

     negative rho (up, down):  3.312E-04 0.000E+00

     total cpu time spent up to now is      969.4 secs

     total energy              =  -22153.85659938 Ry
     estimated scf accuracy    <       1.57399258 Ry

     iteration #  2     ecut=    40.00 Ry     beta= 0.40
     Davidson diagonalization with overlap

---- Real-time Memory Report at c_bands before calling an iterative solver
           439 MiB given to the printing process from OS
             0 MiB allocation reported by mallinfo(arena+hblkhd)
         15492 MiB available memory on the node where the printing process lives
------------------
     ethr =  1.64E-04,  avg # of iterations =  2.4

     negative rho (up, down):  9.781E-04 0.000E+00

     total cpu time spent up to now is     1385.6 secs

     total energy              =  -22154.23545960 Ry
     estimated scf accuracy    <       0.27636643 Ry

     iteration #  3     ecut=    40.00 Ry     beta= 0.40
     Davidson diagonalization with overlap

---- Real-time Memory Report at c_bands before calling an iterative solver
           440 MiB given to the printing process from OS
             0 MiB allocation reported by mallinfo(arena+hblkhd)
         14507 MiB available memory on the node where the printing process lives
------------------
     c_bands:  1 eigenvalues not converged
     c_bands:  1 eigenvalues not converged
     ethr =  2.88E-05,  avg # of iterations =  9.6

     negative rho (up, down):  2.017E-03 0.000E+00

     total cpu time spent up to now is     1773.8 secs

     total energy              =  -22154.25240615 Ry
     estimated scf accuracy    <       0.04708204 Ry

     iteration #  4     ecut=    40.00 Ry     beta= 0.40
     Davidson diagonalization with overlap

---- Real-time Memory Report at c_bands before calling an iterative solver
           441 MiB given to the printing process from OS
             0 MiB allocation reported by mallinfo(arena+hblkhd)
         13600 MiB available memory on the node where the printing process lives
------------------
     c_bands:  1 eigenvalues not converged
     ethr =  4.90E-06,  avg # of iterations = 10.3

     negative rho (up, down):  1.990E-03 0.000E+00

     total cpu time spent up to now is     2177.4 secs

     total energy              =  -22154.25374522 Ry
     estimated scf accuracy    <       0.01460172 Ry

     iteration #  5     ecut=    40.00 Ry     beta= 0.40
     Davidson diagonalization with overlap

---- Real-time Memory Report at c_bands before calling an iterative solver
           441 MiB given to the printing process from OS
             0 MiB allocation reported by mallinfo(arena+hblkhd)
         12646 MiB available memory on the node where the printing process lives
------------------
     ethr =  1.52E-06,  avg # of iterations =  3.2

     negative rho (up, down):  2.089E-03 0.000E+00

     total cpu time spent up to now is     2546.6 secs

     total energy              =  -22154.25479055 Ry
     estimated scf accuracy    <       0.00223472 Ry

     iteration #  6     ecut=    40.00 Ry     beta= 0.40
     Davidson diagonalization with overlap

---- Real-time Memory Report at c_bands before calling an iterative solver
           442 MiB given to the printing process from OS
             0 MiB allocation reported by mallinfo(arena+hblkhd)
         11833 MiB available memory on the node where the printing process lives
------------------
     ethr =  2.33E-07,  avg # of iterations =  2.0

     negative rho (up, down):  2.157E-03 0.000E+00

     total cpu time spent up to now is     2948.5 secs

     total energy              =  -22154.25505367 Ry
     estimated scf accuracy    <       0.00127004 Ry

     iteration #  7     ecut=    40.00 Ry     beta= 0.40
     Davidson diagonalization with overlap

---- Real-time Memory Report at c_bands before calling an iterative solver
           442 MiB given to the printing process from OS
             0 MiB allocation reported by mallinfo(arena+hblkhd)
         10931 MiB available memory on the node where the printing process lives
------------------
     ethr =  1.32E-07,  avg # of iterations =  1.1

     negative rho (up, down):  2.223E-03 0.000E+00

     total cpu time spent up to now is     3246.5 secs

     total energy              =  -22154.25519641 Ry
     estimated scf accuracy    <       0.00042203 Ry

     iteration #  8     ecut=    40.00 Ry     beta= 0.40
     Davidson diagonalization with overlap

---- Real-time Memory Report at c_bands before calling an iterative solver
           443 MiB given to the printing process from OS
             0 MiB allocation reported by mallinfo(arena+hblkhd)
         10222 MiB available memory on the node where the printing process lives
------------------
     ethr =  4.40E-08,  avg # of iterations =  1.0

     negative rho (up, down):  2.263E-03 0.000E+00

     total cpu time spent up to now is     3538.6 secs

     total energy              =  -22154.25519854 Ry
     estimated scf accuracy    <       0.00004379 Ry

     iteration #  9     ecut=    40.00 Ry     beta= 0.40
     Davidson diagonalization with overlap

---- Real-time Memory Report at c_bands before calling an iterative solver
           443 MiB given to the printing process from OS
             0 MiB allocation reported by mallinfo(arena+hblkhd)
          9530 MiB available memory on the node where the printing process lives
------------------
     ethr =  4.56E-09,  avg # of iterations =  2.0

     negative rho (up, down):  2.290E-03 0.000E+00

     total cpu time spent up to now is     3974.8 secs

     total energy              =  -22154.25521127 Ry
     estimated scf accuracy    <       0.00001097 Ry

     iteration # 10     ecut=    40.00 Ry     beta= 0.40
     Davidson diagonalization with overlap

---- Real-time Memory Report at c_bands before calling an iterative solver
           443 MiB given to the printing process from OS
             0 MiB allocation reported by mallinfo(arena+hblkhd)
          8422 MiB available memory on the node where the printing process lives
------------------
     ethr =  1.14E-09,  avg # of iterations =  2.0

     negative rho (up, down):  2.334E-03 0.000E+00

     total cpu time spent up to now is     4397.9 secs

     End of self-consistent calculation

          k = 0.0000 0.0000 0.0000 ( 64855 PWs)   bands (ev):

  -125.0671-125.0656-125.0656-125.0654-125.0653-125.0651-125.0651-125.0639
  -125.0639-125.0638-125.0637-125.0636-125.0634-125.0634-125.0632-125.0632
  -124.8631-124.8628-124.8615-124.8615-124.8613-124.8613-124.8612-124.8612
  -124.8611-124.8611-124.8611-124.8610-124.8609-124.8609-124.8599-124.8597
  -124.8597-124.8596-124.8596-124.8595-124.8595-124.8595-124.8594-124.8594
  -124.8593-124.8593-124.8593-124.8593-124.8592-124.8591-124.8591-124.8590
   -79.2333 -79.2333 -79.2333 -79.2268 -79.2268 -79.2267 -79.2266 -79.2266
   -79.2266 -79.2159 -79.2154 -79.2154 -79.2153 -79.2153 -79.2152 -79.2152
   -79.2141 -79.2141 -79.2139 -79.2138 -79.2136 -79.2136 -79.2134 -79.2134
   -79.2133 -79.2133 -79.2132 -79.2132 -79.2122 -79.2121 -79.2120 -79.2120
   -79.2118 -79.2117 -79.2116 -79.2115 -79.2115 -79.2067 -79.2067 -79.2067
   -79.2021 -79.2020 -79.2020 -79.2019 -79.2018 -79.2018 -79.1972 -79.1972
   -79.0258 -79.0258 -79.0258 -79.0256 -79.0256 -79.0256 -79.0204 -79.0201
   -79.0193 -79.0193 -79.0192 -79.0192 -79.0191 -79.0191 -79.0190 -79.0190
   -79.0189 -79.0189 -79.0189 -79.0188 -79.0186 -79.0186 -79.0184 -79.0184
   -79.0184 -79.0184 -79.0183 -79.0183 -79.0182 -79.0182 -79.0181 -79.0181
   -79.0169 -79.0167 -79.0167 -79.0166 -79.0166 -79.0165 -79.0165 -79.0165
   -79.0164 -79.0164 -79.0163 -79.0163 -79.0163 -79.0163 -79.0162 -79.0162
   -79.0161 -79.0160 -79.0080 -79.0080 -79.0079 -79.0079 -79.0078 -79.0078
   -79.0077 -79.0077 -79.0076 -79.0076 -79.0075 -79.0075 -79.0059 -79.0059
   -79.0059 -79.0058 -79.0058 -79.0058 -79.0057 -79.0057 -79.0056 -79.0056
   -79.0055 -79.0055 -78.9993 -78.9993 -78.9992 -78.9990 -78.9990 -78.9990
   -78.9946 -78.9946 -78.9945 -78.9945 -78.9945 -78.9944 -78.9944 -78.9943
   -78.9943 -78.9943 -78.9942 -78.9942 -78.9898 -78.9898 -78.9896 -78.9896
    -8.6221  -7.4001  -7.0920  -7.0681  -7.0681  -7.0681  -7.0680  -7.0679
    -7.0679  -6.9140  -6.9140  -6.9140  -6.7250  -6.7250  -6.7250  -6.6775
    -6.6775  -6.6775  -6.5887  -6.5887  -6.5886  -6.5886  -6.5886  -6.5886
    -6.5395  -6.5395  -6.5395  -6.5395  -6.5394  -6.5394  -6.5360  -6.5360
    -6.5360  -6.4786  -6.4786  -6.4785  -6.4785  -6.4784  -6.4784  -6.4318
    -6.4318  -6.4317  -6.4317  -6.4316  -6.4316  -6.3345  -6.3345  -6.3344
    -6.3344  -6.3343  -6.3343  -6.3330  -6.3329  -6.3329  -6.2732  -6.2732
    -6.2731  -6.2731  -6.2730  -6.2730  -6.2700  -6.2111  -6.2111  -6.2110
    -6.2110  -6.2109  -6.2109  -6.1711  -6.1711  -6.1711  -6.1710  -6.1710
    -6.1710  -6.1454  -6.1454  -6.1454  -6.1454  -6.1453  -6.1453  -6.1218
    -6.1218  -6.1218  -6.1218  -6.1218  -6.1218  -6.1217  -6.1217  -6.0970
    -6.0970  -6.0970  -6.0963  -6.0963  -6.0962  -6.0962  -6.0962  -6.0962
    -5.9938  -5.9938  -5.9937  -5.9937  -5.9937  -5.9937  -5.9159  -5.9159
    -5.8971  -5.8971  -5.8652  -5.8652  -5.8652  -5.8652  -5.8651  -5.8651
    -5.8630  -5.8630  -5.8629  -5.8629  -5.8628  -5.8628  -5.8316  -5.8316
    -5.8316  -5.7825  -5.7825  -5.7824  -5.7824  -5.7824  -5.7824  -5.7761
    -5.7761  -5.7761  -5.7761  -5.7761  -5.7761  -5.7760  -5.7760  -5.7759
    -5.7759  -5.7759  -5.7759  -5.7540  -5.7540  -5.7540  -5.7540  -5.7539
    -5.7539  -5.7446  -5.7446  -5.7445  -5.7445  -5.7444  -5.7444  -5.7276
    -5.7276  -5.7275  -5.7275  -5.7274  -5.7274  -5.7157  -5.7087  -5.7087
    -5.7086  -5.7086  -5.7085  -5.7085  -5.6970  -5.6970  -5.6970  -5.6101
    -5.6101  -5.5749  -5.5749  -5.5748  -5.5748  -5.5747  -5.5747  -5.5687
    -5.5687  -5.5686  -5.5686  -5.5685  -5.5685  -5.5453  -5.5453  -5.5452
    -5.5452  -5.5451  -5.5451  -5.5288  -5.5288  -5.5288  -5.5019  -5.5019
    -5.5018  -5.5018  -5.5018  -5.5018  -5.4933  -5.4933  -5.4933  -5.4933
    -5.4932  -5.4932  -5.4453  -5.4453  -5.4452  -5.4452  -5.4451  -5.4451
    -5.4337  -5.4337  -5.4337  -5.4327  -5.4327  -5.4327  -5.3973  -5.3973
    -5.3973  -5.3905  -5.3905  -5.3904  -5.3904  -5.3903  -5.3903  -5.3828
    -5.3828  -5.3615  -5.3615  -5.3196  -5.3196  -5.3195  -5.3195  -5.3194
    -5.3194  -5.2898  -5.2898  -5.2898  -5.2898  -5.2898  -5.2898  -5.2805
    -5.2805  -5.2805  -5.0708  -5.0708  -5.0708  -5.0706  -5.0706  -5.0706
    -4.3973  -4.3973  -4.3972  -4.3972  -4.3970  -4.3970  -3.4499  -2.1032
    -2.1032  -2.1032  -2.1032  -2.1032  -2.1032  -2.0199  -2.0199  -2.0198
    -2.0197  -2.0196  -2.0196  -0.8422  -0.8422  -0.8422  -0.7119  -0.6398
    -0.6398  -0.6397  -0.6397  -0.6397  -0.6397  -0.0842  -0.0842  -0.0842
     0.2454   0.2454   0.2454   1.5366   1.5366   1.5366   1.5366   1.5366
     1.5366   1.5809   1.5810   1.5811   1.5811   1.5812   1.5812   2.3094
     2.3094   2.3094   3.1108   3.3015   3.3015   3.3015   4.1418   4.1418
     4.1418   4.8862   4.8862   4.8863   4.8864   4.8864   4.8865   5.1220
     5.3976   5.4275   5.4275   5.4275   5.4275   5.4276   5.4276   5.4349
     5.4349   5.4350   5.4350   5.4351   5.4351   5.6055   5.6055   5.6056
     5.6056   5.6057   5.6057   6.2846   6.5036   6.5626   6.5626   6.5626
     6.9173   6.9173   6.9173   6.9174   6.9174   6.9174   7.0110   7.0110
     7.0110   7.0111   7.0111   7.0111   7.1890   7.1890   7.1891   7.1891
     7.1892   7.1892   7.2338   7.2339   7.2339   7.2341   7.2341   7.2341
     8.1226   8.1227   8.1227   8.1228   8.1228   8.1228   8.1464   8.1464
     8.1464   8.1464   8.1465   8.1465   8.2909   8.2911   8.2911   8.2913
     8.2913   8.2914   8.3061   8.3763   8.3763   8.3763   8.4389   9.2870

     occupation numbers 
     1.0000   1.0000   1.0000   1.0000   1.0000   1.0000   1.0000   1.0000
     1.0000   1.0000   1.0000   1.0000   1.0000   1.0000   1.0000   1.0000
     1.0000   1.0000   1.0000   1.0000   1.0000   1.0000   1.0000   1.0000
     1.0000   1.0000   1.0000   1.0000   1.0000   1.0000   1.0000   1.0000
     1.0000   1.0000   1.0000   1.0000   1.0000   1.0000   1.0000   1.0000
     1.0000   1.0000   1.0000   1.0000   1.0000   1.0000   1.0000   1.0000
     1.0000   1.0000   1.0000   1.0000   1.0000   1.0000   1.0000   1.0000
     1.0000   1.0000   1.0000   1.0000   1.0000   1.0000   1.0000   1.0000
     1.0000   1.0000   1.0000   1.0000   1.0000   1.0000   1.0000   1.0000
     1.0000   1.0000   1.0000   1.0000   1.0000   1.0000   1.0000   1.0000
     1.0000   1.0000   1.0000   1.0000   1.0000   1.0000   1.0000   1.0000
     1.0000   1.0000   1.0000   1.0000   1.0000   1.0000   1.0000   1.0000
     1.0000   1.0000   1.0000   1.0000   1.0000   1.0000   1.0000   1.0000
     1.0000   1.0000   1.0000   1.0000   1.0000   1.0000   1.0000   1.0000
     1.0000   1.0000   1.0000   1.0000   1.0000   1.0000   1.0000   1.0000
     1.0000   1.0000   1.0000   1.0000   1.0000   1.0000   1.0000   1.0000
     1.0000   1.0000   1.0000   1.0000   1.0000   1.0000   1.0000   1.0000
     1.0000   1.0000   1.0000   1.0000   1.0000   1.0000   1.0000   1.0000
     1.0000   1.0000   1.0000   1.0000   1.0000   1.0000   1.0000   1.0000
     1.0000   1.0000   1.0000   1.0000   1.0000   1.0000   1.0000   1.0000
     1.0000   1.0000   1.0000   1.0000   1.0000   1.0000   1.0000   1.0000
     1.0000   1.0000   1.0000   1.0000   1.0000   1.0000   1.0000   1.0000
     1.0000   1.0000   1.0000   1.0000   1.0000   1.0000   1.0000   1.0000
     1.0000   1.0000   1.0000   1.0000   1.0000   1.0000   1.0000   1.0000
     1.0000   1.0000   1.0000   1.0000   1.0000   1.0000   1.0000   1.0000
     1.0000   1.0000   1.0000   1.0000   1.0000   1.0000   1.0000   1.0000
     1.0000   1.0000   1.0000   1.0000   1.0000   1.0000   1.0000   1.0000
     1.0000   1.0000   1.0000   1.0000   1.0000   1.0000   1.0000   1.0000
     1.0000   1.0000   1.0000   1.0000   1.0000   1.0000   1.0000   1.0000
     1.0000   1.0000   1.0000   1.0000   1.0000   1.0000   1.0000   1.0000
     1.0000   1.0000   1.0000   1.0000   1.0000   1.0000   1.0000   1.0000
     1.0000   1.0000   1.0000   1.0000   1.0000   1.0000   1.0000   1.0000
     1.0000   1.0000   1.0000   1.0000   1.0000   1.0000   1.0000   1.0000
     1.0000   1.0000   1.0000   1.0000   1.0000   1.0000   1.0000   1.0000
     1.0000   1.0000   1.0000   1.0000   1.0000   1.0000   1.0000   1.0000
     1.0000   1.0000   1.0000   1.0000   1.0000   1.0000   1.0000   1.0000
     1.0000   1.0000   1.0000   1.0000   1.0000   1.0000   1.0000   1.0000
     1.0000   1.0000   1.0000   1.0000   1.0000   1.0000   1.0000   1.0000
     1.0000   1.0000   1.0000   1.0000   1.0000   1.0000   1.0000   1.0000
     1.0000   1.0000   1.0000   1.0000   1.0000   1.0000   1.0000   1.0000
     1.0000   1.0000   1.0000   1.0000   1.0000   1.0000   1.0000   1.0000
     1.0000   1.0000   1.0000   1.0000   1.0000   1.0000   1.0000   1.0000
     1.0000   1.0000   1.0000   1.0000   1.0000   1.0000   1.0000   1.0000
     1.0000   1.0000   1.0000   1.0000   1.0000   1.0000   1.0000   1.0000
     1.0000   1.0000   1.0000   1.0000   1.0000   1.0000   1.0000   1.0000
     1.0000   1.0000   1.0000   1.0000   1.0000   1.0000   1.0000   1.0000
     1.0000   1.0000   1.0000   1.0000   1.0000   1.0000   1.0000   1.0000
     1.0000   1.0000   1.0000   1.0000   1.0000   1.0000   1.0000   1.0000
     1.0000   1.0000   1.0000   1.0000   1.0000   1.0000   1.0000   1.0000
     1.0000   1.0000   1.0000   1.0000   1.0000   1.0000   1.0000   1.0000
     1.0000   1.0000   1.0000   1.0000   1.0000   1.0000   1.0000   1.0000
     1.0000   1.0000   1.0000   1.0000   1.0000   1.0000   1.0000   1.0000
     1.0000   1.0000   1.0000   1.0000   1.0000   1.0000   1.0000   1.0000
     1.0000   1.0000   1.0000   1.0000   1.0000   1.0000   1.0000   1.0000
     1.0000   1.0000   1.0000   1.0000   1.0000   1.0000   1.0000   1.0000
     1.0000   1.0000   1.0000   1.0000   1.0000   1.0000   1.0000   1.0000
     1.0000   1.0000   1.0000   1.0000   1.0000   1.0000   1.0000   1.0000
     1.0000   1.0000   1.0000   1.0000   1.0000   1.0000   1.0000   1.0000
     1.0000   1.0000   1.0000   1.0000   1.0000   1.0000   1.0000   1.0000
     1.0000   1.0000   1.0000   0.1848   0.1848   0.1848   0.1848   0.1848
     0.1848   0.1224   0.1224   0.1223   0.1223   0.1222   0.1221   0.0000
     0.0000   0.0000   0.0000   0.0000   0.0000   0.0000   0.0000   0.0000
     0.0000   0.0000   0.0000   0.0000   0.0000   0.0000   0.0000   0.0000
     0.0000   0.0000   0.0000   0.0000   0.0000   0.0000   0.0000   0.0000
     0.0000   0.0000   0.0000   0.0000   0.0000   0.0000   0.0000   0.0000
     0.0000   0.0000   0.0000   0.0000   0.0000   0.0000   0.0000   0.0000
     0.0000   0.0000   0.0000   0.0000   0.0000   0.0000   0.0000   0.0000
     0.0000   0.0000   0.0000   0.0000   0.0000   0.0000   0.0000   0.0000
     0.0000   0.0000   0.0000   0.0000   0.0000   0.0000   0.0000   0.0000
     0.0000   0.0000   0.0000   0.0000   0.0000   0.0000   0.0000   0.0000
     0.0000   0.0000   0.0000   0.0000   0.0000   0.0000   0.0000   0.0000
     0.0000   0.0000   0.0000   0.0000   0.0000   0.0000   0.0000   0.0000

          k = 0.0000 0.2887 0.0000 ( 64808 PWs)   bands (ev):

  -125.0670-125.0661-125.0656-125.0655-125.0651-125.0649-125.0646-125.0642
  -125.0640-125.0638-125.0637-125.0636-125.0635-125.0634-125.0631-125.0631
  -124.8629-124.8627-124.8620-124.8618-124.8616-124.8615-124.8613-124.8613
  -124.8610-124.8609-124.8607-124.8606-124.8606-124.8603-124.8601-124.8600
  -124.8598-124.8597-124.8597-124.8596-124.8595-124.8595-124.8595-124.8594
  -124.8594-124.8593-124.8593-124.8592-124.8592-124.8591-124.8589-124.8589
   -79.2326 -79.2326 -79.2320 -79.2280 -79.2280 -79.2271 -79.2271 -79.2252
   -79.2252 -79.2222 -79.2190 -79.2190 -79.2163 -79.2163 -79.2157 -79.2147
   -79.2141 -79.2141 -79.2135 -79.2134 -79.2130 -79.2125 -79.2124 -79.2123
   -79.2123 -79.2121 -79.2120 -79.2119 -79.2119 -79.2118 -79.2118 -79.2117
   -79.2114 -79.2113 -79.2096 -79.2096 -79.2084 -79.2074 -79.2074 -79.2063
   -79.2038 -79.2035 -79.2034 -79.2015 -79.2015 -79.2001 -79.1986 -79.1976
   -79.0251 -79.0251 -79.0248 -79.0248 -79.0245 -79.0242 -79.0205 -79.0205
   -79.0203 -79.0202 -79.0202 -79.0200 -79.0196 -79.0196 -79.0193 -79.0193
   -79.0192 -79.0190 -79.0187 -79.0187 -79.0185 -79.0185 -79.0181 -79.0180
   -79.0179 -79.0178 -79.0177 -79.0177 -79.0176 -79.0174 -79.0174 -79.0174
   -79.0171 -79.0170 -79.0169 -79.0168 -79.0167 -79.0166 -79.0165 -79.0165
   -79.0165 -79.0164 -79.0164 -79.0163 -79.0163 -79.0162 -79.0161 -79.0161
   -79.0159 -79.0159 -79.0148 -79.0145 -79.0116 -79.0116 -79.0113 -79.0113
   -79.0089 -79.0089 -79.0086 -79.0086 -79.0049 -79.0048 -79.0046 -79.0046
   -79.0045 -79.0045 -79.0043 -79.0043 -79.0022 -79.0022 -79.0019 -79.0019
   -79.0010 -79.0007 -79.0000 -79.0000 -78.9997 -78.9997 -78.9989 -78.9986
   -78.9964 -78.9961 -78.9961 -78.9960 -78.9958 -78.9958 -78.9941 -78.9941
   -78.9938 -78.9938 -78.9927 -78.9925 -78.9912 -78.9909 -78.9902 -78.9899
    -8.5033  -7.6198  -7.3002  -7.2478  -7.2478  -7.0294  -6.8978  -6.8716
    -6.8716  -6.8489  -6.8455  -6.8455  -6.7062  -6.6913  -6.6913  -6.6904
    -6.6750  -6.6622  -6.6377  -6.6377  -6.5895  -6.5800  -6.5770  -6.5770
    -6.5672  -6.5672  -6.5479  -6.5479  -6.5280  -6.5280  -6.5181  -6.5181
    -6.5165  -6.5117  -6.5117  -6.5088  -6.5088  -6.5018  -6.5018  -6.4860
    -6.4860  -6.4603  -6.4603  -6.4227  -6.4227  -6.3947  -6.3947  -6.3798
    -6.3798  -6.3756  -6.3216  -6.3168  -6.3168  -6.3152  -6.3152  -6.3149
    -6.3149  -6.2684  -6.2684  -6.2591  -6.2515  -6.2291  -6.2291  -6.2229
    -6.2229  -6.2214  -6.2214  -6.2213  -6.2079  -6.2079  -6.2043  -6.2042
    -6.1952  -6.1952  -6.1835  -6.1835  -6.1795  -6.1780  -6.1780  -6.1540
    -6.1374  -6.1230  -6.1230  -6.1138  -6.1137  -6.1001  -6.1001  -6.0925
    -6.0900  -6.0900  -6.0776  -6.0631  -6.0631  -6.0494  -6.0494  -6.0483
    -6.0483  -5.9586  -5.9586  -5.9585  -5.9585  -5.9432  -5.9404  -5.9367
    -5.9366  -5.9344  -5.9344  -5.9238  -5.9238  -5.9122  -5.9108  -5.9108
    -5.8926  -5.8925  -5.8886  -5.8854  -5.8808  -5.8735  -5.8735  -5.8680
    -5.8456  -5.8456  -5.8387  -5.8387  -5.8245  -5.8110  -5.7950  -5.7950
    -5.7949  -5.7949  -5.7861  -5.7861  -5.7762  -5.7762  -5.7754  -5.7725
    -5.7725  -5.7548  -5.7548  -5.7472  -5.7472  -5.7395  -5.7299  -5.7299
    -5.7141  -5.7127  -5.7127  -5.7046  -5.7046  -5.6969  -5.6969  -5.6945
    -5.6945  -5.6917  -5.6917  -5.6787  -5.6674  -5.6674  -5.6563  -5.6437
    -5.6388  -5.6388  -5.6330  -5.6330  -5.6180  -5.6180  -5.6165  -5.6157
    -5.6157  -5.6118  -5.6111  -5.6048  -5.6048  -5.5791  -5.5634  -5.5602
    -5.5602  -5.5559  -5.5559  -5.5472  -5.5472  -5.5449  -5.5449  -5.5434
    -5.5434  -5.5405  -5.5260  -5.5260  -5.5252  -5.5207  -5.5207  -5.5119
    -5.5119  -5.4908  -5.4907  -5.4623  -5.4597  -5.4575  -5.4575  -5.4534
    -5.4534  -5.4511  -5.4511  -5.4391  -5.4391  -5.4299  -5.4252  -5.4252
    -5.4228  -5.4195  -5.4137  -5.4134  -5.4023  -5.4023  -5.3988  -5.3988
    -5.3878  -5.3862  -5.3862  -5.3797  -5.3682  -5.3682  -5.3636  -5.3586
    -5.3451  -5.3451  -5.3405  -5.3316  -5.3195  -5.3195  -5.3131  -5.3110
    -5.3110  -5.3012  -5.3012  -5.2925  -5.2925  -5.2820  -5.2820  -5.1432
    -5.1432  -5.1287  -5.1287  -5.1232  -5.1232  -5.1049  -5.1042  -4.9468
    -4.9340  -4.6379  -4.6379  -3.8807  -3.8807  -3.4796  -3.3934  -3.3934
    -3.3649  -2.6732  -2.3014  -2.3014  -2.2216  -2.0208  -2.0208  -1.9709
    -1.9709  -1.5145  -1.5144  -1.2918  -1.2918  -1.1165  -0.7946  -0.5726
    -0.5726  -0.5605  -0.5605  -0.5518   0.0242   0.0242   0.2694   0.2694
     0.5604   0.5604   0.6338   0.8769   0.8987   0.8987   1.1839   1.1839
     1.5568   1.5568   2.2268   2.2268   2.6476   2.6969   2.6969   2.7214
     2.7829   2.7829   2.9504   2.9504   3.2227   3.5469   3.6911   3.6911
     3.9090   3.9090   4.1151   4.1855   4.1855   4.5592   4.5592   4.8021
     4.8021   4.8436   4.8436   5.1521   5.1521   5.1608   5.1608   5.2347
     5.4288   5.4288   5.5127   5.5687   5.6431   5.7939   5.7939   5.8092
     6.0945   6.0945   6.1352   6.3134   6.3134   6.4007   6.4320   6.5842
     6.5842   6.5948   6.5948   6.6161   6.7111   6.8909   6.8909   7.0105
     7.0105   7.0873   7.0873   7.1745   7.1745   7.3093   7.3093   7.3253
     7.4477   7.4477   7.4657   7.4657   7.5145   7.6573   7.6573   7.7672
     7.7847   7.7847   7.7941   7.7942   7.9466   7.9466   7.9618   7.9618
     8.0326   8.0326   8.2662   8.3382   8.4215   8.5507   8.6988   8.7192
     8.7192   8.8083   8.8083   8.8083   8.8286   8.8286   8.8369   8.8369

     occupation numbers 
     1.0000   1.0000   1.0000   1.0000   1.0000   1.0000   1.0000   1.0000
     1.0000   1.0000   1.0000   1.0000   1.0000   1.0000   1.0000   1.0000
     1.0000   1.0000   1.0000   1.0000   1.0000   1.0000   1.0000   1.0000
     1.0000   1.0000   1.0000   1.0000   1.0000   1.0000   1.0000   1.0000
     1.0000   1.0000   1.0000   1.0000   1.0000   1.0000   1.0000   1.0000
     1.0000   1.0000   1.0000   1.0000   1.0000   1.0000   1.0000   1.0000
     1.0000   1.0000   1.0000   1.0000   1.0000   1.0000   1.0000   1.0000
     1.0000   1.0000   1.0000   1.0000   1.0000   1.0000   1.0000   1.0000
     1.0000   1.0000   1.0000   1.0000   1.0000   1.0000   1.0000   1.0000
     1.0000   1.0000   1.0000   1.0000   1.0000   1.0000   1.0000   1.0000
     1.0000   1.0000   1.0000   1.0000   1.0000   1.0000   1.0000   1.0000
     1.0000   1.0000   1.0000   1.0000   1.0000   1.0000   1.0000   1.0000
     1.0000   1.0000   1.0000   1.0000   1.0000   1.0000   1.0000   1.0000
     1.0000   1.0000   1.0000   1.0000   1.0000   1.0000   1.0000   1.0000
     1.0000   1.0000   1.0000   1.0000   1.0000   1.0000   1.0000   1.0000
     1.0000   1.0000   1.0000   1.0000   1.0000   1.0000   1.0000   1.0000
     1.0000   1.0000   1.0000   1.0000   1.0000   1.0000   1.0000   1.0000
     1.0000   1.0000   1.0000   1.0000   1.0000   1.0000   1.0000   1.0000
     1.0000   1.0000   1.0000   1.0000   1.0000   1.0000   1.0000   1.0000
     1.0000   1.0000   1.0000   1.0000   1.0000   1.0000   1.0000   1.0000
     1.0000   1.0000   1.0000   1.0000   1.0000   1.0000   1.0000   1.0000
     1.0000   1.0000   1.0000   1.0000   1.0000   1.0000   1.0000   1.0000
     1.0000   1.0000   1.0000   1.0000   1.0000   1.0000   1.0000   1.0000
     1.0000   1.0000   1.0000   1.0000   1.0000   1.0000   1.0000   1.0000
     1.0000   1.0000   1.0000   1.0000   1.0000   1.0000   1.0000   1.0000
     1.0000   1.0000   1.0000   1.0000   1.0000   1.0000   1.0000   1.0000
     1.0000   1.0000   1.0000   1.0000   1.0000   1.0000   1.0000   1.0000
     1.0000   1.0000   1.0000   1.0000   1.0000   1.0000   1.0000   1.0000
     1.0000   1.0000   1.0000   1.0000   1.0000   1.0000   1.0000   1.0000
     1.0000   1.0000   1.0000   1.0000   1.0000   1.0000   1.0000   1.0000
     1.0000   1.0000   1.0000   1.0000   1.0000   1.0000   1.0000   1.0000
     1.0000   1.0000   1.0000   1.0000   1.0000   1.0000   1.0000   1.0000
     1.0000   1.0000   1.0000   1.0000   1.0000   1.0000   1.0000   1.0000
     1.0000   1.0000   1.0000   1.0000   1.0000   1.0000   1.0000   1.0000
     1.0000   1.0000   1.0000   1.0000   1.0000   1.0000   1.0000   1.0000
     1.0000   1.0000   1.0000   1.0000   1.0000   1.0000   1.0000   1.0000
     1.0000   1.0000   1.0000   1.0000   1.0000   1.0000   1.0000   1.0000
     1.0000   1.0000   1.0000   1.0000   1.0000   1.0000   1.0000   1.0000
     1.0000   1.0000   1.0000   1.0000   1.0000   1.0000   1.0000   1.0000
     1.0000   1.0000   1.0000   1.0000   1.0000   1.0000   1.0000   1.0000
     1.0000   1.0000   1.0000   1.0000   1.0000   1.0000   1.0000   1.0000
     1.0000   1.0000   1.0000   1.0000   1.0000   1.0000   1.0000   1.0000
     1.0000   1.0000   1.0000   1.0000   1.0000   1.0000   1.0000   1.0000
     1.0000   1.0000   1.0000   1.0000   1.0000   1.0000   1.0000   1.0000
     1.0000   1.0000   1.0000   1.0000   1.0000   1.0000   1.0000   1.0000
     1.0000   1.0000   1.0000   1.0000   1.0000   1.0000   1.0000   1.0000
     1.0000   1.0000   1.0000   1.0000   1.0000   1.0000   1.0000   1.0000
     1.0000   1.0000   1.0000   1.0000   1.0000   1.0000   1.0000   1.0000
     1.0000   1.0000   1.0000   1.0000   1.0000   1.0000   1.0000   1.0000
     1.0000   1.0000   1.0000   1.0000   1.0000   1.0000   1.0000   1.0000
     1.0000   1.0000   1.0000   1.0000   1.0000   1.0000   1.0000   1.0000
     1.0000   1.0000   1.0000   1.0000   1.0000   1.0000   1.0000   1.0000
     1.0000   1.0000   1.0000   1.0000   1.0000   1.0000   1.0000   1.0000
     1.0000   1.0000   1.0000   1.0000   1.0000   1.0000   1.0000   1.0000
     1.0000   1.0000   1.0000   1.0000   1.0000   1.0000   1.0000   1.0000
     1.0000   1.0000   1.0000   1.0000   1.0000   1.0000   1.0000   1.0000
     1.0000   1.0000   1.0000   1.0000   1.0000   1.0000   1.0000   1.0000
     1.0000   1.0000   1.0000   1.0000   1.0000   1.0000   1.0000   1.0000
     1.0000   1.0000   1.0000   1.0000   1.0000   1.0000   1.0000   1.0000
     1.0006   1.0006   1.0019   1.0374   1.0443   1.0443   0.9984   0.9984
     0.1541   0.1541   0.0000   0.0000   0.0000   0.0000   0.0000   0.0000
     0.0000   0.0000   0.0000   0.0000   0.0000   0.0000   0.0000   0.0000
     0.0000   0.0000   0.0000   0.0000   0.0000   0.0000   0.0000   0.0000
     0.0000   0.0000   0.0000   0.0000   0.0000   0.0000   0.0000   0.0000
     0.0000   0.0000   0.0000   0.0000   0.0000   0.0000   0.0000   0.0000
     0.0000   0.0000   0.0000   0.0000   0.0000   0.0000   0.0000   0.0000
     0.0000   0.0000   0.0000   0.0000   0.0000   0.0000   0.0000   0.0000
     0.0000   0.0000   0.0000   0.0000   0.0000   0.0000   0.0000   0.0000
     0.0000   0.0000   0.0000   0.0000   0.0000   0.0000   0.0000   0.0000
     0.0000   0.0000   0.0000   0.0000   0.0000   0.0000   0.0000   0.0000
     0.0000   0.0000   0.0000   0.0000   0.0000   0.0000   0.0000   0.0000
     0.0000   0.0000   0.0000   0.0000   0.0000   0.0000   0.0000   0.0000

          k = 0.0000-0.5774 0.0000 ( 64842 PWs)   bands (ev):

  -125.0667-125.0666-125.0657-125.0656-125.0646-125.0646-125.0645-125.0644
  -125.0641-125.0640-125.0636-125.0636-125.0635-125.0634-125.0631-125.0630
  -124.8626-124.8625-124.8623-124.8623-124.8616-124.8616-124.8614-124.8614
  -124.8605-124.8605-124.8605-124.8604-124.8603-124.8602-124.8602-124.8602
  -124.8600-124.8600-124.8598-124.8597-124.8596-124.8596-124.8595-124.8595
  -124.8594-124.8593-124.8593-124.8592-124.8591-124.8591-124.8589-124.8588
   -79.2306 -79.2306 -79.2305 -79.2304 -79.2282 -79.2281 -79.2270 -79.2270
   -79.2225 -79.2225 -79.2225 -79.2225 -79.2176 -79.2176 -79.2153 -79.2153
   -79.2142 -79.2142 -79.2130 -79.2129 -79.2129 -79.2128 -79.2124 -79.2124
   -79.2119 -79.2118 -79.2118 -79.2117 -79.2113 -79.2113 -79.2110 -79.2110
   -79.2095 -79.2095 -79.2094 -79.2094 -79.2061 -79.2061 -79.2061 -79.2061
   -79.2053 -79.2052 -79.2026 -79.2025 -79.2015 -79.2015 -79.1987 -79.1985
   -79.0231 -79.0231 -79.0230 -79.0230 -79.0228 -79.0228 -79.0227 -79.0227
   -79.0206 -79.0206 -79.0204 -79.0203 -79.0199 -79.0198 -79.0196 -79.0195
   -79.0195 -79.0195 -79.0193 -79.0193 -79.0188 -79.0188 -79.0186 -79.0186
   -79.0176 -79.0176 -79.0175 -79.0175 -79.0174 -79.0173 -79.0173 -79.0173
   -79.0171 -79.0170 -79.0169 -79.0168 -79.0166 -79.0166 -79.0165 -79.0165
   -79.0164 -79.0164 -79.0163 -79.0162 -79.0161 -79.0160 -79.0159 -79.0158
   -79.0150 -79.0150 -79.0150 -79.0150 -79.0148 -79.0148 -79.0148 -79.0148
   -79.0101 -79.0101 -79.0099 -79.0099 -79.0036 -79.0036 -79.0033 -79.0033
   -79.0021 -79.0021 -79.0020 -79.0020 -79.0018 -79.0018 -79.0017 -79.0017
   -78.9987 -78.9987 -78.9987 -78.9987 -78.9985 -78.9984 -78.9984 -78.9984
   -78.9979 -78.9978 -78.9976 -78.9976 -78.9952 -78.9951 -78.9949 -78.9948
   -78.9941 -78.9941 -78.9938 -78.9938 -78.9912 -78.9912 -78.9910 -78.9909
    -8.1554  -8.1553  -7.3165  -7.3165  -7.0257  -7.0257  -6.8641  -6.8640
    -6.8593  -6.8592  -6.7492  -6.7492  -6.7491  -6.7491  -6.6532  -6.6531
    -6.6465  -6.6465  -6.6465  -6.6465  -6.6242  -6.6241  -6.6066  -6.6065
    -6.6065  -6.6064  -6.5535  -6.5535  -6.5284  -6.5283  -6.5283  -6.5283
    -6.5058  -6.5058  -6.4870  -6.4870  -6.4870  -6.4870  -6.4627  -6.4627
    -6.4627  -6.4627  -6.4604  -6.4603  -6.4492  -6.4492  -6.4257  -6.4256
    -6.4214  -6.4214  -6.4213  -6.4213  -6.3098  -6.3098  -6.3009  -6.3009
    -6.2926  -6.2926  -6.2926  -6.2926  -6.2913  -6.2912  -6.2703  -6.2703
    -6.2703  -6.2702  -6.2362  -6.2361  -6.2207  -6.2207  -6.2207  -6.2207
    -6.2056  -6.2056  -6.2007  -6.2007  -6.1697  -6.1696  -6.1418  -6.1418
    -6.1112  -6.1112  -6.1028  -6.1028  -6.0821  -6.0821  -6.0821  -6.0820
    -6.0614  -6.0614  -6.0614  -6.0614  -6.0414  -6.0414  -6.0318  -6.0318
    -6.0255  -6.0255  -6.0218  -6.0217  -6.0086  -6.0085  -5.9895  -5.9895
    -5.9895  -5.9895  -5.9463  -5.9463  -5.9451  -5.9451  -5.9148  -5.9147
    -5.9049  -5.9049  -5.8714  -5.8714  -5.8713  -5.8713  -5.8143  -5.8143
    -5.8087  -5.8087  -5.8083  -5.8082  -5.8082  -5.8082  -5.8046  -5.8045
    -5.7867  -5.7867  -5.7843  -5.7842  -5.7756  -5.7756  -5.7755  -5.7755
    -5.7678  -5.7678  -5.7671  -5.7671  -5.7671  -5.7671  -5.7552  -5.7552
    -5.7534  -5.7534  -5.7534  -5.7534  -5.6747  -5.6747  -5.6733  -5.6733
    -5.6665  -5.6665  -5.6450  -5.6450  -5.6450  -5.6450  -5.6305  -5.6304
    -5.6233  -5.6233  -5.6041  -5.6041  -5.6041  -5.6041  -5.5938  -5.5938
    -5.5698  -5.5697  -5.5433  -5.5432  -5.5285  -5.5285  -5.5285  -5.5285
    -5.5259  -5.5259  -5.5259  -5.5259  -5.5226  -5.5226  -5.5204  -5.5203
    -5.4985  -5.4985  -5.4984  -5.4984  -5.4884  -5.4884  -5.4884  -5.4883
    -5.4865  -5.4865  -5.4784  -5.4784  -5.4635  -5.4635  -5.4635  -5.4635
    -5.4512  -5.4512  -5.4511  -5.4511  -5.4393  -5.4393  -5.4222  -5.4221
    -5.4152  -5.4152  -5.4151  -5.4151  -5.4118  -5.4118  -5.4114  -5.4114
    -5.4052  -5.4052  -5.4021  -5.4020  -5.3996  -5.3995  -5.3699  -5.3699
    -5.3622  -5.3622  -5.3622  -5.3622  -5.3238  -5.3238  -5.3238  -5.3238
    -5.2537  -5.2537  -5.2536  -5.2536  -5.2349  -5.2348  -5.2337  -5.2337
    -5.2337  -5.2337  -5.2008  -5.2007  -5.1981  -5.1980  -4.7017  -4.7017
    -4.4179  -4.4179  -4.4179  -4.4179  -3.7279  -3.7279  -3.1102  -3.1101
    -3.0611  -3.0611  -3.0611  -3.0611  -2.3910  -2.3910  -2.2393  -2.2393
    -1.7575  -1.7575  -1.7574  -1.7574  -0.7549  -0.7549  -0.7548  -0.7548
    -0.3250  -0.3250  -0.3250  -0.3250  -0.0899  -0.0898   0.0135   0.0135
     1.0217   1.0217   1.0497   1.0497   1.3385   1.3385   1.3704   1.3704
     1.3704   1.3704   2.2240   2.2240   2.9005   2.9005   2.9005   2.9005
     3.1022   3.1022   3.1022   3.1022   3.3227   3.3227   3.5580   3.5581
     3.8670   3.8671   3.8671   3.8671   3.9988   3.9988   4.2585   4.2585
     4.4501   4.4501   4.7464   4.7464   4.8585   4.8585   5.4829   5.4829
     5.5727   5.5728   5.8015   5.8015   5.8576   5.8578   5.9301   5.9301
     5.9302   5.9302   5.9836   5.9836   5.9836   5.9836   6.1565   6.1565
     6.1565   6.1565   6.4728   6.4728   6.5602   6.5602   6.7482   6.7483
     6.7764   6.7764   6.8684   6.8685   6.9533   6.9536   7.0147   7.0147
     7.0147   7.0147   7.6708   7.6708   7.8512   7.8512   8.0650   8.0650
     8.1152   8.1152   8.1152   8.1152   8.2816   8.2816   8.6093   8.6093
     8.6094   8.6094   8.6530   8.6530   8.6530   8.6530   8.7370   8.7370
     8.7671   8.7673   8.8849   8.8850   9.0021   9.0021   9.0021   9.0021

     occupation numbers 
     1.0000   1.0000   1.0000   1.0000   1.0000   1.0000   1.0000   1.0000
     1.0000   1.0000   1.0000   1.0000   1.0000   1.0000   1.0000   1.0000
     1.0000   1.0000   1.0000   1.0000   1.0000   1.0000   1.0000   1.0000
     1.0000   1.0000   1.0000   1.0000   1.0000   1.0000   1.0000   1.0000
     1.0000   1.0000   1.0000   1.0000   1.0000   1.0000   1.0000   1.0000
     1.0000   1.0000   1.0000   1.0000   1.0000   1.0000   1.0000   1.0000
     1.0000   1.0000   1.0000   1.0000   1.0000   1.0000   1.0000   1.0000
     1.0000   1.0000   1.0000   1.0000   1.0000   1.0000   1.0000   1.0000
     1.0000   1.0000   1.0000   1.0000   1.0000   1.0000   1.0000   1.0000
     1.0000   1.0000   1.0000   1.0000   1.0000   1.0000   1.0000   1.0000
     1.0000   1.0000   1.0000   1.0000   1.0000   1.0000   1.0000   1.0000
     1.0000   1.0000   1.0000   1.0000   1.0000   1.0000   1.0000   1.0000
     1.0000   1.0000   1.0000   1.0000   1.0000   1.0000   1.0000   1.0000
     1.0000   1.0000   1.0000   1.0000   1.0000   1.0000   1.0000   1.0000
     1.0000   1.0000   1.0000   1.0000   1.0000   1.0000   1.0000   1.0000
     1.0000   1.0000   1.0000   1.0000   1.0000   1.0000   1.0000   1.0000
     1.0000   1.0000   1.0000   1.0000   1.0000   1.0000   1.0000   1.0000
     1.0000   1.0000   1.0000   1.0000   1.0000   1.0000   1.0000   1.0000
     1.0000   1.0000   1.0000   1.0000   1.0000   1.0000   1.0000   1.0000
     1.0000   1.0000   1.0000   1.0000   1.0000   1.0000   1.0000   1.0000
     1.0000   1.0000   1.0000   1.0000   1.0000   1.0000   1.0000   1.0000
     1.0000   1.0000   1.0000   1.0000   1.0000   1.0000   1.0000   1.0000
     1.0000   1.0000   1.0000   1.0000   1.0000   1.0000   1.0000   1.0000
     1.0000   1.0000   1.0000   1.0000   1.0000   1.0000   1.0000   1.0000
     1.0000   1.0000   1.0000   1.0000   1.0000   1.0000   1.0000   1.0000
     1.0000   1.0000   1.0000   1.0000   1.0000   1.0000   1.0000   1.0000
     1.0000   1.0000   1.0000   1.0000   1.0000   1.0000   1.0000   1.0000
     1.0000   1.0000   1.0000   1.0000   1.0000   1.0000   1.0000   1.0000
     1.0000   1.0000   1.0000   1.0000   1.0000   1.0000   1.0000   1.0000
     1.0000   1.0000   1.0000   1.0000   1.0000   1.0000   1.0000   1.0000
     1.0000   1.0000   1.0000   1.0000   1.0000   1.0000   1.0000   1.0000
     1.0000   1.0000   1.0000   1.0000   1.0000   1.0000   1.0000   1.0000
     1.0000   1.0000   1.0000   1.0000   1.0000   1.0000   1.0000   1.0000
     1.0000   1.0000   1.0000   1.0000   1.0000   1.0000   1.0000   1.0000
     1.0000   1.0000   1.0000   1.0000   1.0000   1.0000   1.0000   1.0000
     1.0000   1.0000   1.0000   1.0000   1.0000   1.0000   1.0000   1.0000
     1.0000   1.0000   1.0000   1.0000   1.0000   1.0000   1.0000   1.0000
     1.0000   1.0000   1.0000   1.0000   1.0000   1.0000   1.0000   1.0000
     1.0000   1.0000   1.0000   1.0000   1.0000   1.0000   1.0000   1.0000
     1.0000   1.0000   1.0000   1.0000   1.0000   1.0000   1.0000   1.0000
     1.0000   1.0000   1.0000   1.0000   1.0000   1.0000   1.0000   1.0000
     1.0000   1.0000   1.0000   1.0000   1.0000   1.0000   1.0000   1.0000
     1.0000   1.0000   1.0000   1.0000   1.0000   1.0000   1.0000   1.0000
     1.0000   1.0000   1.0000   1.0000   1.0000   1.0000   1.0000   1.0000
     1.0000   1.0000   1.0000   1.0000   1.0000   1.0000   1.0000   1.0000
     1.0000   1.0000   1.0000   1.0000   1.0000   1.0000   1.0000   1.0000
     1.0000   1.0000   1.0000   1.0000   1.0000   1.0000   1.0000   1.0000
     1.0000   1.0000   1.0000   1.0000   1.0000   1.0000   1.0000   1.0000
     1.0000   1.0000   1.0000   1.0000   1.0000   1.0000   1.0000   1.0000
     1.0000   1.0000   1.0000   1.0000   1.0000   1.0000   1.0000   1.0000
     1.0000   1.0000   1.0000   1.0000   1.0000   1.0000   1.0000   1.0000
     1.0000   1.0000   1.0000   1.0000   1.0000   1.0000   1.0000   1.0000
     1.0000   1.0000   1.0000   1.0000   1.0000   1.0000   1.0000   1.0000
     1.0000   1.0000   1.0000   1.0000   1.0000   1.0000   1.0000   1.0000
     1.0000   1.0000   1.0000   1.0000   1.0000   1.0000   1.0000   1.0000
     1.0000   1.0000   1.0000   1.0000   1.0000   1.0000   1.0000   1.0000
     1.0000   1.0000   1.0000   1.0000   1.0000   1.0000   1.0000   1.0000
     1.0000   1.0000   1.0000   1.0000   1.0000   1.0000   1.0000   1.0000
     1.0000   1.0000   1.0000   1.0000   1.0000   1.0000   1.0000   1.0000
     1.0812   1.0812   1.0833   1.0833   0.6571   0.6571   0.5690   0.5689
     0.5689   0.5688   0.0000   0.0000   0.0000   0.0000   0.0000   0.0000
     0.0000   0.0000   0.0000   0.0000   0.0000   0.0000   0.0000   0.0000
     0.0000   0.0000   0.0000   0.0000   0.0000   0.0000   0.0000   0.0000
     0.0000   0.0000   0.0000   0.0000   0.0000   0.0000   0.0000   0.0000
     0.0000   0.0000   0.0000   0.0000   0.0000   0.0000   0.0000   0.0000
     0.0000   0.0000   0.0000   0.0000   0.0000   0.0000   0.0000   0.0000
     0.0000   0.0000   0.0000   0.0000   0.0000   0.0000   0.0000   0.0000
     0.0000   0.0000   0.0000   0.0000   0.0000   0.0000   0.0000   0.0000
     0.0000   0.0000   0.0000   0.0000   0.0000   0.0000   0.0000   0.0000
     0.0000   0.0000   0.0000   0.0000   0.0000   0.0000   0.0000   0.0000
     0.0000   0.0000   0.0000   0.0000   0.0000   0.0000   0.0000   0.0000
     0.0000   0.0000   0.0000   0.0000   0.0000   0.0000   0.0000   0.0000

          k = 0.2500 0.1443 0.0000 ( 64808 PWs)   bands (ev):

  -125.0670-125.0660-125.0657-125.0657-125.0649-125.0649-125.0647-125.0640
  -125.0640-125.0639-125.0639-125.0636-125.0633-125.0633-125.0632-125.0631
  -124.8629-124.8627-124.8619-124.8617-124.8616-124.8616-124.8614-124.8613
  -124.8609-124.8609-124.8606-124.8606-124.8606-124.8604-124.8600-124.8600
  -124.8599-124.8597-124.8597-124.8596-124.8596-124.8596-124.8595-124.8594
  -124.8593-124.8593-124.8593-124.8592-124.8592-124.8590-124.8590-124.8589
   -79.2326 -79.2326 -79.2320 -79.2280 -79.2280 -79.2271 -79.2271 -79.2252
   -79.2252 -79.2222 -79.2190 -79.2190 -79.2163 -79.2163 -79.2157 -79.2146
   -79.2142 -79.2142 -79.2134 -79.2134 -79.2131 -79.2123 -79.2123 -79.2123
   -79.2123 -79.2121 -79.2121 -79.2120 -79.2120 -79.2119 -79.2116 -79.2116
   -79.2114 -79.2114 -79.2096 -79.2096 -79.2084 -79.2074 -79.2074 -79.2063
   -79.2038 -79.2035 -79.2035 -79.2015 -79.2015 -79.2002 -79.1986 -79.1976
   -79.0251 -79.0251 -79.0248 -79.0248 -79.0245 -79.0242 -79.0205 -79.0205
   -79.0202 -79.0202 -79.0202 -79.0200 -79.0196 -79.0196 -79.0193 -79.0193
   -79.0192 -79.0189 -79.0188 -79.0188 -79.0185 -79.0185 -79.0180 -79.0180
   -79.0178 -79.0178 -79.0177 -79.0177 -79.0177 -79.0175 -79.0174 -79.0174
   -79.0170 -79.0170 -79.0169 -79.0168 -79.0168 -79.0166 -79.0166 -79.0166
   -79.0164 -79.0164 -79.0164 -79.0163 -79.0162 -79.0162 -79.0162 -79.0161
   -79.0160 -79.0159 -79.0147 -79.0145 -79.0116 -79.0116 -79.0113 -79.0113
   -79.0089 -79.0089 -79.0086 -79.0086 -79.0048 -79.0048 -79.0046 -79.0046
   -79.0046 -79.0045 -79.0043 -79.0043 -79.0022 -79.0022 -79.0019 -79.0019
   -79.0010 -79.0007 -79.0000 -79.0000 -78.9997 -78.9997 -78.9989 -78.9986
   -78.9963 -78.9961 -78.9961 -78.9961 -78.9958 -78.9958 -78.9941 -78.9941
   -78.9938 -78.9938 -78.9927 -78.9925 -78.9912 -78.9909 -78.9902 -78.9899
    -8.5033  -7.6198  -7.3002  -7.2478  -7.2478  -7.0294  -6.8978  -6.8716
    -6.8716  -6.8489  -6.8455  -6.8455  -6.7062  -6.6913  -6.6913  -6.6904
    -6.6750  -6.6622  -6.6377  -6.6377  -6.5895  -6.5800  -6.5770  -6.5770
    -6.5672  -6.5672  -6.5479  -6.5479  -6.5280  -6.5280  -6.5181  -6.5181
    -6.5165  -6.5117  -6.5117  -6.5088  -6.5088  -6.5018  -6.5018  -6.4860
    -6.4860  -6.4603  -6.4603  -6.4227  -6.4227  -6.3947  -6.3947  -6.3798
    -6.3798  -6.3756  -6.3216  -6.3168  -6.3168  -6.3152  -6.3152  -6.3149
    -6.3149  -6.2684  -6.2684  -6.2591  -6.2515  -6.2291  -6.2291  -6.2229
    -6.2229  -6.2214  -6.2214  -6.2213  -6.2079  -6.2079  -6.2043  -6.2042
    -6.1952  -6.1952  -6.1835  -6.1835  -6.1795  -6.1780  -6.1780  -6.1540
    -6.1374  -6.1230  -6.1230  -6.1138  -6.1137  -6.1001  -6.1001  -6.0925
    -6.0900  -6.0900  -6.0776  -6.0631  -6.0631  -6.0494  -6.0494  -6.0483
    -6.0483  -5.9586  -5.9586  -5.9585  -5.9585  -5.9432  -5.9404  -5.9367
    -5.9366  -5.9344  -5.9344  -5.9238  -5.9238  -5.9122  -5.9108  -5.9108
    -5.8925  -5.8925  -5.8886  -5.8854  -5.8808  -5.8735  -5.8735  -5.8680
    -5.8456  -5.8456  -5.8387  -5.8387  -5.8245  -5.8110  -5.7950  -5.7950
    -5.7949  -5.7949  -5.7861  -5.7861  -5.7762  -5.7762  -5.7754  -5.7725
    -5.7725  -5.7548  -5.7548  -5.7472  -5.7472  -5.7395  -5.7299  -5.7299
    -5.7141  -5.7127  -5.7127  -5.7046  -5.7046  -5.6969  -5.6969  -5.6945
    -5.6945  -5.6917  -5.6917  -5.6787  -5.6674  -5.6674  -5.6563  -5.6437
    -5.6388  -5.6388  -5.6330  -5.6330  -5.6180  -5.6180  -5.6165  -5.6157
    -5.6157  -5.6118  -5.6111  -5.6048  -5.6048  -5.5791  -5.5634  -5.5602
    -5.5602  -5.5559  -5.5559  -5.5472  -5.5472  -5.5449  -5.5449  -5.5434
    -5.5434  -5.5405  -5.5260  -5.5260  -5.5252  -5.5207  -5.5207  -5.5119
    -5.5119  -5.4907  -5.4907  -5.4623  -5.4597  -5.4575  -5.4575  -5.4534
    -5.4534  -5.4511  -5.4511  -5.4391  -5.4391  -5.4299  -5.4252  -5.4252
    -5.4228  -5.4195  -5.4137  -5.4134  -5.4023  -5.4023  -5.3988  -5.3988
    -5.3878  -5.3862  -5.3862  -5.3797  -5.3682  -5.3682  -5.3636  -5.3586
    -5.3451  -5.3451  -5.3405  -5.3316  -5.3195  -5.3195  -5.3131  -5.3110
    -5.3110  -5.3012  -5.3012  -5.2925  -5.2925  -5.2820  -5.2820  -5.1432
    -5.1432  -5.1287  -5.1287  -5.1232  -5.1232  -5.1049  -5.1042  -4.9468
    -4.9340  -4.6379  -4.6379  -3.8807  -3.8807  -3.4796  -3.3934  -3.3934
    -3.3649  -2.6732  -2.3014  -2.3014  -2.2216  -2.0208  -2.0208  -1.9709
    -1.9709  -1.5144  -1.5144  -1.2918  -1.2918  -1.1165  -0.7946  -0.5726
    -0.5726  -0.5605  -0.5605  -0.5518   0.0242   0.0242   0.2694   0.2694
     0.5604   0.5604   0.6338   0.8769   0.8987   0.8987   1.1839   1.1839
     1.5568   1.5568   2.2268   2.2268   2.6476   2.6969   2.6969   2.7214
     2.7829   2.7829   2.9504   2.9504   3.2227   3.5469   3.6911   3.6911
     3.9090   3.9090   4.1151   4.1855   4.1855   4.5592   4.5592   4.8021
     4.8021   4.8436   4.8436   5.1521   5.1521   5.1608   5.1608   5.2347
     5.4288   5.4288   5.5127   5.5687   5.6431   5.7939   5.7939   5.8092
     6.0945   6.0945   6.1352   6.3134   6.3134   6.4007   6.4320   6.5842
     6.5842   6.5948   6.5948   6.6161   6.7111   6.8909   6.8909   7.0105
     7.0105   7.0873   7.0873   7.1745   7.1745   7.3093   7.3093   7.3253
     7.4477   7.4477   7.4657   7.4657   7.5145   7.6573   7.6573   7.7672
     7.7847   7.7847   7.7941   7.7942   7.9466   7.9466   7.9618   7.9618
     8.0326   8.0326   8.2662   8.3382   8.4215   8.5507   8.6988   8.7192
     8.7193   8.8083   8.8083   8.8084   8.8286   8.8286   8.8369   8.8369

     occupation numbers 
     1.0000   1.0000   1.0000   1.0000   1.0000   1.0000   1.0000   1.0000
     1.0000   1.0000   1.0000   1.0000   1.0000   1.0000   1.0000   1.0000
     1.0000   1.0000   1.0000   1.0000   1.0000   1.0000   1.0000   1.0000
     1.0000   1.0000   1.0000   1.0000   1.0000   1.0000   1.0000   1.0000
     1.0000   1.0000   1.0000   1.0000   1.0000   1.0000   1.0000   1.0000
     1.0000   1.0000   1.0000   1.0000   1.0000   1.0000   1.0000   1.0000
     1.0000   1.0000   1.0000   1.0000   1.0000   1.0000   1.0000   1.0000
     1.0000   1.0000   1.0000   1.0000   1.0000   1.0000   1.0000   1.0000
     1.0000   1.0000   1.0000   1.0000   1.0000   1.0000   1.0000   1.0000
     1.0000   1.0000   1.0000   1.0000   1.0000   1.0000   1.0000   1.0000
     1.0000   1.0000   1.0000   1.0000   1.0000   1.0000   1.0000   1.0000
     1.0000   1.0000   1.0000   1.0000   1.0000   1.0000   1.0000   1.0000
     1.0000   1.0000   1.0000   1.0000   1.0000   1.0000   1.0000   1.0000
     1.0000   1.0000   1.0000   1.0000   1.0000   1.0000   1.0000   1.0000
     1.0000   1.0000   1.0000   1.0000   1.0000   1.0000   1.0000   1.0000
     1.0000   1.0000   1.0000   1.0000   1.0000   1.0000   1.0000   1.0000
     1.0000   1.0000   1.0000   1.0000   1.0000   1.0000   1.0000   1.0000
     1.0000   1.0000   1.0000   1.0000   1.0000   1.0000   1.0000   1.0000
     1.0000   1.0000   1.0000   1.0000   1.0000   1.0000   1.0000   1.0000
     1.0000   1.0000   1.0000   1.0000   1.0000   1.0000   1.0000   1.0000
     1.0000   1.0000   1.0000   1.0000   1.0000   1.0000   1.0000   1.0000
     1.0000   1.0000   1.0000   1.0000   1.0000   1.0000   1.0000   1.0000
     1.0000   1.0000   1.0000   1.0000   1.0000   1.0000   1.0000   1.0000
     1.0000   1.0000   1.0000   1.0000   1.0000   1.0000   1.0000   1.0000
     1.0000   1.0000   1.0000   1.0000   1.0000   1.0000   1.0000   1.0000
     1.0000   1.0000   1.0000   1.0000   1.0000   1.0000   1.0000   1.0000
     1.0000   1.0000   1.0000   1.0000   1.0000   1.0000   1.0000   1.0000
     1.0000   1.0000   1.0000   1.0000   1.0000   1.0000   1.0000   1.0000
     1.0000   1.0000   1.0000   1.0000   1.0000   1.0000   1.0000   1.0000
     1.0000   1.0000   1.0000   1.0000   1.0000   1.0000   1.0000   1.0000
     1.0000   1.0000   1.0000   1.0000   1.0000   1.0000   1.0000   1.0000
     1.0000   1.0000   1.0000   1.0000   1.0000   1.0000   1.0000   1.0000
     1.0000   1.0000   1.0000   1.0000   1.0000   1.0000   1.0000   1.0000
     1.0000   1.0000   1.0000   1.0000   1.0000   1.0000   1.0000   1.0000
     1.0000   1.0000   1.0000   1.0000   1.0000   1.0000   1.0000   1.0000
     1.0000   1.0000   1.0000   1.0000   1.0000   1.0000   1.0000   1.0000
     1.0000   1.0000   1.0000   1.0000   1.0000   1.0000   1.0000   1.0000
     1.0000   1.0000   1.0000   1.0000   1.0000   1.0000   1.0000   1.0000
     1.0000   1.0000   1.0000   1.0000   1.0000   1.0000   1.0000   1.0000
     1.0000   1.0000   1.0000   1.0000   1.0000   1.0000   1.0000   1.0000
     1.0000   1.0000   1.0000   1.0000   1.0000   1.0000   1.0000   1.0000
     1.0000   1.0000   1.0000   1.0000   1.0000   1.0000   1.0000   1.0000
     1.0000   1.0000   1.0000   1.0000   1.0000   1.0000   1.0000   1.0000
     1.0000   1.0000   1.0000   1.0000   1.0000   1.0000   1.0000   1.0000
     1.0000   1.0000   1.0000   1.0000   1.0000   1.0000   1.0000   1.0000
     1.0000   1.0000   1.0000   1.0000   1.0000   1.0000   1.0000   1.0000
     1.0000   1.0000   1.0000   1.0000   1.0000   1.0000   1.0000   1.0000
     1.0000   1.0000   1.0000   1.0000   1.0000   1.0000   1.0000   1.0000
     1.0000   1.0000   1.0000   1.0000   1.0000   1.0000   1.0000   1.0000
     1.0000   1.0000   1.0000   1.0000   1.0000   1.0000   1.0000   1.0000
     1.0000   1.0000   1.0000   1.0000   1.0000   1.0000   1.0000   1.0000
     1.0000   1.0000   1.0000   1.0000   1.0000   1.0000   1.0000   1.0000
     1.0000   1.0000   1.0000   1.0000   1.0000   1.0000   1.0000   1.0000
     1.0000   1.0000   1.0000   1.0000   1.0000   1.0000   1.0000   1.0000
     1.0000   1.0000   1.0000   1.0000   1.0000   1.0000   1.0000   1.0000
     1.0000   1.0000   1.0000   1.0000   1.0000   1.0000   1.0000   1.0000
     1.0000   1.0000   1.0000   1.0000   1.0000   1.0000   1.0000   1.0000
     1.0000   1.0000   1.0000   1.0000   1.0000   1.0000   1.0000   1.0000
     1.0000   1.0000   1.0000   1.0000   1.0000   1.0000   1.0000   1.0000
     1.0006   1.0006   1.0019   1.0374   1.0443   1.0443   0.9984   0.9984
     0.1541   0.1541   0.0000   0.0000   0.0000   0.0000   0.0000   0.0000
     0.0000   0.0000   0.0000   0.0000   0.0000   0.0000   0.0000   0.0000
     0.0000   0.0000   0.0000   0.0000   0.0000   0.0000   0.0000   0.0000
     0.0000   0.0000   0.0000   0.0000   0.0000   0.0000   0.0000   0.0000
     0.0000   0.0000   0.0000   0.0000   0.0000   0.0000   0.0000   0.0000
     0.0000   0.0000   0.0000   0.0000   0.0000   0.0000   0.0000   0.0000
     0.0000   0.0000   0.0000   0.0000   0.0000   0.0000   0.0000   0.0000
     0.0000   0.0000   0.0000   0.0000   0.0000   0.0000   0.0000   0.0000
     0.0000   0.0000   0.0000   0.0000   0.0000   0.0000   0.0000   0.0000
     0.0000   0.0000   0.0000   0.0000   0.0000   0.0000   0.0000   0.0000
     0.0000   0.0000   0.0000   0.0000   0.0000   0.0000   0.0000   0.0000
     0.0000   0.0000   0.0000   0.0000   0.0000   0.0000   0.0000   0.0000

          k = 0.2500 0.4330 0.0000 ( 64876 PWs)   bands (ev):

  -125.0668-125.0663-125.0661-125.0652-125.0651-125.0645-125.0644-125.0643
  -125.0641-125.0639-125.0638-125.0637-125.0634-125.0633-125.0631-125.0630
  -124.8627-124.8624-124.8622-124.8621-124.8620-124.8619-124.8611-124.8610
  -124.8608-124.8608-124.8605-124.8603-124.8603-124.8602-124.8601-124.8601
  -124.8600-124.8599-124.8598-124.8598-124.8597-124.8597-124.8595-124.8595
  -124.8595-124.8593-124.8592-124.8591-124.8591-124.8591-124.8589-124.8588
   -79.2317 -79.2301 -79.2300 -79.2295 -79.2294 -79.2274 -79.2273 -79.2253
   -79.2252 -79.2247 -79.2213 -79.2205 -79.2168 -79.2168 -79.2155 -79.2149
   -79.2148 -79.2136 -79.2135 -79.2133 -79.2133 -79.2129 -79.2127 -79.2127
   -79.2125 -79.2123 -79.2121 -79.2120 -79.2117 -79.2116 -79.2114 -79.2113
   -79.2099 -79.2081 -79.2081 -79.2067 -79.2067 -79.2066 -79.2060 -79.2060
   -79.2053 -79.2052 -79.2038 -79.2038 -79.2012 -79.1997 -79.1997 -79.1983
   -79.0242 -79.0239 -79.0226 -79.0225 -79.0223 -79.0223 -79.0220 -79.0219
   -79.0217 -79.0217 -79.0200 -79.0199 -79.0198 -79.0197 -79.0196 -79.0195
   -79.0194 -79.0194 -79.0192 -79.0191 -79.0182 -79.0181 -79.0180 -79.0179
   -79.0178 -79.0178 -79.0176 -79.0175 -79.0175 -79.0174 -79.0173 -79.0173
   -79.0173 -79.0172 -79.0171 -79.0171 -79.0170 -79.0169 -79.0168 -79.0167
   -79.0167 -79.0167 -79.0166 -79.0165 -79.0165 -79.0163 -79.0162 -79.0161
   -79.0161 -79.0160 -79.0159 -79.0158 -79.0138 -79.0136 -79.0130 -79.0127
   -79.0093 -79.0093 -79.0091 -79.0091 -79.0059 -79.0059 -79.0056 -79.0056
   -79.0025 -79.0022 -79.0007 -79.0007 -79.0005 -79.0004 -78.9993 -78.9993
   -78.9992 -78.9990 -78.9990 -78.9990 -78.9986 -78.9986 -78.9983 -78.9983
   -78.9979 -78.9978 -78.9976 -78.9976 -78.9964 -78.9964 -78.9961 -78.9961
   -78.9938 -78.9935 -78.9923 -78.9923 -78.9920 -78.9920 -78.9909 -78.9906
    -8.2695  -7.8227  -7.8227  -7.1117  -6.9144  -6.8394  -6.8394  -6.8031
    -6.8031  -6.7966  -6.7965  -6.7928  -6.7927  -6.7683  -6.7277  -6.7277
    -6.6979  -6.6979  -6.6546  -6.6546  -6.6228  -6.6087  -6.6087  -6.6039
    -6.6039  -6.5875  -6.5875  -6.5675  -6.5675  -6.5594  -6.5594  -6.5433
    -6.5338  -6.5337  -6.4914  -6.4914  -6.4716  -6.4716  -6.4686  -6.4616
    -6.4616  -6.4397  -6.4395  -6.4170  -6.4119  -6.4119  -6.4115  -6.4114
    -6.4026  -6.4026  -6.3919  -6.3694  -6.3694  -6.3122  -6.3014  -6.3014
    -6.2968  -6.2968  -6.2916  -6.2916  -6.2911  -6.2781  -6.2667  -6.2628
    -6.2628  -6.2543  -6.2486  -6.2486  -6.2433  -6.2433  -6.2419  -6.2221
    -6.2221  -6.2015  -6.2015  -6.1775  -6.1774  -6.1652  -6.1468  -6.1449
    -6.1411  -6.1411  -6.1175  -6.1175  -6.1078  -6.1077  -6.0941  -6.0884
    -6.0556  -6.0556  -6.0461  -6.0460  -6.0420  -6.0324  -6.0197  -6.0197
    -5.9969  -5.9912  -5.9912  -5.9884  -5.9795  -5.9795  -5.9723  -5.9723
    -5.9696  -5.9696  -5.9571  -5.9484  -5.9414  -5.9149  -5.9149  -5.9070
    -5.9069  -5.9059  -5.8984  -5.8906  -5.8906  -5.8855  -5.8855  -5.8772
    -5.8772  -5.8532  -5.8532  -5.8460  -5.8460  -5.8331  -5.8330  -5.8324
    -5.8318  -5.8282  -5.8282  -5.8078  -5.7962  -5.7962  -5.7930  -5.7719
    -5.7624  -5.7624  -5.7551  -5.7521  -5.7521  -5.7496  -5.7125  -5.7125
    -5.6934  -5.6934  -5.6910  -5.6909  -5.6570  -5.6537  -5.6537  -5.6526
    -5.6526  -5.6461  -5.6319  -5.6304  -5.6304  -5.6236  -5.6235  -5.5923
    -5.5919  -5.5919  -5.5919  -5.5918  -5.5822  -5.5822  -5.5806  -5.5805
    -5.5785  -5.5785  -5.5738  -5.5737  -5.5660  -5.5660  -5.5487  -5.5487
    -5.5482  -5.5482  -5.5443  -5.5396  -5.5359  -5.5359  -5.5145  -5.5145
    -5.5119  -5.5092  -5.5091  -5.5071  -5.5024  -5.4832  -5.4831  -5.4815
    -5.4789  -5.4789  -5.4656  -5.4614  -5.4614  -5.4592  -5.4592  -5.4575
    -5.4575  -5.4551  -5.4551  -5.4425  -5.4425  -5.4400  -5.4400  -5.4329
    -5.4329  -5.4307  -5.4173  -5.4173  -5.4098  -5.4093  -5.4093  -5.3981
    -5.3952  -5.3858  -5.3858  -5.3740  -5.3740  -5.3739  -5.3687  -5.3671
    -5.3646  -5.3646  -5.3349  -5.3273  -5.3273  -5.3076  -5.3076  -5.2815
    -5.2754  -5.2753  -5.2723  -5.2723  -5.2714  -5.2714  -5.2562  -5.2279
    -5.1864  -5.1864  -5.1824  -5.1824  -5.1435  -5.1435  -5.0643  -5.0643
    -4.4558  -4.2327  -4.2327  -4.0434  -4.0434  -3.2447  -3.2447  -3.1952
    -3.1445  -2.8770  -2.8770  -2.8493  -2.8493  -2.7801  -2.7800  -1.7956
    -1.7956  -1.7011  -1.7011  -1.4129  -1.4129  -0.8446  -0.4754  -0.4754
    -0.4118  -0.4118  -0.3228  -0.2410   0.2950   0.3504   0.3505   0.4238
     0.4238   0.7001   0.7001   0.7894   0.9706   0.9706   1.0870   1.4161
     1.4161   1.9762   1.9762   2.5313   2.5523   2.8209   2.9860   3.0911
     3.3263   3.3263   3.3644   3.3644   3.4464   3.4470   3.4470   3.5751
     3.5751   3.6676   3.8930   3.8930   4.3751   4.3751   4.3921   4.4251
     4.4438   4.4438   4.5671   4.5671   4.8790   4.9331   5.1394   5.1394
     5.2230   5.2230   5.4445   5.4446   5.4525   5.4525   5.4601   5.7427
     5.9105   5.9106   6.0931   6.1242   6.1242   6.2024   6.2025   6.5445
     6.5445   6.6325   6.6439   6.6461   6.6461   6.8410   6.9522   6.9996
     6.9996   7.0021   7.0441   7.0441   7.0949   7.0950   7.1639   7.1639
     7.2236   7.2236   7.2552   7.2553   7.2904   7.2906   7.5781   7.5782
     8.1322   8.2174   8.2174   8.3622   8.4675   8.4676   8.4773   8.5398
     8.5848   8.5848   8.6280   8.6280   8.6521   8.6585   8.6682   8.6683
     8.6786   8.6787   8.7549   8.7738   8.9306   8.9307   9.1115   9.1118

     occupation numbers 
     1.0000   1.0000   1.0000   1.0000   1.0000   1.0000   1.0000   1.0000
     1.0000   1.0000   1.0000   1.0000   1.0000   1.0000   1.0000   1.0000
     1.0000   1.0000   1.0000   1.0000   1.0000   1.0000   1.0000   1.0000
     1.0000   1.0000   1.0000   1.0000   1.0000   1.0000   1.0000   1.0000
     1.0000   1.0000   1.0000   1.0000   1.0000   1.0000   1.0000   1.0000
     1.0000   1.0000   1.0000   1.0000   1.0000   1.0000   1.0000   1.0000
     1.0000   1.0000   1.0000   1.0000   1.0000   1.0000   1.0000   1.0000
     1.0000   1.0000   1.0000   1.0000   1.0000   1.0000   1.0000   1.0000
     1.0000   1.0000   1.0000   1.0000   1.0000   1.0000   1.0000   1.0000
     1.0000   1.0000   1.0000   1.0000   1.0000   1.0000   1.0000   1.0000
     1.0000   1.0000   1.0000   1.0000   1.0000   1.0000   1.0000   1.0000
     1.0000   1.0000   1.0000   1.0000   1.0000   1.0000   1.0000   1.0000
     1.0000   1.0000   1.0000   1.0000   1.0000   1.0000   1.0000   1.0000
     1.0000   1.0000   1.0000   1.0000   1.0000   1.0000   1.0000   1.0000
     1.0000   1.0000   1.0000   1.0000   1.0000   1.0000   1.0000   1.0000
     1.0000   1.0000   1.0000   1.0000   1.0000   1.0000   1.0000   1.0000
     1.0000   1.0000   1.0000   1.0000   1.0000   1.0000   1.0000   1.0000
     1.0000   1.0000   1.0000   1.0000   1.0000   1.0000   1.0000   1.0000
     1.0000   1.0000   1.0000   1.0000   1.0000   1.0000   1.0000   1.0000
     1.0000   1.0000   1.0000   1.0000   1.0000   1.0000   1.0000   1.0000
     1.0000   1.0000   1.0000   1.0000   1.0000   1.0000   1.0000   1.0000
     1.0000   1.0000   1.0000   1.0000   1.0000   1.0000   1.0000   1.0000
     1.0000   1.0000   1.0000   1.0000   1.0000   1.0000   1.0000   1.0000
     1.0000   1.0000   1.0000   1.0000   1.0000   1.0000   1.0000   1.0000
     1.0000   1.0000   1.0000   1.0000   1.0000   1.0000   1.0000   1.0000
     1.0000   1.0000   1.0000   1.0000   1.0000   1.0000   1.0000   1.0000
     1.0000   1.0000   1.0000   1.0000   1.0000   1.0000   1.0000   1.0000
     1.0000   1.0000   1.0000   1.0000   1.0000   1.0000   1.0000   1.0000
     1.0000   1.0000   1.0000   1.0000   1.0000   1.0000   1.0000   1.0000
     1.0000   1.0000   1.0000   1.0000   1.0000   1.0000   1.0000   1.0000
     1.0000   1.0000   1.0000   1.0000   1.0000   1.0000   1.0000   1.0000
     1.0000   1.0000   1.0000   1.0000   1.0000   1.0000   1.0000   1.0000
     1.0000   1.0000   1.0000   1.0000   1.0000   1.0000   1.0000   1.0000
     1.0000   1.0000   1.0000   1.0000   1.0000   1.0000   1.0000   1.0000
     1.0000   1.0000   1.0000   1.0000   1.0000   1.0000   1.0000   1.0000
     1.0000   1.0000   1.0000   1.0000   1.0000   1.0000   1.0000   1.0000
     1.0000   1.0000   1.0000   1.0000   1.0000   1.0000   1.0000   1.0000
     1.0000   1.0000   1.0000   1.0000   1.0000   1.0000   1.0000   1.0000
     1.0000   1.0000   1.0000   1.0000   1.0000   1.0000   1.0000   1.0000
     1.0000   1.0000   1.0000   1.0000   1.0000   1.0000   1.0000   1.0000
     1.0000   1.0000   1.0000   1.0000   1.0000   1.0000   1.0000   1.0000
     1.0000   1.0000   1.0000   1.0000   1.0000   1.0000   1.0000   1.0000
     1.0000   1.0000   1.0000   1.0000   1.0000   1.0000   1.0000   1.0000
     1.0000   1.0000   1.0000   1.0000   1.0000   1.0000   1.0000   1.0000
     1.0000   1.0000   1.0000   1.0000   1.0000   1.0000   1.0000   1.0000
     1.0000   1.0000   1.0000   1.0000   1.0000   1.0000   1.0000   1.0000
     1.0000   1.0000   1.0000   1.0000   1.0000   1.0000   1.0000   1.0000
     1.0000   1.0000   1.0000   1.0000   1.0000   1.0000   1.0000   1.0000
     1.0000   1.0000   1.0000   1.0000   1.0000   1.0000   1.0000   1.0000
     1.0000   1.0000   1.0000   1.0000   1.0000   1.0000   1.0000   1.0000
     1.0000   1.0000   1.0000   1.0000   1.0000   1.0000   1.0000   1.0000
     1.0000   1.0000   1.0000   1.0000   1.0000   1.0000   1.0000   1.0000
     1.0000   1.0000   1.0000   1.0000   1.0000   1.0000   1.0000   1.0000
     1.0000   1.0000   1.0000   1.0000   1.0000   1.0000   1.0000   1.0000
     1.0000   1.0000   1.0000   1.0000   1.0000   1.0000   1.0000   1.0000
     1.0000   1.0000   1.0000   1.0000   1.0000   1.0000   1.0000   1.0000
     1.0000   1.0000   1.0000   1.0000   1.0000   1.0000   1.0000   1.0000
     1.0000   1.0000   1.0000   1.0000   1.0000   1.0000   1.0000   1.0000
     1.0000   1.0000   1.0000   1.0000   1.0000   1.0000   1.0000   1.0000
     1.0000   1.0052   1.0052   1.0159   1.0686   1.0686   1.0779   0.4453
     0.4452   0.0003   0.0003   0.0000   0.0000   0.0000   0.0000   0.0000
     0.0000   0.0000   0.0000   0.0000   0.0000   0.0000   0.0000   0.0000
     0.0000   0.0000   0.0000   0.0000   0.0000   0.0000   0.0000   0.0000
     0.0000   0.0000   0.0000   0.0000   0.0000   0.0000   0.0000   0.0000
     0.0000   0.0000   0.0000   0.0000   0.0000   0.0000   0.0000   0.0000
     0.0000   0.0000   0.0000   0.0000   0.0000   0.0000   0.0000   0.0000
     0.0000   0.0000   0.0000   0.0000   0.0000   0.0000   0.0000   0.0000
     0.0000   0.0000   0.0000   0.0000   0.0000   0.0000   0.0000   0.0000
     0.0000   0.0000   0.0000   0.0000   0.0000   0.0000   0.0000   0.0000
     0.0000   0.0000   0.0000   0.0000   0.0000   0.0000   0.0000   0.0000
     0.0000   0.0000   0.0000   0.0000   0.0000   0.0000   0.0000   0.0000
     0.0000   0.0000   0.0000   0.0000   0.0000   0.0000   0.0000   0.0000

          k = 0.2500-0.4330 0.0000 ( 64876 PWs)   bands (ev):

  -125.0667-125.0664-125.0660-125.0651-125.0650-125.0646-125.0645-125.0642
  -125.0641-125.0639-125.0637-125.0637-125.0635-125.0634-125.0631-125.0630
  -124.8627-124.8624-124.8624-124.8621-124.8620-124.8618-124.8611-124.8610
  -124.8608-124.8608-124.8606-124.8605-124.8603-124.8602-124.8601-124.8601
  -124.8599-124.8598-124.8598-124.8598-124.8597-124.8596-124.8595-124.8595
  -124.8595-124.8594-124.8592-124.8591-124.8591-124.8591-124.8589-124.8588
   -79.2317 -79.2300 -79.2300 -79.2296 -79.2294 -79.2275 -79.2271 -79.2254
   -79.2251 -79.2248 -79.2213 -79.2205 -79.2168 -79.2168 -79.2154 -79.2151
   -79.2146 -79.2136 -79.2135 -79.2134 -79.2132 -79.2130 -79.2129 -79.2125
   -79.2124 -79.2122 -79.2120 -79.2120 -79.2117 -79.2117 -79.2113 -79.2113
   -79.2099 -79.2083 -79.2079 -79.2069 -79.2067 -79.2064 -79.2060 -79.2060
   -79.2054 -79.2051 -79.2038 -79.2038 -79.2012 -79.1997 -79.1997 -79.1983
   -79.0242 -79.0239 -79.0225 -79.0225 -79.0223 -79.0223 -79.0221 -79.0219
   -79.0218 -79.0217 -79.0200 -79.0200 -79.0197 -79.0197 -79.0197 -79.0196
   -79.0194 -79.0193 -79.0192 -79.0190 -79.0182 -79.0181 -79.0179 -79.0179
   -79.0179 -79.0177 -79.0176 -79.0176 -79.0175 -79.0174 -79.0174 -79.0173
   -79.0173 -79.0172 -79.0171 -79.0171 -79.0170 -79.0168 -79.0168 -79.0168
   -79.0167 -79.0166 -79.0166 -79.0165 -79.0164 -79.0164 -79.0162 -79.0162
   -79.0161 -79.0160 -79.0159 -79.0158 -79.0138 -79.0135 -79.0130 -79.0127
   -79.0093 -79.0093 -79.0091 -79.0091 -79.0059 -79.0058 -79.0056 -79.0055
   -79.0025 -79.0022 -79.0009 -79.0006 -79.0005 -79.0003 -78.9995 -78.9992
   -78.9992 -78.9991 -78.9990 -78.9988 -78.9986 -78.9986 -78.9983 -78.9983
   -78.9980 -78.9978 -78.9977 -78.9975 -78.9964 -78.9964 -78.9961 -78.9961
   -78.9938 -78.9935 -78.9923 -78.9923 -78.9920 -78.9920 -78.9909 -78.9906
    -8.2695  -7.8229  -7.8225  -7.1117  -6.9144  -6.8394  -6.8394  -6.8031
    -6.8031  -6.7966  -6.7965  -6.7929  -6.7926  -6.7683  -6.7279  -6.7275
[...]
     1.0000   1.0000   1.0000   1.0000   1.0000   1.0000   1.0000   1.0000
     1.0000   1.0000   1.0000   1.0000   1.0000   1.0000   1.0000   1.0000
     1.0000   1.0000   1.0000   1.0000   1.0000   1.0000   1.0000   1.0000
     1.0000   1.0000   1.0000   1.0000   1.0000   1.0000   1.0000   1.0000
     1.0000   1.0000   1.0000   1.0000   1.0000   1.0000   1.0000   1.0000
     1.0000   1.0000   1.0000   1.0000   1.0000   1.0000   1.0000   1.0000
     1.0000   1.0000   1.0000   1.0000   1.0000   1.0000   1.0000   1.0000
     1.0000   1.0000   1.0000   1.0000   1.0000   1.0000   1.0000   1.0000
     1.0000   1.0000   1.0000   1.0000   1.0000   1.0000   1.0000   1.0000
     1.0000   1.0000   1.0000   1.0000   1.0000   1.0000   1.0000   1.0000
     1.0000   1.0000   1.0000   1.0000   1.0000   1.0000   1.0000   1.0000
     1.0000   1.0000   1.0000   1.0000   1.0000   1.0000   1.0000   1.0000
     1.0000   1.0000   1.0000   1.0000   1.0000   1.0000   1.0000   1.0000
     1.0000   1.0000   1.0000   1.0000   1.0000   1.0000   1.0000   1.0000
     1.0000   1.0000   1.0000   1.0000   1.0000   1.0000   1.0000   1.0000
     1.0000   1.0000   1.0000   1.0000   1.0000   1.0000   1.0000   1.0000
     1.0000   1.0000   1.0000   1.0000   1.0000   1.0000   1.0000   1.0000
     1.0000   1.0000   1.0000   1.0000   1.0000   1.0000   1.0000   1.0000
     1.0000   1.0000   1.0000   1.0000   1.0000   1.0000   1.0000   1.0000
     1.0000   1.0000   1.0000   1.0000   1.0000   1.0000   1.0000   1.0000
     1.0000   1.0000   1.0000   1.0000   1.0000   1.0000   1.0000   1.0000
     1.0000   1.0000   1.0000   1.0000   1.0000   1.0000   1.0000   1.0000
     1.0000   1.0000   1.0000   1.0000   1.0000   1.0000   1.0000   1.0000
     1.0000   1.0000   1.0000   1.0000   1.0000   1.0000   1.0000   1.0000
     1.0000   1.0000   1.0000   1.0000   1.0000   1.0000   1.0000   1.0000
     1.0000   1.0000   1.0000   1.0000   1.0000   1.0000   1.0000   1.0000
     1.0000   1.0000   1.0000   1.0000   1.0000   1.0000   1.0000   1.0000
     1.0000   1.0000   1.0000   1.0000   1.0000   1.0000   1.0000   1.0000
     1.0000   1.0000   1.0000   1.0000   1.0000   1.0000   1.0000   1.0000
     1.0000   1.0000   1.0000   1.0000   1.0000   1.0000   1.0000   1.0000
     1.0000   1.0000   1.0000   1.0000   1.0000   1.0000   1.0000   1.0000
     1.0000   1.0000   1.0000   1.0000   1.0000   1.0000   1.0000   1.0000
     1.0000   1.0000   1.0000   1.0000   1.0000   1.0000   1.0000   1.0000
     1.0000   1.0000   1.0000   1.0000   1.0000   1.0000   1.0000   1.0000
     1.0000   1.0052   1.0052   1.0159   1.0686   1.0686   1.0779   0.4453
     0.4451   0.0003   0.0003   0.0000   0.0000   0.0000   0.0000   0.0000
     0.0000   0.0000   0.0000   0.0000   0.0000   0.0000   0.0000   0.0000
     0.0000   0.0000   0.0000   0.0000   0.0000   0.0000   0.0000   0.0000
     0.0000   0.0000   0.0000   0.0000   0.0000   0.0000   0.0000   0.0000
     0.0000   0.0000   0.0000   0.0000   0.0000   0.0000   0.0000   0.0000
     0.0000   0.0000   0.0000   0.0000   0.0000   0.0000   0.0000   0.0000
     0.0000   0.0000   0.0000   0.0000   0.0000   0.0000   0.0000   0.0000
     0.0000   0.0000   0.0000   0.0000   0.0000   0.0000   0.0000   0.0000
     0.0000   0.0000   0.0000   0.0000   0.0000   0.0000   0.0000   0.0000
     0.0000   0.0000   0.0000   0.0000   0.0000   0.0000   0.0000   0.0000
     0.0000   0.0000   0.0000   0.0000   0.0000   0.0000   0.0000   0.0000
     0.0000   0.0000   0.0000   0.0000   0.0000   0.0000   0.0000   0.0000

          k =-0.5000-0.8660 0.0000 ( 64842 PWs)   bands (ev):

  -125.0666-125.0666-125.0657-125.0656-125.0646-125.0646-125.0645-125.0644
  -125.0641-125.0641-125.0636-125.0636-125.0635-125.0635-125.0631-125.0630
  -124.8626-124.8626-124.8623-124.8623-124.8617-124.8616-124.8614-124.8614
  -124.8605-124.8605-124.8605-124.8604-124.8603-124.8602-124.8602-124.8602
  -124.8600-124.8600-124.8598-124.8598-124.8596-124.8596-124.8595-124.8595
  -124.8594-124.8593-124.8593-124.8592-124.8591-124.8591-124.8589-124.8588
   -79.2306 -79.2306 -79.2305 -79.2305 -79.2281 -79.2281 -79.2270 -79.2270
   -79.2225 -79.2225 -79.2225 -79.2225 -79.2176 -79.2176 -79.2153 -79.2153
   -79.2142 -79.2142 -79.2130 -79.2129 -79.2129 -79.2128 -79.2124 -79.2124
   -79.2119 -79.2118 -79.2118 -79.2117 -79.2113 -79.2113 -79.2110 -79.2110
   -79.2095 -79.2095 -79.2094 -79.2094 -79.2061 -79.2061 -79.2061 -79.2061
   -79.2053 -79.2052 -79.2026 -79.2026 -79.2015 -79.2015 -79.1986 -79.1986
   -79.0231 -79.0231 -79.0230 -79.0230 -79.0228 -79.0228 -79.0227 -79.0227
   -79.0206 -79.0206 -79.0204 -79.0203 -79.0198 -79.0198 -79.0196 -79.0195
   -79.0195 -79.0195 -79.0193 -79.0193 -79.0188 -79.0188 -79.0186 -79.0186
   -79.0176 -79.0176 -79.0175 -79.0175 -79.0174 -79.0173 -79.0173 -79.0173
   -79.0171 -79.0170 -79.0169 -79.0168 -79.0166 -79.0165 -79.0165 -79.0165
   -79.0164 -79.0163 -79.0163 -79.0162 -79.0161 -79.0160 -79.0159 -79.0158
   -79.0150 -79.0150 -79.0150 -79.0150 -79.0148 -79.0148 -79.0148 -79.0148
   -79.0101 -79.0101 -79.0099 -79.0099 -79.0036 -79.0036 -79.0033 -79.0033
   -79.0020 -79.0020 -79.0020 -79.0020 -79.0018 -79.0018 -79.0017 -79.0017
   -78.9987 -78.9987 -78.9987 -78.9987 -78.9985 -78.9984 -78.9984 -78.9984
   -78.9979 -78.9978 -78.9976 -78.9976 -78.9951 -78.9951 -78.9949 -78.9948
   -78.9941 -78.9941 -78.9938 -78.9938 -78.9912 -78.9912 -78.9910 -78.9909
    -8.1554  -8.1553  -7.3165  -7.3165  -7.0257  -7.0257  -6.8640  -6.8640
    -6.8593  -6.8592  -6.7492  -6.7492  -6.7491  -6.7491  -6.6532  -6.6531
    -6.6465  -6.6465  -6.6465  -6.6465  -6.6242  -6.6241  -6.6065  -6.6065
    -6.6065  -6.6065  -6.5535  -6.5535  -6.5283  -6.5283  -6.5283  -6.5283
    -6.5058  -6.5058  -6.4870  -6.4870  -6.4870  -6.4870  -6.4627  -6.4627
    -6.4627  -6.4627  -6.4604  -6.4603  -6.4492  -6.4492  -6.4257  -6.4257
    -6.4214  -6.4214  -6.4213  -6.4213  -6.3098  -6.3098  -6.3009  -6.3009
    -6.2926  -6.2926  -6.2926  -6.2926  -6.2912  -6.2912  -6.2703  -6.2703
    -6.2703  -6.2702  -6.2362  -6.2361  -6.2207  -6.2207  -6.2207  -6.2207
    -6.2056  -6.2056  -6.2007  -6.2007  -6.1697  -6.1696  -6.1418  -6.1418
    -6.1112  -6.1112  -6.1028  -6.1028  -6.0821  -6.0821  -6.0821  -6.0821
    -6.0614  -6.0614  -6.0614  -6.0614  -6.0414  -6.0414  -6.0318  -6.0318
    -6.0255  -6.0255  -6.0218  -6.0218  -6.0086  -6.0085  -5.9895  -5.9895
    -5.9895  -5.9895  -5.9463  -5.9463  -5.9451  -5.9451  -5.9148  -5.9147
    -5.9049  -5.9049  -5.8714  -5.8714  -5.8713  -5.8713  -5.8143  -5.8143
    -5.8087  -5.8087  -5.8083  -5.8083  -5.8083  -5.8082  -5.8046  -5.8046
    -5.7867  -5.7867  -5.7842  -5.7842  -5.7756  -5.7756  -5.7756  -5.7755
    -5.7678  -5.7678  -5.7671  -5.7671  -5.7671  -5.7671  -5.7552  -5.7552
    -5.7534  -5.7534  -5.7534  -5.7534  -5.6747  -5.6747  -5.6733  -5.6733
    -5.6665  -5.6665  -5.6450  -5.6450  -5.6450  -5.6450  -5.6305  -5.6304
    -5.6233  -5.6233  -5.6041  -5.6041  -5.6041  -5.6041  -5.5938  -5.5938
    -5.5698  -5.5698  -5.5433  -5.5432  -5.5285  -5.5285  -5.5285  -5.5285
    -5.5259  -5.5259  -5.5259  -5.5259  -5.5226  -5.5226  -5.5204  -5.5203
    -5.4985  -5.4985  -5.4984  -5.4984  -5.4884  -5.4884  -5.4884  -5.4884
    -5.4865  -5.4865  -5.4784  -5.4784  -5.4635  -5.4635  -5.4635  -5.4635
    -5.4512  -5.4511  -5.4511  -5.4511  -5.4393  -5.4393  -5.4222  -5.4221
    -5.4152  -5.4152  -5.4151  -5.4151  -5.4118  -5.4118  -5.4114  -5.4114
    -5.4052  -5.4052  -5.4020  -5.4020  -5.3995  -5.3995  -5.3699  -5.3699
    -5.3622  -5.3622  -5.3622  -5.3622  -5.3238  -5.3238  -5.3238  -5.3238
    -5.2537  -5.2537  -5.2536  -5.2536  -5.2349  -5.2348  -5.2337  -5.2337
    -5.2337  -5.2337  -5.2008  -5.2007  -5.1981  -5.1980  -4.7017  -4.7017
    -4.4179  -4.4179  -4.4179  -4.4179  -3.7279  -3.7279  -3.1102  -3.1102
    -3.0611  -3.0611  -3.0611  -3.0611  -2.3910  -2.3910  -2.2393  -2.2393
    -1.7575  -1.7575  -1.7574  -1.7574  -0.7549  -0.7548  -0.7548  -0.7548
    -0.3250  -0.3250  -0.3250  -0.3250  -0.0899  -0.0898   0.0135   0.0135
     1.0217   1.0217   1.0497   1.0497   1.3385   1.3385   1.3704   1.3704
     1.3704   1.3704   2.2240   2.2240   2.9005   2.9005   2.9005   2.9005
     3.1022   3.1022   3.1022   3.1022   3.3227   3.3227   3.5580   3.5581
     3.8671   3.8671   3.8671   3.8671   3.9988   3.9988   4.2585   4.2585
     4.4501   4.4501   4.7464   4.7464   4.8585   4.8585   5.4829   5.4829
     5.5727   5.5728   5.8015   5.8015   5.8576   5.8578   5.9301   5.9301
     5.9301   5.9302   5.9836   5.9836   5.9836   5.9836   6.1565   6.1565
     6.1565   6.1565   6.4728   6.4728   6.5602   6.5602   6.7482   6.7483
     6.7764   6.7764   6.8684   6.8685   6.9533   6.9536   7.0147   7.0147
     7.0147   7.0147   7.6708   7.6708   7.8512   7.8512   8.0650   8.0650
     8.1152   8.1152   8.1152   8.1152   8.2816   8.2816   8.6093   8.6093
     8.6094   8.6094   8.6530   8.6530   8.6530   8.6530   8.7370   8.7370
     8.7671   8.7673   8.8849   8.8850   9.0021   9.0021   9.0021   9.0021

     occupation numbers 
     1.0000   1.0000   1.0000   1.0000   1.0000   1.0000   1.0000   1.0000
     1.0000   1.0000   1.0000   1.0000   1.0000   1.0000   1.0000   1.0000
     1.0000   1.0000   1.0000   1.0000   1.0000   1.0000   1.0000   1.0000
     1.0000   1.0000   1.0000   1.0000   1.0000   1.0000   1.0000   1.0000
     1.0000   1.0000   1.0000   1.0000   1.0000   1.0000   1.0000   1.0000
     1.0000   1.0000   1.0000   1.0000   1.0000   1.0000   1.0000   1.0000
     1.0000   1.0000   1.0000   1.0000   1.0000   1.0000   1.0000   1.0000
     1.0000   1.0000   1.0000   1.0000   1.0000   1.0000   1.0000   1.0000
     1.0000   1.0000   1.0000   1.0000   1.0000   1.0000   1.0000   1.0000
     1.0000   1.0000   1.0000   1.0000   1.0000   1.0000   1.0000   1.0000
     1.0000   1.0000   1.0000   1.0000   1.0000   1.0000   1.0000   1.0000
     1.0000   1.0000   1.0000   1.0000   1.0000   1.0000   1.0000   1.0000
     1.0000   1.0000   1.0000   1.0000   1.0000   1.0000   1.0000   1.0000
     1.0000   1.0000   1.0000   1.0000   1.0000   1.0000   1.0000   1.0000
     1.0000   1.0000   1.0000   1.0000   1.0000   1.0000   1.0000   1.0000
     1.0000   1.0000   1.0000   1.0000   1.0000   1.0000   1.0000   1.0000
     1.0000   1.0000   1.0000   1.0000   1.0000   1.0000   1.0000   1.0000
     1.0000   1.0000   1.0000   1.0000   1.0000   1.0000   1.0000   1.0000
     1.0000   1.0000   1.0000   1.0000   1.0000   1.0000   1.0000   1.0000
     1.0000   1.0000   1.0000   1.0000   1.0000   1.0000   1.0000   1.0000
     1.0000   1.0000   1.0000   1.0000   1.0000   1.0000   1.0000   1.0000
     1.0000   1.0000   1.0000   1.0000   1.0000   1.0000   1.0000   1.0000
     1.0000   1.0000   1.0000   1.0000   1.0000   1.0000   1.0000   1.0000
     1.0000   1.0000   1.0000   1.0000   1.0000   1.0000   1.0000   1.0000
     1.0000   1.0000   1.0000   1.0000   1.0000   1.0000   1.0000   1.0000
     1.0000   1.0000   1.0000   1.0000   1.0000   1.0000   1.0000   1.0000
     1.0000   1.0000   1.0000   1.0000   1.0000   1.0000   1.0000   1.0000
     1.0000   1.0000   1.0000   1.0000   1.0000   1.0000   1.0000   1.0000
     1.0000   1.0000   1.0000   1.0000   1.0000   1.0000   1.0000   1.0000
     1.0000   1.0000   1.0000   1.0000   1.0000   1.0000   1.0000   1.0000
     1.0000   1.0000   1.0000   1.0000   1.0000   1.0000   1.0000   1.0000
     1.0000   1.0000   1.0000   1.0000   1.0000   1.0000   1.0000   1.0000
     1.0000   1.0000   1.0000   1.0000   1.0000   1.0000   1.0000   1.0000
     1.0000   1.0000   1.0000   1.0000   1.0000   1.0000   1.0000   1.0000
     1.0000   1.0000   1.0000   1.0000   1.0000   1.0000   1.0000   1.0000
     1.0000   1.0000   1.0000   1.0000   1.0000   1.0000   1.0000   1.0000
     1.0000   1.0000   1.0000   1.0000   1.0000   1.0000   1.0000   1.0000
     1.0000   1.0000   1.0000   1.0000   1.0000   1.0000   1.0000   1.0000
     1.0000   1.0000   1.0000   1.0000   1.0000   1.0000   1.0000   1.0000
     1.0000   1.0000   1.0000   1.0000   1.0000   1.0000   1.0000   1.0000
     1.0000   1.0000   1.0000   1.0000   1.0000   1.0000   1.0000   1.0000
     1.0000   1.0000   1.0000   1.0000   1.0000   1.0000   1.0000   1.0000
     1.0000   1.0000   1.0000   1.0000   1.0000   1.0000   1.0000   1.0000
     1.0000   1.0000   1.0000   1.0000   1.0000   1.0000   1.0000   1.0000
     1.0000   1.0000   1.0000   1.0000   1.0000   1.0000   1.0000   1.0000
     1.0000   1.0000   1.0000   1.0000   1.0000   1.0000   1.0000   1.0000
     1.0000   1.0000   1.0000   1.0000   1.0000   1.0000   1.0000   1.0000
     1.0000   1.0000   1.0000   1.0000   1.0000   1.0000   1.0000   1.0000
     1.0000   1.0000   1.0000   1.0000   1.0000   1.0000   1.0000   1.0000
     1.0000   1.0000   1.0000   1.0000   1.0000   1.0000   1.0000   1.0000
     1.0000   1.0000   1.0000   1.0000   1.0000   1.0000   1.0000   1.0000
     1.0000   1.0000   1.0000   1.0000   1.0000   1.0000   1.0000   1.0000
     1.0000   1.0000   1.0000   1.0000   1.0000   1.0000   1.0000   1.0000
     1.0000   1.0000   1.0000   1.0000   1.0000   1.0000   1.0000   1.0000
     1.0000   1.0000   1.0000   1.0000   1.0000   1.0000   1.0000   1.0000
     1.0000   1.0000   1.0000   1.0000   1.0000   1.0000   1.0000   1.0000
     1.0000   1.0000   1.0000   1.0000   1.0000   1.0000   1.0000   1.0000
     1.0000   1.0000   1.0000   1.0000   1.0000   1.0000   1.0000   1.0000
     1.0000   1.0000   1.0000   1.0000   1.0000   1.0000   1.0000   1.0000
     1.0812   1.0812   1.0833   1.0833   0.6571   0.6571   0.5689   0.5689
     0.5689   0.5689   0.0000   0.0000   0.0000   0.0000   0.0000   0.0000
     0.0000   0.0000   0.0000   0.0000   0.0000   0.0000   0.0000   0.0000
     0.0000   0.0000   0.0000   0.0000   0.0000   0.0000   0.0000   0.0000
     0.0000   0.0000   0.0000   0.0000   0.0000   0.0000   0.0000   0.0000
     0.0000   0.0000   0.0000   0.0000   0.0000   0.0000   0.0000   0.0000
     0.0000   0.0000   0.0000   0.0000   0.0000   0.0000   0.0000   0.0000
     0.0000   0.0000   0.0000   0.0000   0.0000   0.0000   0.0000   0.0000
     0.0000   0.0000   0.0000   0.0000   0.0000   0.0000   0.0000   0.0000
     0.0000   0.0000   0.0000   0.0000   0.0000   0.0000   0.0000   0.0000
     0.0000   0.0000   0.0000   0.0000   0.0000   0.0000   0.0000   0.0000
     0.0000   0.0000   0.0000   0.0000   0.0000   0.0000   0.0000   0.0000
     0.0000   0.0000   0.0000   0.0000   0.0000   0.0000   0.0000   0.0000

     the Fermi energy is     1.4334 ev

!    total energy              =  -22154.25521385 Ry
     estimated scf accuracy    <       0.00000079 Ry
     smearing contrib. (-TS)   =       0.00133588 Ry
     internal energy E=F+TS    =  -22154.25654973 Ry

     The total energy is F=E-TS. E is the sum of the following terms:
     one-electron contribution = -144865.48528652 Ry
     hartree contribution      =   72366.13736876 Ry
     xc contribution           =   -2024.15657567 Ry
     ewald contribution        =   52369.24794370 Ry

     convergence has been achieved in  10 iterations

     Writing all to output data dir ./tmp/Zn002.save/ :
     XML data file, charge density, pseudopotentials, collected wavefunctions

     init_run     :    110.47s CPU    111.65s WALL (       1 calls)
     electrons    :   4245.80s CPU   4286.21s WALL (       1 calls)

     Called by init_run:
     wfcinit      :    108.21s CPU    109.20s WALL (       1 calls)
     wfcinit:atom :      0.06s CPU      0.13s WALL (      10 calls)
     wfcinit:wfcr :    107.25s CPU    107.97s WALL (      10 calls)
     potinit      :      0.16s CPU      0.18s WALL (       1 calls)
     hinit0       :      0.06s CPU      0.07s WALL (       1 calls)

     Called by electrons:
     c_bands      :   3906.57s CPU   3942.34s WALL (      11 calls)
     sum_band     :    322.21s CPU    325.50s WALL (      11 calls)
     v_of_rho     :      1.32s CPU      1.38s WALL (      11 calls)
     v_h          :      0.10s CPU      0.11s WALL (      11 calls)
     v_xc         :      1.21s CPU      1.27s WALL (      11 calls)
     newd         :     16.85s CPU     18.23s WALL (      11 calls)
     mix_rho      :      0.15s CPU      0.17s WALL (      11 calls)

     Called by c_bands:
     init_us_2    :      4.04s CPU      4.11s WALL (     230 calls)
     cegterg      :   3898.37s CPU   3933.71s WALL (     110 calls)

     Called by sum_band:
     sum_band:wei :      0.05s CPU      0.05s WALL (      11 calls)
     sum_band:loo :    306.71s CPU    308.57s WALL (      11 calls)
     sum_band:buf :      0.71s CPU      0.93s WALL (     110 calls)
     sum_band:ini :      1.93s CPU      1.95s WALL (     110 calls)
     sum_band:cal :    255.09s CPU    256.34s WALL (     110 calls)
     sum_band:bec :      2.31s CPU      2.31s WALL (     110 calls)
     addusdens    :     15.14s CPU     16.56s WALL (      11 calls)
                                        0.00s GPU  (      11 calls)
     addusd:skk   :      0.10s CPU      0.29s WALL (      11 calls)
                                        0.00s GPU  (      11 calls)

     Called by *egterg:
     cdiaghg      :    277.55s CPU    289.98s WALL (     630 calls)
     cegterg:over :    588.57s CPU    590.89s WALL (     530 calls)
     cegterg:upda :    242.96s CPU    244.35s WALL (     530 calls)
     cegterg:last :    825.49s CPU    830.77s WALL (     201 calls)
     cdiaghg:chol :     15.29s CPU     15.33s WALL (     630 calls)
     cdiaghg:inve :      1.87s CPU      1.87s WALL (     630 calls)
     cdiaghg:para :     59.38s CPU     61.66s WALL (    1260 calls)
     h_psi        :   1342.61s CPU   1350.63s WALL (     650 calls)
     s_psi        :    553.37s CPU    554.75s WALL (     650 calls)
     g_psi        :      0.67s CPU      0.67s WALL (     530 calls)

     Called by h_psi:
     h_psi:calbec :    600.56s CPU    603.70s WALL (     650 calls)
     vloc_psi     :    184.36s CPU    185.83s WALL (     650 calls)
     add_vuspsi   :    556.84s CPU    558.72s WALL (     650 calls)

     General routines
     calbec       :    855.65s CPU    860.04s WALL (     760 calls)
     fft          :      1.03s CPU      1.10s WALL (     141 calls)
     ffts         :      0.02s CPU      0.03s WALL (      22 calls)
     fftw         :    184.11s CPU    185.50s WALL (  362544 calls)
     interpolate  :      0.09s CPU      0.09s WALL (      11 calls)

     Parallel routines

     PWSCF        :      1h12m CPU      1h13m WALL


   This run was terminated on:   2:22:34  26Mar2025            

=------------------------------------------------------------------------------=
   JOB DONE.
=------------------------------------------------------------------------------=
Note: The following floating-point exceptions are signalling: IEEE_DENORMAL
Note: The following floating-point exceptions are signalling: IEEE_DENORMAL
Note: The following floating-point exceptions are signalling: IEEE_DENORMAL
Note: The following floating-point exceptions are signalling: IEEE_DENORMAL
Note: The following floating-point exceptions are signalling: IEEE_DENORMAL
Note: The following floating-point exceptions are signalling: IEEE_DENORMAL
Note: The following floating-point exceptions are signalling: IEEE_DENORMAL
Note: The following floating-point exceptions are signalling: IEEE_DENORMAL
Note: The following floating-point exceptions are signalling: IEEE_DENORMAL
Note: The following floating-point exceptions are signalling: IEEE_DENORMAL
Note: The following floating-point exceptions are signalling: IEEE_DENORMAL
Note: The following floating-point exceptions are signalling: IEEE_DENORMAL
Note: The following floating-point exceptions are signalling: IEEE_DENORMAL
Note: The following floating-point exceptions are signalling: IEEE_DENORMAL
Note: The following floating-point exceptions are signalling: IEEE_DENORMAL
Note: The following floating-point exceptions are signalling: IEEE_DENORMAL
Note: The following floating-point exceptions are signalling: IEEE_DENORMAL
Note: The following floating-point exceptions are signalling: IEEE_DENORMAL
