
     Program PWSCF v.7.3.1 starts on 27Mar2025 at  1:25:52 

     This program is part of the open-source Quantum ESPRESSO suite
     for quantum simulation of materials; please cite
         "P. Giannozzi et al., J. Phys.:Condens. Matter 21 395502 (2009);
         "P. Giannozzi et al., J. Phys.:Condens. Matter 29 465901 (2017);
         "P. Giannozzi et al., J. Chem. Phys. 152 154105 (2020);
          URL http://www.quantum-espresso.org", 
     in publications or presentations arising from this work. More details at
     http://www.quantum-espresso.org/quote

     Parallel version (MPI), running on    33 processors

     MPI processes distributed on     1 nodes
     18776 MiB available memory on the printing compute node when the environment starts

     Waiting for input...
     Reading input from standard input

     Current dimensions of program PWSCF are:
     Max number of different atomic species (ntypx) = 10
     Max number of k-points (npk) =  40000
     Max angular momentum in pseudopotentials (lmaxx) =  4
     Found identity + ( -0.5000  0.0000  0.0000) symmetry
     This is a supercell, fractional translations are disabled

     R & G space division:  proc/nbgrp/npool/nimage =      33
     Subspace diagonalization in iterative solution of the eigenvalue problem:
     one sub-group per band group will be used
     custom distributed-memory algorithm (size of sub-group:  5*  5 procs)


     Parallelization info
     --------------------
     sticks:   dense  smooth     PW     G-vecs:    dense   smooth      PW
     Min         228     130     32                36393    15714    1960
     Max         230     131     33                36401    15723    1971
     Sum        7555    4303   1069              1201061   518755   64855

     Using Slab Decomposition



     bravais-lattice index     =            0
     lattice parameter (alat)  =      19.7617  a.u.
     unit-cell volume          =   15176.5939 (a.u.)^3
     number of atoms/cell      =           48
     number of atomic types    =            1
     number of electrons       =       960.00
     number of Kohn-Sham states=          576
     kinetic-energy cutoff     =      40.0000  Ry
     charge density cutoff     =     280.0000  Ry
     scf convergence threshold =      1.0E-05
     mixing beta               =       0.4000
     number of iterations used =            8  plain     mixing
     Exchange-correlation= SLA  PW   PBE  PBE
                           (   1   4   3   4   0   0   0)

     celldm(1)=  19.761696  celldm(2)=   0.000000  celldm(3)=   0.000000
     celldm(4)=   0.000000  celldm(5)=   0.000000  celldm(6)=   0.000000

     crystal axes: (cart. coord. in units of alat)
               a(1) = (   1.000000   0.000000   0.000000 )  
               a(2) = (  -0.500000   0.866025   0.000000 )  
               a(3) = (   0.000000   0.000000   2.270759 )  

     reciprocal axes: (cart. coord. in units 2 pi/alat)
               b(1) = (  1.000000  0.577350 -0.000000 )  
               b(2) = (  0.000000  1.154701  0.000000 )  
               b(3) = (  0.000000 -0.000000  0.440381 )  


     PseudoPot. # 1 for Zn read from file:
     /home/ys/qepseudo/SSSP_1.3.0_PBE_efficiency/Zn_pbe_v1.uspp.F.UPF
     MD5 check sum: df62231357ef9e81f77b2b3087fa5675
     Pseudo is Ultrasoft, Zval = 20.0
     Generated by new atomic code, or converted to UPF format
     Using radial grid of  943 points,  6 beta functions with: 
                l(1) =   0
                l(2) =   0
                l(3) =   1
                l(4) =   1
                l(5) =   2
                l(6) =   2
     Q(r) pseudized with  8 coefficients,  rinner =    1.100   1.100   1.100
                                                       1.100   1.100

     atomic species   valence    mass     pseudopotential
     Zn               20.00    65.38000     Zn( 1.00)

     No symmetry found


                                    s                        frac. trans.

      isym =  1     identity                                     

 cryst.   s( 1) = (     1          0          0      )
                  (     0          1          0      )
                  (     0          0          1      )

 cart.    s( 1) = (  1.0000000  0.0000000  0.0000000 )
                  (  0.0000000  1.0000000  0.0000000 )
                  (  0.0000000  0.0000000  1.0000000 )


   Cartesian axes

     site n.     atom                  positions (alat units)
         1        Zn     tau(   1) = (   0.0000000   0.1443375   0.1164998  )
         2        Zn     tau(   2) = (   0.5000000   0.1443375   0.1164998  )
         3        Zn     tau(   3) = (   0.0000000   0.1443375   0.5824993  )
         4        Zn     tau(   4) = (   0.5000000   0.1443375   0.5824993  )
         5        Zn     tau(   5) = (  -0.1250000   0.3608439   0.1164998  )
         6        Zn     tau(   6) = (   0.3750000   0.3608439   0.1164998  )
         7        Zn     tau(   7) = (  -0.1250000   0.3608439   0.5824993  )
         8        Zn     tau(   8) = (   0.3750000   0.3608439   0.5824993  )
         9        Zn     tau(   9) = (  -0.2500000   0.5773502   0.1164998  )
        10        Zn     tau(  10) = (   0.2500000   0.5773502   0.1164998  )
        11        Zn     tau(  11) = (  -0.2500000   0.5773502   0.5824993  )
        12        Zn     tau(  12) = (   0.2500000   0.5773502   0.5824993  )
        13        Zn     tau(  13) = (  -0.3750000   0.7938567   0.1164998  )
        14        Zn     tau(  14) = (   0.1250000   0.7938567   0.1164998  )
        15        Zn     tau(  15) = (  -0.3750000   0.7938567   0.5824993  )
        16        Zn     tau(  16) = (   0.1250000   0.7938567   0.5824993  )
        17        Zn     tau(  17) = (   0.2500000   0.1443375   0.1164998  )
        18        Zn     tau(  18) = (   0.7500000   0.1443375   0.1164998  )
        19        Zn     tau(  19) = (   0.2500000   0.1443375   0.5824993  )
        20        Zn     tau(  20) = (   0.7500000   0.1443375   0.5824993  )
        21        Zn     tau(  21) = (   0.1250000   0.3608439   0.1164998  )
        22        Zn     tau(  22) = (   0.6250000   0.3608439   0.1164998  )
        23        Zn     tau(  23) = (   0.1250000   0.3608439   0.5824993  )
        24        Zn     tau(  24) = (   0.6250000   0.3608439   0.5824993  )
        25        Zn     tau(  25) = (   0.0000000   0.5773502   0.1164998  )
        26        Zn     tau(  26) = (   0.5000000   0.5773502   0.1164998  )
        27        Zn     tau(  27) = (   0.0000000   0.5773502   0.5824993  )
        28        Zn     tau(  28) = (   0.5000000   0.5773502   0.5824993  )
        29        Zn     tau(  29) = (  -0.1250000   0.7938567   0.1164998  )
        30        Zn     tau(  30) = (   0.3750000   0.7938567   0.1164998  )
        31        Zn     tau(  31) = (  -0.1250000   0.7938567   0.5824993  )
        32        Zn     tau(  32) = (   0.3750000   0.7938567   0.5824993  )
        33        Zn     tau(  33) = (   0.1250000   0.0721688   0.3494996  )
        34        Zn     tau(  34) = (   0.6250000   0.0721688   0.3494996  )
        35        Zn     tau(  35) = (   0.0000000   0.2886752   0.3494996  )
        36        Zn     tau(  36) = (   0.5000000   0.2886752   0.3494996  )
        37        Zn     tau(  37) = (  -0.1250000   0.5051815   0.3494996  )
        38        Zn     tau(  38) = (   0.3750000   0.5051815   0.3494996  )
        39        Zn     tau(  39) = (  -0.2500000   0.7216879   0.3494996  )
        40        Zn     tau(  40) = (   0.2500000   0.7216879   0.3494996  )
        41        Zn     tau(  41) = (   0.3750000   0.0721688   0.3494996  )
        42        Zn     tau(  42) = (   0.8750000   0.0721688   0.3494996  )
        43        Zn     tau(  43) = (   0.2500000   0.2886752   0.3494996  )
        44        Zn     tau(  44) = (   0.7500000   0.2886752   0.3494996  )
        45        Zn     tau(  45) = (   0.1250000   0.5051815   0.3494996  )
        46        Zn     tau(  46) = (   0.6250000   0.5051815   0.3494996  )
        47        Zn     tau(  47) = (   0.0000000   0.7216879   0.3494996  )
        48        Zn     tau(  48) = (   0.5000000   0.7216879   0.3494996  )

   Crystallographic axes

     site n.     atom                  positions (cryst. coord.)
         1        Zn     tau(   1) = (  0.0833333  0.1666666  0.0513044  )
         2        Zn     tau(   2) = (  0.5833333  0.1666666  0.0513044  )
         3        Zn     tau(   3) = (  0.0833333  0.1666666  0.2565219  )
         4        Zn     tau(   4) = (  0.5833333  0.1666666  0.2565219  )
         5        Zn     tau(   5) = (  0.0833333  0.4166666  0.0513044  )
         6        Zn     tau(   6) = (  0.5833333  0.4166666  0.0513044  )
         7        Zn     tau(   7) = (  0.0833333  0.4166666  0.2565219  )
         8        Zn     tau(   8) = (  0.5833333  0.4166666  0.2565219  )
         9        Zn     tau(   9) = (  0.0833333  0.6666666  0.0513044  )
        10        Zn     tau(  10) = (  0.5833333  0.6666666  0.0513044  )
        11        Zn     tau(  11) = (  0.0833333  0.6666666  0.2565219  )
        12        Zn     tau(  12) = (  0.5833333  0.6666666  0.2565219  )
        13        Zn     tau(  13) = (  0.0833333  0.9166667  0.0513044  )
        14        Zn     tau(  14) = (  0.5833334  0.9166667  0.0513044  )
        15        Zn     tau(  15) = (  0.0833333  0.9166667  0.2565219  )
        16        Zn     tau(  16) = (  0.5833334  0.9166667  0.2565219  )
        17        Zn     tau(  17) = (  0.3333333  0.1666666  0.0513044  )
        18        Zn     tau(  18) = (  0.8333334  0.1666666  0.0513044  )
        19        Zn     tau(  19) = (  0.3333333  0.1666666  0.2565219  )
        20        Zn     tau(  20) = (  0.8333334  0.1666666  0.2565219  )
        21        Zn     tau(  21) = (  0.3333333  0.4166666  0.0513044  )
        22        Zn     tau(  22) = (  0.8333333  0.4166666  0.0513044  )
        23        Zn     tau(  23) = (  0.3333333  0.4166666  0.2565219  )
        24        Zn     tau(  24) = (  0.8333333  0.4166666  0.2565219  )
        25        Zn     tau(  25) = (  0.3333333  0.6666666  0.0513044  )
        26        Zn     tau(  26) = (  0.8333333  0.6666666  0.0513044  )
        27        Zn     tau(  27) = (  0.3333333  0.6666666  0.2565219  )
        28        Zn     tau(  28) = (  0.8333333  0.6666666  0.2565219  )
        29        Zn     tau(  29) = (  0.3333334  0.9166667  0.0513044  )
        30        Zn     tau(  30) = (  0.8333334  0.9166667  0.0513044  )
        31        Zn     tau(  31) = (  0.3333334  0.9166667  0.2565219  )
        32        Zn     tau(  32) = (  0.8333334  0.9166667  0.2565219  )
        33        Zn     tau(  33) = (  0.1666667  0.0833334  0.1539131  )
        34        Zn     tau(  34) = (  0.6666667  0.0833334  0.1539131  )
        35        Zn     tau(  35) = (  0.1666667  0.3333334  0.1539131  )
        36        Zn     tau(  36) = (  0.6666667  0.3333334  0.1539131  )
        37        Zn     tau(  37) = (  0.1666667  0.5833334  0.1539131  )
        38        Zn     tau(  38) = (  0.6666667  0.5833334  0.1539131  )
        39        Zn     tau(  39) = (  0.1666667  0.8333334  0.1539131  )
        40        Zn     tau(  40) = (  0.6666667  0.8333334  0.1539131  )
        41        Zn     tau(  41) = (  0.4166667  0.0833334  0.1539131  )
        42        Zn     tau(  42) = (  0.9166667  0.0833334  0.1539131  )
        43        Zn     tau(  43) = (  0.4166667  0.3333334  0.1539131  )
        44        Zn     tau(  44) = (  0.9166667  0.3333334  0.1539131  )
        45        Zn     tau(  45) = (  0.4166667  0.5833334  0.1539131  )
        46        Zn     tau(  46) = (  0.9166667  0.5833334  0.1539131  )
        47        Zn     tau(  47) = (  0.4166667  0.8333334  0.1539131  )
        48        Zn     tau(  48) = (  0.9166667  0.8333334  0.1539131  )

     number of k points=     1  Marzari-Vanderbilt smearing, width (Ry)=  0.0200
                       cart. coord. in units 2pi/alat
        k(    1) = (   0.0000000   0.0000000   0.0000000), wk =   2.0000000

                       cryst. coord.
        k(    1) = (   0.0000000   0.0000000   0.0000000), wk =   2.0000000

     Dense  grid:  1201061 G-vectors     FFT dimensions: ( 108, 108, 240)

     Smooth grid:   518755 G-vectors     FFT dimensions: (  80,  80, 192)

     Dynamical RAM for                 wfc:      17.26 MB

     Dynamical RAM for     wfc (w. buffer):      17.26 MB

     Dynamical RAM for           str. fact:       0.56 MB

     Dynamical RAM for           local pot:       0.00 MB

     Dynamical RAM for          nlocal pot:      25.89 MB

     Dynamical RAM for                qrad:       1.34 MB

     Dynamical RAM for          rho,v,vnew:       3.80 MB

     Dynamical RAM for               rhoin:       1.27 MB

     Dynamical RAM for            rho*nmix:       8.89 MB

     Dynamical RAM for           G-vectors:       2.20 MB

     Dynamical RAM for          h,s,v(r/c):       2.42 MB

     Dynamical RAM for          <psi|beta>:       7.59 MB

     Dynamical RAM for                 psi:      34.52 MB

     Dynamical RAM for                hpsi:      34.52 MB

     Dynamical RAM for                spsi:      34.52 MB

     Dynamical RAM for      wfcinit/wfcrot:      46.32 MB

     Dynamical RAM for           addusdens:     129.95 MB

     Estimated static dynamical RAM per process >      56.99 MB

     Estimated max dynamical RAM per process >     195.83 MB

     Estimated total dynamical RAM >       6.31 GB

     Initial potential from superposition of free atoms

     starting charge     959.9932, renormalised to     960.0000

     negative rho (up, down):  4.194E-03 0.000E+00
     Starting wfcs are  624 randomized atomic wfcs

     total cpu time spent up to now is       12.4 secs

     Self-consistent Calculation

     iteration #  1     ecut=    40.00 Ry     beta= 0.40
     Davidson diagonalization with overlap

---- Real-time Memory Report at c_bands before calling an iterative solver
           173 MiB given to the printing process from OS
             0 MiB allocation reported by mallinfo(arena+hblkhd)
         16551 MiB available memory on the node where the printing process lives
------------------
     ethr =  1.00E-02,  avg # of iterations = 16.0

     Threshold (ethr) on eigenvalues was too large:
     Diagonalizing with lowered threshold

     Davidson diagonalization with overlap

---- Real-time Memory Report at c_bands before calling an iterative solver
           215 MiB given to the printing process from OS
             0 MiB allocation reported by mallinfo(arena+hblkhd)
         15451 MiB available memory on the node where the printing process lives
------------------
     ethr =  1.62E-04,  avg # of iterations = 11.0

     negative rho (up, down):  5.004E-03 0.000E+00

     total cpu time spent up to now is      105.0 secs

     total energy              =  -22153.73700766 Ry
     estimated scf accuracy    <       1.59314311 Ry

     iteration #  2     ecut=    40.00 Ry     beta= 0.40
     Davidson diagonalization with overlap

---- Real-time Memory Report at c_bands before calling an iterative solver
           224 MiB given to the printing process from OS
             0 MiB allocation reported by mallinfo(arena+hblkhd)
         15348 MiB available memory on the node where the printing process lives
------------------
     ethr =  1.66E-04,  avg # of iterations =  2.0

     negative rho (up, down):  5.529E-03 0.000E+00

     total cpu time spent up to now is      150.0 secs

     total energy              =  -22154.10886235 Ry
     estimated scf accuracy    <       0.27986072 Ry

     iteration #  3     ecut=    40.00 Ry     beta= 0.40
     Davidson diagonalization with overlap

---- Real-time Memory Report at c_bands before calling an iterative solver
           227 MiB given to the printing process from OS
             0 MiB allocation reported by mallinfo(arena+hblkhd)
         15334 MiB available memory on the node where the printing process lives
------------------
     ethr =  2.92E-05,  avg # of iterations =  2.0

     negative rho (up, down):  5.892E-03 0.000E+00

     total cpu time spent up to now is      188.2 secs

     total energy              =  -22154.12629763 Ry
     estimated scf accuracy    <       0.04795403 Ry

     iteration #  4     ecut=    40.00 Ry     beta= 0.40
     Davidson diagonalization with overlap

---- Real-time Memory Report at c_bands before calling an iterative solver
           227 MiB given to the printing process from OS
             0 MiB allocation reported by mallinfo(arena+hblkhd)
         15317 MiB available memory on the node where the printing process lives
------------------
     ethr =  5.00E-06,  avg # of iterations =  5.0

     negative rho (up, down):  5.939E-03 0.000E+00

     total cpu time spent up to now is      230.8 secs

     total energy              =  -22154.12704095 Ry
     estimated scf accuracy    <       0.01551563 Ry

     iteration #  5     ecut=    40.00 Ry     beta= 0.40
     Davidson diagonalization with overlap

---- Real-time Memory Report at c_bands before calling an iterative solver
           228 MiB given to the printing process from OS
             0 MiB allocation reported by mallinfo(arena+hblkhd)
         15300 MiB available memory on the node where the printing process lives
------------------
     ethr =  1.62E-06,  avg # of iterations =  3.0

     negative rho (up, down):  6.007E-03 0.000E+00

     total cpu time spent up to now is      269.8 secs

     total energy              =  -22154.12848216 Ry
     estimated scf accuracy    <       0.00246612 Ry

     iteration #  6     ecut=    40.00 Ry     beta= 0.40
     Davidson diagonalization with overlap

---- Real-time Memory Report at c_bands before calling an iterative solver
           228 MiB given to the printing process from OS
             0 MiB allocation reported by mallinfo(arena+hblkhd)
         15285 MiB available memory on the node where the printing process lives
------------------
     ethr =  2.57E-07,  avg # of iterations =  2.0

     negative rho (up, down):  6.040E-03 0.000E+00

     total cpu time spent up to now is      311.8 secs

     total energy              =  -22154.12881551 Ry
     estimated scf accuracy    <       0.00078132 Ry

     iteration #  7     ecut=    40.00 Ry     beta= 0.40
     Davidson diagonalization with overlap

---- Real-time Memory Report at c_bands before calling an iterative solver
           229 MiB given to the printing process from OS
             0 MiB allocation reported by mallinfo(arena+hblkhd)
         15270 MiB available memory on the node where the printing process lives
------------------
     ethr =  8.14E-08,  avg # of iterations =  2.0

     negative rho (up, down):  6.065E-03 0.000E+00

     total cpu time spent up to now is      349.3 secs

     total energy              =  -22154.12887207 Ry
     estimated scf accuracy    <       0.00171215 Ry

     iteration #  8     ecut=    40.00 Ry     beta= 0.40
     Davidson diagonalization with overlap

---- Real-time Memory Report at c_bands before calling an iterative solver
           229 MiB given to the printing process from OS
             0 MiB allocation reported by mallinfo(arena+hblkhd)
         15254 MiB available memory on the node where the printing process lives
------------------
     ethr =  8.14E-08,  avg # of iterations =  1.0

     negative rho (up, down):  6.083E-03 0.000E+00

     total cpu time spent up to now is      380.1 secs

     total energy              =  -22154.12897273 Ry
     estimated scf accuracy    <       0.00005268 Ry

     iteration #  9     ecut=    40.00 Ry     beta= 0.40
     Davidson diagonalization with overlap

---- Real-time Memory Report at c_bands before calling an iterative solver
           231 MiB given to the printing process from OS
             0 MiB allocation reported by mallinfo(arena+hblkhd)
         15238 MiB available memory on the node where the printing process lives
------------------
     ethr =  5.49E-09,  avg # of iterations =  2.0

     negative rho (up, down):  6.094E-03 0.000E+00

     total cpu time spent up to now is      417.6 secs

     total energy              =  -22154.12897425 Ry
     estimated scf accuracy    <       0.00002236 Ry

     iteration # 10     ecut=    40.00 Ry     beta= 0.40
     Davidson diagonalization with overlap

---- Real-time Memory Report at c_bands before calling an iterative solver
           231 MiB given to the printing process from OS
             0 MiB allocation reported by mallinfo(arena+hblkhd)
         15223 MiB available memory on the node where the printing process lives
------------------
     ethr =  2.33E-09,  avg # of iterations =  2.0

     negative rho (up, down):  6.112E-03 0.000E+00

     total cpu time spent up to now is      462.8 secs

     End of self-consistent calculation

          k = 0.0000 0.0000 0.0000 ( 64855 PWs)   bands (ev):

  -124.9642-124.9626-124.9625-124.9625-124.9625-124.9624-124.9624-124.9609
  -124.9608-124.9608-124.9608-124.9607-124.9607-124.9607-124.9606-124.9606
  -124.7477-124.7475-124.7460-124.7460-124.7460-124.7459-124.7459-124.7459
  -124.7459-124.7458-124.7458-124.7457-124.7457-124.7457-124.7444-124.7443
  -124.7443-124.7442-124.7442-124.7442-124.7442-124.7441-124.7441-124.7441
  -124.7441-124.7440-124.7440-124.7440-124.7440-124.7440-124.7439-124.7439
   -79.1354 -79.1354 -79.1354 -79.1288 -79.1287 -79.1287 -79.1287 -79.1287
   -79.1286 -79.1174 -79.1174 -79.1173 -79.1173 -79.1173 -79.1173 -79.1154
   -79.1153 -79.1153 -79.1153 -79.1153 -79.1152 -79.1087 -79.1087 -79.1087
   -79.1066 -79.1047 -79.1047 -79.1046 -79.1046 -79.1046 -79.1045 -79.1040
   -79.1040 -79.1039 -79.1039 -79.1039 -79.1039 -79.1028 -79.1027 -79.1027
   -79.1026 -79.1026 -79.1026 -79.1026 -79.1025 -79.1025 -79.0992 -79.0992
   -78.9135 -78.9133 -78.9117 -78.9117 -78.9116 -78.9116 -78.9116 -78.9116
   -78.9115 -78.9115 -78.9114 -78.9114 -78.9114 -78.9114 -78.9099 -78.9098
   -78.9097 -78.9097 -78.9097 -78.9097 -78.9097 -78.9096 -78.9096 -78.9096
   -78.9096 -78.9096 -78.9096 -78.9095 -78.9095 -78.9095 -78.9095 -78.9095
   -78.9063 -78.9063 -78.9063 -78.9061 -78.9061 -78.9061 -78.8997 -78.8997
   -78.8997 -78.8997 -78.8996 -78.8996 -78.8995 -78.8995 -78.8995 -78.8995
   -78.8995 -78.8994 -78.8884 -78.8884 -78.8884 -78.8883 -78.8883 -78.8883
   -78.8882 -78.8882 -78.8882 -78.8882 -78.8881 -78.8881 -78.8864 -78.8864
   -78.8863 -78.8863 -78.8863 -78.8863 -78.8862 -78.8862 -78.8862 -78.8861
   -78.8861 -78.8861 -78.8798 -78.8797 -78.8797 -78.8796 -78.8796 -78.8796
   -78.8751 -78.8751 -78.8750 -78.8750 -78.8750 -78.8750 -78.8749 -78.8749
   -78.8749 -78.8748 -78.8748 -78.8748 -78.8703 -78.8703 -78.8701 -78.8701
    -8.5156  -7.2759  -6.9864  -6.9635  -6.9635  -6.9635  -6.9635  -6.9635
    -6.9635  -6.8246  -6.8246  -6.8246  -6.6098  -6.6098  -6.6098  -6.5546
    -6.5546  -6.5546  -6.4780  -6.4780  -6.4779  -6.4779  -6.4779  -6.4779
    -6.4232  -6.4232  -6.4232  -6.4191  -6.4191  -6.4191  -6.4191  -6.4191
    -6.4191  -6.3725  -6.3724  -6.3724  -6.3724  -6.3724  -6.3724  -6.3396
    -6.3396  -6.3395  -6.3395  -6.3395  -6.3395  -6.2203  -6.2203  -6.2203
    -6.2170  -6.2170  -6.2170  -6.2170  -6.2169  -6.2169  -6.1651  -6.1651
    -6.1651  -6.1651  -6.1650  -6.1650  -6.1600  -6.0972  -6.0972  -6.0972
    -6.0972  -6.0972  -6.0972  -6.0636  -6.0636  -6.0636  -6.0635  -6.0635
    -6.0635  -6.0313  -6.0313  -6.0290  -6.0290  -6.0290  -6.0290  -6.0290
    -6.0290  -6.0088  -6.0088  -6.0088  -6.0088  -6.0088  -6.0088  -5.9998
    -5.9997  -5.9997  -5.9997  -5.9997  -5.9997  -5.9873  -5.9873  -5.9873
    -5.8879  -5.8879  -5.8879  -5.8879  -5.8879  -5.8878  -5.7938  -5.7938
    -5.7741  -5.7741  -5.7549  -5.7549  -5.7548  -5.7548  -5.7548  -5.7548
    -5.7502  -5.7502  -5.7502  -5.7502  -5.7502  -5.7502  -5.7271  -5.7271
    -5.7271  -5.6687  -5.6687  -5.6687  -5.6687  -5.6687  -5.6687  -5.6631
    -5.6631  -5.6631  -5.6631  -5.6631  -5.6631  -5.6585  -5.6585  -5.6585
    -5.6585  -5.6585  -5.6585  -5.6423  -5.6423  -5.6423  -5.6423  -5.6423
    -5.6422  -5.6397  -5.6396  -5.6396  -5.6396  -5.6396  -5.6396  -5.6358
    -5.6358  -5.6358  -5.6357  -5.6357  -5.6357  -5.6097  -5.5992  -5.5992
    -5.5992  -5.5992  -5.5991  -5.5991  -5.5897  -5.5897  -5.5897  -5.5058
    -5.5058  -5.4663  -5.4663  -5.4663  -5.4663  -5.4662  -5.4662  -5.4604
    -5.4604  -5.4603  -5.4603  -5.4603  -5.4603  -5.4392  -5.4392  -5.4391
    -5.4391  -5.4391  -5.4391  -5.4175  -5.4175  -5.4175  -5.3790  -5.3790
    -5.3790  -5.3790  -5.3790  -5.3790  -5.3719  -5.3718  -5.3718  -5.3718
    -5.3718  -5.3718  -5.3348  -5.3348  -5.3348  -5.3348  -5.3348  -5.3347
    -5.3274  -5.3274  -5.3274  -5.3239  -5.3239  -5.3239  -5.2905  -5.2905
    -5.2905  -5.2805  -5.2805  -5.2804  -5.2804  -5.2804  -5.2804  -5.2717
    -5.2717  -5.2513  -5.2513  -5.2084  -5.2084  -5.2084  -5.2084  -5.2084
    -5.2084  -5.1886  -5.1886  -5.1886  -5.1811  -5.1811  -5.1811  -5.1811
    -5.1810  -5.1810  -4.9482  -4.9482  -4.9482  -4.9480  -4.9480  -4.9480
    -4.2897  -4.2896  -4.2896  -4.2896  -4.2896  -4.2896  -3.3776  -1.9967
    -1.9967  -1.9967  -1.9966  -1.9966  -1.9966  -1.9420  -1.9420  -1.9419
    -1.9419  -1.9419  -1.9419  -0.7416  -0.7415  -0.7415  -0.6463  -0.5227
    -0.5227  -0.5227  -0.5227  -0.5227  -0.5227   0.0270   0.0270   0.0270
     0.3659   0.3659   0.3659   1.6183   1.6183   1.6183   1.6183   1.6183
     1.6183   1.6511   1.6512   1.6512   1.6512   1.6512   1.6512   2.4236
     2.4236   2.4236   3.1579   3.3889   3.3889   3.3889   4.2143   4.2143
     4.2143   4.9280   4.9280   4.9280   4.9280   4.9280   4.9281   5.0452
     5.2217   5.5014   5.5014   5.5014   5.5014   5.5014   5.5014   5.5421
     5.5421   5.5421   5.5421   5.5421   5.5421   5.7134   5.7134   5.7134
     5.7134   5.7134   5.7134   6.1683   6.3704   6.6274   6.6274   6.6274
     6.8473   6.8473   6.8473   6.8473   6.8474   6.8474   7.0575   7.0575
     7.0575   7.0575   7.0575   7.0575   7.1304   7.1304   7.1304   7.1304
     7.1304   7.1304   7.2986   7.2986   7.2986   7.2986   7.2986   7.2986
     8.0081   8.0081   8.0081   8.0081   8.0081   8.0081   8.1596   8.1596
     8.1596   8.1597   8.1597   8.1597   8.1787   8.1945   8.1945   8.1945
     8.1945   8.1945   8.1945   8.3552   8.4545   8.4545   8.4545   9.3874

     occupation numbers 
     1.0000   1.0000   1.0000   1.0000   1.0000   1.0000   1.0000   1.0000
     1.0000   1.0000   1.0000   1.0000   1.0000   1.0000   1.0000   1.0000
     1.0000   1.0000   1.0000   1.0000   1.0000   1.0000   1.0000   1.0000
     1.0000   1.0000   1.0000   1.0000   1.0000   1.0000   1.0000   1.0000
     1.0000   1.0000   1.0000   1.0000   1.0000   1.0000   1.0000   1.0000
     1.0000   1.0000   1.0000   1.0000   1.0000   1.0000   1.0000   1.0000
     1.0000   1.0000   1.0000   1.0000   1.0000   1.0000   1.0000   1.0000
     1.0000   1.0000   1.0000   1.0000   1.0000   1.0000   1.0000   1.0000
     1.0000   1.0000   1.0000   1.0000   1.0000   1.0000   1.0000   1.0000
     1.0000   1.0000   1.0000   1.0000   1.0000   1.0000   1.0000   1.0000
     1.0000   1.0000   1.0000   1.0000   1.0000   1.0000   1.0000   1.0000
     1.0000   1.0000   1.0000   1.0000   1.0000   1.0000   1.0000   1.0000
     1.0000   1.0000   1.0000   1.0000   1.0000   1.0000   1.0000   1.0000
     1.0000   1.0000   1.0000   1.0000   1.0000   1.0000   1.0000   1.0000
     1.0000   1.0000   1.0000   1.0000   1.0000   1.0000   1.0000   1.0000
     1.0000   1.0000   1.0000   1.0000   1.0000   1.0000   1.0000   1.0000
     1.0000   1.0000   1.0000   1.0000   1.0000   1.0000   1.0000   1.0000
     1.0000   1.0000   1.0000   1.0000   1.0000   1.0000   1.0000   1.0000
     1.0000   1.0000   1.0000   1.0000   1.0000   1.0000   1.0000   1.0000
     1.0000   1.0000   1.0000   1.0000   1.0000   1.0000   1.0000   1.0000
     1.0000   1.0000   1.0000   1.0000   1.0000   1.0000   1.0000   1.0000
     1.0000   1.0000   1.0000   1.0000   1.0000   1.0000   1.0000   1.0000
     1.0000   1.0000   1.0000   1.0000   1.0000   1.0000   1.0000   1.0000
     1.0000   1.0000   1.0000   1.0000   1.0000   1.0000   1.0000   1.0000
     1.0000   1.0000   1.0000   1.0000   1.0000   1.0000   1.0000   1.0000
     1.0000   1.0000   1.0000   1.0000   1.0000   1.0000   1.0000   1.0000
     1.0000   1.0000   1.0000   1.0000   1.0000   1.0000   1.0000   1.0000
     1.0000   1.0000   1.0000   1.0000   1.0000   1.0000   1.0000   1.0000
     1.0000   1.0000   1.0000   1.0000   1.0000   1.0000   1.0000   1.0000
     1.0000   1.0000   1.0000   1.0000   1.0000   1.0000   1.0000   1.0000
     1.0000   1.0000   1.0000   1.0000   1.0000   1.0000   1.0000   1.0000
     1.0000   1.0000   1.0000   1.0000   1.0000   1.0000   1.0000   1.0000
     1.0000   1.0000   1.0000   1.0000   1.0000   1.0000   1.0000   1.0000
     1.0000   1.0000   1.0000   1.0000   1.0000   1.0000   1.0000   1.0000
     1.0000   1.0000   1.0000   1.0000   1.0000   1.0000   1.0000   1.0000
     1.0000   1.0000   1.0000   1.0000   1.0000   1.0000   1.0000   1.0000
     1.0000   1.0000   1.0000   1.0000   1.0000   1.0000   1.0000   1.0000
     1.0000   1.0000   1.0000   1.0000   1.0000   1.0000   1.0000   1.0000
     1.0000   1.0000   1.0000   1.0000   1.0000   1.0000   1.0000   1.0000
     1.0000   1.0000   1.0000   1.0000   1.0000   1.0000   1.0000   1.0000
     1.0000   1.0000   1.0000   1.0000   1.0000   1.0000   1.0000   1.0000
     1.0000   1.0000   1.0000   1.0000   1.0000   1.0000   1.0000   1.0000
     1.0000   1.0000   1.0000   1.0000   1.0000   1.0000   1.0000   1.0000
     1.0000   1.0000   1.0000   1.0000   1.0000   1.0000   1.0000   1.0000
     1.0000   1.0000   1.0000   1.0000   1.0000   1.0000   1.0000   1.0000
     1.0000   1.0000   1.0000   1.0000   1.0000   1.0000   1.0000   1.0000
     1.0000   1.0000   1.0000   1.0000   1.0000   1.0000   1.0000   1.0000
     1.0000   1.0000   1.0000   1.0000   1.0000   1.0000   1.0000   1.0000
     1.0000   1.0000   1.0000   1.0000   1.0000   1.0000   1.0000   1.0000
     1.0000   1.0000   1.0000   1.0000   1.0000   1.0000   1.0000   1.0000
     1.0000   1.0000   1.0000   1.0000   1.0000   1.0000   1.0000   1.0000
     1.0000   1.0000   1.0000   1.0000   1.0000   1.0000   1.0000   1.0000
     1.0000   1.0000   1.0000   1.0000   1.0000   1.0000   1.0000   1.0000
     1.0000   1.0000   1.0000   1.0000   1.0000   1.0000   1.0000   1.0000
     1.0000   1.0000   1.0000   1.0000   1.0000   1.0000   1.0000   1.0000
     1.0000   1.0000   1.0000   1.0000   1.0000   1.0000   1.0000   1.0000
     1.0000   1.0000   1.0000   1.0000   1.0000   1.0000   1.0000   1.0000
     1.0000   1.0000   1.0000   1.0000   1.0000   1.0000   1.0000   1.0000
     1.0000   1.0000   1.0000   1.0000   1.0000   1.0000   1.0000   1.0000
     1.0000   1.0000   1.0000   0.4587   0.4586   0.4586   0.4586   0.4585
     0.4585   0.3749   0.3748   0.3747   0.3747   0.3747   0.3746   0.0000
     0.0000   0.0000   0.0000   0.0000   0.0000   0.0000   0.0000   0.0000
     0.0000   0.0000   0.0000   0.0000   0.0000   0.0000   0.0000   0.0000
     0.0000   0.0000   0.0000   0.0000   0.0000   0.0000   0.0000   0.0000
     0.0000   0.0000   0.0000   0.0000   0.0000   0.0000   0.0000   0.0000
     0.0000   0.0000   0.0000   0.0000   0.0000   0.0000   0.0000   0.0000
     0.0000   0.0000   0.0000   0.0000   0.0000   0.0000   0.0000   0.0000
     0.0000   0.0000   0.0000   0.0000   0.0000   0.0000   0.0000   0.0000
     0.0000   0.0000   0.0000   0.0000   0.0000   0.0000   0.0000   0.0000
     0.0000   0.0000   0.0000   0.0000   0.0000   0.0000   0.0000   0.0000
     0.0000   0.0000   0.0000   0.0000   0.0000   0.0000   0.0000   0.0000
     0.0000   0.0000   0.0000   0.0000   0.0000   0.0000   0.0000   0.0000

     the Fermi energy is     1.6408 ev

!    total energy              =  -22154.12897393 Ry
     estimated scf accuracy    <       0.00000983 Ry
     smearing contrib. (-TS)   =      -0.08143076 Ry
     internal energy E=F+TS    =  -22154.04754318 Ry

     The total energy is F=E-TS. E is the sum of the following terms:
     one-electron contribution = -144872.28010641 Ry
     hartree contribution      =   72373.14143329 Ry
     xc contribution           =   -2024.15681375 Ry
     ewald contribution        =   52369.24794369 Ry

     convergence has been achieved in  10 iterations

     Writing all to output data dir ./tmp/Zn002.save/ :
     XML data file, charge density, pseudopotentials, collected wavefunctions

     init_run     :     12.19s CPU     12.33s WALL (       1 calls)
     electrons    :    446.75s CPU    450.45s WALL (       1 calls)

     Called by init_run:
     wfcinit      :     10.89s CPU     10.98s WALL (       1 calls)
     wfcinit:atom :      0.01s CPU      0.01s WALL (       1 calls)
     wfcinit:wfcr :     10.78s CPU     10.86s WALL (       1 calls)
     potinit      :      0.08s CPU      0.09s WALL (       1 calls)
     hinit0       :      0.03s CPU      0.04s WALL (       1 calls)

     Called by electrons:
     c_bands      :    398.92s CPU    401.83s WALL (      11 calls)
     sum_band     :     38.26s CPU     38.69s WALL (      11 calls)
     v_of_rho     :      0.75s CPU      0.79s WALL (      11 calls)
     v_h          :      0.05s CPU      0.06s WALL (      11 calls)
     v_xc         :      0.70s CPU      0.73s WALL (      11 calls)
     newd         :      9.58s CPU      9.85s WALL (      11 calls)
     mix_rho      :      0.09s CPU      0.09s WALL (      11 calls)

     Called by c_bands:
     init_us_2    :      0.43s CPU      0.44s WALL (      23 calls)
     cegterg      :    398.16s CPU    401.06s WALL (      11 calls)

     Called by sum_band:
     sum_band:wei :      0.01s CPU      0.01s WALL (      11 calls)
     sum_band:loo :     28.52s CPU     28.66s WALL (      11 calls)
     sum_band:buf :      0.00s CPU      0.00s WALL (      11 calls)
     sum_band:ini :      0.21s CPU      0.21s WALL (      11 calls)
     sum_band:cal :     24.37s CPU     24.49s WALL (      11 calls)
     sum_band:bec :      0.22s CPU      0.22s WALL (      11 calls)
     addusdens    :      9.61s CPU      9.88s WALL (      11 calls)
                                        0.00s GPU  (      11 calls)
     addusd:skk   :      0.09s CPU      0.10s WALL (      11 calls)
                                        0.00s GPU  (      11 calls)

     Called by *egterg:
     cdiaghg      :     26.68s CPU     27.74s WALL (      58 calls)
     cegterg:over :     60.99s CPU     61.20s WALL (      48 calls)
     cegterg:upda :     27.39s CPU     27.55s WALL (      48 calls)
     cegterg:last :     93.45s CPU     94.01s WALL (      21 calls)
     cdiaghg:chol :      1.74s CPU      1.75s WALL (      58 calls)
     cdiaghg:inve :      0.29s CPU      0.29s WALL (      58 calls)
     cdiaghg:para :      7.11s CPU      7.25s WALL (     116 calls)
     h_psi        :    126.62s CPU    127.25s WALL (      60 calls)
     s_psi        :     53.23s CPU     53.36s WALL (      60 calls)
     g_psi        :      0.05s CPU      0.05s WALL (      48 calls)

     Called by h_psi:
     h_psi:calbec :     56.79s CPU     57.07s WALL (      60 calls)
     vloc_psi     :     16.27s CPU     16.40s WALL (      60 calls)
     add_vuspsi   :     53.40s CPU     53.53s WALL (      60 calls)

     General routines
     calbec       :     81.16s CPU     81.55s WALL (      71 calls)
     fft          :      0.41s CPU      0.47s WALL (     141 calls)
     ffts         :      0.02s CPU      0.02s WALL (      22 calls)
     fftw         :     17.38s CPU     17.50s WALL (   35844 calls)
     interpolate  :      0.05s CPU      0.05s WALL (      11 calls)

     Parallel routines

     PWSCF        :   7m39.26s CPU   7m43.84s WALL


   This run was terminated on:   1:33:36  27Mar2025            

=------------------------------------------------------------------------------=
   JOB DONE.
=------------------------------------------------------------------------------=
