
     Program PWSCF v.7.3.1 starts on  9Apr2025 at  0:52:21 

     This program is part of the open-source Quantum ESPRESSO suite
     for quantum simulation of materials; please cite
         "P. Giannozzi et al., J. Phys.:Condens. Matter 21 395502 (2009);
         "P. Giannozzi et al., J. Phys.:Condens. Matter 29 465901 (2017);
         "P. Giannozzi et al., J. Chem. Phys. 152 154105 (2020);
          URL http://www.quantum-espresso.org", 
     in publications or presentations arising from this work. More details at
     http://www.quantum-espresso.org/quote

     Parallel version (MPI), running on    33 processors

     MPI processes distributed on     1 nodes
     62775 MiB available memory on the printing compute node when the environment starts

     Waiting for input...
     Reading input from standard input
Warning: card &CELL ignored
Warning: card   CELL_DOFREE = 'ALL' ignored
Warning: card / ignored

     Current dimensions of program PWSCF are:
     Max number of different atomic species (ntypx) = 10
     Max number of k-points (npk) =  40000
     Max angular momentum in pseudopotentials (lmaxx) =  4
     file C.pbe-n-kjpaw_psl.1.0.0.UPF: wavefunction(s)  2S 2P renormalized

     R & G space division:  proc/nbgrp/npool/nimage =      33
     Subspace diagonalization in iterative solution of the eigenvalue problem:
     one sub-group per band group will be used
     custom distributed-memory algorithm (size of sub-group:  5*  5 procs)


     Parallelization info
     --------------------
     sticks:   dense  smooth     PW     G-vecs:    dense   smooth      PW
     Min         245     140     37                38015    16424    2301
     Max         246     141     38                38023    16429    2310
     Sum        8103    4637   1251              1254623   542067   76155

     Using Slab Decomposition



     bravais-lattice index     =            0
     lattice parameter (alat)  =      18.4179  a.u.
     unit-cell volume          =   15858.2170 (a.u.)^3
     number of atoms/cell      =           62
     number of atomic types    =            4
     number of electrons       =       996.00
     number of Kohn-Sham states=          598
     kinetic-energy cutoff     =      40.0000  Ry
     charge density cutoff     =     280.0000  Ry
     scf convergence threshold =      1.0E-06
     mixing beta               =       0.4000
     number of iterations used =            8  plain     mixing
     energy convergence thresh.=      5.0E-05
     force convergence thresh. =      1.0E-03
     Exchange-correlation= PBE
                           (   1   4   3   4   0   0   0)
     nstep                     =          300


     celldm(1)=  18.417879  celldm(2)=   0.000000  celldm(3)=   0.000000
     celldm(4)=   0.000000  celldm(5)=   0.000000  celldm(6)=   0.000000

     crystal axes: (cart. coord. in units of alat)
               a(1) = (   1.000000   0.000000   0.000000 )  
               a(2) = (   0.000000   1.072963   0.000000 )  
               a(3) = (   0.000000  -1.365810   2.365652 )  

     reciprocal axes: (cart. coord. in units 2 pi/alat)
               b(1) = (  1.000000  0.000000 -0.000000 )  
               b(2) = ( -0.000000  0.931999  0.538090 )  
               b(3) = (  0.000000  0.000000  0.422716 )  


     PseudoPot. # 1 for Zn read from file:
     /home/ys/qepseudo/SSSP_1.3.0_PBE_efficiency/Zn_pbe_v1.uspp.F.UPF
     MD5 check sum: df62231357ef9e81f77b2b3087fa5675
     Pseudo is Ultrasoft, Zval = 20.0
     Generated by new atomic code, or converted to UPF format
     Using radial grid of  943 points,  6 beta functions with: 
                l(1) =   0
                l(2) =   0
                l(3) =   1
                l(4) =   1
                l(5) =   2
                l(6) =   2
     Q(r) pseudized with  8 coefficients,  rinner =    1.100   1.100   1.100
                                                       1.100   1.100

     PseudoPot. # 2 for N  read from file:
     /home/ys/qepseudo/SSSP_1.3.0_PBE_efficiency/N.pbe-n-radius_5.UPF
     MD5 check sum: 16739722b17309cd8fe442a2ace49922
     Pseudo is Ultrasoft + core correction, Zval =  5.0
     Generated using "atomic" code by A. Dal Corso  v.5.1
     Using radial grid of 1085 points,  4 beta functions with: 
                l(1) =   0
                l(2) =   0
                l(3) =   1
                l(4) =   1
     Q(r) pseudized with 0 coefficients 


     PseudoPot. # 3 for C  read from file:
     /home/ys/qepseudo/SSSP_1.3.0_PBE_efficiency/C.pbe-n-kjpaw_psl.1.0.0.UPF
     MD5 check sum: 5d2aebdfa2cae82b50a7e79e9516da0f
     Pseudo is Projector augmented-wave + core cor, Zval =  4.0
     Generated using "atomic" code by A. Dal Corso  v.5.1
     Shape of augmentation charge: PSQ
     Using radial grid of 1073 points,  4 beta functions with: 
                l(1) =   0
                l(2) =   0
                l(3) =   1
                l(4) =   1
     Q(r) pseudized with 0 coefficients 


     PseudoPot. # 4 for H  read from file:
     /home/ys/qepseudo/SSSP_1.3.0_PBE_efficiency/H.pbe-rrkjus_psl.1.0.0.UPF
     MD5 check sum: f52b6d4d1c606e5624b1dc7b2218f220
     Pseudo is Ultrasoft, Zval =  1.0
     Generated using "atomic" code by A. Dal Corso  v.5.1
     Using radial grid of  929 points,  2 beta functions with: 
                l(1) =   0
                l(2) =   0
     Q(r) pseudized with 0 coefficients 


     atomic species   valence    mass     pseudopotential
     Zn               20.00    65.38000     Zn( 1.00)
     N                 5.00    14.00674     N ( 1.00)
     C                 4.00    12.01070     C ( 1.00)
     H                 1.00     1.00794     H ( 1.00)

     No symmetry found


                                    s                        frac. trans.

      isym =  1     identity                                     

 cryst.   s( 1) = (     1          0          0      )
                  (     0          1          0      )
                  (     0          0          1      )

 cart.    s( 1) = (  1.0000000  0.0000000  0.0000000 )
                  (  0.0000000  1.0000000 -0.0000000 )
                  (  0.0000000  0.0000000  1.0000000 )


   Cartesian axes

     site n.     atom                  positions (alat units)
         1        Zn     tau(   1) = (   0.1250000   0.1341203   0.0774344  )
         2        Zn     tau(   2) = (   0.1250000   0.6706017   0.0774344  )
         3        Zn     tau(   3) = (   0.1254355  -0.0000659   0.3663588  )
         4        Zn     tau(   4) = (   0.1254363   0.5365404   0.3662887  )
         5        Zn     tau(   5) = (   0.1252702  -0.1341656   0.6251262  )
         6        Zn     tau(   6) = (   0.1252777   0.4024072   0.6251464  )
         7        Zn     tau(   7) = (   0.1250000   0.4023610   0.0774344  )
         8        Zn     tau(   8) = (   0.1250000   0.9388424   0.0774344  )
         9        Zn     tau(   9) = (   0.1254456   0.2682606   0.3663796  )
        10        Zn     tau(  10) = (   0.1254350   0.8047243   0.3662418  )
        11        Zn     tau(  11) = (   0.1252783   0.1341187   0.6251453  )
        12        Zn     tau(  12) = (   0.1252697   0.6706189   0.6251228  )
        13        Zn     tau(  13) = (   0.6250000   0.1341203   0.0774344  )
        14        Zn     tau(  14) = (   0.6250000   0.6706017   0.0774344  )
        15        Zn     tau(  15) = (   0.6245281  -0.0000638   0.3665247  )
        16        Zn     tau(  16) = (   0.6245270   0.5365419   0.3664904  )
        17        Zn     tau(  17) = (   0.6247150  -0.1341737   0.6252632  )
        18        Zn     tau(  18) = (   0.6247105   0.4024094   0.6252948  )
        19        Zn     tau(  19) = (   0.6250000   0.4023610   0.0774344  )
        20        Zn     tau(  20) = (   0.6250000   0.9388424   0.0774344  )
        21        Zn     tau(  21) = (   0.6245216   0.2682681   0.3665651  )
        22        Zn     tau(  22) = (   0.6245321   0.8047117   0.3664232  )
        23        Zn     tau(  23) = (   0.6247131   0.1341157   0.6252902  )
        24        Zn     tau(  24) = (   0.6247175   0.6706215   0.6252710  )
        25        Zn     tau(  25) = (   0.3750000   0.0000000   0.1548688  )
        26        Zn     tau(  26) = (   0.3750000   0.5364814   0.1548688  )
        27        Zn     tau(  27) = (   0.3745046  -0.1341714   0.3889500  )
        28        Zn     tau(  28) = (   0.3745046   0.4024249   0.3889898  )
        29        Zn     tau(  29) = (   0.3746919  -0.2682568   0.6329084  )
        30        Zn     tau(  30) = (   0.3746970   0.2682757   0.6328984  )
        31        Zn     tau(  31) = (   0.3750000   0.2682407   0.1548688  )
        32        Zn     tau(  32) = (   0.3750000   0.8047221   0.1548688  )
        33        Zn     tau(  33) = (   0.3745120   0.1340709   0.3890099  )
        34        Zn     tau(  34) = (   0.3744965   0.6706470   0.3889242  )
        35        Zn     tau(  35) = (   0.3746988  -0.0000299   0.6328957  )
        36        Zn     tau(  36) = (   0.3746947   0.5365025   0.6329113  )
        37        Zn     tau(  37) = (   0.8750000   0.0000000   0.1548688  )
        38        Zn     tau(  38) = (   0.8750000   0.5364814   0.1548688  )
        39        Zn     tau(  39) = (   0.8755371  -0.1341797   0.3891205  )
        40        Zn     tau(  40) = (   0.8755441   0.4024177   0.3891626  )
        41        Zn     tau(  41) = (   0.8753258  -0.2682562   0.6328998  )
        42        Zn     tau(  42) = (   0.8753266   0.2682699   0.6328854  )
        43        Zn     tau(  43) = (   0.8750000   0.2682407   0.1548688  )
        44        Zn     tau(  44) = (   0.8750000   0.8047221   0.1548688  )
        45        Zn     tau(  45) = (   0.8755369   0.1340755   0.3891857  )
        46        Zn     tau(  46) = (   0.8755419   0.6706575   0.3890923  )
        47        Zn     tau(  47) = (   0.8753223  -0.0000330   0.6328793  )
        48        Zn     tau(  48) = (   0.8753273   0.5365108   0.6329031  )
        49        H      tau(  49) = (   0.3563585   0.4986539   1.3033575  )
        50        H      tau(  50) = (   0.3663873   0.4950022   1.0502022  )
        51        C      tau(  51) = (   0.3585074   0.4001420   1.2501298  )
        52        C      tau(  52) = (   0.3641855   0.3985493   1.1073154  )
        53        H      tau(  53) = (   0.3511551   0.2798185   1.4369185  )
        54        C      tau(  54) = (   0.3556074   0.2779742   1.3252159  )
        55        H      tau(  55) = (   0.3747321   0.3586565   0.8393804  )
        56        C      tau(  56) = (   0.3669995   0.2731873   1.0353535  )
        57        N      tau(  57) = (   0.3725923   0.2708442   0.8940888  )
        58        C      tau(  58) = (   0.3583923   0.1533904   1.2541952  )
        59        C      tau(  59) = (   0.3640586   0.1502613   1.1114133  )
        60        H      tau(  60) = (   0.3561789   0.0566879   1.3106408  )
        61        H      tau(  61) = (   0.3747574   0.1812931   0.8423214  )
        62        H      tau(  62) = (   0.3662350   0.0519721   1.0575162  )

     --------------------------------------------
     DFT-D3 Dispersion Correction (3-body terms):
     --------------------------------------------
       Reference C6 values for interpolation: 

         atom   Coordination number   C6
         H          0.912             6.05
         H          0.000            15.18
         C          0.000            98.23
         C          0.987            86.49
         C          1.998            58.72
         C          2.999            51.56
         C          3.984            36.41
         N          0.000            50.54
         N          0.994            44.25
         N          2.014            39.35
         N          2.990            31.16
         Zn         0.000           681.04
         Zn         1.942           306.91

       Values used:

         atom   Coordination number  R0_AB[au]  C6      C8
         Zn         4.540            3.053    306.91  23930.67
         Zn         4.543            3.053    306.91  23930.67
         Zn         6.756            3.053    306.91  23930.67
         Zn         6.757            3.053    306.91  23930.67
         Zn         5.959            3.053    306.91  23930.67
         Zn         5.963            3.053    306.91  23930.67
         Zn         4.541            3.053    306.91  23930.67
         Zn         4.542            3.053    306.91  23930.67
         Zn         6.753            3.053    306.91  23930.67
         Zn         6.759            3.053    306.91  23930.67
         Zn         5.962            3.053    306.91  23930.67
         Zn         5.959            3.053    306.91  23930.67
         Zn         4.537            3.053    306.91  23930.67
         Zn         4.539            3.053    306.91  23930.67
         Zn         6.705            3.053    306.91  23930.67
         Zn         6.706            3.053    306.91  23930.67
         Zn         5.925            3.053    306.91  23930.67
         Zn         5.929            3.053    306.91  23930.67
         Zn         4.537            3.053    306.91  23930.67
         Zn         4.539            3.053    306.91  23930.67
         Zn         6.703            3.053    306.91  23930.67
         Zn         6.708            3.053    306.91  23930.67
         Zn         5.927            3.053    306.91  23930.67
         Zn         5.925            3.053    306.91  23930.67
         Zn         6.090            3.053    306.91  23930.67
         Zn         6.091            3.053    306.91  23930.67
         Zn         7.993            3.053    306.91  23930.67
         Zn         7.991            3.053    306.91  23930.67
         Zn         6.169            3.053    306.91  23930.67
         Zn         6.630            3.053    306.91  23930.67
         Zn         6.089            3.053    306.91  23930.67
         Zn         6.092            3.053    306.91  23930.67
         Zn         7.990            3.053    306.91  23930.67
         Zn         7.993            3.053    306.91  23930.67
         Zn         6.180            3.053    306.91  23930.67
         Zn         6.183            3.053    306.91  23930.67
         Zn         6.077            3.053    306.91  23930.67
         Zn         6.078            3.053    306.91  23930.67
         Zn         7.950            3.053    306.91  23930.67
         Zn         7.947            3.053    306.91  23930.67
         Zn         6.145            3.053    306.91  23930.67
         Zn         6.144            3.053    306.91  23930.67
         Zn         6.076            3.053    306.91  23930.67
         Zn         6.079            3.053    306.91  23930.67
         Zn         7.946            3.053    306.91  23930.67
         Zn         7.950            3.053    306.91  23930.67
         Zn         6.144            3.053    306.91  23930.67
         Zn         6.144            3.053    306.91  23930.67
         H          1.003            2.062      6.18     74.69
         H          1.003            2.062      6.18     74.68
         C          3.131            2.750     50.68   1465.74
         C          3.166            2.750     50.39   1457.49
         H          1.002            2.062      6.18     74.69
         C          3.123            2.750     50.74   1467.36
         H          1.109            2.062      6.11     73.88
         C          3.144            2.750     50.58   1462.93
         N          3.386            2.478     31.17    687.66
         C          3.131            2.750     50.68   1465.74
         C          3.166            2.750     50.40   1457.52
         H          1.003            2.062      6.18     74.69
         H          1.101            2.062      6.11     73.92
         H          1.003            2.062      6.18     74.68

         Molecular C6 ( Ry / a.u.^6 ) =    819890.53


   Crystallographic axes

     site n.     atom                  positions (cryst. coord.)
         1        Zn     tau(   1) = (  0.1250000  0.1666667  0.0327328  )
         2        Zn     tau(   2) = (  0.1250000  0.6666667  0.0327328  )
         3        Zn     tau(   3) = (  0.1254355  0.1970725  0.1548659  )
         4        Zn     tau(   4) = (  0.1254363  0.6971513  0.1548362  )
         5        Zn     tau(   5) = (  0.1252702  0.2113319  0.2642511  )
         6        Zn     tau(   6) = (  0.1252777  0.7114279  0.2642596  )
         7        Zn     tau(   7) = (  0.1250000  0.4166667  0.0327328  )
         8        Zn     tau(   8) = (  0.1250000  0.9166667  0.0327328  )
         9        Zn     tau(   9) = (  0.1254456  0.4471637  0.1548747  )
        10        Zn     tau(  10) = (  0.1254350  0.9470731  0.1548164  )
        11        Zn     tau(  11) = (  0.1252783  0.4613828  0.2642592  )
        12        Zn     tau(  12) = (  0.1252697  0.9613882  0.2642496  )
        13        Zn     tau(  13) = (  0.6250000  0.1666667  0.0327328  )
        14        Zn     tau(  14) = (  0.6250000  0.6666667  0.0327328  )
        15        Zn     tau(  15) = (  0.6245281  0.1971637  0.1549360  )
        16        Zn     tau(  16) = (  0.6245270  0.6972612  0.1549215  )
        17        Zn     tau(  17) = (  0.6247150  0.2113980  0.2643090  )
        18        Zn     tau(  18) = (  0.6247105  0.7115098  0.2643223  )
        19        Zn     tau(  19) = (  0.6250000  0.4166667  0.0327328  )
        20        Zn     tau(  20) = (  0.6250000  0.9166667  0.0327328  )
        21        Zn     tau(  21) = (  0.6245216  0.4472705  0.1549531  )
        22        Zn     tau(  22) = (  0.6245321  0.9471590  0.1548931  )
        23        Zn     tau(  23) = (  0.6247131  0.4614579  0.2643204  )
        24        Zn     tau(  24) = (  0.6247175  0.9614704  0.2643123  )
        25        Zn     tau(  25) = (  0.3750000  0.0833333  0.0654656  )
        26        Zn     tau(  26) = (  0.3750000  0.5833333  0.0654656  )
        27        Zn     tau(  27) = (  0.3745046  0.0842425  0.1644155  )
        28        Zn     tau(  28) = (  0.3745046  0.5843710  0.1644324  )
        29        Zn     tau(  29) = (  0.3746919  0.0905466  0.2675408  )
        30        Zn     tau(  30) = (  0.3746970  0.5905888  0.2675365  )
        31        Zn     tau(  31) = (  0.3750000  0.3333333  0.0654656  )
        32        Zn     tau(  32) = (  0.3750000  0.8333334  0.0654656  )
        33        Zn     tau(  33) = (  0.3745120  0.3342762  0.1644409  )
        34        Zn     tau(  34) = (  0.3744965  0.8343184  0.1644046  )
        35        Zn     tau(  35) = (  0.3746988  0.3405268  0.2675354  )
        36        Zn     tau(  36) = (  0.3746947  0.8405829  0.2675420  )
        37        Zn     tau(  37) = (  0.8750000  0.0833333  0.0654656  )
        38        Zn     tau(  38) = (  0.8750000  0.5833333  0.0654656  )
        39        Zn     tau(  39) = (  0.8755371  0.0843264  0.1644876  )
        40        Zn     tau(  40) = (  0.8755441  0.5844573  0.1645054  )
        41        Zn     tau(  41) = (  0.8753258  0.0905424  0.2675371  )
        42        Zn     tau(  42) = (  0.8753266  0.5905764  0.2675310  )
        43        Zn     tau(  43) = (  0.8750000  0.3333333  0.0654656  )
        44        Zn     tau(  44) = (  0.8750000  0.8333334  0.0654656  )
        45        Zn     tau(  45) = (  0.8755369  0.3343750  0.1645152  )
        46        Zn     tau(  46) = (  0.8755419  0.8344186  0.1644757  )
        47        Zn     tau(  47) = (  0.8753223  0.3405151  0.2675284  )
        48        Zn     tau(  48) = (  0.8753273  0.8405862  0.2675385  )
        49        H      tau(  49) = (  0.3563585  1.1660683  0.5509506  )
        50        H      tau(  50) = (  0.3663873  1.0264446  0.4439377  )
        51        C      tau(  51) = (  0.3585074  1.0456140  0.5284503  )
        52        C      tau(  52) = (  0.3641855  0.9672826  0.4680804  )
        53        H      tau(  53) = (  0.3511551  1.0339817  0.6074090  )
        54        C      tau(  54) = (  0.3556074  0.9721567  0.5601905  )
        55        H      tau(  55) = (  0.3747321  0.7859295  0.3548199  )
        56        C      tau(  56) = (  0.3669995  0.8117234  0.4376609  )
        57        N      tau(  57) = (  0.3725923  0.7335265  0.3779460  )
        58        C      tau(  58) = (  0.3583923  0.8178293  0.5301689  )
        59        C      tau(  59) = (  0.3640586  0.7380835  0.4698126  )
        60        H      tau(  60) = (  0.3561789  0.7580755  0.5540293  )
        61        H      tau(  61) = (  0.3747574  0.6222095  0.3560630  )
        62        H      tau(  62) = (  0.3662350  0.6174766  0.4470294  )

     number of k points=     4  Marzari-Vanderbilt smearing, width (Ry)=  0.0200
                       cart. coord. in units 2pi/alat
        k(    1) = (   0.0000000   0.0000000   0.0000000), wk =   0.5000000
        k(    2) = (   0.0000000  -0.4659994  -0.2690449), wk =   0.5000000
        k(    3) = (  -0.5000000   0.0000000   0.0000000), wk =   0.5000000
        k(    4) = (  -0.5000000  -0.4659994  -0.2690449), wk =   0.5000000

                       cryst. coord.
        k(    1) = (   0.0000000   0.0000000   0.0000000), wk =   0.5000000
        k(    2) = (   0.0000000  -0.5000000   0.0000000), wk =   0.5000000
        k(    3) = (  -0.5000000   0.0000000   0.0000000), wk =   0.5000000
        k(    4) = (  -0.5000000  -0.5000000   0.0000000), wk =   0.5000000

     Dense  grid:  1254623 G-vectors     FFT dimensions: ( 100, 108, 270)

     Smooth grid:   542067 G-vectors     FFT dimensions: (  75,  80, 216)

     Dynamical RAM for                 wfc:      18.72 MB

     Dynamical RAM for     wfc (w. buffer):      93.62 MB

     Dynamical RAM for           str. fact:       2.32 MB

     Dynamical RAM for           local pot:       0.00 MB

     Dynamical RAM for          nlocal pot:      29.24 MB

     Dynamical RAM for                qrad:       5.37 MB

     Dynamical RAM for          rho,v,vnew:       3.97 MB

     Dynamical RAM for               rhoin:       1.32 MB

     Dynamical RAM for            rho*nmix:       9.28 MB

     Dynamical RAM for           G-vectors:       2.30 MB

     Dynamical RAM for          h,s,v(r/c):       2.61 MB

     Dynamical RAM for          <psi|beta>:       8.52 MB

     Dynamical RAM for                 psi:      37.45 MB

     Dynamical RAM for                hpsi:      37.45 MB

     Dynamical RAM for                spsi:      37.45 MB

     Dynamical RAM for      wfcinit/wfcrot:      51.21 MB

     Dynamical RAM for           addusdens:     135.76 MB

     Dynamical RAM for          addusforce:     190.77 MB

     Dynamical RAM for         addusstress:     116.61 MB

     Estimated static dynamical RAM per process >     144.76 MB

     Estimated max dynamical RAM per process >     344.81 MB

     Estimated total dynamical RAM >      11.11 GB

     Initial potential from superposition of free atoms

     starting charge     995.9929, renormalised to     996.0000

     negative rho (up, down):  2.085E-03 0.000E+00
     Starting wfcs are  659 randomized atomic wfcs
     Checking if some PAW data can be deallocated... 
       PAW data deallocated on   28 nodes for type:  3

     total cpu time spent up to now is       55.6 secs

     Self-consistent Calculation

     iteration #  1     ecut=    40.00 Ry     beta= 0.40
     Davidson diagonalization with overlap

---- Real-time Memory Report at c_bands before calling an iterative solver
           225 MiB given to the printing process from OS
             0 MiB allocation reported by mallinfo(arena+hblkhd)
         57397 MiB available memory on the node where the printing process lives
------------------
     ethr =  1.00E-02,  avg # of iterations =  7.8

     negative rho (up, down):  2.562E-03 0.000E+00

     total cpu time spent up to now is      269.7 secs

     total energy              =  -22288.10821128 Ry
     estimated scf accuracy    <      11.65755157 Ry

     iteration #  2     ecut=    40.00 Ry     beta= 0.40
     Davidson diagonalization with overlap

---- Real-time Memory Report at c_bands before calling an iterative solver
           322 MiB given to the printing process from OS
             0 MiB allocation reported by mallinfo(arena+hblkhd)
         56055 MiB available memory on the node where the printing process lives
------------------
     ethr =  1.17E-03,  avg # of iterations = 10.8

     negative rho (up, down):  3.706E-03 0.000E+00

     total cpu time spent up to now is      488.2 secs

     total energy              =  -22275.09289226 Ry
     estimated scf accuracy    <     284.87035720 Ry

     iteration #  3     ecut=    40.00 Ry     beta= 0.40
     Davidson diagonalization with overlap

---- Real-time Memory Report at c_bands before calling an iterative solver
           339 MiB given to the printing process from OS
             0 MiB allocation reported by mallinfo(arena+hblkhd)
         56029 MiB available memory on the node where the printing process lives
------------------
     ethr =  1.17E-03,  avg # of iterations =  8.5

     negative rho (up, down):  3.671E-03 0.000E+00

     total cpu time spent up to now is      747.0 secs

     total energy              =  -22292.64264761 Ry
     estimated scf accuracy    <      13.90867248 Ry

     iteration #  4     ecut=    40.00 Ry     beta= 0.40
     Davidson diagonalization with overlap

---- Real-time Memory Report at c_bands before calling an iterative solver
           339 MiB given to the printing process from OS
             0 MiB allocation reported by mallinfo(arena+hblkhd)
         56006 MiB available memory on the node where the printing process lives
------------------
     ethr =  1.17E-03,  avg # of iterations =  4.5

     negative rho (up, down):  3.594E-03 0.000E+00

     total cpu time spent up to now is      926.3 secs

     total energy              =  -22293.63351238 Ry
     estimated scf accuracy    <       3.08469458 Ry

     iteration #  5     ecut=    40.00 Ry     beta= 0.40
     Davidson diagonalization with overlap

---- Real-time Memory Report at c_bands before calling an iterative solver
           340 MiB given to the printing process from OS
             0 MiB allocation reported by mallinfo(arena+hblkhd)
         55980 MiB available memory on the node where the printing process lives
------------------
     ethr =  3.10E-04,  avg # of iterations =  3.8

     negative rho (up, down):  3.602E-03 0.000E+00

     total cpu time spent up to now is     1100.2 secs

     total energy              =  -22293.81519809 Ry
     estimated scf accuracy    <       0.29352097 Ry

     iteration #  6     ecut=    40.00 Ry     beta= 0.40
     Davidson diagonalization with overlap

---- Real-time Memory Report at c_bands before calling an iterative solver
           341 MiB given to the printing process from OS
             0 MiB allocation reported by mallinfo(arena+hblkhd)
         55959 MiB available memory on the node where the printing process lives
------------------
     ethr =  2.95E-05,  avg # of iterations = 13.8

     negative rho (up, down):  3.741E-03 0.000E+00

     total cpu time spent up to now is     1302.4 secs

     total energy              =  -22293.81209254 Ry
     estimated scf accuracy    <       0.15026711 Ry

     iteration #  7     ecut=    40.00 Ry     beta= 0.40
     Davidson diagonalization with overlap

---- Real-time Memory Report at c_bands before calling an iterative solver
           342 MiB given to the printing process from OS
             0 MiB allocation reported by mallinfo(arena+hblkhd)
         55935 MiB available memory on the node where the printing process lives
------------------
     ethr =  1.51E-05,  avg # of iterations =  4.5

     negative rho (up, down):  3.790E-03 0.000E+00

     total cpu time spent up to now is     1480.1 secs

     total energy              =  -22293.81191455 Ry
     estimated scf accuracy    <       0.06422386 Ry

     iteration #  8     ecut=    40.00 Ry     beta= 0.40
     Davidson diagonalization with overlap

---- Real-time Memory Report at c_bands before calling an iterative solver
           342 MiB given to the printing process from OS
             0 MiB allocation reported by mallinfo(arena+hblkhd)
         55911 MiB available memory on the node where the printing process lives
------------------
     c_bands:  1 eigenvalues not converged
     ethr =  6.45E-06,  avg # of iterations = 10.0

     negative rho (up, down):  3.816E-03 0.000E+00

     total cpu time spent up to now is     1666.1 secs

     total energy              =  -22293.81256272 Ry
     estimated scf accuracy    <       0.04188677 Ry

     iteration #  9     ecut=    40.00 Ry     beta= 0.40
     Davidson diagonalization with overlap

---- Real-time Memory Report at c_bands before calling an iterative solver
           343 MiB given to the printing process from OS
             0 MiB allocation reported by mallinfo(arena+hblkhd)
         55884 MiB available memory on the node where the printing process lives
------------------
     ethr =  4.21E-06,  avg # of iterations = 11.2

     negative rho (up, down):  3.836E-03 0.000E+00

     total cpu time spent up to now is     1852.3 secs

     total energy              =  -22293.81131987 Ry
     estimated scf accuracy    <       0.02463646 Ry

     iteration # 10     ecut=    40.00 Ry     beta= 0.40
     Davidson diagonalization with overlap

---- Real-time Memory Report at c_bands before calling an iterative solver
           344 MiB given to the printing process from OS
             0 MiB allocation reported by mallinfo(arena+hblkhd)
         55859 MiB available memory on the node where the printing process lives
------------------
     ethr =  2.47E-06,  avg # of iterations =  7.8

     negative rho (up, down):  3.860E-03 0.000E+00

     total cpu time spent up to now is     2032.3 secs

     total energy              =  -22293.80841827 Ry
     estimated scf accuracy    <       0.01918303 Ry

     iteration # 11     ecut=    40.00 Ry     beta= 0.40
     Davidson diagonalization with overlap

---- Real-time Memory Report at c_bands before calling an iterative solver
           345 MiB given to the printing process from OS
             0 MiB allocation reported by mallinfo(arena+hblkhd)
         55858 MiB available memory on the node where the printing process lives
------------------
     c_bands:  1 eigenvalues not converged
     ethr =  1.93E-06,  avg # of iterations = 15.5

     negative rho (up, down):  3.913E-03 0.000E+00

     total cpu time spent up to now is     2228.2 secs

     total energy              =  -22293.80069747 Ry
     estimated scf accuracy    <       0.01207788 Ry

     iteration # 12     ecut=    40.00 Ry     beta= 0.40
     Davidson diagonalization with overlap

---- Real-time Memory Report at c_bands before calling an iterative solver
           345 MiB given to the printing process from OS
             0 MiB allocation reported by mallinfo(arena+hblkhd)
         55857 MiB available memory on the node where the printing process lives
------------------
     c_bands:  5 eigenvalues not converged
     c_bands:  1 eigenvalues not converged
     ethr =  1.21E-06,  avg # of iterations = 18.5

     negative rho (up, down):  3.897E-03 0.000E+00

     total cpu time spent up to now is     2461.8 secs

     total energy              =  -22293.80284846 Ry
     estimated scf accuracy    <       0.00082688 Ry

     iteration # 13     ecut=    40.00 Ry     beta= 0.40
     Davidson diagonalization with overlap

---- Real-time Memory Report at c_bands before calling an iterative solver
           347 MiB given to the printing process from OS
             0 MiB allocation reported by mallinfo(arena+hblkhd)
         55854 MiB available memory on the node where the printing process lives
------------------
     ethr =  8.30E-08,  avg # of iterations =  3.0

     negative rho (up, down):  3.887E-03 0.000E+00

     total cpu time spent up to now is     2635.5 secs

     total energy              =  -22293.80294943 Ry
     estimated scf accuracy    <       0.00016303 Ry

     iteration # 14     ecut=    40.00 Ry     beta= 0.40
     Davidson diagonalization with overlap

---- Real-time Memory Report at c_bands before calling an iterative solver
           347 MiB given to the printing process from OS
             0 MiB allocation reported by mallinfo(arena+hblkhd)
         55853 MiB available memory on the node where the printing process lives
------------------
     ethr =  1.64E-08,  avg # of iterations =  2.0

     negative rho (up, down):  3.882E-03 0.000E+00

     total cpu time spent up to now is     2807.7 secs

     total energy              =  -22293.80296329 Ry
     estimated scf accuracy    <       0.00003064 Ry

     iteration # 15     ecut=    40.00 Ry     beta= 0.40
     Davidson diagonalization with overlap

---- Real-time Memory Report at c_bands before calling an iterative solver
           347 MiB given to the printing process from OS
             0 MiB allocation reported by mallinfo(arena+hblkhd)
         55850 MiB available memory on the node where the printing process lives
------------------
     ethr =  3.08E-09,  avg # of iterations =  2.5

     negative rho (up, down):  3.881E-03 0.000E+00

     total cpu time spent up to now is     2983.6 secs

     total energy              =  -22293.80296364 Ry
     estimated scf accuracy    <       0.00001788 Ry

     iteration # 16     ecut=    40.00 Ry     beta= 0.40
     Davidson diagonalization with overlap

---- Real-time Memory Report at c_bands before calling an iterative solver
           347 MiB given to the printing process from OS
             0 MiB allocation reported by mallinfo(arena+hblkhd)
         55849 MiB available memory on the node where the printing process lives
------------------
     ethr =  1.79E-09,  avg # of iterations =  2.0

     negative rho (up, down):  3.881E-03 0.000E+00

     total cpu time spent up to now is     3153.8 secs

     total energy              =  -22293.80296347 Ry
     estimated scf accuracy    <       0.00004688 Ry

     iteration # 17     ecut=    40.00 Ry     beta= 0.40
     Davidson diagonalization with overlap

---- Real-time Memory Report at c_bands before calling an iterative solver
           347 MiB given to the printing process from OS
             0 MiB allocation reported by mallinfo(arena+hblkhd)
         55847 MiB available memory on the node where the printing process lives
------------------
     ethr =  1.79E-09,  avg # of iterations =  1.5

     negative rho (up, down):  3.880E-03 0.000E+00

     total cpu time spent up to now is     3307.2 secs

     total energy              =  -22293.80296674 Ry
     estimated scf accuracy    <       0.00000404 Ry

     iteration # 18     ecut=    40.00 Ry     beta= 0.40
     Davidson diagonalization with overlap

---- Real-time Memory Report at c_bands before calling an iterative solver
           347 MiB given to the printing process from OS
             0 MiB allocation reported by mallinfo(arena+hblkhd)
         55843 MiB available memory on the node where the printing process lives
------------------
     ethr =  4.05E-10,  avg # of iterations =  2.0

     negative rho (up, down):  3.880E-03 0.000E+00

     total cpu time spent up to now is     3476.8 secs

     End of self-consistent calculation

          k = 0.0000 0.0000 0.0000 ( 67685 PWs)   bands (ev):

  -125.0455-125.0446-125.0444-125.0436-125.0354-125.0345-125.0344-125.0335
  -124.9132-124.9123-124.9111-124.9105-124.9038-124.9026-124.9013-124.9008
  -124.8691-124.7285-124.7257-124.7086-124.7015-124.7008-124.6959-124.6939
  -124.6937-124.6929-124.6929-124.6920-124.6898-124.6895-124.6893-124.6882
  -124.6523-124.6514-124.6482-124.6473-124.6441-124.6432-124.6396-124.6387
  -124.5349-124.5340-124.5337-124.5328-124.5312-124.5303-124.5302-124.5294
   -79.2085 -79.2014 -79.2006 -79.1999 -79.1986 -79.1984 -79.1956 -79.1954
   -79.1908 -79.1897 -79.1896 -79.1896 -79.1886 -79.1885 -79.1884 -79.1874
   -79.1860 -79.1859 -79.1833 -79.1794 -79.1783 -79.1782 -79.1772 -79.1735
   -79.0806 -79.0712 -79.0690 -79.0676 -79.0646 -79.0633 -79.0632 -79.0621
   -79.0620 -79.0614 -79.0609 -79.0603 -79.0597 -79.0580 -79.0560 -79.0556
   -79.0554 -79.0538 -79.0536 -79.0525 -79.0523 -79.0518 -79.0511 -79.0505
   -79.0465 -79.0161 -79.0008 -78.8969 -78.8936 -78.8803 -78.8764 -78.8752
   -78.8675 -78.8668 -78.8637 -78.8622 -78.8613 -78.8605 -78.8599 -78.8597
   -78.8579 -78.8578 -78.8576 -78.8570 -78.8559 -78.8547 -78.8542 -78.8539
   -78.8537 -78.8533 -78.8519 -78.8477 -78.8455 -78.8451 -78.8429 -78.8417
   -78.8409 -78.8407 -78.8403 -78.8353 -78.8341 -78.8334 -78.8334 -78.8331
   -78.8331 -78.8328 -78.8313 -78.8300 -78.8295 -78.8292 -78.8286 -78.8282
   -78.8223 -78.8213 -78.8179 -78.8169 -78.8144 -78.8134 -78.8097 -78.8087
   -78.8049 -78.7965 -78.7961 -78.7954 -78.7926 -78.7922 -78.7915 -78.7908
   -78.7878 -78.7870 -78.7842 -78.7837 -78.7829 -78.7821 -78.7801 -78.7715
   -78.7118 -78.7108 -78.7106 -78.7096 -78.7082 -78.7073 -78.7072 -78.7062
   -78.6874 -78.6836 -78.6816 -78.6806 -78.6797 -78.6788 -78.6777 -78.6767
   -78.6765 -78.6756 -78.6751 -78.6750 -78.6713 -78.6712 -78.6628 -78.6590
   -17.3689 -14.8606 -12.4202 -12.1064  -9.2192  -9.1304  -7.9920  -7.3293
    -7.2470  -7.0154  -6.7852  -6.7196  -6.7131  -6.7088  -6.6424  -6.6162
    -6.5996  -6.5783  -6.5698  -6.5383  -6.5299  -6.4139  -6.3853  -6.3843
    -6.3841  -6.3731  -6.3685  -6.3675  -6.3659  -6.3472  -6.3457  -6.3432
    -6.3327  -6.3326  -6.3303  -6.3276  -6.3263  -6.2733  -6.2732  -6.2677
    -6.2657  -6.2595  -6.2543  -6.2494  -6.2380  -6.2376  -6.2335  -6.2296
    -6.2293  -6.2283  -6.2019  -6.1963  -6.1885  -6.1464  -6.1147  -6.0965
    -6.0933  -6.0898  -6.0754  -6.0747  -6.0689  -6.0628  -6.0516  -6.0413
    -6.0382  -6.0330  -6.0160  -5.9980  -5.9943  -5.9938  -5.9849  -5.9847
    -5.9817  -5.9748  -5.9715  -5.9679  -5.9539  -5.9537  -5.9535  -5.9484
    -5.9422  -5.9413  -5.9410  -5.9271  -5.9233  -5.9148  -5.9042  -5.9007
    -5.8962  -5.8918  -5.8909  -5.8898  -5.8889  -5.8697  -5.8523  -5.8503
    -5.8360  -5.8320  -5.8239  -5.8230  -5.8198  -5.8121  -5.8064  -5.8040
    -5.8027  -5.7990  -5.7988  -5.7837  -5.7804  -5.7686  -5.7657  -5.7652
    -5.7633  -5.7592  -5.7586  -5.7541  -5.7347  -5.7179  -5.7178  -5.7158
    -5.7155  -5.7102  -5.6978  -5.6943  -5.6907  -5.6771  -5.6660  -5.6656
    -5.6643  -5.6604  -5.6544  -5.6523  -5.6522  -5.6331  -5.6321  -5.6294
    -5.6287  -5.6198  -5.6172  -5.6145  -5.6132  -5.6107  -5.6012  -5.5773
    -5.5705  -5.5700  -5.5690  -5.5685  -5.5583  -5.5553  -5.5551  -5.5529
    -5.5514  -5.5507  -5.5506  -5.5497  -5.5456  -5.5388  -5.5369  -5.5258
    -5.5151  -5.5150  -5.5080  -5.5016  -5.4905  -5.4891  -5.4842  -5.4762
    -5.4695  -5.4653  -5.4640  -5.4625  -5.4540  -5.4523  -5.4499  -5.4460
    -5.4415  -5.4400  -5.4388  -5.4371  -5.4318  -5.4253  -5.4243  -5.4135
    -5.4004  -5.3976  -5.3974  -5.3910  -5.3910  -5.3838  -5.3726  -5.3698
    -5.3684  -5.3662  -5.3650  -5.3645  -5.3638  -5.3602  -5.3582  -5.3580
    -5.3527  -5.3505  -5.3499  -5.3498  -5.3497  -5.3463  -5.3327  -5.3303
    -5.3280  -5.3277  -5.3264  -5.3243  -5.3213  -5.3108  -5.2953  -5.2951
    -5.2798  -5.2784  -5.2768  -5.2709  -5.2702  -5.2691  -5.2642  -5.2610
    -5.2550  -5.2505  -5.2501  -5.2449  -5.2356  -5.2350  -5.2299  -5.2292
    -5.2280  -5.2271  -5.2252  -5.2232  -5.2204  -5.2167  -5.2085  -5.2083
    -5.1965  -5.1880  -5.1854  -5.1391  -5.1389  -5.1277  -5.1194  -5.1051
    -5.0443  -5.0404  -5.0258  -5.0218  -5.0095  -4.9664  -4.9293  -4.6145
    -4.5814  -4.3660  -4.3610  -4.2731  -4.2691  -4.1675  -4.1598  -4.1143
    -4.1079  -4.0771  -3.6019  -3.2394  -2.8421  -2.8395  -2.7025  -2.6967
    -2.6423  -2.2152  -2.0957  -2.0923  -2.0337  -1.7699  -1.7478  -1.6729
    -1.6155  -0.9944  -0.7688  -0.7644  -0.7578  -0.6782  -0.4324  -0.4026
    -0.3335  -0.2795  -0.1773  -0.1745  -0.1108   0.0004   0.1670   0.3698
     0.3762   0.5663   0.6854   0.8263   0.8859   0.9233   0.9787   1.0017
     1.0746   1.0954   1.3657   1.4025   1.7053   2.0146   2.2060   2.2424
     2.4705   2.4872   2.5212   2.5369   2.5411   2.7369   2.9255   2.9529
     2.9912   3.0739   3.4705   3.6232   3.6551   3.9247   4.0229   4.0329
     4.1113   4.2270   4.2394   4.2409   4.2791   4.5266   4.6673   4.7085
     4.7900   4.9293   5.0164   5.2156   5.2506   5.3239   5.3798   5.4008
     5.4841   5.5938   5.5940   5.6002   5.6373   5.7009   6.1201   6.1960
     6.2118   6.2758   6.2890   6.3630   6.4276   6.4657   6.6002   6.6051
     6.6391   6.7200   6.7271   6.7986   6.8823   6.9328   6.9424   6.9681
     7.0292   7.0435   7.1197   7.1489   7.2011   7.2200   7.3245   7.3437
     7.3834   7.3848   7.4134   7.4301   7.4370   7.6668   7.7137   7.7390
     7.7477   7.7526   7.8280   7.9445   7.9853   8.0210   8.0519   8.1062
     8.1529   8.1754   8.2289   8.2443   8.2829   8.3093   8.3580   8.3715
     8.5183   8.5833   8.6198   8.6248   8.6341   8.6805

     occupation numbers 
     1.0000   1.0000   1.0000   1.0000   1.0000   1.0000   1.0000   1.0000
     1.0000   1.0000   1.0000   1.0000   1.0000   1.0000   1.0000   1.0000
     1.0000   1.0000   1.0000   1.0000   1.0000   1.0000   1.0000   1.0000
     1.0000   1.0000   1.0000   1.0000   1.0000   1.0000   1.0000   1.0000
     1.0000   1.0000   1.0000   1.0000   1.0000   1.0000   1.0000   1.0000
     1.0000   1.0000   1.0000   1.0000   1.0000   1.0000   1.0000   1.0000
     1.0000   1.0000   1.0000   1.0000   1.0000   1.0000   1.0000   1.0000
     1.0000   1.0000   1.0000   1.0000   1.0000   1.0000   1.0000   1.0000
     1.0000   1.0000   1.0000   1.0000   1.0000   1.0000   1.0000   1.0000
     1.0000   1.0000   1.0000   1.0000   1.0000   1.0000   1.0000   1.0000
     1.0000   1.0000   1.0000   1.0000   1.0000   1.0000   1.0000   1.0000
     1.0000   1.0000   1.0000   1.0000   1.0000   1.0000   1.0000   1.0000
     1.0000   1.0000   1.0000   1.0000   1.0000   1.0000   1.0000   1.0000
     1.0000   1.0000   1.0000   1.0000   1.0000   1.0000   1.0000   1.0000
     1.0000   1.0000   1.0000   1.0000   1.0000   1.0000   1.0000   1.0000
     1.0000   1.0000   1.0000   1.0000   1.0000   1.0000   1.0000   1.0000
     1.0000   1.0000   1.0000   1.0000   1.0000   1.0000   1.0000   1.0000
     1.0000   1.0000   1.0000   1.0000   1.0000   1.0000   1.0000   1.0000
     1.0000   1.0000   1.0000   1.0000   1.0000   1.0000   1.0000   1.0000
     1.0000   1.0000   1.0000   1.0000   1.0000   1.0000   1.0000   1.0000
     1.0000   1.0000   1.0000   1.0000   1.0000   1.0000   1.0000   1.0000
     1.0000   1.0000   1.0000   1.0000   1.0000   1.0000   1.0000   1.0000
     1.0000   1.0000   1.0000   1.0000   1.0000   1.0000   1.0000   1.0000
     1.0000   1.0000   1.0000   1.0000   1.0000   1.0000   1.0000   1.0000
     1.0000   1.0000   1.0000   1.0000   1.0000   1.0000   1.0000   1.0000
     1.0000   1.0000   1.0000   1.0000   1.0000   1.0000   1.0000   1.0000
     1.0000   1.0000   1.0000   1.0000   1.0000   1.0000   1.0000   1.0000
     1.0000   1.0000   1.0000   1.0000   1.0000   1.0000   1.0000   1.0000
     1.0000   1.0000   1.0000   1.0000   1.0000   1.0000   1.0000   1.0000
     1.0000   1.0000   1.0000   1.0000   1.0000   1.0000   1.0000   1.0000
     1.0000   1.0000   1.0000   1.0000   1.0000   1.0000   1.0000   1.0000
     1.0000   1.0000   1.0000   1.0000   1.0000   1.0000   1.0000   1.0000
     1.0000   1.0000   1.0000   1.0000   1.0000   1.0000   1.0000   1.0000
     1.0000   1.0000   1.0000   1.0000   1.0000   1.0000   1.0000   1.0000
     1.0000   1.0000   1.0000   1.0000   1.0000   1.0000   1.0000   1.0000
     1.0000   1.0000   1.0000   1.0000   1.0000   1.0000   1.0000   1.0000
     1.0000   1.0000   1.0000   1.0000   1.0000   1.0000   1.0000   1.0000
     1.0000   1.0000   1.0000   1.0000   1.0000   1.0000   1.0000   1.0000
     1.0000   1.0000   1.0000   1.0000   1.0000   1.0000   1.0000   1.0000
     1.0000   1.0000   1.0000   1.0000   1.0000   1.0000   1.0000   1.0000
     1.0000   1.0000   1.0000   1.0000   1.0000   1.0000   1.0000   1.0000
     1.0000   1.0000   1.0000   1.0000   1.0000   1.0000   1.0000   1.0000
     1.0000   1.0000   1.0000   1.0000   1.0000   1.0000   1.0000   1.0000
     1.0000   1.0000   1.0000   1.0000   1.0000   1.0000   1.0000   1.0000
     1.0000   1.0000   1.0000   1.0000   1.0000   1.0000   1.0000   1.0000
     1.0000   1.0000   1.0000   1.0000   1.0000   1.0000   1.0000   1.0000
     1.0000   1.0000   1.0000   1.0000   1.0000   1.0000   1.0000   1.0000
     1.0000   1.0000   1.0000   1.0000   1.0000   1.0000   1.0000   1.0000
     1.0000   1.0000   1.0000   1.0000   1.0000   1.0000   1.0000   1.0000
     1.0000   1.0000   1.0000   1.0000   1.0000   1.0000   1.0000   1.0000
     1.0000   1.0000   1.0000   1.0000   1.0000   1.0000   1.0000   1.0000
     1.0000   1.0000   1.0000   1.0000   1.0000   1.0000   1.0000   1.0000
     1.0000   1.0000   1.0000   1.0000   1.0000   1.0000   1.0000   1.0000
     1.0000   1.0000   1.0000   1.0000   1.0000   1.0000   1.0000   1.0000
     1.0000   1.0000   1.0000   1.0000   1.0000   1.0000   1.0000   1.0000
     1.0000   1.0000   1.0000   1.0000   1.0000   1.0000   1.0000   1.0000
     1.0000   1.0000   1.0000   1.0000   1.0000   1.0000   1.0000   1.0000
     1.0000   1.0000   1.0000   1.0000   1.0000   1.0000   1.0000   1.0000
     1.0000   1.0000   1.0000   1.0000   1.0000   1.0000   1.0000   1.0000
     1.0000   1.0000   1.0000   1.0000   1.0000   1.0000   1.0000   1.0000
     1.0000   1.0000   1.0000   1.0000   1.0000   1.0000   1.0000   1.0000
     1.0000   1.0002   1.0018   1.0126   1.0240   1.0340   1.0520   1.0599
     1.0804   1.0830   0.7387   0.6391   0.0599   0.0005   0.0000   0.0000
     0.0000   0.0000   0.0000   0.0000   0.0000   0.0000   0.0000   0.0000
     0.0000   0.0000   0.0000   0.0000   0.0000   0.0000   0.0000   0.0000
     0.0000   0.0000   0.0000   0.0000   0.0000   0.0000   0.0000   0.0000
     0.0000   0.0000   0.0000   0.0000   0.0000   0.0000   0.0000   0.0000
     0.0000   0.0000   0.0000   0.0000   0.0000   0.0000   0.0000   0.0000
     0.0000   0.0000   0.0000   0.0000   0.0000   0.0000   0.0000   0.0000
     0.0000   0.0000   0.0000   0.0000   0.0000   0.0000   0.0000   0.0000
     0.0000   0.0000   0.0000   0.0000   0.0000   0.0000   0.0000   0.0000
     0.0000   0.0000   0.0000   0.0000   0.0000   0.0000   0.0000   0.0000
     0.0000   0.0000   0.0000   0.0000   0.0000   0.0000   0.0000   0.0000
     0.0000   0.0000   0.0000   0.0000   0.0000   0.0000   0.0000   0.0000
     0.0000   0.0000   0.0000   0.0000   0.0000   0.0000

          k = 0.0000-0.4660-0.2690 ( 67864 PWs)   bands (ev):

  -125.0453-125.0450-125.0440-125.0437-125.0353-125.0349-125.0340-125.0336
  -124.9132-124.9123-124.9110-124.9106-124.9038-124.9027-124.9013-124.9008
  -124.8691-124.7285-124.7257-124.7086-124.7015-124.7008-124.6958-124.6940
  -124.6935-124.6929-124.6929-124.6920-124.6898-124.6895-124.6892-124.6882
  -124.6523-124.6514-124.6482-124.6473-124.6441-124.6432-124.6396-124.6387
  -124.5349-124.5343-124.5334-124.5329-124.5310-124.5308-124.5297-124.5296
   -79.2053 -79.2047 -79.2008 -79.2002 -79.1995 -79.1987 -79.1951 -79.1944
   -79.1907 -79.1902 -79.1894 -79.1892 -79.1891 -79.1887 -79.1879 -79.1876
   -79.1870 -79.1867 -79.1791 -79.1789 -79.1776 -79.1774 -79.1774 -79.1768
   -79.0772 -79.0768 -79.0678 -79.0673 -79.0646 -79.0633 -79.0632 -79.0622
   -79.0619 -79.0615 -79.0608 -79.0604 -79.0597 -79.0594 -79.0556 -79.0554
   -79.0539 -79.0536 -79.0524 -79.0523 -79.0519 -79.0510 -79.0506 -79.0503
   -79.0499 -79.0161 -79.0008 -78.8969 -78.8936 -78.8807 -78.8759 -78.8752
   -78.8675 -78.8668 -78.8637 -78.8622 -78.8613 -78.8600 -78.8595 -78.8579
   -78.8576 -78.8576 -78.8570 -78.8568 -78.8560 -78.8548 -78.8548 -78.8541
   -78.8537 -78.8534 -78.8533 -78.8515 -78.8486 -78.8477 -78.8409 -78.8403
   -78.8384 -78.8372 -78.8366 -78.8358 -78.8352 -78.8337 -78.8337 -78.8334
   -78.8331 -78.8329 -78.8313 -78.8311 -78.8300 -78.8294 -78.8292 -78.8282
   -78.8223 -78.8213 -78.8179 -78.8169 -78.8144 -78.8134 -78.8097 -78.8087
   -78.8024 -78.8000 -78.7960 -78.7953 -78.7942 -78.7915 -78.7914 -78.7908
   -78.7877 -78.7869 -78.7849 -78.7829 -78.7826 -78.7821 -78.7766 -78.7739
   -78.7117 -78.7112 -78.7102 -78.7098 -78.7080 -78.7078 -78.7067 -78.7064
   -78.6839 -78.6837 -78.6815 -78.6807 -78.6803 -78.6798 -78.6796 -78.6788
   -78.6776 -78.6771 -78.6761 -78.6757 -78.6665 -78.6662 -78.6628 -78.6624
   -17.3689 -14.8606 -12.4203 -12.1064  -9.2193  -9.1301  -7.6458  -7.6369
    -7.3118  -7.2436  -6.7408  -6.7368  -6.6154  -6.6071  -6.5492  -6.5488
    -6.5376  -6.5311  -6.4996  -6.4983  -6.4675  -6.4661  -6.4630  -6.4625
    -6.4504  -6.4456  -6.4030  -6.3934  -6.3919  -6.3910  -6.3667  -6.3572
    -6.3417  -6.3392  -6.3391  -6.3382  -6.3328  -6.3293  -6.2797  -6.2742
    -6.2723  -6.2659  -6.2654  -6.2557  -6.1903  -6.1875  -6.1850  -6.1818
    -6.1792  -6.1775  -6.1711  -6.1708  -6.1683  -6.1669  -6.1608  -6.1576
    -6.1315  -6.1183  -6.1070  -6.0979  -6.0797  -6.0735  -6.0499  -6.0488
    -6.0403  -6.0348  -6.0339  -6.0328  -6.0294  -6.0200  -6.0156  -6.0141
    -5.9886  -5.9713  -5.9701  -5.9698  -5.9647  -5.9625  -5.9463  -5.9455
    -5.9424  -5.9290  -5.9272  -5.9260  -5.9227  -5.9225  -5.9224  -5.9137
    -5.9123  -5.9025  -5.9019  -5.8938  -5.8926  -5.8898  -5.8872  -5.8830
    -5.8811  -5.8802  -5.8699  -5.8596  -5.8551  -5.8475  -5.8412  -5.8399
    -5.8338  -5.8250  -5.8223  -5.7715  -5.7710  -5.7705  -5.7672  -5.7669
    -5.7613  -5.7604  -5.7535  -5.7467  -5.7327  -5.7249  -5.7207  -5.7175
    -5.7152  -5.7108  -5.7085  -5.7043  -5.6982  -5.6939  -5.6927  -5.6911
    -5.6849  -5.6794  -5.6753  -5.6683  -5.6672  -5.6619  -5.6613  -5.6526
    -5.6520  -5.6350  -5.6343  -5.6288  -5.6229  -5.6221  -5.6199  -5.6169
    -5.6036  -5.5883  -5.5685  -5.5644  -5.5574  -5.5556  -5.5517  -5.5490
    -5.5364  -5.5098  -5.5090  -5.5007  -5.4977  -5.4974  -5.4890  -5.4819
    -5.4799  -5.4794  -5.4779  -5.4764  -5.4713  -5.4585  -5.4540  -5.4496
    -5.4495  -5.4492  -5.4487  -5.4478  -5.4426  -5.4408  -5.4379  -5.4276
    -5.4269  -5.4231  -5.4090  -5.4086  -5.4073  -5.4051  -5.3923  -5.3892
    -5.3851  -5.3824  -5.3811  -5.3807  -5.3790  -5.3778  -5.3740  -5.3737
    -5.3736  -5.3703  -5.3624  -5.3551  -5.3544  -5.3486  -5.3466  -5.3399
    -5.3340  -5.3319  -5.3310  -5.3309  -5.3298  -5.3157  -5.3147  -5.3122
    -5.3026  -5.2975  -5.2951  -5.2932  -5.2917  -5.2908  -5.2892  -5.2884
    -5.2870  -5.2687  -5.2637  -5.2634  -5.2631  -5.2588  -5.2570  -5.2520
    -5.2517  -5.2496  -5.2441  -5.2335  -5.2323  -5.2281  -5.2265  -5.2254
    -5.2218  -5.2106  -5.2094  -5.1972  -5.1964  -5.1835  -5.1715  -5.1592
    -5.1555  -5.1396  -5.1371  -5.1179  -5.1113  -5.1102  -5.1009  -5.0858
    -5.0767  -5.0565  -5.0560  -5.0018  -4.9861  -4.9714  -4.9688  -4.9257
    -4.9250  -4.5981  -4.5639  -4.1620  -4.1270  -4.1214  -3.8256  -3.8042
    -3.7468  -3.7078  -3.5758  -2.9809  -2.9685  -2.8321  -2.8305  -2.6595
    -2.6215  -2.5884  -2.4434  -2.4414  -2.1851  -1.8757  -1.6906  -1.6032
    -1.4358  -1.4046  -1.1756  -1.1588  -0.9893  -0.9847  -0.5233  -0.5167
    -0.4726  -0.4672  -0.4652  -0.4443  -0.2801  -0.0055   0.0127   0.7142
     0.7798   0.9113   1.0528   1.0763   1.2332   1.2779   1.2802   1.2958
     1.5252   1.5275   1.7704   1.7779   1.8133   1.8328   1.8971   1.9075
     2.6023   2.6086   2.9411   2.9462   2.9478   2.9505   3.0686   3.0712
     3.3103   3.3325   3.3748   3.3794   3.6225   3.6240   3.7720   3.7897
     4.1151   4.1309   4.4762   4.4882   4.5520   4.5879   4.6734   4.7097
     4.7421   4.7845   4.8473   4.9998   5.0435   5.1289   5.1372   5.1768
     5.2335   5.2635   5.2909   5.3251   5.3420   5.4641   5.6038   5.6501
     5.7524   5.7649   5.8632   5.9143   6.1848   6.2079   6.2262   6.2406
     6.3372   6.3721   6.6808   6.6955   6.7532   6.8098   6.8398   6.8699
     7.0488   7.0624   7.1891   7.2356   7.3229   7.3533   7.4076   7.4178
     7.4361   7.4755   7.4833   7.5408   7.5427   7.6076   7.6216   7.6570
     7.7024   7.7581   7.7826   7.8231   7.9472   7.9722   7.9845   7.9992
     8.0306   8.1927   8.3149   8.3678   8.4174   8.4784   8.5382   8.6029
     8.6285   8.6957   8.7203   8.7394   8.8188   8.8234

     occupation numbers 
     1.0000   1.0000   1.0000   1.0000   1.0000   1.0000   1.0000   1.0000
     1.0000   1.0000   1.0000   1.0000   1.0000   1.0000   1.0000   1.0000
     1.0000   1.0000   1.0000   1.0000   1.0000   1.0000   1.0000   1.0000
     1.0000   1.0000   1.0000   1.0000   1.0000   1.0000   1.0000   1.0000
     1.0000   1.0000   1.0000   1.0000   1.0000   1.0000   1.0000   1.0000
     1.0000   1.0000   1.0000   1.0000   1.0000   1.0000   1.0000   1.0000
     1.0000   1.0000   1.0000   1.0000   1.0000   1.0000   1.0000   1.0000
     1.0000   1.0000   1.0000   1.0000   1.0000   1.0000   1.0000   1.0000
     1.0000   1.0000   1.0000   1.0000   1.0000   1.0000   1.0000   1.0000
     1.0000   1.0000   1.0000   1.0000   1.0000   1.0000   1.0000   1.0000
     1.0000   1.0000   1.0000   1.0000   1.0000   1.0000   1.0000   1.0000
     1.0000   1.0000   1.0000   1.0000   1.0000   1.0000   1.0000   1.0000
     1.0000   1.0000   1.0000   1.0000   1.0000   1.0000   1.0000   1.0000
     1.0000   1.0000   1.0000   1.0000   1.0000   1.0000   1.0000   1.0000
     1.0000   1.0000   1.0000   1.0000   1.0000   1.0000   1.0000   1.0000
     1.0000   1.0000   1.0000   1.0000   1.0000   1.0000   1.0000   1.0000
     1.0000   1.0000   1.0000   1.0000   1.0000   1.0000   1.0000   1.0000
     1.0000   1.0000   1.0000   1.0000   1.0000   1.0000   1.0000   1.0000
     1.0000   1.0000   1.0000   1.0000   1.0000   1.0000   1.0000   1.0000
     1.0000   1.0000   1.0000   1.0000   1.0000   1.0000   1.0000   1.0000
     1.0000   1.0000   1.0000   1.0000   1.0000   1.0000   1.0000   1.0000
     1.0000   1.0000   1.0000   1.0000   1.0000   1.0000   1.0000   1.0000
     1.0000   1.0000   1.0000   1.0000   1.0000   1.0000   1.0000   1.0000
     1.0000   1.0000   1.0000   1.0000   1.0000   1.0000   1.0000   1.0000
     1.0000   1.0000   1.0000   1.0000   1.0000   1.0000   1.0000   1.0000
     1.0000   1.0000   1.0000   1.0000   1.0000   1.0000   1.0000   1.0000
     1.0000   1.0000   1.0000   1.0000   1.0000   1.0000   1.0000   1.0000
     1.0000   1.0000   1.0000   1.0000   1.0000   1.0000   1.0000   1.0000
     1.0000   1.0000   1.0000   1.0000   1.0000   1.0000   1.0000   1.0000
     1.0000   1.0000   1.0000   1.0000   1.0000   1.0000   1.0000   1.0000
     1.0000   1.0000   1.0000   1.0000   1.0000   1.0000   1.0000   1.0000
     1.0000   1.0000   1.0000   1.0000   1.0000   1.0000   1.0000   1.0000
     1.0000   1.0000   1.0000   1.0000   1.0000   1.0000   1.0000   1.0000
     1.0000   1.0000   1.0000   1.0000   1.0000   1.0000   1.0000   1.0000
     1.0000   1.0000   1.0000   1.0000   1.0000   1.0000   1.0000   1.0000
     1.0000   1.0000   1.0000   1.0000   1.0000   1.0000   1.0000   1.0000
     1.0000   1.0000   1.0000   1.0000   1.0000   1.0000   1.0000   1.0000
     1.0000   1.0000   1.0000   1.0000   1.0000   1.0000   1.0000   1.0000
     1.0000   1.0000   1.0000   1.0000   1.0000   1.0000   1.0000   1.0000
     1.0000   1.0000   1.0000   1.0000   1.0000   1.0000   1.0000   1.0000
     1.0000   1.0000   1.0000   1.0000   1.0000   1.0000   1.0000   1.0000
     1.0000   1.0000   1.0000   1.0000   1.0000   1.0000   1.0000   1.0000
     1.0000   1.0000   1.0000   1.0000   1.0000   1.0000   1.0000   1.0000
     1.0000   1.0000   1.0000   1.0000   1.0000   1.0000   1.0000   1.0000
     1.0000   1.0000   1.0000   1.0000   1.0000   1.0000   1.0000   1.0000
     1.0000   1.0000   1.0000   1.0000   1.0000   1.0000   1.0000   1.0000
     1.0000   1.0000   1.0000   1.0000   1.0000   1.0000   1.0000   1.0000
     1.0000   1.0000   1.0000   1.0000   1.0000   1.0000   1.0000   1.0000
     1.0000   1.0000   1.0000   1.0000   1.0000   1.0000   1.0000   1.0000
     1.0000   1.0000   1.0000   1.0000   1.0000   1.0000   1.0000   1.0000
     1.0000   1.0000   1.0000   1.0000   1.0000   1.0000   1.0000   1.0000
     1.0000   1.0000   1.0000   1.0000   1.0000   1.0000   1.0000   1.0000
     1.0000   1.0000   1.0000   1.0000   1.0000   1.0000   1.0000   1.0000
     1.0000   1.0000   1.0000   1.0000   1.0000   1.0000   1.0000   1.0000
     1.0000   1.0000   1.0000   1.0000   1.0000   1.0000   1.0000   1.0000
     1.0000   1.0000   1.0000   1.0000   1.0000   1.0000   1.0000   1.0000
     1.0000   1.0000   1.0000   1.0000   1.0000   1.0000   1.0000   1.0000
     1.0000   1.0000   1.0000   1.0000   1.0000   1.0000   1.0000   1.0000
     1.0000   1.0000   1.0000   1.0000   1.0000   1.0000   1.0000   1.0000
     1.0000   1.0000   1.0000   1.0000   1.0000   1.0000   1.0000   1.0000
     1.0000   1.0000   1.0000   1.0000   1.0000   1.0000   1.0000   1.0028
     1.0070   1.0306   1.0757   1.0807   1.0094   0.9392   0.9350   0.9044
     0.3186   0.3133   0.0268   0.0243   0.0149   0.0112   0.0041   0.0034
     0.0000   0.0000   0.0000   0.0000   0.0000   0.0000   0.0000   0.0000
     0.0000   0.0000   0.0000   0.0000   0.0000   0.0000   0.0000   0.0000
     0.0000   0.0000   0.0000   0.0000   0.0000   0.0000   0.0000   0.0000
     0.0000   0.0000   0.0000   0.0000   0.0000   0.0000   0.0000   0.0000
     0.0000   0.0000   0.0000   0.0000   0.0000   0.0000   0.0000   0.0000
     0.0000   0.0000   0.0000   0.0000   0.0000   0.0000   0.0000   0.0000
     0.0000   0.0000   0.0000   0.0000   0.0000   0.0000   0.0000   0.0000
     0.0000   0.0000   0.0000   0.0000   0.0000   0.0000   0.0000   0.0000
     0.0000   0.0000   0.0000   0.0000   0.0000   0.0000   0.0000   0.0000
     0.0000   0.0000   0.0000   0.0000   0.0000   0.0000   0.0000   0.0000
     0.0000   0.0000   0.0000   0.0000   0.0000   0.0000   0.0000   0.0000
     0.0000   0.0000   0.0000   0.0000   0.0000   0.0000

          k =-0.5000 0.0000 0.0000 ( 67714 PWs)   bands (ev):

  -125.0455-125.0446-125.0444-125.0436-125.0354-125.0345-125.0344-125.0335
  -124.9132-124.9123-124.9111-124.9105-124.9038-124.9026-124.9013-124.9008
  -124.8691-124.7285-124.7257-124.7086-124.7015-124.7008-124.6959-124.6939
  -124.6937-124.6929-124.6929-124.6920-124.6898-124.6895-124.6893-124.6882
  -124.6523-124.6514-124.6482-124.6473-124.6441-124.6432-124.6396-124.6387
  -124.5349-124.5340-124.5337-124.5328-124.5312-124.5303-124.5302-124.5294
   -79.2085 -79.2014 -79.2006 -79.1999 -79.1986 -79.1984 -79.1956 -79.1954
   -79.1908 -79.1897 -79.1896 -79.1896 -79.1886 -79.1885 -79.1884 -79.1874
   -79.1860 -79.1859 -79.1833 -79.1794 -79.1783 -79.1782 -79.1772 -79.1735
   -79.0806 -79.0712 -79.0690 -79.0676 -79.0646 -79.0633 -79.0632 -79.0621
   -79.0620 -79.0614 -79.0609 -79.0603 -79.0597 -79.0580 -79.0560 -79.0556
   -79.0554 -79.0538 -79.0536 -79.0525 -79.0524 -79.0518 -79.0511 -79.0505
   -79.0465 -79.0161 -79.0008 -78.8969 -78.8936 -78.8803 -78.8764 -78.8752
   -78.8675 -78.8668 -78.8637 -78.8622 -78.8613 -78.8605 -78.8599 -78.8597
   -78.8579 -78.8578 -78.8576 -78.8570 -78.8559 -78.8547 -78.8542 -78.8539
   -78.8537 -78.8533 -78.8519 -78.8477 -78.8455 -78.8451 -78.8429 -78.8417
   -78.8409 -78.8407 -78.8403 -78.8353 -78.8341 -78.8334 -78.8334 -78.8331
   -78.8331 -78.8328 -78.8313 -78.8300 -78.8295 -78.8292 -78.8286 -78.8282
   -78.8223 -78.8213 -78.8179 -78.8169 -78.8144 -78.8134 -78.8097 -78.8087
   -78.8049 -78.7965 -78.7961 -78.7954 -78.7926 -78.7922 -78.7915 -78.7908
   -78.7878 -78.7870 -78.7842 -78.7837 -78.7829 -78.7821 -78.7801 -78.7715
   -78.7118 -78.7108 -78.7106 -78.7096 -78.7082 -78.7073 -78.7072 -78.7062
   -78.6874 -78.6836 -78.6816 -78.6806 -78.6797 -78.6788 -78.6777 -78.6767
   -78.6765 -78.6756 -78.6751 -78.6750 -78.6713 -78.6712 -78.6628 -78.6590
   -17.3689 -14.8606 -12.4202 -12.1064  -9.2191  -9.1301  -7.6479  -7.6134
    -7.3103  -7.2464  -6.7233  -6.7081  -6.6156  -6.5944  -6.5752  -6.5730
    -6.5699  -6.5657  -6.5584  -6.5575  -6.5157  -6.4979  -6.4901  -6.4794
    -6.4342  -6.4224  -6.4075  -6.3893  -6.3840  -6.3686  -6.3376  -6.3362
    -6.3270  -6.3262  -6.3079  -6.3062  -6.2960  -6.2959  -6.2949  -6.2932
    -6.2911  -6.2785  -6.2527  -6.2526  -6.2519  -6.2467  -6.2124  -6.2060
    -6.1922  -6.1897  -6.1895  -6.1871  -6.1644  -6.1390  -6.1299  -6.1257
    -6.1254  -6.1046  -6.0898  -6.0868  -6.0861  -6.0837  -6.0642  -6.0619
    -6.0540  -6.0485  -6.0473  -6.0424  -6.0384  -6.0360  -6.0052  -6.0039
    -5.9982  -5.9964  -5.9903  -5.9737  -5.9453  -5.9436  -5.9419  -5.9406
    -5.9326  -5.9306  -5.9257  -5.9242  -5.9199  -5.9157  -5.9101  -5.8846
    -5.8844  -5.8788  -5.8786  -5.8756  -5.8645  -5.8546  -5.8372  -5.8333
    -5.8253  -5.8241  -5.8239  -5.8218  -5.8130  -5.7923  -5.7906  -5.7896
    -5.7877  -5.7847  -5.7820  -5.7775  -5.7746  -5.7718  -5.7706  -5.7699
    -5.7699  -5.7523  -5.7461  -5.7429  -5.7417  -5.7298  -5.7257  -5.7125
    -5.7028  -5.6927  -5.6799  -5.6761  -5.6636  -5.6610  -5.6593  -5.6566
    -5.6541  -5.6437  -5.6415  -5.6395  -5.6353  -5.6230  -5.6210  -5.6199
    -5.6159  -5.6000  -5.5990  -5.5980  -5.5970  -5.5964  -5.5953  -5.5950
    -5.5876  -5.5753  -5.5736  -5.5665  -5.5656  -5.5623  -5.5539  -5.5523
    -5.5522  -5.5452  -5.5415  -5.5370  -5.5358  -5.5307  -5.5292  -5.5288
    -5.5287  -5.5088  -5.4952  -5.4916  -5.4884  -5.4815  -5.4772  -5.4767
    -5.4662  -5.4591  -5.4544  -5.4472  -5.4444  -5.4435  -5.4431  -5.4351
    -5.4304  -5.4259  -5.4228  -5.4115  -5.4113  -5.4106  -5.4103  -5.4095
    -5.4091  -5.4061  -5.4050  -5.4040  -5.4024  -5.3921  -5.3893  -5.3843
    -5.3841  -5.3819  -5.3800  -5.3754  -5.3691  -5.3659  -5.3546  -5.3534
    -5.3518  -5.3491  -5.3475  -5.3425  -5.3400  -5.3391  -5.3356  -5.3334
    -5.3296  -5.3243  -5.3242  -5.3227  -5.3218  -5.3204  -5.3194  -5.2861
    -5.2811  -5.2795  -5.2781  -5.2779  -5.2769  -5.2758  -5.2708  -5.2688
    -5.2679  -5.2673  -5.2642  -5.2531  -5.2512  -5.2289  -5.2225  -5.2150
    -5.2097  -5.2059  -5.2033  -5.2025  -5.1838  -5.1799  -5.1741  -5.1730
    -5.1715  -5.1457  -5.1402  -5.1369  -5.1128  -5.1113  -5.1091  -5.0969
    -5.0942  -5.0879  -5.0788  -5.0778  -5.0715  -5.0554  -5.0529  -4.9830
    -4.9797  -4.5991  -4.5675  -4.1599  -3.9575  -3.9535  -3.9464  -3.9270
    -3.7062  -3.6692  -3.5868  -2.9633  -2.9512  -2.6353  -2.2482  -2.2359
    -2.2227  -2.2219  -2.1987  -2.1329  -2.0884  -1.7950  -1.7722  -1.7624
    -1.7306  -1.7204  -1.3822  -1.3597  -1.2772  -1.2550  -0.6733  -0.6708
    -0.6596  -0.6591  -0.2796  -0.0918  -0.0707   0.0837   0.1187   0.1586
     0.1761   0.2841   0.2941   0.9044   1.2728   1.3038   1.3266   1.3391
     1.3939   1.4048   1.5891   1.6000   1.8615   1.8749   1.9054   1.9104
     2.7860   2.7964   2.9315   2.9400   2.9559   2.9856   3.0806   3.0965
     3.5865   3.5875   3.7722   3.7905   3.8406   3.8431   4.2360   4.2551
     4.2602   4.2911   4.5087   4.5609   4.5610   4.5934   4.7548   4.8741
     4.9151   5.0006   5.0518   5.0545   5.0670   5.1871   5.2967   5.4590
     5.5102   5.5475   5.6004   5.6109   5.6636   5.7691   5.9421   5.9521
     5.9801   5.9808   6.0070   6.1085   6.1958   6.2089   6.2414   6.2427
     6.2981   6.3258   6.3555   6.3645   6.4494   6.5320   6.7398   6.7599
     6.8007   6.8462   6.8702   6.9663   6.9781   7.1092   7.2378   7.2599
     7.2759   7.3077   7.3977   7.4809   7.5162   7.5286   7.5566   7.5609
     7.6110   7.6244   7.6255   7.6550   7.8729   7.8878   7.9102   8.2342
     8.2863   8.3429   8.3566   8.3622   8.3831   8.4029   8.4352   8.4407
     8.4498   8.4656   8.4941   8.5305   8.5933   8.6643

     occupation numbers 
     1.0000   1.0000   1.0000   1.0000   1.0000   1.0000   1.0000   1.0000
     1.0000   1.0000   1.0000   1.0000   1.0000   1.0000   1.0000   1.0000
     1.0000   1.0000   1.0000   1.0000   1.0000   1.0000   1.0000   1.0000
     1.0000   1.0000   1.0000   1.0000   1.0000   1.0000   1.0000   1.0000
     1.0000   1.0000   1.0000   1.0000   1.0000   1.0000   1.0000   1.0000
     1.0000   1.0000   1.0000   1.0000   1.0000   1.0000   1.0000   1.0000
     1.0000   1.0000   1.0000   1.0000   1.0000   1.0000   1.0000   1.0000
     1.0000   1.0000   1.0000   1.0000   1.0000   1.0000   1.0000   1.0000
     1.0000   1.0000   1.0000   1.0000   1.0000   1.0000   1.0000   1.0000
     1.0000   1.0000   1.0000   1.0000   1.0000   1.0000   1.0000   1.0000
     1.0000   1.0000   1.0000   1.0000   1.0000   1.0000   1.0000   1.0000
     1.0000   1.0000   1.0000   1.0000   1.0000   1.0000   1.0000   1.0000
     1.0000   1.0000   1.0000   1.0000   1.0000   1.0000   1.0000   1.0000
     1.0000   1.0000   1.0000   1.0000   1.0000   1.0000   1.0000   1.0000
     1.0000   1.0000   1.0000   1.0000   1.0000   1.0000   1.0000   1.0000
     1.0000   1.0000   1.0000   1.0000   1.0000   1.0000   1.0000   1.0000
     1.0000   1.0000   1.0000   1.0000   1.0000   1.0000   1.0000   1.0000
     1.0000   1.0000   1.0000   1.0000   1.0000   1.0000   1.0000   1.0000
     1.0000   1.0000   1.0000   1.0000   1.0000   1.0000   1.0000   1.0000
     1.0000   1.0000   1.0000   1.0000   1.0000   1.0000   1.0000   1.0000
     1.0000   1.0000   1.0000   1.0000   1.0000   1.0000   1.0000   1.0000
     1.0000   1.0000   1.0000   1.0000   1.0000   1.0000   1.0000   1.0000
     1.0000   1.0000   1.0000   1.0000   1.0000   1.0000   1.0000   1.0000
     1.0000   1.0000   1.0000   1.0000   1.0000   1.0000   1.0000   1.0000
     1.0000   1.0000   1.0000   1.0000   1.0000   1.0000   1.0000   1.0000
     1.0000   1.0000   1.0000   1.0000   1.0000   1.0000   1.0000   1.0000
     1.0000   1.0000   1.0000   1.0000   1.0000   1.0000   1.0000   1.0000
     1.0000   1.0000   1.0000   1.0000   1.0000   1.0000   1.0000   1.0000
     1.0000   1.0000   1.0000   1.0000   1.0000   1.0000   1.0000   1.0000
     1.0000   1.0000   1.0000   1.0000   1.0000   1.0000   1.0000   1.0000
     1.0000   1.0000   1.0000   1.0000   1.0000   1.0000   1.0000   1.0000
     1.0000   1.0000   1.0000   1.0000   1.0000   1.0000   1.0000   1.0000
     1.0000   1.0000   1.0000   1.0000   1.0000   1.0000   1.0000   1.0000
     1.0000   1.0000   1.0000   1.0000   1.0000   1.0000   1.0000   1.0000
     1.0000   1.0000   1.0000   1.0000   1.0000   1.0000   1.0000   1.0000
     1.0000   1.0000   1.0000   1.0000   1.0000   1.0000   1.0000   1.0000
     1.0000   1.0000   1.0000   1.0000   1.0000   1.0000   1.0000   1.0000
     1.0000   1.0000   1.0000   1.0000   1.0000   1.0000   1.0000   1.0000
     1.0000   1.0000   1.0000   1.0000   1.0000   1.0000   1.0000   1.0000
     1.0000   1.0000   1.0000   1.0000   1.0000   1.0000   1.0000   1.0000
     1.0000   1.0000   1.0000   1.0000   1.0000   1.0000   1.0000   1.0000
     1.0000   1.0000   1.0000   1.0000   1.0000   1.0000   1.0000   1.0000
     1.0000   1.0000   1.0000   1.0000   1.0000   1.0000   1.0000   1.0000
     1.0000   1.0000   1.0000   1.0000   1.0000   1.0000   1.0000   1.0000
     1.0000   1.0000   1.0000   1.0000   1.0000   1.0000   1.0000   1.0000
     1.0000   1.0000   1.0000   1.0000   1.0000   1.0000   1.0000   1.0000
     1.0000   1.0000   1.0000   1.0000   1.0000   1.0000   1.0000   1.0000
     1.0000   1.0000   1.0000   1.0000   1.0000   1.0000   1.0000   1.0000
     1.0000   1.0000   1.0000   1.0000   1.0000   1.0000   1.0000   1.0000
     1.0000   1.0000   1.0000   1.0000   1.0000   1.0000   1.0000   1.0000
     1.0000   1.0000   1.0000   1.0000   1.0000   1.0000   1.0000   1.0000
     1.0000   1.0000   1.0000   1.0000   1.0000   1.0000   1.0000   1.0000
     1.0000   1.0000   1.0000   1.0000   1.0000   1.0000   1.0000   1.0000
     1.0000   1.0000   1.0000   1.0000   1.0000   1.0000   1.0000   1.0000
     1.0000   1.0000   1.0000   1.0000   1.0000   1.0000   1.0000   1.0000
     1.0000   1.0000   1.0000   1.0000   1.0000   1.0000   1.0000   1.0000
     1.0000   1.0000   1.0000   1.0000   1.0000   1.0000   1.0000   1.0000
     1.0000   1.0000   1.0000   1.0000   1.0000   1.0000   1.0000   1.0000
     1.0000   1.0000   1.0000   1.0000   1.0000   1.0000   1.0000   1.0000
     1.0000   1.0000   1.0000   1.0000   1.0000   1.0000   1.0000   1.0000
     1.0000   1.0000   1.0000   1.0000   1.0000   1.0000   1.0000   1.0000
     1.0000   1.0000   1.0000   1.0287   0.9486   0.8879   0.8365   0.8066
     0.6628   0.6327   0.1930   0.1754   0.0072   0.0059   0.0036   0.0033
     0.0000   0.0000   0.0000   0.0000   0.0000   0.0000   0.0000   0.0000
     0.0000   0.0000   0.0000   0.0000   0.0000   0.0000   0.0000   0.0000
     0.0000   0.0000   0.0000   0.0000   0.0000   0.0000   0.0000   0.0000
     0.0000   0.0000   0.0000   0.0000   0.0000   0.0000   0.0000   0.0000
     0.0000   0.0000   0.0000   0.0000   0.0000   0.0000   0.0000   0.0000
     0.0000   0.0000   0.0000   0.0000   0.0000   0.0000   0.0000   0.0000
     0.0000   0.0000   0.0000   0.0000   0.0000   0.0000   0.0000   0.0000
     0.0000   0.0000   0.0000   0.0000   0.0000   0.0000   0.0000   0.0000
     0.0000   0.0000   0.0000   0.0000   0.0000   0.0000   0.0000   0.0000
     0.0000   0.0000   0.0000   0.0000   0.0000   0.0000   0.0000   0.0000
     0.0000   0.0000   0.0000   0.0000   0.0000   0.0000   0.0000   0.0000
     0.0000   0.0000   0.0000   0.0000   0.0000   0.0000

          k =-0.5000-0.4660-0.2690 ( 67764 PWs)   bands (ev):

  -125.0453-125.0450-125.0440-125.0437-125.0353-125.0349-125.0340-125.0336
  -124.9132-124.9123-124.9110-124.9106-124.9038-124.9027-124.9013-124.9008
  -124.8691-124.7285-124.7257-124.7086-124.7015-124.7008-124.6958-124.6940
  -124.6935-124.6929-124.6929-124.6920-124.6898-124.6895-124.6892-124.6882
  -124.6523-124.6514-124.6482-124.6473-124.6441-124.6432-124.6396-124.6387
  -124.5349-124.5343-124.5334-124.5329-124.5310-124.5308-124.5297-124.5296
   -79.2053 -79.2047 -79.2008 -79.2002 -79.1995 -79.1987 -79.1951 -79.1944
   -79.1907 -79.1902 -79.1894 -79.1892 -79.1891 -79.1887 -79.1879 -79.1876
   -79.1870 -79.1867 -79.1791 -79.1789 -79.1776 -79.1774 -79.1774 -79.1768
   -79.0772 -79.0768 -79.0678 -79.0673 -79.0646 -79.0633 -79.0632 -79.0622
   -79.0619 -79.0615 -79.0608 -79.0604 -79.0597 -79.0594 -79.0556 -79.0554
   -79.0539 -79.0536 -79.0524 -79.0523 -79.0519 -79.0510 -79.0506 -79.0503
   -79.0499 -79.0161 -79.0008 -78.8969 -78.8936 -78.8807 -78.8759 -78.8752
   -78.8675 -78.8668 -78.8637 -78.8622 -78.8613 -78.8600 -78.8595 -78.8579
   -78.8576 -78.8576 -78.8570 -78.8568 -78.8560 -78.8548 -78.8548 -78.8541
   -78.8537 -78.8534 -78.8533 -78.8515 -78.8486 -78.8477 -78.8409 -78.8403
   -78.8384 -78.8372 -78.8366 -78.8358 -78.8352 -78.8337 -78.8337 -78.8334
   -78.8331 -78.8329 -78.8313 -78.8311 -78.8300 -78.8294 -78.8292 -78.8282
   -78.8223 -78.8213 -78.8179 -78.8169 -78.8144 -78.8134 -78.8097 -78.8087
   -78.8024 -78.8000 -78.7960 -78.7953 -78.7942 -78.7915 -78.7914 -78.7907
   -78.7877 -78.7869 -78.7849 -78.7829 -78.7826 -78.7821 -78.7766 -78.7739
   -78.7117 -78.7112 -78.7102 -78.7098 -78.7080 -78.7078 -78.7067 -78.7064
   -78.6839 -78.6837 -78.6815 -78.6807 -78.6803 -78.6798 -78.6796 -78.6788
   -78.6776 -78.6771 -78.6761 -78.6757 -78.6665 -78.6662 -78.6628 -78.6624
   -17.3689 -14.8606 -12.4202 -12.1064  -9.2192  -9.1298  -7.3974  -7.3170
    -7.2735  -7.2730  -7.2210  -7.2131  -6.5660  -6.5568  -6.5457  -6.5446
    -6.5066  -6.5052  -6.5022  -6.5019  -6.4746  -6.4662  -6.4554  -6.4550
    -6.4449  -6.4449  -6.4434  -6.4433  -6.3653  -6.3580  -6.3568  -6.3544
    -6.3528  -6.3522  -6.3418  -6.3413  -6.3287  -6.3211  -6.3168  -6.3122
    -6.2977  -6.2771  -6.2756  -6.2730  -6.2553  -6.2411  -6.2333  -6.2330
    -6.2211  -6.1942  -6.1872  -6.1865  -6.1351  -6.1298  -6.1255  -6.1252
    -6.1230  -6.1221  -6.1059  -6.1033  -6.0611  -6.0574  -6.0559  -6.0556
    -6.0550  -6.0542  -6.0511  -6.0505  -6.0365  -6.0333  -6.0296  -6.0258
    -6.0243  -6.0020  -5.9914  -5.9913  -5.9874  -5.9843  -5.9834  -5.9805
    -5.9650  -5.9545  -5.9493  -5.9464  -5.9123  -5.9044  -5.8982  -5.8975
    -5.8891  -5.8832  -5.8786  -5.8771  -5.8749  -5.8694  -5.8673  -5.8670
    -5.8630  -5.8626  -5.8566  -5.8501  -5.8490  -5.8247  -5.8123  -5.8101
    -5.8037  -5.8024  -5.8011  -5.8005  -5.7976  -5.7731  -5.7707  -5.7694
    -5.7693  -5.7550  -5.7459  -5.7451  -5.7407  -5.7401  -5.7365  -5.7317
    -5.7312  -5.6902  -5.6771  -5.6740  -5.6734  -5.6651  -5.6591  -5.6583
    -5.6577  -5.6561  -5.6539  -5.6536  -5.6534  -5.6516  -5.6499  -5.6491
    -5.6483  -5.6136  -5.6103  -5.6019  -5.6014  -5.5941  -5.5924  -5.5898
    -5.5863  -5.5729  -5.5443  -5.5347  -5.5346  -5.5323  -5.5313  -5.5299
    -5.5282  -5.5190  -5.5169  -5.5063  -5.4999  -5.4979  -5.4953  -5.4912
    -5.4909  -5.4868  -5.4861  -5.4778  -5.4738  -5.4714  -5.4692  -5.4638
    -5.4600  -5.4530  -5.4460  -5.4433  -5.4433  -5.4415  -5.4409  -5.4402
    -5.4393  -5.4291  -5.4072  -5.4047  -5.4047  -5.4020  -5.4017  -5.3959
    -5.3942  -5.3818  -5.3766  -5.3736  -5.3732  -5.3694  -5.3690  -5.3681
    -5.3674  -5.3665  -5.3661  -5.3658  -5.3615  -5.3511  -5.3476  -5.3463
    -5.3452  -5.3368  -5.3264  -5.3217  -5.3216  -5.3058  -5.3033  -5.3032
    -5.3009  -5.2966  -5.2946  -5.2911  -5.2907  -5.2874  -5.2806  -5.2792
    -5.2755  -5.2717  -5.2702  -5.2677  -5.2675  -5.2651  -5.2614  -5.2573
    -5.2503  -5.2498  -5.2489  -5.2452  -5.2436  -5.2079  -5.2031  -5.2017
    -5.2003  -5.1999  -5.1988  -5.1971  -5.1957  -5.1901  -5.1842  -5.1837
    -5.1820  -5.1653  -5.1620  -5.1596  -5.1561  -5.1552  -5.1542  -5.1537
    -5.1529  -5.0906  -5.0904  -5.0876  -5.0873  -4.8089  -4.7909  -4.7880
    -4.7830  -4.5872  -4.5402  -4.1611  -3.8438  -3.8400  -3.8278  -3.8264
    -3.6159  -3.2771  -3.2758  -3.2630  -3.2611  -2.7589  -2.6815  -2.6625
    -2.6616  -2.5262  -2.3010  -2.2577  -2.2536  -2.2437  -2.1501  -1.8960
    -1.7231  -1.7147  -1.7111  -1.6177  -0.5661  -0.5643  -0.5515  -0.5504
    -0.2805  -0.1856  -0.1627  -0.1558  -0.1523   0.2554   0.2588   0.2732
     0.3191   0.5646   0.6145   0.6231   0.6553   0.8777   0.9539   0.9592
     0.9681   1.0859   1.7778   1.7904   1.8072   1.8108   3.1491   3.1586
     3.1718   3.1746   3.2432   3.2896   3.2934   3.3043   3.4487   3.4594
     3.4598   3.4853   3.7943   3.8123   3.8177   3.8401   3.8550   3.8600
     3.8646   3.8720   3.9421   3.9503   3.9619   4.0035   4.7965   5.1768
     5.2234   5.2410   5.2597   5.2859   5.2988   5.3054   5.3149   5.3234
     5.4975   5.5097   5.6612   5.7111   5.7134   5.7426   5.7512   5.7792
     5.9973   6.0060   6.0247   6.0284   6.0563   6.0794   6.2217   6.2558
     6.2677   6.2822   6.3167   6.3184   6.3770   6.4760   6.4853   6.4939
     6.6068   6.6734   6.7626   6.7923   6.8064   6.8651   6.8707   6.8906
     6.9491   6.9529   6.9574   6.9626   7.3272   7.4532   7.5436   7.5465
     7.5760   7.6924   7.7450   7.8121   7.8342   7.8580   7.8603   7.9189
     7.9456   7.9629   8.1649   8.3730   8.4041   8.4615   8.4759   8.4921
     8.5041   8.5543   8.6142   8.6406   8.6568   8.6867

     occupation numbers 
     1.0000   1.0000   1.0000   1.0000   1.0000   1.0000   1.0000   1.0000
     1.0000   1.0000   1.0000   1.0000   1.0000   1.0000   1.0000   1.0000
     1.0000   1.0000   1.0000   1.0000   1.0000   1.0000   1.0000   1.0000
     1.0000   1.0000   1.0000   1.0000   1.0000   1.0000   1.0000   1.0000
     1.0000   1.0000   1.0000   1.0000   1.0000   1.0000   1.0000   1.0000
     1.0000   1.0000   1.0000   1.0000   1.0000   1.0000   1.0000   1.0000
     1.0000   1.0000   1.0000   1.0000   1.0000   1.0000   1.0000   1.0000
     1.0000   1.0000   1.0000   1.0000   1.0000   1.0000   1.0000   1.0000
     1.0000   1.0000   1.0000   1.0000   1.0000   1.0000   1.0000   1.0000
     1.0000   1.0000   1.0000   1.0000   1.0000   1.0000   1.0000   1.0000
     1.0000   1.0000   1.0000   1.0000   1.0000   1.0000   1.0000   1.0000
     1.0000   1.0000   1.0000   1.0000   1.0000   1.0000   1.0000   1.0000
     1.0000   1.0000   1.0000   1.0000   1.0000   1.0000   1.0000   1.0000
     1.0000   1.0000   1.0000   1.0000   1.0000   1.0000   1.0000   1.0000
     1.0000   1.0000   1.0000   1.0000   1.0000   1.0000   1.0000   1.0000
     1.0000   1.0000   1.0000   1.0000   1.0000   1.0000   1.0000   1.0000
     1.0000   1.0000   1.0000   1.0000   1.0000   1.0000   1.0000   1.0000
     1.0000   1.0000   1.0000   1.0000   1.0000   1.0000   1.0000   1.0000
     1.0000   1.0000   1.0000   1.0000   1.0000   1.0000   1.0000   1.0000
     1.0000   1.0000   1.0000   1.0000   1.0000   1.0000   1.0000   1.0000
     1.0000   1.0000   1.0000   1.0000   1.0000   1.0000   1.0000   1.0000
     1.0000   1.0000   1.0000   1.0000   1.0000   1.0000   1.0000   1.0000
     1.0000   1.0000   1.0000   1.0000   1.0000   1.0000   1.0000   1.0000
     1.0000   1.0000   1.0000   1.0000   1.0000   1.0000   1.0000   1.0000
     1.0000   1.0000   1.0000   1.0000   1.0000   1.0000   1.0000   1.0000
     1.0000   1.0000   1.0000   1.0000   1.0000   1.0000   1.0000   1.0000
     1.0000   1.0000   1.0000   1.0000   1.0000   1.0000   1.0000   1.0000
     1.0000   1.0000   1.0000   1.0000   1.0000   1.0000   1.0000   1.0000
     1.0000   1.0000   1.0000   1.0000   1.0000   1.0000   1.0000   1.0000
     1.0000   1.0000   1.0000   1.0000   1.0000   1.0000   1.0000   1.0000
     1.0000   1.0000   1.0000   1.0000   1.0000   1.0000   1.0000   1.0000
     1.0000   1.0000   1.0000   1.0000   1.0000   1.0000   1.0000   1.0000
     1.0000   1.0000   1.0000   1.0000   1.0000   1.0000   1.0000   1.0000
     1.0000   1.0000   1.0000   1.0000   1.0000   1.0000   1.0000   1.0000
     1.0000   1.0000   1.0000   1.0000   1.0000   1.0000   1.0000   1.0000
     1.0000   1.0000   1.0000   1.0000   1.0000   1.0000   1.0000   1.0000
     1.0000   1.0000   1.0000   1.0000   1.0000   1.0000   1.0000   1.0000
     1.0000   1.0000   1.0000   1.0000   1.0000   1.0000   1.0000   1.0000
     1.0000   1.0000   1.0000   1.0000   1.0000   1.0000   1.0000   1.0000
     1.0000   1.0000   1.0000   1.0000   1.0000   1.0000   1.0000   1.0000
     1.0000   1.0000   1.0000   1.0000   1.0000   1.0000   1.0000   1.0000
     1.0000   1.0000   1.0000   1.0000   1.0000   1.0000   1.0000   1.0000
     1.0000   1.0000   1.0000   1.0000   1.0000   1.0000   1.0000   1.0000
     1.0000   1.0000   1.0000   1.0000   1.0000   1.0000   1.0000   1.0000
     1.0000   1.0000   1.0000   1.0000   1.0000   1.0000   1.0000   1.0000
     1.0000   1.0000   1.0000   1.0000   1.0000   1.0000   1.0000   1.0000
     1.0000   1.0000   1.0000   1.0000   1.0000   1.0000   1.0000   1.0000
     1.0000   1.0000   1.0000   1.0000   1.0000   1.0000   1.0000   1.0000
     1.0000   1.0000   1.0000   1.0000   1.0000   1.0000   1.0000   1.0000
     1.0000   1.0000   1.0000   1.0000   1.0000   1.0000   1.0000   1.0000
     1.0000   1.0000   1.0000   1.0000   1.0000   1.0000   1.0000   1.0000
     1.0000   1.0000   1.0000   1.0000   1.0000   1.0000   1.0000   1.0000
     1.0000   1.0000   1.0000   1.0000   1.0000   1.0000   1.0000   1.0000
     1.0000   1.0000   1.0000   1.0000   1.0000   1.0000   1.0000   1.0000
     1.0000   1.0000   1.0000   1.0000   1.0000   1.0000   1.0000   1.0000
     1.0000   1.0000   1.0000   1.0000   1.0000   1.0000   1.0000   1.0000
     1.0000   1.0000   1.0000   1.0000   1.0000   1.0000   1.0000   1.0000
     1.0000   1.0000   1.0000   1.0000   1.0000   1.0000   1.0000   1.0000
     1.0000   1.0000   1.0000   1.0000   1.0000   1.0000   1.0000   1.0000
     1.0000   1.0000   1.0000   1.0000   1.0000   1.0000   1.0000   1.0000
     1.0000   1.0000   1.0000   1.0000   1.0000   1.0000   1.0000   1.0000
     1.0000   1.0002   1.0005   1.0006   1.0011   1.0221   1.0436   1.0454
     1.0484   1.0821   0.0243   0.0205   0.0162   0.0154   0.0000   0.0000
     0.0000   0.0000   0.0000   0.0000   0.0000   0.0000   0.0000   0.0000
     0.0000   0.0000   0.0000   0.0000   0.0000   0.0000   0.0000   0.0000
     0.0000   0.0000   0.0000   0.0000   0.0000   0.0000   0.0000   0.0000
[...]
     atom   55 type  4   force =     0.00000000    0.00000000    0.00000000
     atom   56 type  3   force =     0.00000000    0.00000000    0.00000000
     atom   57 type  2   force =     0.00000000    0.00000000    0.00000000
     atom   58 type  3   force =     0.00000000    0.00000000    0.00000000
     atom   59 type  3   force =     0.00000000    0.00000000    0.00000000
     atom   60 type  4   force =     0.00000000    0.00000000    0.00000000
     atom   61 type  4   force =     0.00000000    0.00000000    0.00000000
     atom   62 type  4   force =     0.00000000    0.00000000    0.00000000
     The SCF correction term to forces
     atom    1 type  1   force =    -0.00000000   -0.00000000   -0.00000000
     atom    2 type  1   force =    -0.00000000    0.00000000   -0.00000000
     atom    3 type  1   force =     0.00000167    0.00001566    0.00001753
     atom    4 type  1   force =     0.00000145   -0.00001564    0.00001975
     atom    5 type  1   force =     0.00002589   -0.00000003    0.00011229
     atom    6 type  1   force =    -0.00002980    0.00000118    0.00007579
     atom    7 type  1   force =    -0.00000000    0.00000000   -0.00000000
     atom    8 type  1   force =    -0.00000000   -0.00000000   -0.00000000
     atom    9 type  1   force =    -0.00001953    0.00000043    0.00005443
     atom   10 type  1   force =     0.00001806   -0.00000059   -0.00001914
     atom   11 type  1   force =    -0.00002767   -0.00000110    0.00007734
     atom   12 type  1   force =     0.00002405    0.00000061    0.00011165
     atom   13 type  1   force =     0.00000000   -0.00000000   -0.00000000
     atom   14 type  1   force =     0.00000000    0.00000000   -0.00000000
     atom   15 type  1   force =    -0.00000356    0.00003158    0.00001748
     atom   16 type  1   force =    -0.00000150   -0.00003159    0.00001916
     atom   17 type  1   force =    -0.00001405    0.00002009    0.00005632
     atom   18 type  1   force =     0.00003943   -0.00000926    0.00001570
     atom   19 type  1   force =     0.00000000    0.00000000   -0.00000000
     atom   20 type  1   force =     0.00000000   -0.00000000   -0.00000000
     atom   21 type  1   force =     0.00000938    0.00000091    0.00005131
     atom   22 type  1   force =    -0.00001825    0.00000008   -0.00001146
     atom   23 type  1   force =     0.00003756    0.00000826    0.00001688
     atom   24 type  1   force =    -0.00001259   -0.00002025    0.00005595
     atom   25 type  1   force =     0.00000000   -0.00000000   -0.00000000
     atom   26 type  1   force =     0.00000000    0.00000000   -0.00000000
     atom   27 type  1   force =     0.00009388    0.00001805    0.00003095
     atom   28 type  1   force =     0.00010582   -0.00001172    0.00005468
     atom   29 type  1   force =     0.00007983    0.00000232    0.00008604
     atom   30 type  1   force =     0.00011092   -0.00000097    0.00014236
     atom   31 type  1   force =     0.00000000   -0.00000000   -0.00000000
     atom   32 type  1   force =     0.00000000    0.00000000   -0.00000000
     atom   33 type  1   force =     0.00010556    0.00001165    0.00005510
     atom   34 type  1   force =     0.00009417   -0.00001551    0.00003163
     atom   35 type  1   force =     0.00009477   -0.00001991    0.00006819
     atom   36 type  1   force =     0.00009550    0.00001905    0.00006995
     atom   37 type  1   force =    -0.00000000   -0.00000000   -0.00000000
     atom   38 type  1   force =    -0.00000000    0.00000000   -0.00000000
     atom   39 type  1   force =    -0.00010699    0.00003403    0.00000231
     atom   40 type  1   force =    -0.00011395   -0.00002813    0.00004806
     atom   41 type  1   force =    -0.00007846   -0.00000031    0.00010450
     atom   42 type  1   force =    -0.00008448    0.00000057    0.00004646
     atom   43 type  1   force =    -0.00000000   -0.00000000   -0.00000000
     atom   44 type  1   force =    -0.00000000    0.00000000   -0.00000000
     atom   45 type  1   force =    -0.00011398    0.00002841    0.00004540
     atom   46 type  1   force =    -0.00010666   -0.00003526    0.00000341
     atom   47 type  1   force =    -0.00007911    0.00005099    0.00008566
     atom   48 type  1   force =    -0.00007945   -0.00004953    0.00008382
     atom   49 type  4   force =    -0.00000131   -0.00000083    0.00000051
     atom   50 type  4   force =    -0.00000054    0.00000093    0.00000167
     atom   51 type  3   force =    -0.00000228   -0.00000812   -0.00000496
     atom   52 type  3   force =    -0.00000364    0.00000633    0.00000467
     atom   53 type  4   force =     0.00000075   -0.00000004   -0.00000128
     atom   54 type  3   force =     0.00000297    0.00000000   -0.00001673
     atom   55 type  4   force =     0.00000208    0.00000501   -0.00000206
     atom   56 type  3   force =    -0.00000948    0.00000096    0.00001675
     atom   57 type  2   force =    -0.00001448    0.00000034   -0.00000297
     atom   58 type  3   force =    -0.00000184    0.00000811   -0.00000445
     atom   59 type  3   force =    -0.00000329   -0.00000592    0.00000470
     atom   60 type  4   force =    -0.00000125    0.00000083    0.00000062
     atom   61 type  4   force =     0.00000195   -0.00000510   -0.00000198
     atom   62 type  4   force =    -0.00000051   -0.00000107    0.00000163

     DFT-D3 dispersion contribution to forces:
     atom    1 type  1   force =     0.00000977    0.00000976    0.00138901
     atom    2 type  1   force =     0.00002274   -0.00000695    0.00139292
     atom    3 type  1   force =    -0.00035099    0.00003219    0.00161888
     atom    4 type  1   force =    -0.00035099   -0.00003225    0.00160942
     atom    5 type  1   force =     0.00014227    0.00012078   -0.00057561
     atom    6 type  1   force =     0.00083195   -0.00025782    0.00005937
     atom    7 type  1   force =     0.00000996   -0.00000847    0.00138917
     atom    8 type  1   force =     0.00002237    0.00000733    0.00139302
     atom    9 type  1   force =    -0.00078261   -0.00000256    0.00123888
     atom   10 type  1   force =    -0.00036019    0.00000307    0.00170224
     atom   11 type  1   force =     0.00081588    0.00026705    0.00003165
     atom   12 type  1   force =     0.00015279   -0.00013719   -0.00055884
     atom   13 type  1   force =    -0.00000879    0.00001347    0.00138939
     atom   14 type  1   force =    -0.00002949   -0.00001169    0.00139575
     atom   15 type  1   force =     0.00031707    0.00001334    0.00169200
     atom   16 type  1   force =     0.00031704   -0.00001482    0.00169027
     atom   17 type  1   force =    -0.00010998    0.00014460   -0.00060277
     atom   18 type  1   force =    -0.00065015   -0.00032554    0.00015119
     atom   19 type  1   force =    -0.00000961   -0.00001205    0.00139107
     atom   20 type  1   force =    -0.00002955    0.00001196    0.00139533
     atom   21 type  1   force =     0.00038504   -0.00000252    0.00165040
     atom   22 type  1   force =     0.00033349    0.00000222    0.00170926
     atom   23 type  1   force =    -0.00063730    0.00033930    0.00013173
     atom   24 type  1   force =    -0.00012041   -0.00015887   -0.00058602
     atom   25 type  1   force =    -0.00000406    0.00005254    0.00248224
     atom   26 type  1   force =    -0.00000385   -0.00005017    0.00248089
     atom   27 type  1   force =    -0.00005211   -0.00003969   -0.00211963
     atom   28 type  1   force =    -0.00018947    0.00003533   -0.00183135
     atom   29 type  1   force =     0.00000278   -0.00001319   -0.00200045
     atom   30 type  1   force =    -0.00016209   -0.00002784   -0.00204071
     atom   31 type  1   force =    -0.00002435    0.00000143    0.00252120
     atom   32 type  1   force =    -0.00000159    0.00000046    0.00243321
     atom   33 type  1   force =    -0.00018255   -0.00002991   -0.00183593
     atom   34 type  1   force =    -0.00005128    0.00003671   -0.00211767
     atom   35 type  1   force =     0.00011548    0.00061628   -0.00113603
     atom   36 type  1   force =     0.00011577   -0.00062391   -0.00108602
     atom   37 type  1   force =    -0.00002056    0.00001670    0.00223442
     atom   38 type  1   force =    -0.00002075   -0.00001471    0.00223503
     atom   39 type  1   force =     0.00001659    0.00000398   -0.00249115
     atom   40 type  1   force =     0.00009204   -0.00001299   -0.00242959
     atom   41 type  1   force =     0.00002127   -0.00000029   -0.00231164
     atom   42 type  1   force =     0.00006579    0.00000312   -0.00226676
     atom   43 type  1   force =    -0.00002927    0.00000107    0.00224797
     atom   44 type  1   force =     0.00000029    0.00000059    0.00221970
     atom   45 type  1   force =     0.00008466    0.00001647   -0.00243606
     atom   46 type  1   force =     0.00001860   -0.00000517   -0.00248745
     atom   47 type  1   force =     0.00012434    0.00005363   -0.00232626
     atom   48 type  1   force =     0.00012333   -0.00005397   -0.00232801
     atom   49 type  4   force =     0.00000310   -0.00001401   -0.00001633
     atom   50 type  4   force =    -0.00001297    0.00002914   -0.00036723
     atom   51 type  3   force =     0.00001476    0.00017814   -0.00025108
     atom   52 type  3   force =    -0.00003616    0.00026514   -0.00046028
     atom   53 type  4   force =     0.00000112   -0.00000307   -0.00008986
     atom   54 type  3   force =     0.00000453    0.00001035    0.00023292
     atom   55 type  4   force =     0.00007918    0.00006711   -0.00164780
     atom   56 type  3   force =    -0.00004342   -0.00000391   -0.00118173
     atom   57 type  2   force =    -0.00000077    0.00000217   -0.00122805
     atom   58 type  3   force =     0.00001433   -0.00019001   -0.00023955
     atom   59 type  3   force =    -0.00003575   -0.00025353   -0.00042004
     atom   60 type  4   force =     0.00000312    0.00001795   -0.00001492
     atom   61 type  4   force =     0.00006199   -0.00003649   -0.00169830
     atom   62 type  4   force =    -0.00001237   -0.00002977   -0.00032540

     Total force =     0.010819     Total SCF correction =     0.000550

     DFT-D3 dispersion Force =     0.013000


     Computing stress (Cartesian axis) and pressure


     negative rho (up, down):  3.686E-03 0.000E+00
          total   stress  (Ry/bohr**3)                   (kbar)     P=      -18.91
  -0.00013717   0.00000007  -0.00000002          -20.18        0.01       -0.00
   0.00000007  -0.00023781  -0.00000010            0.01      -34.98       -0.01
  -0.00000002  -0.00000010  -0.00001065           -0.00       -0.01       -1.57

     kinetic stress (kbar)  12374.41      0.00      6.29
                                0.00  12259.71      0.03
                                6.29      0.03  12345.35

     local   stress (kbar)-947298.07     -0.03     92.86
                               -0.03-960706.79    -10.73
                               92.86    -10.73 957740.89

     nonloc. stress (kbar)  -1200.63      0.00     -0.04
                                0.00  -1181.39     -0.00
                               -0.04     -0.00  -1229.59

     hartree stress (kbar) 500386.55     -0.02    -32.16
                               -0.02 506045.53      4.68
                              -32.16      4.68-445592.74

     exc-cor stress (kbar)  -6044.31      0.00     -0.17
                                0.00  -6038.40      0.00
                               -0.17      0.00  -6046.61

     corecor stress (kbar)    -65.26     -0.00      0.01
                               -0.00    -66.27      0.00
                                0.01      0.00    -66.23

     ewald   stress (kbar) 441833.24      0.04    -66.84
                                0.04 449661.09      6.00
                              -66.84      6.00-517149.62

     hubbard stress (kbar)      0.00      0.00      0.00
                                0.00      0.00      0.00
                                0.00      0.00      0.00

     DFT-D   stress (kbar)     -6.11      0.00      0.05
                                0.00     -8.47      0.00
                                0.05      0.00     -3.03

     XDM     stress (kbar)      0.00      0.00      0.00
                                0.00      0.00      0.00
                                0.00      0.00      0.00

     dft-nl  stress (kbar)      0.00      0.00      0.00
                                0.00      0.00      0.00
                                0.00      0.00      0.00

     TS-vdW  stress (kbar)      0.00      0.00      0.00
                                0.00      0.00      0.00
                                0.00      0.00      0.00

     MDB     stress (kbar)      0.00      0.00      0.00
                                0.00      0.00      0.00
                                0.00      0.00      0.00

     3D-RISM stress (kbar)      0.00      0.00      0.00
                                0.00      0.00      0.00
                                0.00      0.00      0.00

     Energy error            =      2.7E-04 Ry
     Gradient error          =      3.2E-03 Ry/Bohr

     number of scf cycles    =  41
     number of bfgs steps    =  40

     energy             old  =  -22293.8401209238 Ry
     energy             new  =  -22293.8403929285 Ry

     CASE: energy            _new < energy            _old

     new trust radius        =       0.0339155427 bohr
     new conv_thr            =       0.0000000321 Ry


ATOMIC_POSITIONS (angstrom)
Zn               1.2182900000        1.3071800000        0.7547010000    0   0   0
Zn               1.2182900000        6.5359000000        0.7547010000    0   0   0
Zn               1.2111879029       -0.0000140503        3.6047708010
Zn               1.2113833766        5.2280330740        3.6042136181
Zn               1.2057253079       -1.3084275140        6.2729612828
Zn               1.1781865150        3.9231587421        6.3026164877
Zn               1.2182900000        3.9215400000        0.7547010000    0   0   0
Zn               1.2182900000        9.1502600000        0.7547010000    0   0   0
Zn               1.2165309105        2.6137392911        3.6072663527
Zn               1.2018895645        7.8430413323        3.6199001665
Zn               1.1771855181        1.3041295595        6.3003917030
Zn               1.2062390601        6.5352104332        6.2735537811
Zn               6.0914510000        1.3071800000        0.7547010000    0   0   0
Zn               6.0914510000        6.5359000000        0.7547010000    0   0   0
Zn               6.1117433388       -0.0010025292        3.6121404163
Zn               6.1112717038        5.2290057014        3.6112514625
Zn               6.0979861427       -1.3057711163        6.2638726164
Zn               6.0698948421        3.9156977986        6.2455918364
Zn               6.0914510000        3.9215400000        0.7547010000    0   0   0
Zn               6.0914510000        9.1502600000        0.7547010000    0   0   0
Zn               6.1220347674        2.6137583059        3.5946602897
Zn               6.1039928942        7.8430235209        3.6202714237
Zn               6.0699229234        1.3122023619        6.2465087857
Zn               6.0977285110        6.5329799316        6.2639468247
Zn               3.6548710000       -0.0000000000        1.5094010000    0   0   0
Zn               3.6548710000        5.2287200000        1.5094010000    0   0   0
Zn               3.6507419385       -1.3147770207        3.8120383277
Zn               3.6686819526        3.9317587720        3.7821563198
Zn               3.6539473569       -2.6152365814        6.2111728176
Zn               3.5573682172        2.6123955717        6.0992240337
Zn               3.6548710000        2.6143600000        1.5094010000    0   0   0
Zn               3.6548710000        7.8430800000        1.5094010000    0   0   0
Zn               3.6692583513        1.2965238987        3.7813310753
Zn               3.6508348414        6.5424077755        3.8123650373
Zn               3.6444860450       -0.0040924278        6.1954905979
Zn               3.6444474557        5.2317557926        6.1943130545
Zn               8.5280310000       -0.0000000000        1.5094010000    0   0   0
Zn               8.5280310000        5.2287200000        1.5094010000    0   0   0
Zn               8.5315686822       -1.3082315592        3.8739460493
Zn               8.5456077114        3.9204552232        3.8715143180
Zn               8.5265580191       -2.6150378721        6.3435339778
Zn               8.4976700299        2.6142565331        6.3315436911
Zn               8.5280310000        2.6143600000        1.5094010000    0   0   0
Zn               8.5280310000        7.8430800000        1.5094010000    0   0   0
Zn               8.5456139759        1.3080138427        3.8714214350
Zn               8.5317485169        6.5360621854        3.8736843255
Zn               8.5190755417        0.0032044377        6.3341266287
Zn               8.5196461372        5.2246120162        6.3335477372
H                3.4732252792        4.8752277348       13.1160390184
H                3.4874136993        4.8168340752       10.6310030040
C                3.4667589526        3.9116236521       12.6025931136
C                3.4856990213        3.8892092372       11.2089799047
H                3.4806821849        2.7398350410       14.4245324891
C                3.4680527998        2.7182130825       13.3350762198
H                4.0027991196        3.4610603347        8.6978883611
C                3.5290526797        2.6620378041       10.5252641345
N                3.6011724944        2.6346802518        9.1335737396
C                3.4639732031        1.4964856370       12.6502317456
C                3.4829187856        1.4647882580       11.2576849367
H                3.4687765356        0.5542518338       13.2022626254
H                3.9944582148        1.7872245333        8.7297942325
H                3.4840060649        0.5137392852       10.7168346687



     Writing config-only to output data dir ./tmp/Zn100_3layer_aniline_relax.save/ :
     XML data file
     NEW-OLD atomic charge density approx. for the potential

     negative rho (up, down):  3.646E-03 0.000E+00

     total cpu time spent up to now is    86663.5 secs

     Self-consistent Calculation

     iteration #  1     ecut=    40.00 Ry     beta= 0.40
     Davidson diagonalization with overlap

---- Real-time Memory Report at c_bands before calling an iterative solver
           435 MiB given to the printing process from OS
             0 MiB allocation reported by mallinfo(arena+hblkhd)
         55998 MiB available memory on the node where the printing process lives
------------------
     ethr =  1.00E-06,  avg # of iterations =  5.0

     Threshold (ethr) on eigenvalues was too large:
     Diagonalizing with lowered threshold

     Davidson diagonalization with overlap

---- Real-time Memory Report at c_bands before calling an iterative solver
           435 MiB given to the printing process from OS
             0 MiB allocation reported by mallinfo(arena+hblkhd)
         56006 MiB available memory on the node where the printing process lives
------------------
     ethr =  7.24E-08,  avg # of iterations =  2.0

     negative rho (up, down):  3.657E-03 0.000E+00

     total cpu time spent up to now is    87150.4 secs

     total energy              =  -22293.84062534 Ry
     estimated scf accuracy    <       0.00072164 Ry

     iteration #  2     ecut=    40.00 Ry     beta= 0.40
     Davidson diagonalization with overlap

---- Real-time Memory Report at c_bands before calling an iterative solver
           435 MiB given to the printing process from OS
             0 MiB allocation reported by mallinfo(arena+hblkhd)
         55856 MiB available memory on the node where the printing process lives
------------------
