
     Program PWSCF v.7.3.1 starts on 12Apr2025 at  1:59:49 

     This program is part of the open-source Quantum ESPRESSO suite
     for quantum simulation of materials; please cite
         "P. Giannozzi et al., J. Phys.:Condens. Matter 21 395502 (2009);
         "P. Giannozzi et al., J. Phys.:Condens. Matter 29 465901 (2017);
         "P. Giannozzi et al., J. Chem. Phys. 152 154105 (2020);
          URL http://www.quantum-espresso.org", 
     in publications or presentations arising from this work. More details at
     http://www.quantum-espresso.org/quote

     Parallel version (MPI), running on    33 processors

     MPI processes distributed on     1 nodes
     13668 MiB available memory on the printing compute node when the environment starts

     Waiting for input...
     Reading input from standard input
Warning: card &CELL ignored
Warning: card   CELL_DOFREE = 'ALL' ignored
Warning: card / ignored

     Current dimensions of program PWSCF are:
     Max number of different atomic species (ntypx) = 10
     Max number of k-points (npk) =  40000
     Max angular momentum in pseudopotentials (lmaxx) =  4
     file C.pbe-n-kjpaw_psl.1.0.0.UPF: wavefunction(s)  2S 2P renormalized

     R & G space division:  proc/nbgrp/npool/nimage =      33
     Subspace diagonalization in iterative solution of the eigenvalue problem:
     one sub-group per band group will be used
     custom distributed-memory algorithm (size of sub-group:  5*  5 procs)


     Parallelization info
     --------------------
     sticks:   dense  smooth     PW     G-vecs:    dense   smooth      PW
     Min         228     130     35                36393    15714    2165
     Max         230     131     36                36401    15723    2173
     Sum        7555    4303   1159              1201061   518755   71619

     Using Slab Decomposition



     bravais-lattice index     =            0
     lattice parameter (alat)  =      19.7617  a.u.
     unit-cell volume          =   15176.5939 (a.u.)^3
     number of atoms/cell      =           65
     number of atomic types    =            4
     number of electrons       =      1002.00
     number of Kohn-Sham states=          601
     kinetic-energy cutoff     =      40.0000  Ry
     charge density cutoff     =     280.0000  Ry
     scf convergence threshold =      1.0E-06
     mixing beta               =       0.4000
     number of iterations used =            8  plain     mixing
     energy convergence thresh.=      5.0E-05
     force convergence thresh. =      1.0E-03
     Exchange-correlation= PBE
                           (   1   4   3   4   0   0   0)
     nstep                     =          300


     celldm(1)=  19.761696  celldm(2)=   0.000000  celldm(3)=   0.000000
     celldm(4)=   0.000000  celldm(5)=   0.000000  celldm(6)=   0.000000

     crystal axes: (cart. coord. in units of alat)
               a(1) = (   1.000000   0.000000   0.000000 )  
               a(2) = (  -0.500000   0.866025   0.000000 )  
               a(3) = (   0.000000   0.000000   2.270759 )  

     reciprocal axes: (cart. coord. in units 2 pi/alat)
               b(1) = (  1.000000  0.577350 -0.000000 )  
               b(2) = (  0.000000  1.154701  0.000000 )  
               b(3) = (  0.000000 -0.000000  0.440381 )  


     PseudoPot. # 1 for Zn read from file:
     /home/ys/qepseudo/SSSP_1.3.0_PBE_efficiency/Zn_pbe_v1.uspp.F.UPF
     MD5 check sum: df62231357ef9e81f77b2b3087fa5675
     Pseudo is Ultrasoft, Zval = 20.0
     Generated by new atomic code, or converted to UPF format
     Using radial grid of  943 points,  6 beta functions with: 
                l(1) =   0
                l(2) =   0
                l(3) =   1
                l(4) =   1
                l(5) =   2
                l(6) =   2
     Q(r) pseudized with  8 coefficients,  rinner =    1.100   1.100   1.100
                                                       1.100   1.100

     PseudoPot. # 2 for N  read from file:
     /home/ys/qepseudo/SSSP_1.3.0_PBE_efficiency/N.pbe-n-radius_5.UPF
     MD5 check sum: 16739722b17309cd8fe442a2ace49922
     Pseudo is Ultrasoft + core correction, Zval =  5.0
     Generated using "atomic" code by A. Dal Corso  v.5.1
     Using radial grid of 1085 points,  4 beta functions with: 
                l(1) =   0
                l(2) =   0
                l(3) =   1
                l(4) =   1
     Q(r) pseudized with 0 coefficients 


     PseudoPot. # 3 for C  read from file:
     /home/ys/qepseudo/SSSP_1.3.0_PBE_efficiency/C.pbe-n-kjpaw_psl.1.0.0.UPF
     MD5 check sum: 5d2aebdfa2cae82b50a7e79e9516da0f
     Pseudo is Projector augmented-wave + core cor, Zval =  4.0
     Generated using "atomic" code by A. Dal Corso  v.5.1
     Shape of augmentation charge: PSQ
     Using radial grid of 1073 points,  4 beta functions with: 
                l(1) =   0
                l(2) =   0
                l(3) =   1
                l(4) =   1
     Q(r) pseudized with 0 coefficients 


     PseudoPot. # 4 for H  read from file:
     /home/ys/qepseudo/SSSP_1.3.0_PBE_efficiency/H.pbe-rrkjus_psl.1.0.0.UPF
     MD5 check sum: f52b6d4d1c606e5624b1dc7b2218f220
     Pseudo is Ultrasoft, Zval =  1.0
     Generated using "atomic" code by A. Dal Corso  v.5.1
     Using radial grid of  929 points,  2 beta functions with: 
                l(1) =   0
                l(2) =   0
     Q(r) pseudized with 0 coefficients 


     atomic species   valence    mass     pseudopotential
     Zn               20.00    65.38000     Zn( 1.00)
     N                 5.00    14.00674     N ( 1.00)
     C                 4.00    12.01070     C ( 1.00)
     H                 1.00     1.00794     H ( 1.00)

     No symmetry found


                                    s                        frac. trans.

      isym =  1     identity                                     

 cryst.   s( 1) = (     1          0          0      )
                  (     0          1          0      )
                  (     0          0          1      )

 cart.    s( 1) = (  1.0000000  0.0000000  0.0000000 )
                  (  0.0000000  1.0000000  0.0000000 )
                  (  0.0000000  0.0000000  1.0000000 )


   Cartesian axes

     site n.     atom                  positions (alat units)
         1        Zn     tau(   1) = (   0.0000000   0.1443375   0.1164998  )
         2        Zn     tau(   2) = (   0.5000000   0.1443375   0.1164998  )
         3        Zn     tau(   3) = (  -0.0001247   0.1443602   0.5698142  )
         4        Zn     tau(   4) = (   0.4997731   0.1447344   0.5714014  )
         5        Zn     tau(   5) = (  -0.1250000   0.3608439   0.1164998  )
         6        Zn     tau(   6) = (   0.3750000   0.3608439   0.1164998  )
         7        Zn     tau(   7) = (  -0.1243530   0.3627783   0.5674518  )
         8        Zn     tau(   8) = (   0.3742068   0.3612985   0.5703291  )
         9        Zn     tau(   9) = (  -0.2500000   0.5773502   0.1164998  )
        10        Zn     tau(  10) = (   0.2500000   0.5773502   0.1164998  )
        11        Zn     tau(  11) = (  -0.2488717   0.5772906   0.5680268  )
        12        Zn     tau(  12) = (   0.2464242   0.5772451   0.5638059  )
        13        Zn     tau(  13) = (  -0.3750000   0.7938567   0.1164998  )
        14        Zn     tau(  14) = (   0.1250000   0.7938567   0.1164998  )
        15        Zn     tau(  15) = (  -0.3755974   0.7938045   0.5712712  )
        16        Zn     tau(  16) = (   0.1234213   0.7922226   0.5661334  )
        17        Zn     tau(  17) = (   0.2500000   0.1443375   0.1164998  )
        18        Zn     tau(  18) = (   0.7500000   0.1443375   0.1164998  )
        19        Zn     tau(  19) = (   0.2496267   0.1448266   0.5689536  )
        20        Zn     tau(  20) = (   0.7500063   0.1442554   0.5704697  )
        21        Zn     tau(  21) = (   0.1250000   0.3608439   0.1164998  )
        22        Zn     tau(  22) = (   0.6250000   0.3608439   0.1164998  )
        23        Zn     tau(  23) = (   0.1233666   0.3635494   0.5664985  )
        24        Zn     tau(  24) = (   0.6244117   0.3607458   0.5714120  )
        25        Zn     tau(  25) = (   0.0000000   0.5773502   0.1164998  )
        26        Zn     tau(  26) = (   0.5000000   0.5773502   0.1164998  )
        27        Zn     tau(  27) = (  -0.0012149   0.5780044   0.6192520  )
        28        Zn     tau(  28) = (   0.4990189   0.5771658   0.5687370  )
        29        Zn     tau(  29) = (  -0.1250000   0.7938567   0.1164998  )
        30        Zn     tau(  30) = (   0.3750000   0.7938567   0.1164998  )
        31        Zn     tau(  31) = (  -0.1245693   0.7925028   0.5676906  )
        32        Zn     tau(  32) = (   0.3747233   0.7936500   0.5691973  )
        33        Zn     tau(  33) = (   0.1247180   0.0715558   0.3418945  )
        34        Zn     tau(  34) = (   0.6246253   0.0723303   0.3435079  )
        35        Zn     tau(  35) = (  -0.0003648   0.2890862   0.3439340  )
        36        Zn     tau(  36) = (   0.4999808   0.2885071   0.3413763  )
        37        Zn     tau(  37) = (  -0.1243366   0.5057517   0.3445335  )
        38        Zn     tau(  38) = (   0.3749810   0.5048151   0.3420206  )
        39        Zn     tau(  39) = (  -0.2498281   0.7215613   0.3443827  )
        40        Zn     tau(  40) = (   0.2493369   0.7217522   0.3431647  )
        41        Zn     tau(  41) = (   0.3750704   0.0721993   0.3441547  )
        42        Zn     tau(  42) = (   0.8754222   0.0719969   0.3421325  )
        43        Zn     tau(  43) = (   0.2500197   0.2887334   0.3426998  )
        44        Zn     tau(  44) = (   0.7498021   0.2888291   0.3438649  )
        45        Zn     tau(  45) = (   0.1240110   0.5054067   0.3388775  )
        46        Zn     tau(  46) = (   0.6250875   0.5048385   0.3440914  )
        47        Zn     tau(  47) = (  -0.0003522   0.7207343   0.3437448  )
        48        Zn     tau(  48) = (   0.5003693   0.7221973   0.3413707  )
        49        C      tau(  49) = (   0.4810335   0.3266213   0.9591155  )
        50        C      tau(  50) = (   0.2355710   0.5878315   0.8881585  )
        51        C      tau(  51) = (   0.2416081   0.3243231   0.9267954  )
        52        C      tau(  52) = (   0.1221052   0.5173476   0.8815266  )
        53        C      tau(  53) = (   0.3563301   0.3935972   0.9339370  )
        54        C      tau(  54) = (   0.1259462   0.3848580   0.9004659  )
        55        C      tau(  55) = (   0.3509241   0.5260709   0.9146111  )
        56        N      tau(  56) = (   0.0069283   0.5768314   0.8403826  )
        57        H      tau(  57) = (   0.5030366   0.2584974   0.8819792  )
        58        H      tau(  58) = (   0.2340069   0.6906489   0.8704559  )
        59        H      tau(  59) = (   0.2423453   0.2208485   0.9418685  )
        60        H      tau(  60) = (   0.5606147   0.3946816   0.9644503  )
        61        H      tau(  61) = (  -0.0737562   0.5296145   0.8683495  )
        62        H      tau(  62) = (   0.0006451   0.6709923   0.8649606  )
        63        H      tau(  63) = (   0.0381641   0.3290911   0.8929746  )
        64        H      tau(  64) = (   0.4389091   0.5823824   0.9182712  )
        65        H      tau(  65) = (   0.4791862   0.2723052   1.0491464  )

     --------------------------------------------
     DFT-D3 Dispersion Correction (3-body terms):
     --------------------------------------------
       Reference C6 values for interpolation: 

         atom   Coordination number   C6
         H          0.912             6.05
         H          0.000            15.18
         C          0.000            98.23
         C          0.987            86.49
         C          1.998            58.72
         C          2.999            51.56
         C          3.984            36.41
         N          0.000            50.54
         N          0.994            44.25
         N          2.014            39.35
         N          2.990            31.16
         Zn         0.000           681.04
         Zn         1.942           306.91

       Values used:

         atom   Coordination number  R0_AB[au]  C6      C8
         Zn         7.175            3.053    306.91  23930.67
         Zn         7.167            3.053    306.91  23930.67
         Zn         7.115            3.053    306.91  23930.67
         Zn         7.077            3.053    306.91  23930.67
         Zn         7.124            3.053    306.91  23930.67
         Zn         7.201            3.053    306.91  23930.67
         Zn         7.244            3.053    306.91  23930.67
         Zn         7.096            3.053    306.91  23930.67
         Zn         7.114            3.053    306.91  23930.67
         Zn         7.215            3.053    306.91  23930.67
         Zn         7.235            3.053    306.91  23930.67
         Zn         7.297            3.053    306.91  23930.67
         Zn         7.186            3.053    306.91  23930.67
         Zn         7.145            3.053    306.91  23930.67
         Zn         7.067            3.053    306.91  23930.67
         Zn         7.268            3.053    306.91  23930.67
         Zn         7.161            3.053    306.91  23930.67
         Zn         7.151            3.053    306.91  23930.67
         Zn         7.135            3.053    306.91  23930.67
         Zn         7.085            3.053    306.91  23930.67
         Zn         7.202            3.053    306.91  23930.67
         Zn         7.162            3.053    306.91  23930.67
         Zn         7.219            3.053    306.91  23930.67
         Zn         7.082            3.053    306.91  23930.67
         Zn         7.204            3.053    306.91  23930.67
         Zn         7.174            3.053    306.91  23930.67
         Zn         6.173            3.053    306.91  23930.67
         Zn         7.132            3.053    306.91  23930.67
         Zn         7.123            3.053    306.91  23930.67
         Zn         7.188            3.053    306.91  23930.67
         Zn         7.239            3.053    306.91  23930.67
         Zn         7.122            3.053    306.91  23930.67
         Zn         9.124            3.053    306.91  23930.67
         Zn         9.124            3.053    306.91  23930.67
         Zn         9.179            3.053    306.91  23930.67
         Zn         9.095            3.053    306.91  23930.67
         Zn         8.735            3.053    306.91  23930.67
         Zn         9.177            3.053    306.91  23930.67
         Zn         9.153            3.053    306.91  23930.67
         Zn         9.222            3.053    306.91  23930.67
         Zn         9.128            3.053    306.91  23930.67
         Zn         9.125            3.053    306.91  23930.67
         Zn         9.150            3.053    306.91  23930.67
         Zn         9.110            3.053    306.91  23930.67
         Zn         8.842            3.053    306.91  23930.67
         Zn         9.124            3.053    306.91  23930.67
         Zn         8.759            3.053    306.91  23930.67
         Zn         9.130            3.053    306.91  23930.67
         C          4.047            2.750     36.58   1057.93
         C          3.183            2.750     50.24   1453.00
         C          3.174            2.750     50.32   1455.34
         C          3.198            2.750     50.08   1448.40
         C          3.141            2.750     50.61   1463.63
         C          3.179            2.750     50.28   1454.10
         C          3.176            2.750     50.30   1454.88
         N          3.728            2.478     31.16    687.50
         H          1.000            2.062      6.18     74.72
         H          1.006            2.062      6.18     74.66
         H          1.004            2.062      6.18     74.68
         H          0.999            2.062      6.18     74.73
         H          1.014            2.062      6.17     74.58
         H          1.014            2.062      6.17     74.57
         H          1.005            2.062      6.18     74.66
         H          1.004            2.062      6.18     74.67
         H          0.998            2.062      6.18     74.74

         Molecular C6 ( Ry / a.u.^6 ) =    839300.62


   Crystallographic axes

     site n.     atom                  positions (cryst. coord.)
         1        Zn     tau(   1) = (  0.0833333  0.1666666  0.0513044  )
         2        Zn     tau(   2) = (  0.5833333  0.1666666  0.0513044  )
         3        Zn     tau(   3) = (  0.0832217  0.1666927  0.2509356  )
         4        Zn     tau(   4) = (  0.5833356  0.1671249  0.2516346  )
         5        Zn     tau(   5) = (  0.0833333  0.4166666  0.0513044  )
         6        Zn     tau(   6) = (  0.5833333  0.4166666  0.0513044  )
         7        Zn     tau(   7) = (  0.0850971  0.4189002  0.2498953  )
         8        Zn     tau(   8) = (  0.5828026  0.4171916  0.2511623  )
         9        Zn     tau(   9) = (  0.0833333  0.6666666  0.0513044  )
        10        Zn     tau(  10) = (  0.5833333  0.6666666  0.0513044  )
        11        Zn     tau(  11) = (  0.0844272  0.6665977  0.2501484  )
        12        Zn     tau(  12) = (  0.5796968  0.6665453  0.2482897  )
        13        Zn     tau(  13) = (  0.0833333  0.9166667  0.0513044  )
        14        Zn     tau(  14) = (  0.5833334  0.9166667  0.0513044  )
        15        Zn     tau(  15) = (  0.0827058  0.9166065  0.2515772  )
        16        Zn     tau(  16) = (  0.5808112  0.9147799  0.2493147  )
        17        Zn     tau(  17) = (  0.3333333  0.1666666  0.0513044  )
        18        Zn     tau(  18) = (  0.8333334  0.1666666  0.0513044  )
        19        Zn     tau(  19) = (  0.3332424  0.1672313  0.2505566  )
        20        Zn     tau(  20) = (  0.8332922  0.1665718  0.2512242  )
        21        Zn     tau(  21) = (  0.3333333  0.4166666  0.0513044  )
        22        Zn     tau(  22) = (  0.8333333  0.4166666  0.0513044  )
        23        Zn     tau(  23) = (  0.3332619  0.4197907  0.2494754  )
        24        Zn     tau(  24) = (  0.8326884  0.4165534  0.2516392  )
        25        Zn     tau(  25) = (  0.3333333  0.6666666  0.0513044  )
        26        Zn     tau(  26) = (  0.8333333  0.6666666  0.0513044  )
        27        Zn     tau(  27) = (  0.3324961  0.6674220  0.2727071  )
        28        Zn     tau(  28) = (  0.8322458  0.6664537  0.2504612  )
        29        Zn     tau(  29) = (  0.3333334  0.9166667  0.0513044  )
        30        Zn     tau(  30) = (  0.8333334  0.9166667  0.0513044  )
        31        Zn     tau(  31) = (  0.3329824  0.9151034  0.2500004  )
        32        Zn     tau(  32) = (  0.8329373  0.9164281  0.2506639  )
        33        Zn     tau(  33) = (  0.1660308  0.0826256  0.1505640  )
        34        Zn     tau(  34) = (  0.6663852  0.0835199  0.1512745  )
        35        Zn     tau(  35) = (  0.1665392  0.3338080  0.1514622  )
        36        Zn     tau(  36) = (  0.6665505  0.3331393  0.1503358  )
        37        Zn     tau(  37) = (  0.1676593  0.5839918  0.1517262  )
        38        Zn     tau(  38) = (  0.6664362  0.5829103  0.1506195  )
        39        Zn     tau(  39) = (  0.1667655  0.8331872  0.1516597  )
        40        Zn     tau(  40) = (  0.6660407  0.8334076  0.1511234  )
        41        Zn     tau(  41) = (  0.4167547  0.0833686  0.1515593  )
        42        Zn     tau(  42) = (  0.9169896  0.0831349  0.1506688  )
        43        Zn     tau(  43) = (  0.4167200  0.3334006  0.1509186  )
        44        Zn     tau(  44) = (  0.9165576  0.3335111  0.1514317  )
        45        Zn     tau(  45) = (  0.4158077  0.5835934  0.1492354  )
        46        Zn     tau(  46) = (  0.9165561  0.5829373  0.1515315  )
        47        Zn     tau(  47) = (  0.4157639  0.8322323  0.1513788  )
        48        Zn     tau(  48) = (  0.9173301  0.8339216  0.1503333  )
        49        C      tau(  49) = (  0.6696084  0.3771498  0.4223767  )
        50        C      tau(  50) = (  0.5749556  0.6787694  0.3911285  )
        51        C      tau(  51) = (  0.4288561  0.3744960  0.4081435  )
        52        C      tau(  52) = (  0.4207959  0.5973815  0.3882079  )
        53        C      tau(  53) = (  0.5835736  0.4544869  0.4112885  )
        54        C      tau(  54) = (  0.3481441  0.4443958  0.3965484  )
        55        C      tau(  55) = (  0.6546513  0.6074544  0.4027777  )
        56        N      tau(  56) = (  0.3399620  0.6660675  0.3700889  )
        57        H      tau(  57) = (  0.6522802  0.2984871  0.3884072  )
        58        H      tau(  58) = (  0.6327532  0.7974927  0.3833326  )
        59        H      tau(  59) = (  0.3698523  0.2550139  0.4147814  )
        60        H      tau(  60) = (  0.7884843  0.4557391  0.4247260  )
        61        H      tau(  61) = (  0.2320168  0.6115461  0.3824050  )
        62        H      tau(  62) = (  0.3880428  0.7747952  0.3809126  )
        63        H      tau(  63) = (  0.2281650  0.3800017  0.3932494  )
        64        H      tau(  64) = (  0.7751478  0.6724773  0.4043896  )
        65        H      tau(  65) = (  0.6364016  0.3144309  0.4620246  )

     number of k points=     5  Marzari-Vanderbilt smearing, width (Ry)=  0.0200
                       cart. coord. in units 2pi/alat
        k(    1) = (   0.0000000   0.0000000   0.0000000), wk =   0.2222222
        k(    2) = (   0.0000000   0.3849002   0.0000000), wk =   0.4444444
        k(    3) = (   0.3333333   0.1924501   0.0000000), wk =   0.4444444
        k(    4) = (   0.3333333   0.5773503   0.0000000), wk =   0.4444444
        k(    5) = (   0.3333333  -0.1924501   0.0000000), wk =   0.4444444

                       cryst. coord.
        k(    1) = (   0.0000000   0.0000000   0.0000000), wk =   0.2222222
        k(    2) = (   0.0000000   0.3333333   0.0000000), wk =   0.4444444
        k(    3) = (   0.3333333   0.0000000   0.0000000), wk =   0.4444444
        k(    4) = (   0.3333333   0.3333333   0.0000000), wk =   0.4444444
        k(    5) = (   0.3333333  -0.3333333   0.0000000), wk =   0.4444444

     Dense  grid:  1201061 G-vectors     FFT dimensions: ( 108, 108, 240)

     Smooth grid:   518755 G-vectors     FFT dimensions: (  80,  80, 192)

     Dynamical RAM for                 wfc:      18.01 MB

     Dynamical RAM for     wfc (w. buffer):     108.07 MB

     Dynamical RAM for           str. fact:       2.22 MB

     Dynamical RAM for           local pot:       0.00 MB

     Dynamical RAM for          nlocal pot:      28.35 MB

     Dynamical RAM for                qrad:       5.37 MB

     Dynamical RAM for          rho,v,vnew:       3.80 MB

     Dynamical RAM for               rhoin:       1.27 MB

     Dynamical RAM for            rho*nmix:       8.89 MB

     Dynamical RAM for           G-vectors:       2.20 MB

     Dynamical RAM for          h,s,v(r/c):       2.64 MB

     Dynamical RAM for          <psi|beta>:       8.68 MB

     Dynamical RAM for                 psi:      36.02 MB

     Dynamical RAM for                hpsi:      36.02 MB

     Dynamical RAM for                spsi:      36.02 MB

     Dynamical RAM for      wfcinit/wfcrot:      49.98 MB

     Dynamical RAM for           addusdens:     129.95 MB

     Dynamical RAM for          addusforce:     182.62 MB

     Dynamical RAM for         addusstress:     111.63 MB

     Estimated static dynamical RAM per process >     157.62 MB

     Estimated max dynamical RAM per process >     349.13 MB

     Estimated total dynamical RAM >      11.25 GB

     Initial potential from superposition of free atoms

     starting charge    1001.9928, renormalised to    1002.0000

     negative rho (up, down):  3.387E-03 0.000E+00
     Starting wfcs are  665 randomized atomic wfcs
     Checking if some PAW data can be deallocated... 
       PAW data deallocated on   29 nodes for type:  3

     total cpu time spent up to now is       68.6 secs

     Self-consistent Calculation

     iteration #  1     ecut=    40.00 Ry     beta= 0.40
     Davidson diagonalization with overlap

---- Real-time Memory Report at c_bands before calling an iterative solver
           234 MiB given to the printing process from OS
             0 MiB allocation reported by mallinfo(arena+hblkhd)
          7877 MiB available memory on the node where the printing process lives
------------------
     ethr =  1.00E-02,  avg # of iterations =  8.2

     negative rho (up, down):  3.979E-03 0.000E+00

     total cpu time spent up to now is      342.1 secs

     total energy              =  -22310.07850112 Ry
     estimated scf accuracy    <      10.89268931 Ry

     iteration #  2     ecut=    40.00 Ry     beta= 0.40
     Davidson diagonalization with overlap

---- Real-time Memory Report at c_bands before calling an iterative solver
           327 MiB given to the printing process from OS
             0 MiB allocation reported by mallinfo(arena+hblkhd)
          6589 MiB available memory on the node where the printing process lives
------------------
     ethr =  1.09E-03,  avg # of iterations =  9.0

     negative rho (up, down):  5.029E-03 0.000E+00

     total cpu time spent up to now is      613.2 secs

     total energy              =  -22295.90083757 Ry
     estimated scf accuracy    <     274.23744893 Ry

     iteration #  3     ecut=    40.00 Ry     beta= 0.40
     Davidson diagonalization with overlap

---- Real-time Memory Report at c_bands before calling an iterative solver
           341 MiB given to the printing process from OS
             0 MiB allocation reported by mallinfo(arena+hblkhd)
          6569 MiB available memory on the node where the printing process lives
------------------
     ethr =  1.09E-03,  avg # of iterations =  6.6

     negative rho (up, down):  5.142E-03 0.000E+00

     total cpu time spent up to now is      911.7 secs

     total energy              =  -22313.41509799 Ry
     estimated scf accuracy    <      20.23820049 Ry

     iteration #  4     ecut=    40.00 Ry     beta= 0.40
     Davidson diagonalization with overlap

---- Real-time Memory Report at c_bands before calling an iterative solver
           342 MiB given to the printing process from OS
             0 MiB allocation reported by mallinfo(arena+hblkhd)
          6537 MiB available memory on the node where the printing process lives
------------------
     ethr =  1.09E-03,  avg # of iterations =  5.6

     negative rho (up, down):  5.151E-03 0.000E+00

     total cpu time spent up to now is     1141.2 secs

     total energy              =  -22314.90398270 Ry
     estimated scf accuracy    <       1.87136903 Ry

     iteration #  5     ecut=    40.00 Ry     beta= 0.40
     Davidson diagonalization with overlap

---- Real-time Memory Report at c_bands before calling an iterative solver
           342 MiB given to the printing process from OS
             0 MiB allocation reported by mallinfo(arena+hblkhd)
          6515 MiB available memory on the node where the printing process lives
------------------
     ethr =  1.87E-04,  avg # of iterations =  4.2

     negative rho (up, down):  5.211E-03 0.000E+00

     total cpu time spent up to now is     1362.7 secs

     total energy              =  -22315.01301199 Ry
     estimated scf accuracy    <       0.25463226 Ry

     iteration #  6     ecut=    40.00 Ry     beta= 0.40
     Davidson diagonalization with overlap

---- Real-time Memory Report at c_bands before calling an iterative solver
           343 MiB given to the printing process from OS
             0 MiB allocation reported by mallinfo(arena+hblkhd)
          6496 MiB available memory on the node where the printing process lives
------------------
     ethr =  2.54E-05,  avg # of iterations = 13.0

     negative rho (up, down):  5.332E-03 0.000E+00

     total cpu time spent up to now is     1623.2 secs

     total energy              =  -22315.00922386 Ry
     estimated scf accuracy    <       0.14066554 Ry

     iteration #  7     ecut=    40.00 Ry     beta= 0.40
     Davidson diagonalization with overlap

---- Real-time Memory Report at c_bands before calling an iterative solver
           343 MiB given to the printing process from OS
             0 MiB allocation reported by mallinfo(arena+hblkhd)
          6446 MiB available memory on the node where the printing process lives
------------------
     ethr =  1.40E-05,  avg # of iterations =  2.8

     negative rho (up, down):  5.397E-03 0.000E+00

     total cpu time spent up to now is     1840.2 secs

     total energy              =  -22315.01025482 Ry
     estimated scf accuracy    <       0.04245190 Ry

     iteration #  8     ecut=    40.00 Ry     beta= 0.40
     Davidson diagonalization with overlap

---- Real-time Memory Report at c_bands before calling an iterative solver
           344 MiB given to the printing process from OS
             0 MiB allocation reported by mallinfo(arena+hblkhd)
          6441 MiB available memory on the node where the printing process lives
------------------
     ethr =  4.24E-06,  avg # of iterations = 15.4

     negative rho (up, down):  5.428E-03 0.000E+00

     total cpu time spent up to now is     2087.8 secs

     total energy              =  -22315.00929033 Ry
     estimated scf accuracy    <       0.02129048 Ry

     iteration #  9     ecut=    40.00 Ry     beta= 0.40
     Davidson diagonalization with overlap

---- Real-time Memory Report at c_bands before calling an iterative solver
           345 MiB given to the printing process from OS
             0 MiB allocation reported by mallinfo(arena+hblkhd)
          6422 MiB available memory on the node where the printing process lives
------------------
     ethr =  2.12E-06,  avg # of iterations =  6.0

     negative rho (up, down):  5.450E-03 0.000E+00

     total cpu time spent up to now is     2309.0 secs

     total energy              =  -22315.00795846 Ry
     estimated scf accuracy    <       0.01474164 Ry

     iteration # 10     ecut=    40.00 Ry     beta= 0.40
     Davidson diagonalization with overlap

---- Real-time Memory Report at c_bands before calling an iterative solver
           345 MiB given to the printing process from OS
             0 MiB allocation reported by mallinfo(arena+hblkhd)
          6405 MiB available memory on the node where the printing process lives
------------------
     c_bands:  2 eigenvalues not converged
     c_bands:  2 eigenvalues not converged
     c_bands:  1 eigenvalues not converged
     ethr =  1.47E-06,  avg # of iterations = 16.8

     negative rho (up, down):  5.468E-03 0.000E+00

     total cpu time spent up to now is     2552.9 secs

     total energy              =  -22315.00640050 Ry
     estimated scf accuracy    <       0.00972889 Ry

     iteration # 11     ecut=    40.00 Ry     beta= 0.40
     Davidson diagonalization with overlap

---- Real-time Memory Report at c_bands before calling an iterative solver
           346 MiB given to the printing process from OS
             0 MiB allocation reported by mallinfo(arena+hblkhd)
          6406 MiB available memory on the node where the printing process lives
------------------
     c_bands:  2 eigenvalues not converged
     c_bands:  3 eigenvalues not converged
     ethr =  9.71E-07,  avg # of iterations = 14.4

     negative rho (up, down):  5.499E-03 0.000E+00

     total cpu time spent up to now is     2793.4 secs

     total energy              =  -22315.00396281 Ry
     estimated scf accuracy    <       0.00500169 Ry

     iteration # 12     ecut=    40.00 Ry     beta= 0.40
     Davidson diagonalization with overlap

---- Real-time Memory Report at c_bands before calling an iterative solver
           346 MiB given to the printing process from OS
             0 MiB allocation reported by mallinfo(arena+hblkhd)
          6401 MiB available memory on the node where the printing process lives
------------------
     ethr =  4.99E-07,  avg # of iterations = 13.6

     negative rho (up, down):  5.497E-03 0.000E+00

     total cpu time spent up to now is     3061.2 secs

     total energy              =  -22315.00485047 Ry
     estimated scf accuracy    <       0.00006797 Ry

     iteration # 13     ecut=    40.00 Ry     beta= 0.40
     Davidson diagonalization with overlap

---- Real-time Memory Report at c_bands before calling an iterative solver
           346 MiB given to the printing process from OS
             0 MiB allocation reported by mallinfo(arena+hblkhd)
          6400 MiB available memory on the node where the printing process lives
------------------
     ethr =  6.78E-09,  avg # of iterations =  3.0

     negative rho (up, down):  5.497E-03 0.000E+00

     total cpu time spent up to now is     3282.3 secs

     total energy              =  -22315.00485472 Ry
     estimated scf accuracy    <       0.00002254 Ry

     iteration # 14     ecut=    40.00 Ry     beta= 0.40
     Davidson diagonalization with overlap

---- Real-time Memory Report at c_bands before calling an iterative solver
           346 MiB given to the printing process from OS
             0 MiB allocation reported by mallinfo(arena+hblkhd)
          6405 MiB available memory on the node where the printing process lives
------------------
     ethr =  2.25E-09,  avg # of iterations =  2.0

     negative rho (up, down):  5.496E-03 0.000E+00

     total cpu time spent up to now is     3496.9 secs

     total energy              =  -22315.00485682 Ry
     estimated scf accuracy    <       0.00002483 Ry

     iteration # 15     ecut=    40.00 Ry     beta= 0.40
     Davidson diagonalization with overlap

---- Real-time Memory Report at c_bands before calling an iterative solver
           346 MiB given to the printing process from OS
             0 MiB allocation reported by mallinfo(arena+hblkhd)
          6382 MiB available memory on the node where the printing process lives
------------------
     ethr =  2.25E-09,  avg # of iterations =  1.8

     negative rho (up, down):  5.497E-03 0.000E+00

     total cpu time spent up to now is     3701.6 secs

     total energy              =  -22315.00485865 Ry
     estimated scf accuracy    <       0.00001450 Ry

     iteration # 16     ecut=    40.00 Ry     beta= 0.40
     Davidson diagonalization with overlap

---- Real-time Memory Report at c_bands before calling an iterative solver
           346 MiB given to the printing process from OS
             0 MiB allocation reported by mallinfo(arena+hblkhd)
          6384 MiB available memory on the node where the printing process lives
------------------
     ethr =  1.45E-09,  avg # of iterations =  2.0

     negative rho (up, down):  5.497E-03 0.000E+00

     total cpu time spent up to now is     3913.2 secs

     total energy              =  -22315.00486018 Ry
     estimated scf accuracy    <       0.00000184 Ry

     iteration # 17     ecut=    40.00 Ry     beta= 0.40
     Davidson diagonalization with overlap

---- Real-time Memory Report at c_bands before calling an iterative solver
           346 MiB given to the printing process from OS
             0 MiB allocation reported by mallinfo(arena+hblkhd)
          6390 MiB available memory on the node where the printing process lives
------------------
     ethr =  1.83E-10,  avg # of iterations =  2.0

     negative rho (up, down):  5.497E-03 0.000E+00

     total cpu time spent up to now is     4125.2 secs

     End of self-consistent calculation

          k = 0.0000 0.0000 0.0000 ( 64855 PWs)   bands (ev):

  -124.5633-124.5623-124.5620-124.5614-124.5607-124.5596-124.5587-124.5581
  -124.5579-124.5573-124.5571-124.5567-124.5559-124.5284-124.5184-124.5156
  -124.2475-124.2472-124.2454-124.2452-124.2447-124.2443-124.2437-124.2436
  -124.2427-124.2424-124.2421-124.2413-124.2407-124.2400-124.2368-124.2364
  -124.2355-124.2352-124.2350-124.2349-124.2342-124.2337-124.2335-124.2333
  -124.2333-124.2297-124.2247-124.2244-124.2237-124.2230-124.2221-124.0265
   -78.7321 -78.7312 -78.7303 -78.7256 -78.7250 -78.7242 -78.7218 -78.7216
   -78.7203 -78.7153 -78.7144 -78.7135 -78.7129 -78.7129 -78.7119 -78.7099
   -78.7091 -78.7087 -78.7079 -78.7067 -78.7034 -78.7031 -78.7030 -78.7025
   -78.7022 -78.7015 -78.7012 -78.7008 -78.7004 -78.6992 -78.6981 -78.6977
   -78.6975 -78.6967 -78.6963 -78.6962 -78.6957 -78.6954 -78.6946 -78.6851
   -78.6810 -78.6748 -78.6692 -78.6688 -78.6657 -78.6626 -78.6579 -78.6550
   -78.4084 -78.4076 -78.4070 -78.4055 -78.4031 -78.4023 -78.4020 -78.4020
   -78.4016 -78.4011 -78.4008 -78.4006 -78.4001 -78.3998 -78.3994 -78.3991
   -78.3985 -78.3985 -78.3982 -78.3982 -78.3977 -78.3974 -78.3970 -78.3965
   -78.3960 -78.3947 -78.3945 -78.3941 -78.3930 -78.3926 -78.3924 -78.3918
   -78.3917 -78.3911 -78.3910 -78.3909 -78.3907 -78.3906 -78.3901 -78.3900
   -78.3894 -78.3892 -78.3891 -78.3889 -78.3885 -78.3883 -78.3882 -78.3880
   -78.3872 -78.3872 -78.3871 -78.3866 -78.3862 -78.3859 -78.3856 -78.3852
   -78.3844 -78.3842 -78.3830 -78.3830 -78.3819 -78.3814 -78.3811 -78.3810
   -78.3802 -78.3802 -78.3794 -78.3793 -78.3790 -78.3788 -78.3778 -78.3774
   -78.3764 -78.3762 -78.3758 -78.3754 -78.3737 -78.3727 -78.3722 -78.3719
   -78.3715 -78.3704 -78.3697 -78.3692 -78.3682 -78.3676 -78.3674 -78.3656
   -78.3639 -78.3630 -78.3605 -78.3594 -78.3570 -78.1920 -78.1918 -78.1640
   -17.8378 -15.4314 -13.2078 -12.8377 -11.0584  -9.6346  -8.8180  -8.1847
    -7.3923  -7.3466  -6.7944  -6.6357  -6.6338  -6.6283  -6.6260  -6.6223
    -6.5667  -6.5239  -6.4239  -6.4235  -6.4196  -6.1948  -6.1936  -6.1930
    -6.0872  -6.0755  -6.0738  -6.0613  -6.0606  -6.0588  -6.0497  -6.0460
    -6.0405  -5.9955  -5.9924  -5.9907  -5.9902  -5.9890  -5.9882  -5.9866
    -5.9859  -5.9851  -5.9644  -5.9602  -5.9470  -5.9410  -5.9394  -5.9382
    -5.9373  -5.9360  -5.9288  -5.9277  -5.9272  -5.9096  -5.8178  -5.8137
    -5.8065  -5.7961  -5.7876  -5.7831  -5.7651  -5.7464  -5.7399  -5.7229
    -5.7191  -5.7172  -5.7161  -5.7050  -5.7044  -5.7011  -5.6752  -5.6526
    -5.6420  -5.6413  -5.6405  -5.6329  -5.6322  -5.6305  -5.6303  -5.6265
    -5.6257  -5.6230  -5.6216  -5.6202  -5.6172  -5.6099  -5.6091  -5.6040
    -5.5977  -5.5883  -5.5821  -5.5731  -5.5681  -5.5672  -5.5624  -5.5604
    -5.5301  -5.5275  -5.5265  -5.5148  -5.5097  -5.4959  -5.4943  -5.4771
    -5.4665  -5.4643  -5.4107  -5.4102  -5.4094  -5.4082  -5.4058  -5.4014
    -5.3249  -5.3238  -5.3231  -5.3214  -5.3095  -5.3083  -5.2953  -5.2785
    -5.2777  -5.2770  -5.2631  -5.2628  -5.2611  -5.2591  -5.2563  -5.2561
    -5.2535  -5.2444  -5.2435  -5.2403  -5.2383  -5.2373  -5.2351  -5.2330
    -5.2314  -5.2289  -5.2259  -5.2225  -5.2195  -5.2188  -5.2167  -5.2129
    -5.2105  -5.1902  -5.1866  -5.1814  -5.1706  -5.1696  -5.1695  -5.1664
    -5.1654  -5.1653  -5.1628  -5.1602  -5.1581  -5.1557  -5.1532  -5.1519
    -5.1464  -5.1457  -5.1433  -5.1429  -5.1357  -5.1336  -5.1194  -5.1190
    -5.1169  -5.1124  -5.1120  -5.1084  -5.0917  -5.0878  -5.0851  -5.0822
    -5.0795  -5.0592  -5.0472  -5.0460  -5.0140  -4.9680  -4.9606  -4.9600
    -4.9578  -4.9555  -4.9547  -4.9541  -4.9538  -4.9535  -4.9493  -4.9475
    -4.9463  -4.9412  -4.9370  -4.9354  -4.9215  -4.9210  -4.9110  -4.8938
    -4.8917  -4.8837  -4.8817  -4.8802  -4.8781  -4.8777  -4.8770  -4.8732
    -4.8635  -4.8633  -4.8624  -4.8493  -4.8401  -4.8383  -4.8312  -4.8304
    -4.8239  -4.8218  -4.8179  -4.8171  -4.8137  -4.8120  -4.8117  -4.8066
    -4.7966  -4.7879  -4.7840  -4.7739  -4.7734  -4.7709  -4.7676  -4.7671
    -4.7667  -4.7647  -4.7624  -4.7605  -4.7597  -4.7594  -4.7455  -4.7449
    -4.7255  -4.7177  -4.7028  -4.6952  -4.6951  -4.6928  -4.6925  -4.6923
    -4.6907  -4.6880  -4.6842  -4.6819  -4.6770  -4.6696  -4.5696  -4.5190
    -4.4518  -4.4514  -4.4500  -4.4450  -4.4439  -4.4436  -4.2165  -3.8004
    -3.7899  -3.7868  -3.7825  -3.7735  -3.5313  -3.4626  -2.9225  -2.6682
    -2.4833  -2.3610  -1.6405  -1.6382  -1.6261  -1.6128  -1.6077  -1.5571
    -1.3262  -1.2806  -1.2776  -1.2720  -1.2259  -1.1421  -0.6645  -0.3844
    -0.3833  -0.3716  -0.1668  -0.0538  -0.0514  -0.0203  -0.0119  -0.0018
     0.0687   0.2476   0.4249   0.4279   0.4492   0.8137   0.8547   0.8633
     2.1205   2.1475   2.2404   2.2532   2.2608   2.2654   2.2676   2.2743
     2.2826   2.3242   2.3513   2.4652   2.9205   2.9220   3.0007   3.8992
     3.9642   3.9846   4.0459   4.3615   4.5672   4.8366   4.8469   4.8806
     5.1072   5.3982   5.4566   5.4956   5.5211   5.6667   5.7188   5.8392
     5.8884   5.8940   5.9094   5.9135   5.9191   5.9297   5.9630   5.9861
     6.0453   6.0600   6.0624   6.0661   6.0856   6.0988   6.1413   6.1457
     6.1726   6.2313   6.3298   6.4569   6.4960   6.6142   6.6353   6.7781
     6.7933   7.1204   7.1802   7.2059   7.3417   7.3515   7.3957   7.4105
     7.4463   7.4686   7.5846   7.5945   7.6107   7.6163   7.6183   7.6338
     7.6699   7.7147   7.7724   7.7877   7.8007   7.8167   7.8281   7.8968
     7.9484   8.0395   8.1322   8.1570   8.2031   8.2439   8.2639   8.3110
     8.3505   8.3585   8.4275   8.4876   8.5445   8.6671   8.7426   8.8105
     8.8610   8.9177   8.9402   8.9868   9.0553   9.1028   9.1520   9.1718
     9.3376

     occupation numbers 
     1.0000   1.0000   1.0000   1.0000   1.0000   1.0000   1.0000   1.0000
     1.0000   1.0000   1.0000   1.0000   1.0000   1.0000   1.0000   1.0000
     1.0000   1.0000   1.0000   1.0000   1.0000   1.0000   1.0000   1.0000
     1.0000   1.0000   1.0000   1.0000   1.0000   1.0000   1.0000   1.0000
     1.0000   1.0000   1.0000   1.0000   1.0000   1.0000   1.0000   1.0000
     1.0000   1.0000   1.0000   1.0000   1.0000   1.0000   1.0000   1.0000
     1.0000   1.0000   1.0000   1.0000   1.0000   1.0000   1.0000   1.0000
     1.0000   1.0000   1.0000   1.0000   1.0000   1.0000   1.0000   1.0000
     1.0000   1.0000   1.0000   1.0000   1.0000   1.0000   1.0000   1.0000
     1.0000   1.0000   1.0000   1.0000   1.0000   1.0000   1.0000   1.0000
     1.0000   1.0000   1.0000   1.0000   1.0000   1.0000   1.0000   1.0000
     1.0000   1.0000   1.0000   1.0000   1.0000   1.0000   1.0000   1.0000
     1.0000   1.0000   1.0000   1.0000   1.0000   1.0000   1.0000   1.0000
     1.0000   1.0000   1.0000   1.0000   1.0000   1.0000   1.0000   1.0000
     1.0000   1.0000   1.0000   1.0000   1.0000   1.0000   1.0000   1.0000
     1.0000   1.0000   1.0000   1.0000   1.0000   1.0000   1.0000   1.0000
     1.0000   1.0000   1.0000   1.0000   1.0000   1.0000   1.0000   1.0000
     1.0000   1.0000   1.0000   1.0000   1.0000   1.0000   1.0000   1.0000
     1.0000   1.0000   1.0000   1.0000   1.0000   1.0000   1.0000   1.0000
     1.0000   1.0000   1.0000   1.0000   1.0000   1.0000   1.0000   1.0000
     1.0000   1.0000   1.0000   1.0000   1.0000   1.0000   1.0000   1.0000
     1.0000   1.0000   1.0000   1.0000   1.0000   1.0000   1.0000   1.0000
     1.0000   1.0000   1.0000   1.0000   1.0000   1.0000   1.0000   1.0000
     1.0000   1.0000   1.0000   1.0000   1.0000   1.0000   1.0000   1.0000
     1.0000   1.0000   1.0000   1.0000   1.0000   1.0000   1.0000   1.0000
     1.0000   1.0000   1.0000   1.0000   1.0000   1.0000   1.0000   1.0000
     1.0000   1.0000   1.0000   1.0000   1.0000   1.0000   1.0000   1.0000
     1.0000   1.0000   1.0000   1.0000   1.0000   1.0000   1.0000   1.0000
     1.0000   1.0000   1.0000   1.0000   1.0000   1.0000   1.0000   1.0000
     1.0000   1.0000   1.0000   1.0000   1.0000   1.0000   1.0000   1.0000
     1.0000   1.0000   1.0000   1.0000   1.0000   1.0000   1.0000   1.0000
     1.0000   1.0000   1.0000   1.0000   1.0000   1.0000   1.0000   1.0000
     1.0000   1.0000   1.0000   1.0000   1.0000   1.0000   1.0000   1.0000
     1.0000   1.0000   1.0000   1.0000   1.0000   1.0000   1.0000   1.0000
     1.0000   1.0000   1.0000   1.0000   1.0000   1.0000   1.0000   1.0000
     1.0000   1.0000   1.0000   1.0000   1.0000   1.0000   1.0000   1.0000
     1.0000   1.0000   1.0000   1.0000   1.0000   1.0000   1.0000   1.0000
     1.0000   1.0000   1.0000   1.0000   1.0000   1.0000   1.0000   1.0000
     1.0000   1.0000   1.0000   1.0000   1.0000   1.0000   1.0000   1.0000
     1.0000   1.0000   1.0000   1.0000   1.0000   1.0000   1.0000   1.0000
     1.0000   1.0000   1.0000   1.0000   1.0000   1.0000   1.0000   1.0000
     1.0000   1.0000   1.0000   1.0000   1.0000   1.0000   1.0000   1.0000
     1.0000   1.0000   1.0000   1.0000   1.0000   1.0000   1.0000   1.0000
     1.0000   1.0000   1.0000   1.0000   1.0000   1.0000   1.0000   1.0000
     1.0000   1.0000   1.0000   1.0000   1.0000   1.0000   1.0000   1.0000
     1.0000   1.0000   1.0000   1.0000   1.0000   1.0000   1.0000   1.0000
     1.0000   1.0000   1.0000   1.0000   1.0000   1.0000   1.0000   1.0000
     1.0000   1.0000   1.0000   1.0000   1.0000   1.0000   1.0000   1.0000
     1.0000   1.0000   1.0000   1.0000   1.0000   1.0000   1.0000   1.0000
     1.0000   1.0000   1.0000   1.0000   1.0000   1.0000   1.0000   1.0000
     1.0000   1.0000   1.0000   1.0000   1.0000   1.0000   1.0000   1.0000
     1.0000   1.0000   1.0000   1.0000   1.0000   1.0000   1.0000   1.0000
     1.0000   1.0000   1.0000   1.0000   1.0000   1.0000   1.0000   1.0000
     1.0000   1.0000   1.0000   1.0000   1.0000   1.0000   1.0000   1.0000
     1.0000   1.0000   1.0000   1.0000   1.0000   1.0000   1.0000   1.0000
     1.0000   1.0000   1.0000   1.0000   1.0000   1.0000   1.0000   1.0000
     1.0000   1.0000   1.0000   1.0000   1.0000   1.0000   1.0000   1.0000
     1.0000   1.0000   1.0000   1.0000   1.0000   1.0000   1.0000   1.0000
     1.0000   1.0000   1.0000   1.0000   1.0000   1.0000   1.0000   1.0000
     1.0000   1.0000   1.0000   1.0000   1.0000   1.0000   1.0000   1.0000
     1.0000   1.0000   1.0000   1.0000   1.0000   1.0000   1.0000   1.0000
     1.0000   1.0000   1.0000   1.0000   1.0000   1.0000   1.0000   1.0000
     0.5705   0.4966   0.2712   0.2454   0.2310   0.2226   0.2186   0.2066
     0.1925   0.1316   0.1004   0.0263   0.0000   0.0000   0.0000   0.0000
     0.0000   0.0000   0.0000   0.0000   0.0000   0.0000   0.0000   0.0000
     0.0000   0.0000   0.0000   0.0000   0.0000   0.0000   0.0000   0.0000
     0.0000   0.0000   0.0000   0.0000   0.0000   0.0000   0.0000   0.0000
     0.0000   0.0000   0.0000   0.0000   0.0000   0.0000   0.0000   0.0000
     0.0000   0.0000   0.0000   0.0000   0.0000   0.0000   0.0000   0.0000
     0.0000   0.0000   0.0000   0.0000   0.0000   0.0000   0.0000   0.0000
     0.0000   0.0000   0.0000   0.0000   0.0000   0.0000   0.0000   0.0000
     0.0000   0.0000   0.0000   0.0000   0.0000   0.0000   0.0000   0.0000
     0.0000   0.0000   0.0000   0.0000   0.0000   0.0000   0.0000   0.0000
     0.0000   0.0000   0.0000   0.0000   0.0000   0.0000   0.0000   0.0000
     0.0000   0.0000   0.0000   0.0000   0.0000   0.0000   0.0000   0.0000
     0.0000

          k = 0.0000 0.3849 0.0000 ( 64840 PWs)   bands (ev):

  -124.5632-124.5624-124.5619-124.5614-124.5606-124.5596-124.5586-124.5582
  -124.5578-124.5573-124.5572-124.5567-124.5559-124.5284-124.5184-124.5156
  -124.2475-124.2472-124.2454-124.2452-124.2447-124.2443-124.2437-124.2436
  -124.2427-124.2424-124.2422-124.2413-124.2407-124.2400-124.2368-124.2364
  -124.2355-124.2352-124.2350-124.2349-124.2342-124.2337-124.2335-124.2333
  -124.2332-124.2297-124.2247-124.2244-124.2237-124.2230-124.2221-124.0265
   -78.7311 -78.7298 -78.7289 -78.7263 -78.7257 -78.7250 -78.7240 -78.7212
   -78.7210 -78.7184 -78.7161 -78.7141 -78.7126 -78.7121 -78.7096 -78.7093
   -78.7084 -78.7074 -78.7060 -78.7054 -78.7042 -78.7031 -78.7030 -78.7025
   -78.7023 -78.7016 -78.7014 -78.7007 -78.7004 -78.6993 -78.6991 -78.6981
   -78.6977 -78.6968 -78.6962 -78.6961 -78.6956 -78.6954 -78.6947 -78.6848
   -78.6811 -78.6747 -78.6692 -78.6688 -78.6657 -78.6627 -78.6579 -78.6550
   -78.4073 -78.4058 -78.4057 -78.4048 -78.4035 -78.4030 -78.4023 -78.4022
   -78.4018 -78.4016 -78.4011 -78.4008 -78.4008 -78.3998 -78.3994 -78.3990
   -78.3984 -78.3982 -78.3980 -78.3975 -78.3972 -78.3971 -78.3966 -78.3963
   -78.3963 -78.3960 -78.3947 -78.3942 -78.3941 -78.3938 -78.3933 -78.3927
   -78.3924 -78.3922 -78.3917 -78.3915 -78.3911 -78.3911 -78.3908 -78.3907
   -78.3905 -78.3901 -78.3899 -78.3897 -78.3894 -78.3889 -78.3882 -78.3880
   -78.3872 -78.3867 -78.3865 -78.3856 -78.3853 -78.3849 -78.3849 -78.3842
   -78.3831 -78.3820 -78.3820 -78.3818 -78.3815 -78.3814 -78.3807 -78.3802
   -78.3799 -78.3795 -78.3794 -78.3788 -78.3788 -78.3781 -78.3778 -78.3775
   -78.3770 -78.3767 -78.3752 -78.3741 -78.3740 -78.3730 -78.3730 -78.3726
   -78.3712 -78.3703 -78.3701 -78.3700 -78.3696 -78.3681 -78.3659 -78.3648
   -78.3640 -78.3620 -78.3611 -78.3596 -78.3583 -78.1920 -78.1918 -78.1640
   -17.8378 -15.4314 -13.2077 -12.8377 -11.0586  -9.6345  -8.8174  -7.9759
    -7.3934  -7.3801  -7.3460  -6.8635  -6.8360  -6.6193  -6.4226  -6.3966
    -6.3578  -6.3492  -6.3476  -6.3043  -6.2986  -6.2062  -6.1835  -6.1601
    -6.1491  -6.1488  -6.1392  -6.1375  -6.0716  -6.0590  -6.0559  -6.0524
    -6.0451  -6.0441  -6.0396  -6.0363  -6.0240  -6.0162  -6.0129  -5.9944
    -5.9906  -5.9880  -5.9862  -5.9766  -5.9746  -5.9645  -5.9526  -5.9502
    -5.9318  -5.9276  -5.9155  -5.9062  -5.8872  -5.8857  -5.8813  -5.8766
    -5.8525  -5.8452  -5.8154  -5.7838  -5.7690  -5.7646  -5.7586  -5.7421
    -5.7281  -5.7244  -5.7178  -5.7164  -5.7138  -5.7124  -5.7015  -5.6928
    -5.6876  -5.6822  -5.6799  -5.6707  -5.6569  -5.6544  -5.6514  -5.6453
    -5.6417  -5.6400  -5.6330  -5.6232  -5.6194  -5.6094  -5.6024  -5.5922
    -5.5732  -5.5692  -5.5634  -5.5606  -5.5548  -5.5491  -5.5362  -5.5330
    -5.5214  -5.5178  -5.5040  -5.4997  -5.4914  -5.4901  -5.4868  -5.4791
    -5.4698  -5.4678  -5.4359  -5.4243  -5.3919  -5.3844  -5.3836  -5.3784
    -5.3732  -5.3689  -5.3603  -5.3573  -5.3513  -5.3467  -5.3333  -5.3318
    -5.3306  -5.3276  -5.3249  -5.3202  -5.3125  -5.3094  -5.3004  -5.2960
    -5.2906  -5.2875  -5.2773  -5.2758  -5.2747  -5.2662  -5.2606  -5.2538
    -5.2518  -5.2475  -5.2458  -5.2383  -5.2370  -5.2255  -5.2164  -5.2143
    -5.1999  -5.1820  -5.1785  -5.1760  -5.1737  -5.1688  -5.1661  -5.1590
    -5.1510  -5.1465  -5.1444  -5.1415  -5.1324  -5.1255  -5.1118  -5.0983
    -5.0941  -5.0841  -5.0816  -5.0773  -5.0747  -5.0703  -5.0671  -5.0639
    -5.0568  -5.0552  -5.0489  -5.0393  -5.0367  -5.0271  -5.0211  -5.0143
    -5.0028  -4.9927  -4.9883  -4.9737  -4.9712  -4.9637  -4.9581  -4.9531
    -4.9513  -4.9458  -4.9438  -4.9388  -4.9362  -4.9293  -4.9275  -4.9224
    -4.9194  -4.9166  -4.9117  -4.9098  -4.9090  -4.9048  -4.9032  -4.9003
    -4.8962  -4.8931  -4.8893  -4.8861  -4.8842  -4.8733  -4.8721  -4.8593
    -4.8553  -4.8505  -4.8448  -4.8355  -4.8328  -4.8277  -4.8263  -4.8212
    -4.8197  -4.8175  -4.8120  -4.8067  -4.8036  -4.8000  -4.7985  -4.7935
    -4.7907  -4.7887  -4.7874  -4.7839  -4.7798  -4.7729  -4.7716  -4.7637
    -4.7617  -4.7583  -4.7548  -4.7519  -4.7482  -4.7429  -4.7346  -4.7246
    -4.7205  -4.7172  -4.7065  -4.6868  -4.6775  -4.6762  -4.6732  -4.6685
    -4.6621  -4.6610  -4.6391  -4.5840  -4.5477  -4.5453  -4.5412  -4.5310
    -4.5290  -4.5104  -4.4995  -4.4312  -4.3754  -4.3704  -4.2051  -4.0627
    -4.0552  -3.8125  -3.4688  -3.2670  -3.2430  -3.0516  -3.0084  -2.9039
    -2.5809  -2.5016  -2.4788  -2.3324  -2.2533  -2.0386  -1.7581  -1.7155
    -1.5835  -1.5221  -1.4692  -1.4481  -0.9917  -0.9854  -0.8004  -0.6536
    -0.5378  -0.4825  -0.0536   0.0215   0.1166   0.1956   0.3154   0.4434
     0.4850   0.5156   0.5367   0.6554   0.6844   1.0904   1.3853   1.3944
     1.4295   1.7773   1.8475   2.0303   2.0545   2.2277   2.2572   2.8576
     2.8906   3.1594   3.1869   3.5095   3.5165   3.5535   3.6948   3.7131
     3.8096   3.9836   3.9976   4.0893   4.2533   4.4331   4.4863   4.5479
     4.5731   4.6436   4.6994   4.7916   4.8214   4.8407   5.1264   5.2494
     5.3037   5.3670   5.3879   5.5476   5.5899   5.7135   5.8039   5.8316
     5.8773   5.9198   6.1300   6.1984   6.2435   6.3445   6.3638   6.4274
     6.4685   6.4981   6.6284   6.7520   6.7769   6.7979   6.8408   6.8886
     6.9391   6.9816   6.9967   7.0475   7.0751   7.0999   7.1254   7.1900
     7.2322   7.3252   7.3637   7.4679   7.5110   7.5765   7.6009   7.6563
     7.7522   7.8283   7.8974   7.9421   7.9828   8.0437   8.0663   8.1253
     8.1383   8.1751   8.2089   8.2544   8.3116   8.3632   8.4220   8.5013
     8.5282   8.5518   8.5891   8.6243   8.7483   8.8333   8.8897   8.9484
     8.9932   9.0167   9.0808   9.1933   9.2221   9.2346   9.2529   9.2728
     9.3576

     occupation numbers 
     1.0000   1.0000   1.0000   1.0000   1.0000   1.0000   1.0000   1.0000
     1.0000   1.0000   1.0000   1.0000   1.0000   1.0000   1.0000   1.0000
     1.0000   1.0000   1.0000   1.0000   1.0000   1.0000   1.0000   1.0000
     1.0000   1.0000   1.0000   1.0000   1.0000   1.0000   1.0000   1.0000
     1.0000   1.0000   1.0000   1.0000   1.0000   1.0000   1.0000   1.0000
     1.0000   1.0000   1.0000   1.0000   1.0000   1.0000   1.0000   1.0000
     1.0000   1.0000   1.0000   1.0000   1.0000   1.0000   1.0000   1.0000
     1.0000   1.0000   1.0000   1.0000   1.0000   1.0000   1.0000   1.0000
     1.0000   1.0000   1.0000   1.0000   1.0000   1.0000   1.0000   1.0000
     1.0000   1.0000   1.0000   1.0000   1.0000   1.0000   1.0000   1.0000
     1.0000   1.0000   1.0000   1.0000   1.0000   1.0000   1.0000   1.0000
     1.0000   1.0000   1.0000   1.0000   1.0000   1.0000   1.0000   1.0000
     1.0000   1.0000   1.0000   1.0000   1.0000   1.0000   1.0000   1.0000
     1.0000   1.0000   1.0000   1.0000   1.0000   1.0000   1.0000   1.0000
     1.0000   1.0000   1.0000   1.0000   1.0000   1.0000   1.0000   1.0000
     1.0000   1.0000   1.0000   1.0000   1.0000   1.0000   1.0000   1.0000
     1.0000   1.0000   1.0000   1.0000   1.0000   1.0000   1.0000   1.0000
     1.0000   1.0000   1.0000   1.0000   1.0000   1.0000   1.0000   1.0000
     1.0000   1.0000   1.0000   1.0000   1.0000   1.0000   1.0000   1.0000
     1.0000   1.0000   1.0000   1.0000   1.0000   1.0000   1.0000   1.0000
     1.0000   1.0000   1.0000   1.0000   1.0000   1.0000   1.0000   1.0000
     1.0000   1.0000   1.0000   1.0000   1.0000   1.0000   1.0000   1.0000
     1.0000   1.0000   1.0000   1.0000   1.0000   1.0000   1.0000   1.0000
     1.0000   1.0000   1.0000   1.0000   1.0000   1.0000   1.0000   1.0000
     1.0000   1.0000   1.0000   1.0000   1.0000   1.0000   1.0000   1.0000
     1.0000   1.0000   1.0000   1.0000   1.0000   1.0000   1.0000   1.0000
     1.0000   1.0000   1.0000   1.0000   1.0000   1.0000   1.0000   1.0000
     1.0000   1.0000   1.0000   1.0000   1.0000   1.0000   1.0000   1.0000
     1.0000   1.0000   1.0000   1.0000   1.0000   1.0000   1.0000   1.0000
     1.0000   1.0000   1.0000   1.0000   1.0000   1.0000   1.0000   1.0000
     1.0000   1.0000   1.0000   1.0000   1.0000   1.0000   1.0000   1.0000
     1.0000   1.0000   1.0000   1.0000   1.0000   1.0000   1.0000   1.0000
     1.0000   1.0000   1.0000   1.0000   1.0000   1.0000   1.0000   1.0000
     1.0000   1.0000   1.0000   1.0000   1.0000   1.0000   1.0000   1.0000
     1.0000   1.0000   1.0000   1.0000   1.0000   1.0000   1.0000   1.0000
     1.0000   1.0000   1.0000   1.0000   1.0000   1.0000   1.0000   1.0000
     1.0000   1.0000   1.0000   1.0000   1.0000   1.0000   1.0000   1.0000
     1.0000   1.0000   1.0000   1.0000   1.0000   1.0000   1.0000   1.0000
     1.0000   1.0000   1.0000   1.0000   1.0000   1.0000   1.0000   1.0000
     1.0000   1.0000   1.0000   1.0000   1.0000   1.0000   1.0000   1.0000
     1.0000   1.0000   1.0000   1.0000   1.0000   1.0000   1.0000   1.0000
     1.0000   1.0000   1.0000   1.0000   1.0000   1.0000   1.0000   1.0000
     1.0000   1.0000   1.0000   1.0000   1.0000   1.0000   1.0000   1.0000
     1.0000   1.0000   1.0000   1.0000   1.0000   1.0000   1.0000   1.0000
     1.0000   1.0000   1.0000   1.0000   1.0000   1.0000   1.0000   1.0000
     1.0000   1.0000   1.0000   1.0000   1.0000   1.0000   1.0000   1.0000
     1.0000   1.0000   1.0000   1.0000   1.0000   1.0000   1.0000   1.0000
     1.0000   1.0000   1.0000   1.0000   1.0000   1.0000   1.0000   1.0000
     1.0000   1.0000   1.0000   1.0000   1.0000   1.0000   1.0000   1.0000
     1.0000   1.0000   1.0000   1.0000   1.0000   1.0000   1.0000   1.0000
     1.0000   1.0000   1.0000   1.0000   1.0000   1.0000   1.0000   1.0000
     1.0000   1.0000   1.0000   1.0000   1.0000   1.0000   1.0000   1.0000
     1.0000   1.0000   1.0000   1.0000   1.0000   1.0000   1.0000   1.0000
     1.0000   1.0000   1.0000   1.0000   1.0000   1.0000   1.0000   1.0000
     1.0000   1.0000   1.0000   1.0000   1.0000   1.0000   1.0000   1.0000
     1.0000   1.0000   1.0000   1.0000   1.0000   1.0000   1.0000   1.0000
     1.0000   1.0000   1.0000   1.0000   1.0000   1.0000   1.0000   1.0000
     1.0000   1.0000   1.0000   1.0000   1.0000   1.0000   1.0000   1.0000
     1.0000   1.0000   1.0000   1.0000   1.0000   1.0000   1.0000   1.0000
     1.0000   1.0000   1.0000   1.0000   1.0000   1.0000   1.0000   1.0000
     1.0000   1.0000   1.0000   1.0000   1.0000   1.0000   1.0000   1.0000
     1.0000   1.0000   1.0000   1.0000   1.0000   1.0000   1.0020   1.0023
     1.0038   1.0819   1.0745   0.8115   0.7505   0.2981   0.2378   0.0000
     0.0000   0.0000   0.0000   0.0000   0.0000   0.0000   0.0000   0.0000
     0.0000   0.0000   0.0000   0.0000   0.0000   0.0000   0.0000   0.0000
     0.0000   0.0000   0.0000   0.0000   0.0000   0.0000   0.0000   0.0000
     0.0000   0.0000   0.0000   0.0000   0.0000   0.0000   0.0000   0.0000
     0.0000   0.0000   0.0000   0.0000   0.0000   0.0000   0.0000   0.0000
     0.0000   0.0000   0.0000   0.0000   0.0000   0.0000   0.0000   0.0000
     0.0000   0.0000   0.0000   0.0000   0.0000   0.0000   0.0000   0.0000
     0.0000   0.0000   0.0000   0.0000   0.0000   0.0000   0.0000   0.0000
     0.0000   0.0000   0.0000   0.0000   0.0000   0.0000   0.0000   0.0000
     0.0000   0.0000   0.0000   0.0000   0.0000   0.0000   0.0000   0.0000
     0.0000   0.0000   0.0000   0.0000   0.0000   0.0000   0.0000   0.0000
     0.0000   0.0000   0.0000   0.0000   0.0000   0.0000   0.0000   0.0000
     0.0000

          k = 0.3333 0.1925 0.0000 ( 64840 PWs)   bands (ev):

  -124.5633-124.5624-124.5619-124.5614-124.5606-124.5596-124.5587-124.5582
  -124.5578-124.5573-124.5572-124.5567-124.5559-124.5284-124.5184-124.5156
  -124.2475-124.2472-124.2455-124.2451-124.2447-124.2443-124.2437-124.2436
  -124.2427-124.2424-124.2422-124.2413-124.2407-124.2400-124.2368-124.2364
  -124.2355-124.2352-124.2350-124.2349-124.2342-124.2337-124.2335-124.2333
  -124.2332-124.2297-124.2247-124.2244-124.2237-124.2230-124.2221-124.0265
   -78.7309 -78.7304 -78.7289 -78.7262 -78.7254 -78.7247 -78.7241 -78.7210
   -78.7208 -78.7187 -78.7170 -78.7138 -78.7126 -78.7120 -78.7102 -78.7092
   -78.7080 -78.7073 -78.7060 -78.7053 -78.7040 -78.7034 -78.7031 -78.7024
   -78.7022 -78.7015 -78.7013 -78.7007 -78.7004 -78.6994 -78.6991 -78.6982
   -78.6978 -78.6968 -78.6963 -78.6961 -78.6957 -78.6954 -78.6946 -78.6848
   -78.6811 -78.6747 -78.6692 -78.6688 -78.6658 -78.6627 -78.6579 -78.6550
   -78.4071 -78.4063 -78.4055 -78.4046 -78.4036 -78.4030 -78.4023 -78.4021
   -78.4017 -78.4016 -78.4011 -78.4011 -78.4008 -78.3997 -78.3994 -78.3990
   -78.3985 -78.3982 -78.3980 -78.3975 -78.3971 -78.3971 -78.3966 -78.3964
   -78.3963 -78.3960 -78.3947 -78.3941 -78.3940 -78.3938 -78.3932 -78.3927
   -78.3924 -78.3923 -78.3917 -78.3917 -78.3911 -78.3910 -78.3907 -78.3907
   -78.3905 -78.3899 -78.3899 -78.3897 -78.3894 -78.3889 -78.3881 -78.3873
   -78.3871 -78.3869 -78.3861 -78.3856 -78.3855 -78.3850 -78.3843 -78.3840
   -78.3832 -78.3825 -78.3819 -78.3818 -78.3815 -78.3814 -78.3813 -78.3802
   -78.3800 -78.3797 -78.3797 -78.3794 -78.3788 -78.3787 -78.3779 -78.3777
   -78.3770 -78.3755 -78.3752 -78.3742 -78.3741 -78.3730 -78.3727 -78.3722
   -78.3716 -78.3704 -78.3704 -78.3691 -78.3691 -78.3679 -78.3662 -78.3649
   -78.3644 -78.3623 -78.3604 -78.3599 -78.3583 -78.1920 -78.1918 -78.1640
   -17.8378 -15.4315 -13.2076 -12.8377 -11.0588  -9.6344  -8.8171  -7.9760
    -7.3949  -7.3779  -7.3470  -6.8625  -6.8370  -6.6194  -6.4226  -6.3966
    -6.3577  -6.3493  -6.3474  -6.3042  -6.2989  -6.2063  -6.1835  -6.1600
    -6.1495  -6.1485  -6.1397  -6.1374  -6.0718  -6.0588  -6.0563  -6.0523
    -6.0445  -6.0433  -6.0397  -6.0366  -6.0236  -6.0166  -6.0123  -5.9938
    -5.9910  -5.9878  -5.9865  -5.9765  -5.9753  -5.9640  -5.9529  -5.9498
    -5.9314  -5.9277  -5.9156  -5.9061  -5.8874  -5.8860  -5.8805  -5.8774
    -5.8529  -5.8452  -5.8156  -5.7836  -5.7687  -5.7643  -5.7590  -5.7423
    -5.7289  -5.7242  -5.7174  -5.7162  -5.7138  -5.7127  -5.7019  -5.6929
    -5.6872  -5.6822  -5.6795  -5.6707  -5.6568  -5.6543  -5.6516  -5.6450
    -5.6418  -5.6400  -5.6333  -5.6237  -5.6198  -5.6095  -5.6025  -5.5920
    -5.5731  -5.5693  -5.5629  -5.5604  -5.5556  -5.5493  -5.5361  -5.5337
    -5.5207  -5.5178  -5.5036  -5.4997  -5.4914  -5.4904  -5.4865  -5.4788
    -5.4695  -5.4678  -5.4358  -5.4244  -5.3912  -5.3839  -5.3827  -5.3788
    -5.3729  -5.3690  -5.3598  -5.3573  -5.3509  -5.3480  -5.3332  -5.3312
    -5.3303  -5.3278  -5.3252  -5.3193  -5.3124  -5.3093  -5.2994  -5.2960
    -5.2897  -5.2878  -5.2779  -5.2770  -5.2745  -5.2662  -5.2619  -5.2544
    -5.2522  -5.2472  -5.2458  -5.2382  -5.2370  -5.2243  -5.2162  -5.2134
    -5.1995  -5.1819  -5.1783  -5.1759  -5.1739  -5.1693  -5.1656  -5.1594
    -5.1511  -5.1467  -5.1445  -5.1415  -5.1332  -5.1260  -5.1109  -5.0982
    -5.0946  -5.0841  -5.0812  -5.0778  -5.0751  -5.0707  -5.0675  -5.0634
    -5.0568  -5.0548  -5.0494  -5.0394  -5.0372  -5.0271  -5.0208  -5.0144
    -5.0023  -4.9926  -4.9883  -4.9739  -4.9718  -4.9649  -4.9578  -4.9528
    -4.9513  -4.9457  -4.9439  -4.9385  -4.9360  -4.9292  -4.9272  -4.9218
    -4.9188  -4.9169  -4.9118  -4.9104  -4.9091  -4.9045  -4.9031  -4.9003
    -4.8962  -4.8931  -4.8897  -4.8860  -4.8845  -4.8734  -4.8718  -4.8595
    -4.8557  -4.8508  -4.8448  -4.8353  -4.8329  -4.8282  -4.8265  -4.8209
    -4.8193  -4.8174  -4.8121  -4.8068  -4.8037  -4.7998  -4.7979  -4.7933
    -4.7910  -4.7887  -4.7874  -4.7836  -4.7800  -4.7731  -4.7718  -4.7637
    -4.7619  -4.7581  -4.7543  -4.7518  -4.7484  -4.7434  -4.7346  -4.7245
    -4.7208  -4.7169  -4.7070  -4.6866  -4.6775  -4.6763  -4.6733  -4.6685
    -4.6623  -4.6603  -4.6389  -4.5836  -4.5475  -4.5453  -4.5414  -4.5300
    -4.5295  -4.5104  -4.4997  -4.4306  -4.3753  -4.3706  -4.2063  -4.0624
    -4.0561  -3.8101  -3.4717  -3.2668  -3.2431  -3.0488  -3.0069  -2.9029
    -2.5950  -2.5061  -2.4755  -2.3242  -2.2519  -2.0318  -1.7591  -1.7157
    -1.5851  -1.5244  -1.4693  -1.4485  -0.9916  -0.9851  -0.7983  -0.6564
    -0.5410  -0.4795  -0.0543   0.0285   0.1160   0.1926   0.3148   0.4440
     0.4846   0.5156   0.5346   0.6574   0.6862   1.0873   1.3839   1.3946
     1.4305   1.7742   1.8507   2.0306   2.0551   2.2263   2.2566   2.8587
     2.8903   3.1573   3.1922   3.5076   3.5162   3.5531   3.6945   3.7160
     3.8098   3.9829   3.9982   4.0847   4.2727   4.4347   4.4732   4.5411
     4.5703   4.6420   4.6945   4.7915   4.8229   4.8566   5.1199   5.2444
     5.3060   5.3685   5.3889   5.5499   5.5887   5.7201   5.8131   5.8267
     5.8766   5.9207   6.0944   6.1886   6.2505   6.3289   6.3680   6.4242
     6.4677   6.5081   6.6249   6.7490   6.7755   6.8016   6.8458   6.8822
     6.9379   6.9848   6.9978   7.0443   7.0765   7.0951   7.1326   7.1935
     7.2320   7.3057   7.3516   7.4381   7.5188   7.5602   7.5940   7.6493
     7.7978   7.8441   7.9171   7.9678   8.0129   8.0408   8.0761   8.1253
     8.1321   8.1567   8.1903   8.2445   8.3195   8.3601   8.4880   8.5078
     8.5297   8.5586   8.5832   8.6719   8.7384   8.8129   8.8819   8.9496
     8.9982   9.0364   9.0969   9.1778   9.2155   9.2215   9.2472   9.2797
     9.3651

     occupation numbers 
     1.0000   1.0000   1.0000   1.0000   1.0000   1.0000   1.0000   1.0000
     1.0000   1.0000   1.0000   1.0000   1.0000   1.0000   1.0000   1.0000
     1.0000   1.0000   1.0000   1.0000   1.0000   1.0000   1.0000   1.0000
     1.0000   1.0000   1.0000   1.0000   1.0000   1.0000   1.0000   1.0000
     1.0000   1.0000   1.0000   1.0000   1.0000   1.0000   1.0000   1.0000
     1.0000   1.0000   1.0000   1.0000   1.0000   1.0000   1.0000   1.0000
     1.0000   1.0000   1.0000   1.0000   1.0000   1.0000   1.0000   1.0000
     1.0000   1.0000   1.0000   1.0000   1.0000   1.0000   1.0000   1.0000
     1.0000   1.0000   1.0000   1.0000   1.0000   1.0000   1.0000   1.0000
     1.0000   1.0000   1.0000   1.0000   1.0000   1.0000   1.0000   1.0000
     1.0000   1.0000   1.0000   1.0000   1.0000   1.0000   1.0000   1.0000
     1.0000   1.0000   1.0000   1.0000   1.0000   1.0000   1.0000   1.0000
     1.0000   1.0000   1.0000   1.0000   1.0000   1.0000   1.0000   1.0000
     1.0000   1.0000   1.0000   1.0000   1.0000   1.0000   1.0000   1.0000
     1.0000   1.0000   1.0000   1.0000   1.0000   1.0000   1.0000   1.0000
     1.0000   1.0000   1.0000   1.0000   1.0000   1.0000   1.0000   1.0000
     1.0000   1.0000   1.0000   1.0000   1.0000   1.0000   1.0000   1.0000
     1.0000   1.0000   1.0000   1.0000   1.0000   1.0000   1.0000   1.0000
     1.0000   1.0000   1.0000   1.0000   1.0000   1.0000   1.0000   1.0000
     1.0000   1.0000   1.0000   1.0000   1.0000   1.0000   1.0000   1.0000
     1.0000   1.0000   1.0000   1.0000   1.0000   1.0000   1.0000   1.0000
     1.0000   1.0000   1.0000   1.0000   1.0000   1.0000   1.0000   1.0000
     1.0000   1.0000   1.0000   1.0000   1.0000   1.0000   1.0000   1.0000
     1.0000   1.0000   1.0000   1.0000   1.0000   1.0000   1.0000   1.0000
     1.0000   1.0000   1.0000   1.0000   1.0000   1.0000   1.0000   1.0000
     1.0000   1.0000   1.0000   1.0000   1.0000   1.0000   1.0000   1.0000
     1.0000   1.0000   1.0000   1.0000   1.0000   1.0000   1.0000   1.0000
     1.0000   1.0000   1.0000   1.0000   1.0000   1.0000   1.0000   1.0000
     1.0000   1.0000   1.0000   1.0000   1.0000   1.0000   1.0000   1.0000
     1.0000   1.0000   1.0000   1.0000   1.0000   1.0000   1.0000   1.0000
     1.0000   1.0000   1.0000   1.0000   1.0000   1.0000   1.0000   1.0000
     1.0000   1.0000   1.0000   1.0000   1.0000   1.0000   1.0000   1.0000
     1.0000   1.0000   1.0000   1.0000   1.0000   1.0000   1.0000   1.0000
     1.0000   1.0000   1.0000   1.0000   1.0000   1.0000   1.0000   1.0000
     1.0000   1.0000   1.0000   1.0000   1.0000   1.0000   1.0000   1.0000
     1.0000   1.0000   1.0000   1.0000   1.0000   1.0000   1.0000   1.0000
     1.0000   1.0000   1.0000   1.0000   1.0000   1.0000   1.0000   1.0000
     1.0000   1.0000   1.0000   1.0000   1.0000   1.0000   1.0000   1.0000
     1.0000   1.0000   1.0000   1.0000   1.0000   1.0000   1.0000   1.0000
     1.0000   1.0000   1.0000   1.0000   1.0000   1.0000   1.0000   1.0000
     1.0000   1.0000   1.0000   1.0000   1.0000   1.0000   1.0000   1.0000
     1.0000   1.0000   1.0000   1.0000   1.0000   1.0000   1.0000   1.0000
     1.0000   1.0000   1.0000   1.0000   1.0000   1.0000   1.0000   1.0000
     1.0000   1.0000   1.0000   1.0000   1.0000   1.0000   1.0000   1.0000
     1.0000   1.0000   1.0000   1.0000   1.0000   1.0000   1.0000   1.0000
     1.0000   1.0000   1.0000   1.0000   1.0000   1.0000   1.0000   1.0000
     1.0000   1.0000   1.0000   1.0000   1.0000   1.0000   1.0000   1.0000
     1.0000   1.0000   1.0000   1.0000   1.0000   1.0000   1.0000   1.0000
     1.0000   1.0000   1.0000   1.0000   1.0000   1.0000   1.0000   1.0000
     1.0000   1.0000   1.0000   1.0000   1.0000   1.0000   1.0000   1.0000
     1.0000   1.0000   1.0000   1.0000   1.0000   1.0000   1.0000   1.0000
     1.0000   1.0000   1.0000   1.0000   1.0000   1.0000   1.0000   1.0000
     1.0000   1.0000   1.0000   1.0000   1.0000   1.0000   1.0000   1.0000
     1.0000   1.0000   1.0000   1.0000   1.0000   1.0000   1.0000   1.0000
     1.0000   1.0000   1.0000   1.0000   1.0000   1.0000   1.0000   1.0000
     1.0000   1.0000   1.0000   1.0000   1.0000   1.0000   1.0000   1.0000
     1.0000   1.0000   1.0000   1.0000   1.0000   1.0000   1.0000   1.0000
     1.0000   1.0000   1.0000   1.0000   1.0000   1.0000   1.0000   1.0000
     1.0000   1.0000   1.0000   1.0000   1.0000   1.0000   1.0000   1.0000
     1.0000   1.0000   1.0000   1.0000   1.0000   1.0000   1.0000   1.0000
     1.0000   1.0000   1.0000   1.0000   1.0000   1.0000   1.0000   1.0000
     1.0000   1.0000   1.0000   1.0000   1.0000   1.0000   1.0019   1.0023
     1.0039   1.0814   1.0732   0.8108   0.7487   0.3012   0.2390   0.0000
     0.0000   0.0000   0.0000   0.0000   0.0000   0.0000   0.0000   0.0000
     0.0000   0.0000   0.0000   0.0000   0.0000   0.0000   0.0000   0.0000
     0.0000   0.0000   0.0000   0.0000   0.0000   0.0000   0.0000   0.0000
     0.0000   0.0000   0.0000   0.0000   0.0000   0.0000   0.0000   0.0000
     0.0000   0.0000   0.0000   0.0000   0.0000   0.0000   0.0000   0.0000
     0.0000   0.0000   0.0000   0.0000   0.0000   0.0000   0.0000   0.0000
     0.0000   0.0000   0.0000   0.0000   0.0000   0.0000   0.0000   0.0000
     0.0000   0.0000   0.0000   0.0000   0.0000   0.0000   0.0000   0.0000
     0.0000   0.0000   0.0000   0.0000   0.0000   0.0000   0.0000   0.0000
     0.0000   0.0000   0.0000   0.0000   0.0000   0.0000   0.0000   0.0000
     0.0000   0.0000   0.0000   0.0000   0.0000   0.0000   0.0000   0.0000
     0.0000   0.0000   0.0000   0.0000   0.0000   0.0000   0.0000   0.0000
     0.0000

          k = 0.3333 0.5774 0.0000 ( 64848 PWs)   bands (ev):

  -124.5632-124.5624-124.5619-124.5614-124.5606-124.5596-124.5587-124.5582
  -124.5577-124.5573-124.5571-124.5567-124.5559-124.5284-124.5184-124.5156
  -124.2475-124.2472-124.2455-124.2451-124.2447-124.2443-124.2437-124.2436
  -124.2427-124.2424-124.2421-124.2413-124.2407-124.2400-124.2368-124.2364
  -124.2355-124.2352-124.2350-124.2349-124.2342-124.2337-124.2335-124.2333
  -124.2332-124.2297-124.2247-124.2244-124.2237-124.2230-124.2221-124.0265
   -78.7305 -78.7287 -78.7280 -78.7270 -78.7260 -78.7255 -78.7235 -78.7228
   -78.7227 -78.7180 -78.7158 -78.7152 -78.7128 -78.7115 -78.7105 -78.7092
   -78.7070 -78.7057 -78.7052 -78.7048 -78.7040 -78.7035 -78.7031 -78.7030
   -78.7023 -78.7018 -78.7014 -78.7007 -78.7004 -78.6998 -78.6992 -78.6984
   -78.6978 -78.6968 -78.6962 -78.6962 -78.6957 -78.6954 -78.6947 -78.6846
   -78.6811 -78.6747 -78.6692 -78.6688 -78.6658 -78.6627 -78.6579 -78.6550
   -78.4065 -78.4054 -78.4046 -78.4042 -78.4033 -78.4029 -78.4022 -78.4020
   -78.4017 -78.4016 -78.4011 -78.4010 -78.4010 -78.4007 -78.3996 -78.3994
   -78.3990 -78.3985 -78.3984 -78.3982 -78.3976 -78.3972 -78.3965 -78.3963
   -78.3960 -78.3959 -78.3955 -78.3947 -78.3941 -78.3933 -78.3927 -78.3925
   -78.3924 -78.3924 -78.3919 -78.3917 -78.3912 -78.3911 -78.3909 -78.3907
   -78.3906 -78.3904 -78.3903 -78.3898 -78.3897 -78.3894 -78.3889 -78.3882
   -78.3873 -78.3872 -78.3869 -78.3863 -78.3859 -78.3852 -78.3832 -78.3825
   -78.3820 -78.3818 -78.3816 -78.3814 -78.3813 -78.3809 -78.3803 -78.3802
   -78.3795 -78.3794 -78.3791 -78.3787 -78.3786 -78.3781 -78.3780 -78.3774
   -78.3766 -78.3758 -78.3757 -78.3746 -78.3741 -78.3740 -78.3729 -78.3723
   -78.3715 -78.3709 -78.3707 -78.3695 -78.3692 -78.3671 -78.3655 -78.3647
   -78.3642 -78.3628 -78.3611 -78.3602 -78.3583 -78.1920 -78.1918 -78.1640
   -17.8378 -15.4315 -13.2076 -12.8377 -11.0590  -9.6343  -8.8166  -7.5906
    -7.5843  -7.5365  -7.3917  -7.3478  -6.3265  -6.3236  -6.3163  -6.3022
    -6.2989  -6.2956  -6.2921  -6.2897  -6.2881  -6.2548  -6.2521  -6.2334
    -6.2093  -6.2073  -6.1791  -6.1769  -6.1698  -6.1673  -6.0973  -6.0946
    -6.0932  -6.0894  -6.0802  -6.0788  -6.0645  -6.0552  -6.0483  -5.9936
    -5.9905  -5.9890  -5.9784  -5.9708  -5.9643  -5.9182  -5.9166  -5.9145
    -5.9084  -5.9021  -5.8988  -5.8892  -5.8814  -5.8784  -5.8636  -5.8358
    -5.8333  -5.8291  -5.8257  -5.8244  -5.8214  -5.8079  -5.8007  -5.7970
    -5.7854  -5.7524  -5.7424  -5.7320  -5.7287  -5.7270  -5.7204  -5.7174
    -5.7139  -5.7116  -5.7023  -5.6987  -5.6923  -5.6918  -5.6890  -5.6746
    -5.6708  -5.6411  -5.6288  -5.6228  -5.6044  -5.6015  -5.5983  -5.5606
    -5.5562  -5.5484  -5.5246  -5.5232  -5.5193  -5.5175  -5.5097  -5.5045
    -5.4858  -5.4853  -5.4808  -5.4710  -5.4660  -5.4627  -5.4611  -5.4602
    -5.4572  -5.4450  -5.4429  -5.4417  -5.4341  -5.4300  -5.4257  -5.3961
    -5.3901  -5.3832  -5.3709  -5.3644  -5.3624  -5.3510  -5.3469  -5.3459
    -5.3439  -5.3404  -5.3335  -5.3313  -5.3252  -5.3077  -5.2988  -5.2959
    -5.2941  -5.2888  -5.2878  -5.2843  -5.2829  -5.2693  -5.2655  -5.2637
    -5.2608  -5.2557  -5.2553  -5.2544  -5.2522  -5.2468  -5.2417  -5.2367
    -5.2327  -5.2311  -5.2255  -5.2143  -5.2095  -5.2009  -5.1916  -5.1584
    -5.1525  -5.1389  -5.1223  -5.1063  -5.1050  -5.1035  -5.0792  -5.0761
    -5.0728  -5.0631  -5.0611  -5.0592  -5.0537  -5.0512  -5.0425  -5.0237
    -5.0191  -5.0169  -5.0135  -5.0132  -5.0082  -5.0021  -4.9864  -4.9752
    -4.9734  -4.9689  -4.9639  -4.9596  -4.9572  -4.9555  -4.9473  -4.9427
    -4.9392  -4.9377  -4.9368  -4.9325  -4.9292  -4.9259  -4.9233  -4.9210
    -4.9144  -4.9086  -4.9061  -4.9048  -4.9038  -4.9013  -4.8839  -4.8764
    -4.8716  -4.8704  -4.8677  -4.8647  -4.8639  -4.8613  -4.8588  -4.8491
    -4.8415  -4.8407  -4.8382  -4.8380  -4.8359  -4.8319  -4.8285  -4.8274
    -4.8265  -4.8248  -4.8212  -4.8120  -4.8071  -4.8032  -4.7990  -4.7943
    -4.7934  -4.7909  -4.7866  -4.7827  -4.7796  -4.7729  -4.7702  -4.7676
    -4.7654  -4.7608  -4.7539  -4.7465  -4.7431  -4.7414  -4.7209  -4.7180
    -4.6917  -4.6671  -4.6591  -4.6560  -4.6458  -4.6453  -4.6447  -4.6426
    -4.6385  -4.6344  -4.6206  -4.6179  -4.6166  -4.6137  -4.6001  -4.5990
    -4.5938  -4.5822  -4.5263  -4.4325  -4.3876  -4.3852  -4.3797  -3.9563
    -3.4735  -3.2011  -3.1758  -3.1442  -3.0244  -3.0174  -3.0122  -2.9946
    -2.9935  -2.9394  -2.8919  -2.5016  -2.4772  -2.2563  -2.2012  -2.0379
    -1.4564  -1.4381  -1.4366  -1.4202  -1.4115  -1.3083  -0.8525  -0.7066
    -0.6715  -0.5583   0.0751   0.5006   0.5107   0.5273   0.7652   0.7780
     0.8831   0.8985   0.9213   0.9448   0.9506   0.9628   1.0469   1.0762
     1.0850   1.1064   1.7571   1.7857   1.7922   2.5573   2.8526   2.8998
     2.9279   2.9450   3.0449   3.3544   3.3625   3.4165   3.8869   4.1828
     4.2991   4.4056   4.4557   4.5161   4.6088   4.6527   4.7057   4.7398
     4.7934   4.8058   4.8394   4.8502   4.8610   4.8709   4.8747   4.8888
     4.9147   4.9390   4.9837   5.0349   5.1347   5.3310   5.3518   5.3750
     5.4321   5.5187   5.7428   6.0029   6.1284   6.1811   6.2262   6.2550
     6.3857   6.4584   6.5181   6.5326   6.5545   6.5730   6.5841   6.6113
     6.8110   6.8886   6.9203   6.9667   7.0889   7.1463   7.1785   7.2318
     7.2563   7.3314   7.4413   7.4884   7.5828   7.6679   7.7955   7.8110
     7.8307   7.8587   7.8780   7.9966   8.0511   8.0888   8.1363   8.2334
     8.2766   8.3040   8.3277   8.3394   8.3549   8.4711   8.5599   8.6335
     8.7441   8.8242   8.8402   8.9121   8.9381   8.9802   9.0077   9.0564
     9.0894   9.1452   9.1824   9.1951   9.2236   9.2585   9.3218   9.3595
     9.4011

     occupation numbers 
     1.0000   1.0000   1.0000   1.0000   1.0000   1.0000   1.0000   1.0000
     1.0000   1.0000   1.0000   1.0000   1.0000   1.0000   1.0000   1.0000
     1.0000   1.0000   1.0000   1.0000   1.0000   1.0000   1.0000   1.0000
     1.0000   1.0000   1.0000   1.0000   1.0000   1.0000   1.0000   1.0000
     1.0000   1.0000   1.0000   1.0000   1.0000   1.0000   1.0000   1.0000
     1.0000   1.0000   1.0000   1.0000   1.0000   1.0000   1.0000   1.0000
     1.0000   1.0000   1.0000   1.0000   1.0000   1.0000   1.0000   1.0000
     1.0000   1.0000   1.0000   1.0000   1.0000   1.0000   1.0000   1.0000
     1.0000   1.0000   1.0000   1.0000   1.0000   1.0000   1.0000   1.0000
     1.0000   1.0000   1.0000   1.0000   1.0000   1.0000   1.0000   1.0000
     1.0000   1.0000   1.0000   1.0000   1.0000   1.0000   1.0000   1.0000
     1.0000   1.0000   1.0000   1.0000   1.0000   1.0000   1.0000   1.0000
     1.0000   1.0000   1.0000   1.0000   1.0000   1.0000   1.0000   1.0000
     1.0000   1.0000   1.0000   1.0000   1.0000   1.0000   1.0000   1.0000
     1.0000   1.0000   1.0000   1.0000   1.0000   1.0000   1.0000   1.0000
     1.0000   1.0000   1.0000   1.0000   1.0000   1.0000   1.0000   1.0000
     1.0000   1.0000   1.0000   1.0000   1.0000   1.0000   1.0000   1.0000
     1.0000   1.0000   1.0000   1.0000   1.0000   1.0000   1.0000   1.0000
     1.0000   1.0000   1.0000   1.0000   1.0000   1.0000   1.0000   1.0000
     1.0000   1.0000   1.0000   1.0000   1.0000   1.0000   1.0000   1.0000
     1.0000   1.0000   1.0000   1.0000   1.0000   1.0000   1.0000   1.0000
     1.0000   1.0000   1.0000   1.0000   1.0000   1.0000   1.0000   1.0000
     1.0000   1.0000   1.0000   1.0000   1.0000   1.0000   1.0000   1.0000
     1.0000   1.0000   1.0000   1.0000   1.0000   1.0000   1.0000   1.0000
     1.0000   1.0000   1.0000   1.0000   1.0000   1.0000   1.0000   1.0000
     1.0000   1.0000   1.0000   1.0000   1.0000   1.0000   1.0000   1.0000
     1.0000   1.0000   1.0000   1.0000   1.0000   1.0000   1.0000   1.0000
     1.0000   1.0000   1.0000   1.0000   1.0000   1.0000   1.0000   1.0000
     1.0000   1.0000   1.0000   1.0000   1.0000   1.0000   1.0000   1.0000
     1.0000   1.0000   1.0000   1.0000   1.0000   1.0000   1.0000   1.0000
     1.0000   1.0000   1.0000   1.0000   1.0000   1.0000   1.0000   1.0000
     1.0000   1.0000   1.0000   1.0000   1.0000   1.0000   1.0000   1.0000
     1.0000   1.0000   1.0000   1.0000   1.0000   1.0000   1.0000   1.0000
     1.0000   1.0000   1.0000   1.0000   1.0000   1.0000   1.0000   1.0000
     1.0000   1.0000   1.0000   1.0000   1.0000   1.0000   1.0000   1.0000
     1.0000   1.0000   1.0000   1.0000   1.0000   1.0000   1.0000   1.0000
     1.0000   1.0000   1.0000   1.0000   1.0000   1.0000   1.0000   1.0000
     1.0000   1.0000   1.0000   1.0000   1.0000   1.0000   1.0000   1.0000
     1.0000   1.0000   1.0000   1.0000   1.0000   1.0000   1.0000   1.0000
     1.0000   1.0000   1.0000   1.0000   1.0000   1.0000   1.0000   1.0000
     1.0000   1.0000   1.0000   1.0000   1.0000   1.0000   1.0000   1.0000
     1.0000   1.0000   1.0000   1.0000   1.0000   1.0000   1.0000   1.0000
     1.0000   1.0000   1.0000   1.0000   1.0000   1.0000   1.0000   1.0000
     1.0000   1.0000   1.0000   1.0000   1.0000   1.0000   1.0000   1.0000
     1.0000   1.0000   1.0000   1.0000   1.0000   1.0000   1.0000   1.0000
     1.0000   1.0000   1.0000   1.0000   1.0000   1.0000   1.0000   1.0000
     1.0000   1.0000   1.0000   1.0000   1.0000   1.0000   1.0000   1.0000
     1.0000   1.0000   1.0000   1.0000   1.0000   1.0000   1.0000   1.0000
     1.0000   1.0000   1.0000   1.0000   1.0000   1.0000   1.0000   1.0000
     1.0000   1.0000   1.0000   1.0000   1.0000   1.0000   1.0000   1.0000
     1.0000   1.0000   1.0000   1.0000   1.0000   1.0000   1.0000   1.0000
     1.0000   1.0000   1.0000   1.0000   1.0000   1.0000   1.0000   1.0000
     1.0000   1.0000   1.0000   1.0000   1.0000   1.0000   1.0000   1.0000
     1.0000   1.0000   1.0000   1.0000   1.0000   1.0000   1.0000   1.0000
     1.0000   1.0000   1.0000   1.0000   1.0000   1.0000   1.0000   1.0000
     1.0000   1.0000   1.0000   1.0000   1.0000   1.0000   1.0000   1.0000
     1.0000   1.0000   1.0000   1.0000   1.0000   1.0000   1.0000   1.0000
     1.0000   1.0000   1.0000   1.0000   1.0000   1.0000   1.0000   1.0000
     1.0000   1.0000   1.0000   1.0000   1.0000   1.0000   1.0000   1.0000
     1.0000   1.0000   1.0000   1.0000   1.0000   1.0000   1.0000   1.0000
     1.0000   1.0000   1.0000   1.0000   1.0000   1.0000   1.0000   1.0000
[...]
     atom   32 type  1   force =     0.00001437    0.00002331    0.00000198
     atom   33 type  1   force =     0.00001059   -0.00000162   -0.00001302
     atom   34 type  1   force =    -0.00001395    0.00003833   -0.00000811
     atom   35 type  1   force =    -0.00001610   -0.00002496    0.00000448
     atom   36 type  1   force =     0.00001285   -0.00001933   -0.00002248
     atom   37 type  1   force =    -0.00002675   -0.00000623    0.00002710
     atom   38 type  1   force =     0.00003113   -0.00002868   -0.00001773
     atom   39 type  1   force =    -0.00000138    0.00001192    0.00001080
     atom   40 type  1   force =     0.00000447    0.00002904   -0.00000202
     atom   41 type  1   force =    -0.00000412    0.00000736   -0.00000984
     atom   42 type  1   force =     0.00001199    0.00003007   -0.00000963
     atom   43 type  1   force =     0.00001108   -0.00004286   -0.00001604
     atom   44 type  1   force =    -0.00000825   -0.00000188   -0.00000540
     atom   45 type  1   force =    -0.00002857   -0.00001852    0.00001094
     atom   46 type  1   force =     0.00001928   -0.00001633   -0.00000364
     atom   47 type  1   force =    -0.00004096    0.00001965    0.00002351
     atom   48 type  1   force =     0.00003885    0.00001885   -0.00001108
     atom   49 type  3   force =    -0.00000064   -0.00000008   -0.00000181
     atom   50 type  3   force =    -0.00000081   -0.00000151   -0.00000024
     atom   51 type  3   force =     0.00000361    0.00000040   -0.00000065
     atom   52 type  3   force =     0.00000005    0.00000076   -0.00000107
     atom   53 type  3   force =     0.00000143   -0.00000118    0.00000351
     atom   54 type  3   force =     0.00000027    0.00000101   -0.00000291
     atom   55 type  3   force =     0.00000083   -0.00000087    0.00000387
     atom   56 type  2   force =    -0.00000229    0.00000155    0.00000845
     atom   57 type  4   force =     0.00000040   -0.00000038   -0.00000045
     atom   58 type  4   force =    -0.00000032   -0.00000044    0.00000011
     atom   59 type  4   force =     0.00000056   -0.00000055   -0.00000044
     atom   60 type  4   force =     0.00000049    0.00000020   -0.00000087
     atom   61 type  4   force =    -0.00000014    0.00000088    0.00000030
     atom   62 type  4   force =    -0.00000086   -0.00000058    0.00000045
     atom   63 type  4   force =    -0.00000034   -0.00000000   -0.00000069
     atom   64 type  4   force =     0.00000039   -0.00000022    0.00000065
     atom   65 type  4   force =    -0.00000003   -0.00000034   -0.00000066

     DFT-D3 dispersion contribution to forces:
     atom    1 type  1   force =    -0.00000038    0.00002092    0.00268125
     atom    2 type  1   force =     0.00000816   -0.00000017    0.00267060
     atom    3 type  1   force =     0.00029746    0.00051639   -0.00167528
     atom    4 type  1   force =    -0.00024267    0.00032951   -0.00129337
     atom    5 type  1   force =    -0.00001625   -0.00003272    0.00261597
     atom    6 type  1   force =     0.00000832    0.00000512    0.00270516
     atom    7 type  1   force =     0.00064910    0.00049118   -0.00150567
     atom    8 type  1   force =    -0.00031713    0.00025790   -0.00050970
     atom    9 type  1   force =    -0.00000807   -0.00001804    0.00262399
     atom   10 type  1   force =     0.00000725   -0.00001243    0.00275333
     atom   11 type  1   force =     0.00046577   -0.00014556   -0.00174975
     atom   12 type  1   force =    -0.00022480   -0.00026274   -0.00152726
     atom   13 type  1   force =    -0.00000596   -0.00000572    0.00270619
     atom   14 type  1   force =     0.00002598    0.00002504    0.00266111
     atom   15 type  1   force =    -0.00004171   -0.00007651   -0.00196385
     atom   16 type  1   force =    -0.00004100   -0.00082849   -0.00145181
     atom   17 type  1   force =    -0.00000789    0.00000918    0.00268235
     atom   18 type  1   force =     0.00000806   -0.00001090    0.00263540
     atom   19 type  1   force =     0.00009753    0.00071792   -0.00123441
     atom   20 type  1   force =    -0.00014878    0.00002145   -0.00191522
     atom   21 type  1   force =     0.00001565    0.00000985    0.00272998
     atom   22 type  1   force =     0.00000331    0.00000193    0.00265659
     atom   23 type  1   force =     0.00015720    0.00044036   -0.00135042
     atom   24 type  1   force =    -0.00047010    0.00010351   -0.00117157
     atom   25 type  1   force =     0.00003051   -0.00000942    0.00271655
     atom   26 type  1   force =    -0.00001893    0.00000649    0.00270714
     atom   27 type  1   force =     0.00038454   -0.00022572   -0.00065536
     atom   28 type  1   force =    -0.00060261   -0.00039153   -0.00107814
     atom   29 type  1   force =     0.00001591    0.00000707    0.00264412
     atom   30 type  1   force =    -0.00001818   -0.00001894    0.00271125
     atom   31 type  1   force =     0.00041502   -0.00038317   -0.00181492
     atom   32 type  1   force =    -0.00033209   -0.00060862   -0.00155537
     atom   33 type  1   force =    -0.00003547   -0.00002675   -0.00008106
     atom   34 type  1   force =     0.00001824    0.00003531    0.00007403
     atom   35 type  1   force =    -0.00000310    0.00005296    0.00029151
     atom   36 type  1   force =    -0.00000497   -0.00000292    0.00001449
     atom   37 type  1   force =    -0.00007201   -0.00003927   -0.00015748
     atom   38 type  1   force =     0.00003088    0.00000602    0.00021448
     atom   39 type  1   force =     0.00003974   -0.00001667    0.00021279
     atom   40 type  1   force =    -0.00004342   -0.00002608    0.00034246
     atom   41 type  1   force =    -0.00006067    0.00003210    0.00008124
     atom   42 type  1   force =     0.00007320   -0.00003532   -0.00003084
     atom   43 type  1   force =     0.00000913   -0.00004422    0.00018185
     atom   44 type  1   force =    -0.00001877   -0.00003666    0.00008243
     atom   45 type  1   force =     0.00007728   -0.00004801   -0.00014199
     atom   46 type  1   force =    -0.00004624    0.00002743    0.00010007
     atom   47 type  1   force =    -0.00001836    0.00008649   -0.00015938
     atom   48 type  1   force =     0.00001467    0.00005145   -0.00007461
     atom   49 type  3   force =     0.00013715   -0.00007516   -0.00113648
     atom   50 type  3   force =     0.00026814    0.00038121   -0.00112528
     atom   51 type  3   force =     0.00001238   -0.00044597   -0.00163776
     atom   52 type  3   force =    -0.00008843    0.00003340   -0.00088142
     atom   53 type  3   force =     0.00004528   -0.00003280   -0.00146712
     atom   54 type  3   force =    -0.00012089   -0.00040081   -0.00114456
     atom   55 type  3   force =     0.00026288    0.00028822   -0.00171850
     atom   56 type  2   force =    -0.00016663    0.00008617   -0.00167627
     atom   57 type  4   force =    -0.00010117    0.00000420   -0.00170816
     atom   58 type  4   force =    -0.00003463    0.00006815   -0.00163663
     atom   59 type  4   force =     0.00007032   -0.00005585   -0.00101975
     atom   60 type  4   force =     0.00019619   -0.00003840   -0.00075378
     atom   61 type  4   force =    -0.00021565    0.00003242   -0.00131651
     atom   62 type  4   force =    -0.00013332    0.00015665   -0.00127957
     atom   63 type  4   force =    -0.00008921   -0.00002252   -0.00151364
     atom   64 type  4   force =     0.00002647    0.00002532   -0.00120033
     atom   65 type  4   force =    -0.00012221    0.00004673   -0.00018314

     Total force =     0.003342     Total SCF correction =     0.000190

     DFT-D3 dispersion Force =     0.013606


     Computing stress (Cartesian axis) and pressure


     negative rho (up, down):  4.878E-03 0.000E+00
          total   stress  (Ry/bohr**3)                   (kbar)     P=       -9.19
  -0.00009162  -0.00000047   0.00000099          -13.48       -0.07        0.15
  -0.00000047  -0.00009205  -0.00000053           -0.07      -13.54       -0.08
   0.00000099  -0.00000053  -0.00000372            0.15       -0.08       -0.55

     kinetic stress (kbar)  12906.89     -2.33     -5.09
                               -2.33  12904.81      5.25
                               -5.09      5.25  13038.96

     local   stress (kbar)**********    476.75   -460.74
                              476.75**********    291.82
                             -460.74    291.821226943.79

     nonloc. stress (kbar)  -1205.74     -0.18      0.87
                               -0.18  -1206.05     -0.70
                                0.87     -0.70  -1254.59

     hartree stress (kbar) 634216.73   -215.03    189.09
                             -215.03 633889.32   -115.68
                              189.09   -115.68-577504.71

     exc-cor stress (kbar)  -6319.99     -0.00      0.44
                               -0.00  -6320.04     -0.38
                                0.44     -0.38  -6331.70

     corecor stress (kbar)    -80.02     -0.07     -0.13
                               -0.07    -80.11      0.12
                               -0.13      0.12    -79.09

     ewald   stress (kbar) 575270.48   -259.20    275.69
                             -259.20 574872.73   -180.51
                              275.69   -180.51-654807.95

     hubbard stress (kbar)      0.00      0.00      0.00
                                0.00      0.00      0.00
                                0.00      0.00      0.00

     DFT-D   stress (kbar)    -10.64      0.00      0.00
                                0.00    -10.63     -0.00
                                0.00     -0.00     -5.25

     XDM     stress (kbar)      0.00      0.00      0.00
                                0.00      0.00      0.00
                                0.00      0.00      0.00

     dft-nl  stress (kbar)      0.00      0.00      0.00
                                0.00      0.00      0.00
                                0.00      0.00      0.00

     TS-vdW  stress (kbar)      0.00      0.00      0.00
                                0.00      0.00      0.00
                                0.00      0.00      0.00

     MDB     stress (kbar)      0.00      0.00      0.00
                                0.00      0.00      0.00
                                0.00      0.00      0.00

     3D-RISM stress (kbar)      0.00      0.00      0.00
                                0.00      0.00      0.00
                                0.00      0.00      0.00

     Energy error            =      2.8E-05 Ry
     Gradient error          =      9.5E-04 Ry/Bohr

     bfgs converged in  29 scf cycles and  28 bfgs steps
     (criteria: energy <  5.0E-05 Ry, force <  1.0E-03 Ry/Bohr)

     End of BFGS Geometry Optimization

     Final energy             =  -22315.0241594385 Ry

     File ./tmp/Zn002_3layer_ptoluidine_relax.bfgs deleted, as requested
Begin final coordinates

ATOMIC_POSITIONS (angstrom)
Zn               0.0000000000        1.5094010000        1.2182900000    0   0   0
Zn               5.2287200000        1.5094010000        1.2182900000    0   0   0
Zn              -0.0013487635        1.5144602551        6.1774676192
Zn               5.2235527787        1.5117091820        6.1900743242
Zn              -1.3071800000        3.7735030000        1.2182900000    0   0   0
Zn               3.9215400000        3.7735030000        1.2182900000    0   0   0
Zn              -1.3052179893        3.7832772405        6.1195666864
Zn               3.9151167043        3.7768913620        6.1674208163
Zn              -2.6143600000        6.0376050000        1.2182900000    0   0   0
Zn               2.6143600000        6.0376050000        1.2182900000    0   0   0
Zn              -2.6158564879        6.0386027060        6.1304330330
Zn               2.5958549170        6.0376709369        6.0888092039
Zn              -3.9215400000        8.3017080000        1.2182900000    0   0   0
Zn               1.3071800000        8.3017080000        1.2182900000    0   0   0
Zn              -3.9286091277        8.3042005517        6.1969127741
Zn               1.2977206214        8.2954516846        6.0991049954
Zn               2.6143600000        1.5094010000        1.2182900000    0   0   0
Zn               7.8430800000        1.5094010000        1.2182900000    0   0   0
Zn               2.6100249797        1.5147990846        6.1715152022
Zn               7.8395931857        1.5109292223        6.1910599861
Zn               1.3071800000        3.7735030000        1.2182900000    0   0   0
Zn               6.5359000000        3.7735030000        1.2182900000    0   0   0
Zn               1.2986025300        3.7883525729        6.1100620855
Zn               6.5307459008        3.7757359466        6.1922331373
Zn               0.0000000000        6.0376050000        1.2182900000    0   0   0
Zn               5.2287200000        6.0376050000        1.2182900000    0   0   0
Zn              -0.0130983142        6.0436515240        6.5018291635
Zn               5.2214663678        6.0379187880        6.1607312174
Zn              -1.3071800000        8.3017080000        1.2182900000    0   0   0
Zn               3.9215400000        8.3017080000        1.2182900000    0   0   0
Zn              -1.3099421088        8.3006528619        6.1240473092
Zn               3.9169194760        8.3013571736        6.1611873527
Zn               1.3033942071        0.7535134476        3.6911977160
Zn               6.5304316001        0.7580450696        3.7003512754
Zn              -0.0053310366        3.0204820305        3.6900559779
Zn               5.2266856289        3.0196005392        3.6907644577
Zn              -1.3054391075        5.2884170575        3.6954959178
Zn               3.9187257369        5.2824331979        3.6821319758
Zn              -2.6196769504        7.5490378390        3.7017459131
Zn               2.6102152594        7.5502141098        3.6812129478
Zn               3.9211014358        0.7562111844        3.7030124484
Zn               9.1491781596        0.7563757271        3.6987987764
Zn               2.6113718157        3.0211274128        3.6899501708
Zn               7.8385813359        3.0222840439        3.7068226353
Zn               1.2953254661        5.2875227900        3.6493611808
Zn               6.5355080170        5.2811348898        3.7016652875
Zn              -0.0059206415        7.5416090932        3.6867087384
Zn               5.2286991710        7.5504858451        3.6819213051
C                5.0489982016        3.4051268611        9.9924907810
C                2.4627384133        6.1457121682        9.3274811489
C                2.5386032127        3.3843702379        9.6673088884
C                1.2745296287        5.4088270279        9.2569111669
C                3.7397932889        4.1063473195        9.7467424379
C                1.3211383397        4.0172636544        9.4223354726
C                3.6736132957        5.4945720807        9.5699049367
N                0.0715442106        6.0363378780        8.8537109450
H                5.2789040631        2.7027640108        9.1742966615
H                2.4461579768        7.2250773585        9.1596162582
H                2.5540196215        2.2984275549        9.7796916848
H                5.8783987063        4.1219108992       10.0543605461
H               -0.7781116002        5.5477095131        9.1303168690
H                0.0087199741        7.0254658813        9.0868961999
H                0.4056881637        3.4286799098        9.3329411883
H                4.5920756327        6.0838798589        9.5973415635
H                5.0247031874        2.8279742556       10.9293282085
End final coordinates



     Writing all to output data dir ./tmp/Zn002_3layer_ptoluidine_relax.save/ :
     XML data file, charge density, pseudopotentials, collected wavefunctions

     init_run     :     67.59s CPU     68.41s WALL (       1 calls)
     electrons    :  63652.75s CPU  64204.40s WALL (      29 calls)
     update_pot   :      4.76s CPU      4.92s WALL (      28 calls)
     forces       :   1716.01s CPU   1729.99s WALL (      29 calls)
     force_dftd3  :      6.76s CPU      7.20s WALL (      29 calls)
     stress       :   4473.82s CPU   4501.69s WALL (      29 calls)
     stres_dftd3  :      6.74s CPU      7.13s WALL (      29 calls)

     Called by init_run:
     wfcinit      :     66.08s CPU     66.76s WALL (       1 calls)
     wfcinit:atom :      0.04s CPU      0.08s WALL (       5 calls)
     wfcinit:wfcr :     65.49s CPU     65.93s WALL (       5 calls)
     potinit      :      0.15s CPU      0.16s WALL (       1 calls)
     hinit0       :      0.07s CPU      0.09s WALL (       1 calls)

     Called by electrons:
     c_bands      :  58903.13s CPU  59392.78s WALL (     266 calls)
     sum_band     :   4479.67s CPU   4523.15s WALL (     266 calls)
     v_of_rho     :     18.70s CPU     19.48s WALL (     267 calls)
     v_h          :      1.21s CPU      1.31s WALL (     267 calls)
     v_xc         :     21.24s CPU     22.22s WALL (     325 calls)
     newd         :    255.54s CPU    273.93s WALL (     267 calls)
     PAW_pot      :     19.55s CPU     19.64s WALL (     295 calls)
     mix_rho      :      2.22s CPU      2.51s WALL (     266 calls)
     energy_dftd3 :      4.31s CPU      4.32s WALL (      29 calls)

     Called by c_bands:
     init_us_2    :     59.88s CPU     60.97s WALL (    3095 calls)
     cegterg      :  58793.89s CPU  59276.90s WALL (    1330 calls)

     Called by sum_band:
     sum_band:wei :      0.64s CPU      0.68s WALL (     266 calls)
     sum_band:loo :   4240.97s CPU   4265.78s WALL (     266 calls)
     sum_band:buf :      9.35s CPU     12.40s WALL (    1330 calls)
     sum_band:ini :     26.22s CPU     26.41s WALL (    1330 calls)
     sum_band:cal :   4063.31s CPU   4082.53s WALL (    1470 calls)
     sum_band:bec :     34.34s CPU     34.44s WALL (    1470 calls)
     addusdens    :    235.87s CPU    254.15s WALL (     266 calls)
                                        0.00s GPU  (     266 calls)
     addusd:skk   :      2.64s CPU      3.38s WALL (    1064 calls)
                                        0.00s GPU  (    1064 calls)

     Called by *egterg:
     cdiaghg      :   3104.58s CPU   3227.29s WALL (    4991 calls)
     cegterg:over :   9098.24s CPU   9131.00s WALL (    3941 calls)
     cegterg:upda :   3997.90s CPU   4029.69s WALL (    3941 calls)
     cegterg:last :  14821.23s CPU  14909.23s WALL (    2786 calls)
     cdiaghg:chol :    224.51s CPU    225.09s WALL (    4991 calls)
     cdiaghg:inve :     33.48s CPU     33.58s WALL (    4991 calls)
     cdiaghg:para :    854.06s CPU    871.82s WALL (    9982 calls)
     h_psi        :  17959.30s CPU  18057.79s WALL (    5276 calls)
     s_psi        :   7429.01s CPU   7447.62s WALL (    5276 calls)
     g_psi        :      7.43s CPU      7.52s WALL (    3941 calls)

     Called by h_psi:
     h_psi:calbec :   8376.02s CPU   8417.59s WALL (    5276 calls)
     vloc_psi     :   2117.53s CPU   2134.19s WALL (    5276 calls)
     add_vuspsi   :   7455.09s CPU   7474.50s WALL (    5276 calls)

     General routines
     calbec       :  14422.42s CPU  14492.73s WALL (    7471 calls)
     fft          :     11.44s CPU     12.92s WALL (    4194 calls)
     ffts         :      0.53s CPU      0.61s WALL (     533 calls)
     fftw         :   2264.03s CPU   2281.18s WALL ( 4436772 calls)
     interpolate  :      1.11s CPU      1.22s WALL (     267 calls)

     Parallel routines

     PAW routines
     PAW_pot      :     19.55s CPU     19.64s WALL (     295 calls)

     PWSCF        :     19h32m CPU     19h42m WALL


   This run was terminated on:  21:42: 9  12Apr2025            

=------------------------------------------------------------------------------=
   JOB DONE.
=------------------------------------------------------------------------------=
