
     Program PWSCF v.7.3.1 starts on  5Apr2025 at  3:19:44 

     This program is part of the open-source Quantum ESPRESSO suite
     for quantum simulation of materials; please cite
         "P. Giannozzi et al., J. Phys.:Condens. Matter 21 395502 (2009);
         "P. Giannozzi et al., J. Phys.:Condens. Matter 29 465901 (2017);
         "P. Giannozzi et al., J. Chem. Phys. 152 154105 (2020);
          URL http://www.quantum-espresso.org", 
     in publications or presentations arising from this work. More details at
     http://www.quantum-espresso.org/quote

     Parallel version (MPI), running on    33 processors

     MPI processes distributed on     1 nodes
     79002 MiB available memory on the printing compute node when the environment starts

     Waiting for input...
     Reading input from standard input
Warning: card &CELL ignored
Warning: card   CELL_DOFREE = 'ALL' ignored
Warning: card / ignored

     Current dimensions of program PWSCF are:
     Max number of different atomic species (ntypx) = 10
     Max number of k-points (npk) =  40000
     Max angular momentum in pseudopotentials (lmaxx) =  4

     File ./tmp/05_Zn100_ABN_topsite_tilted_edgeon.update deleted, as requested

     File ./tmp/05_Zn100_ABN_topsite_tilted_edgeon.bfgs deleted, as requested
     file C.pbe-n-kjpaw_psl.1.0.0.UPF: wavefunction(s)  2S 2P renormalized

     R & G space division:  proc/nbgrp/npool/nimage =      33
     Subspace diagonalization in iterative solution of the eigenvalue problem:
     one sub-group per band group will be used
     custom distributed-memory algorithm (size of sub-group:  5*  5 procs)


     Parallelization info
     --------------------
     sticks:   dense  smooth     PW     G-vecs:    dense   smooth      PW
     Min         245     140     36                38015    16424    2211
     Max         246     141     37                38023    16429    2226
     Sum        8103    4637   1215              1254623   542067   73181

     Using Slab Decomposition



     bravais-lattice index     =            0
     lattice parameter (alat)  =      18.4179  a.u.
     unit-cell volume          =   15858.2170 (a.u.)^3
     number of atoms/cell      =           63
     number of atomic types    =            4
     number of electrons       =      1004.00
     number of Kohn-Sham states=          602
     kinetic-energy cutoff     =      40.0000  Ry
     charge density cutoff     =     280.0000  Ry
     scf convergence threshold =      1.0E-06
     mixing beta               =       0.4000
     number of iterations used =            8  plain     mixing
     energy convergence thresh.=      1.0E-05
     force convergence thresh. =      5.0E-04
     Exchange-correlation= PBE
                           (   1   4   3   4   0   0   0)
     nstep                     =          500


     celldm(1)=  18.417879  celldm(2)=   0.000000  celldm(3)=   0.000000
     celldm(4)=   0.000000  celldm(5)=   0.000000  celldm(6)=   0.000000

     crystal axes: (cart. coord. in units of alat)
               a(1) = (   1.000000   0.000000   0.000000 )  
               a(2) = (   0.000000   1.072963   0.000000 )  
               a(3) = (   0.000000  -1.365810   2.365652 )  

     reciprocal axes: (cart. coord. in units 2 pi/alat)
               b(1) = (  1.000000  0.000000 -0.000000 )  
               b(2) = ( -0.000000  0.931999  0.538090 )  
               b(3) = (  0.000000  0.000000  0.422716 )  


     PseudoPot. # 1 for Zn read from file:
     /home/ys/qepseudo/SSSP_1.3.0_PBE_efficiency/Zn_pbe_v1.uspp.F.UPF
     MD5 check sum: df62231357ef9e81f77b2b3087fa5675
     Pseudo is Ultrasoft, Zval = 20.0
     Generated by new atomic code, or converted to UPF format
     Using radial grid of  943 points,  6 beta functions with: 
                l(1) =   0
                l(2) =   0
                l(3) =   1
                l(4) =   1
                l(5) =   2
                l(6) =   2
     Q(r) pseudized with  8 coefficients,  rinner =    1.100   1.100   1.100
                                                       1.100   1.100

     PseudoPot. # 2 for N  read from file:
     /home/ys/qepseudo/SSSP_1.3.0_PBE_efficiency/N.pbe-n-radius_5.UPF
     MD5 check sum: 16739722b17309cd8fe442a2ace49922
     Pseudo is Ultrasoft + core correction, Zval =  5.0
     Generated using "atomic" code by A. Dal Corso  v.5.1
     Using radial grid of 1085 points,  4 beta functions with: 
                l(1) =   0
                l(2) =   0
                l(3) =   1
                l(4) =   1
     Q(r) pseudized with 0 coefficients 


     PseudoPot. # 3 for C  read from file:
     /home/ys/qepseudo/SSSP_1.3.0_PBE_efficiency/C.pbe-n-kjpaw_psl.1.0.0.UPF
     MD5 check sum: 5d2aebdfa2cae82b50a7e79e9516da0f
     Pseudo is Projector augmented-wave + core cor, Zval =  4.0
     Generated using "atomic" code by A. Dal Corso  v.5.1
     Shape of augmentation charge: PSQ
     Using radial grid of 1073 points,  4 beta functions with: 
                l(1) =   0
                l(2) =   0
                l(3) =   1
                l(4) =   1
     Q(r) pseudized with 0 coefficients 


     PseudoPot. # 4 for H  read from file:
     /home/ys/qepseudo/SSSP_1.3.0_PBE_efficiency/H.pbe-rrkjus_psl.1.0.0.UPF
     MD5 check sum: f52b6d4d1c606e5624b1dc7b2218f220
     Pseudo is Ultrasoft, Zval =  1.0
     Generated using "atomic" code by A. Dal Corso  v.5.1
     Using radial grid of  929 points,  2 beta functions with: 
                l(1) =   0
                l(2) =   0
     Q(r) pseudized with 0 coefficients 


     atomic species   valence    mass     pseudopotential
     Zn               20.00    65.38000     Zn( 1.00)
     N                 5.00    14.00674     N ( 1.00)
     C                 4.00    12.01070     C ( 1.00)
     H                 1.00     1.00794     H ( 1.00)

     No symmetry found


                                    s                        frac. trans.

      isym =  1     identity                                     

 cryst.   s( 1) = (     1          0          0      )
                  (     0          1          0      )
                  (     0          0          1      )

 cart.    s( 1) = (  1.0000000  0.0000000  0.0000000 )
                  (  0.0000000  1.0000000 -0.0000000 )
                  (  0.0000000  0.0000000  1.0000000 )


   Cartesian axes

     site n.     atom                  positions (alat units)
         1        Zn     tau(   1) = (   0.1250000   0.1341203   0.0774344  )
         2        Zn     tau(   2) = (   0.1250000   0.6706017   0.0774344  )
         3        Zn     tau(   3) = (   0.0519195  -0.0002338   0.3744589  )
         4        Zn     tau(   4) = (   0.0520243   0.5367133   0.3740962  )
         5        Zn     tau(   5) = (   0.1249415  -0.1338755   0.6249980  )
         6        Zn     tau(   6) = (   0.1245593   0.4023898   0.6245313  )
         7        Zn     tau(   7) = (   0.1250000   0.4023610   0.0774344  )
         8        Zn     tau(   8) = (   0.1250000   0.9388424   0.0774344  )
         9        Zn     tau(   9) = (   0.0518258   0.2684908   0.3741688  )
        10        Zn     tau(  10) = (   0.0520030   0.8046347   0.3740517  )
        11        Zn     tau(  11) = (   0.1246072   0.1340872   0.6237200  )
        12        Zn     tau(  12) = (   0.1246382   0.6706408   0.6241852  )
        13        Zn     tau(  13) = (   0.6250000   0.1341203   0.0774344  )
        14        Zn     tau(  14) = (   0.6250000   0.6706017   0.0774344  )
        15        Zn     tau(  15) = (   0.5529269  -0.0001541   0.3731260  )
        16        Zn     tau(  16) = (   0.5525551   0.5365344   0.3737323  )
        17        Zn     tau(  17) = (   0.6249314  -0.1341006   0.6241685  )
        18        Zn     tau(  18) = (   0.6247357   0.4022348   0.6237103  )
        19        Zn     tau(  19) = (   0.6250000   0.4023610   0.0774344  )
        20        Zn     tau(  20) = (   0.6250000   0.9388424   0.0774344  )
        21        Zn     tau(  21) = (   0.5531189   0.2684031   0.3725390  )
        22        Zn     tau(  22) = (   0.5526809   0.8046681   0.3735313  )
        23        Zn     tau(  23) = (   0.6248263   0.1340707   0.6234557  )
        24        Zn     tau(  24) = (   0.6249226   0.6705832   0.6235952  )
        25        Zn     tau(  25) = (   0.3750000   0.0000000   0.1548688  )
        26        Zn     tau(  26) = (   0.3750000   0.5364814   0.1548688  )
        27        Zn     tau(  27) = (   0.2930605  -0.1344297   0.3780295  )
        28        Zn     tau(  28) = (   0.2928102   0.4030071   0.3778640  )
        29        Zn     tau(  29) = (   0.3752770  -0.2683230   0.6153952  )
        30        Zn     tau(  30) = (   0.3757902   0.2690660   0.6102848  )
        31        Zn     tau(  31) = (   0.3750000   0.2682407   0.1548688  )
        32        Zn     tau(  32) = (   0.3750000   0.8047221   0.1548688  )
        33        Zn     tau(  33) = (   0.2925469   0.1339740   0.3775535  )
        34        Zn     tau(  34) = (   0.2935201   0.6706653   0.3781822  )
        35        Zn     tau(  35) = (   0.3762850  -0.0003967   0.6123911  )
        36        Zn     tau(  36) = (   0.3752867   0.5368431   0.6151961  )
        37        Zn     tau(  37) = (   0.8750000   0.0000000   0.1548688  )
        38        Zn     tau(  38) = (   0.8750000   0.5364814   0.1548688  )
        39        Zn     tau(  39) = (   0.7942704  -0.1342288   0.3790659  )
        40        Zn     tau(  40) = (   0.7940243   0.4024853   0.3791211  )
        41        Zn     tau(  41) = (   0.8755457  -0.2682130   0.6164134  )
        42        Zn     tau(  42) = (   0.8753783   0.2683168   0.6161383  )
        43        Zn     tau(  43) = (   0.8750000   0.2682407   0.1548688  )
        44        Zn     tau(  44) = (   0.8750000   0.8047221   0.1548688  )
        45        Zn     tau(  45) = (   0.7940528   0.1341778   0.3788762  )
        46        Zn     tau(  46) = (   0.7942657   0.6706391   0.3789633  )
        47        Zn     tau(  47) = (   0.8752011  -0.0000757   0.6161873  )
        48        Zn     tau(  48) = (   0.8753108   0.5364909   0.6163280  )
        49        C      tau(  49) = (   0.1121964   0.1107806   1.4597482  )
        50        C      tau(  50) = (   0.1824817   0.1201210   1.3319865  )
        51        C      tau(  51) = (   0.3151329   0.1771897   1.3249037  )
        52        C      tau(  52) = (   0.1201469   0.0736207   1.2100788  )
        53        C      tau(  53) = (   0.3828090   0.1878702   1.2002923  )
        54        C      tau(  54) = (   0.1876748   0.0844327   1.0854018  )
        55        C      tau(  55) = (   0.3203217   0.1422235   1.0778831  )
        56        N      tau(  56) = (   0.0542078   0.1040903   1.5644081  )
        57        N      tau(  57) = (   0.3886449   0.1490500   0.9545150  )
        58        H      tau(  58) = (   0.3335456   0.1400317   0.8663398  )
        59        H      tau(  59) = (   0.4709892   0.2120488   0.9463487  )
        60        H      tau(  60) = (   0.0174735   0.0294852   1.2144645  )
        61        H      tau(  61) = (   0.3645822   0.2131420   1.4185475  )
        62        H      tau(  62) = (   0.1380210   0.0483896   0.9916295  )
        63        H      tau(  63) = (   0.4855411   0.2323756   1.1966823  )

     --------------------------------------------
     DFT-D3 Dispersion Correction (3-body terms):
     --------------------------------------------
       Reference C6 values for interpolation: 

         atom   Coordination number   C6
         H          0.912             6.05
         H          0.000            15.18
         C          0.000            98.23
         C          0.987            86.49
         C          1.998            58.72
         C          2.999            51.56
         C          3.984            36.41
         N          0.000            50.54
         N          0.994            44.25
         N          2.014            39.35
         N          2.990            31.16
         Zn         0.000           681.04
         Zn         1.942           306.91

       Values used:

         atom   Coordination number  R0_AB[au]  C6      C8
         Zn         4.400            3.053    306.91  23930.67
         Zn         4.401            3.053    306.91  23930.67
         Zn         7.306            3.053    306.91  23930.67
         Zn         7.301            3.053    306.91  23930.67
         Zn         6.179            3.053    306.91  23930.67
         Zn         6.195            3.053    306.91  23930.67
         Zn         4.402            3.053    306.91  23930.67
         Zn         4.400            3.053    306.91  23930.67
         Zn         7.306            3.053    306.91  23930.67
         Zn         7.295            3.053    306.91  23930.67
         Zn         6.205            3.053    306.91  23930.67
         Zn         6.215            3.053    306.91  23930.67
         Zn         4.411            3.053    306.91  23930.67
         Zn         4.402            3.053    306.91  23930.67
         Zn         7.278            3.053    306.91  23930.67
         Zn         7.275            3.053    306.91  23930.67
         Zn         6.213            3.053    306.91  23930.67
         Zn         6.222            3.053    306.91  23930.67
         Zn         4.408            3.053    306.91  23930.67
         Zn         4.406            3.053    306.91  23930.67
         Zn         7.288            3.053    306.91  23930.67
         Zn         7.262            3.053    306.91  23930.67
         Zn         6.223            3.053    306.91  23930.67
         Zn         6.226            3.053    306.91  23930.67
         Zn         6.406            3.053    306.91  23930.67
         Zn         6.405            3.053    306.91  23930.67
         Zn         8.175            3.053    306.91  23930.67
         Zn         8.193            3.053    306.91  23930.67
         Zn         6.419            3.053    306.91  23930.67
         Zn         6.540            3.053    306.91  23930.67
         Zn         6.407            3.053    306.91  23930.67
         Zn         6.404            3.053    306.91  23930.67
         Zn         8.195            3.053    306.91  23930.67
         Zn         8.175            3.053    306.91  23930.67
         Zn         6.492            3.053    306.91  23930.67
         Zn         6.427            3.053    306.91  23930.67
         Zn         6.391            3.053    306.91  23930.67
         Zn         6.393            3.053    306.91  23930.67
         Zn         8.194            3.053    306.91  23930.67
         Zn         8.198            3.053    306.91  23930.67
         Zn         6.425            3.053    306.91  23930.67
         Zn         6.435            3.053    306.91  23930.67
         Zn         6.394            3.053    306.91  23930.67
         Zn         6.395            3.053    306.91  23930.67
         Zn         8.197            3.053    306.91  23930.67
         Zn         8.194            3.053    306.91  23930.67
         Zn         6.435            3.053    306.91  23930.67
         Zn         6.430            3.053    306.91  23930.67
         C          2.098            2.750     58.61   1695.11
         C          3.146            2.750     50.56   1462.34
         C          3.169            2.750     50.37   1456.83
         C          3.169            2.750     50.37   1456.69
         C          3.163            2.750     50.42   1458.27
         C          3.166            2.750     50.40   1457.65
         C          3.143            2.750     50.59   1463.19
         N          1.022            2.478     44.24    976.02
         N          3.093            2.478     31.24    689.14
         H          1.018            2.062      6.17     74.53
         H          1.008            2.062      6.17     74.63
         H          1.004            2.062      6.18     74.68
         H          1.004            2.062      6.18     74.68
         H          1.004            2.062      6.18     74.67
         H          1.003            2.062      6.18     74.68

         Molecular C6 ( Ry / a.u.^6 ) =    840995.52


   Crystallographic axes

     site n.     atom                  positions (cryst. coord.)
         1        Zn     tau(   1) = (  0.1250000  0.1666667  0.0327328  )
         2        Zn     tau(   2) = (  0.1250000  0.6666667  0.0327328  )
         3        Zn     tau(   3) = (  0.0519195  0.2012746  0.1582899  )
         4        Zn     tau(   4) = (  0.0520243  0.7015135  0.1581366  )
         5        Zn     tau(   5) = (  0.1249415  0.2115332  0.2641969  )
         6        Zn     tau(   6) = (  0.1245593  0.7110808  0.2639996  )
         7        Zn     tau(   7) = (  0.1250000  0.4166667  0.0327328  )
         8        Zn     tau(   8) = (  0.1250000  0.9166667  0.0327328  )
         9        Zn     tau(   9) = (  0.0518258  0.4515695  0.1581673  )
        10        Zn     tau(  10) = (  0.0520030  0.9511921  0.1581178  )
        11        Zn     tau(  11) = (  0.1246072  0.4605865  0.2636567  )
        12        Zn     tau(  12) = (  0.1246382  0.9609042  0.2638533  )
        13        Zn     tau(  13) = (  0.6250000  0.1666667  0.0327328  )
        14        Zn     tau(  14) = (  0.6250000  0.6666667  0.0327328  )
        15        Zn     tau(  15) = (  0.5529269  0.2006316  0.1577265  )
        16        Zn     tau(  16) = (  0.5525551  0.7011510  0.1579828  )
        17        Zn     tau(  17) = (  0.6249314  0.2108771  0.2638463  )
        18        Zn     tau(  18) = (  0.6247357  0.7104946  0.2636526  )
        19        Zn     tau(  19) = (  0.6250000  0.4166667  0.0327328  )
        20        Zn     tau(  20) = (  0.6250000  0.9166667  0.0327328  )
        21        Zn     tau(  21) = (  0.5531189  0.4506108  0.1574783  )
        22        Zn     tau(  22) = (  0.5526809  0.9509431  0.1578978  )
        23        Zn     tau(  23) = (  0.6248263  0.4604288  0.2635449  )
        24        Zn     tau(  24) = (  0.6249226  0.9605330  0.2636039  )
        25        Zn     tau(  25) = (  0.3750000  0.0833333  0.0654656  )
        26        Zn     tau(  26) = (  0.3750000  0.5833333  0.0654656  )
        27        Zn     tau(  27) = (  0.2930605  0.0781255  0.1597993  )
        28        Zn     tau(  28) = (  0.2928102  0.5789270  0.1597293  )
        29        Zn     tau(  29) = (  0.3752770  0.0810611  0.2601376  )
        30        Zn     tau(  30) = (  0.3757902  0.5791573  0.2579774  )
        31        Zn     tau(  31) = (  0.3750000  0.3333333  0.0654656  )
        32        Zn     tau(  32) = (  0.3750000  0.8333334  0.0654656  )
        33        Zn     tau(  33) = (  0.2925469  0.3280213  0.1595981  )
        34        Zn     tau(  34) = (  0.2935201  0.8285553  0.1598638  )
        35        Zn     tau(  35) = (  0.3762850  0.3291517  0.2588678  )
        36        Zn     tau(  36) = (  0.3752867  0.8313679  0.2600535  )
        37        Zn     tau(  37) = (  0.8750000  0.0833333  0.0654656  )
        38        Zn     tau(  38) = (  0.8750000  0.5833333  0.0654656  )
        39        Zn     tau(  39) = (  0.7942704  0.0788703  0.1602374  )
        40        Zn     tau(  40) = (  0.7940243  0.5791170  0.1602607  )
        41        Zn     tau(  41) = (  0.8755457  0.0817115  0.2605680  )
        42        Zn     tau(  42) = (  0.8753783  0.5816087  0.2604518  )
        43        Zn     tau(  43) = (  0.8750000  0.3333333  0.0654656  )
        44        Zn     tau(  44) = (  0.8750000  0.8333334  0.0654656  )
        45        Zn     tau(  45) = (  0.7940528  0.3289230  0.1601572  )
        46        Zn     tau(  46) = (  0.7942657  0.8289512  0.1601940  )
        47        Zn     tau(  47) = (  0.8752011  0.3314935  0.2604725  )
        48        Zn     tau(  48) = (  0.8753108  0.8316487  0.2605319  )
        49        C      tau(  49) = (  0.1121964  0.8887230  0.6170595  )
        50        C      tau(  50) = (  0.1824817  0.8286810  0.5630525  )
        51        C      tau(  51) = (  0.3151329  0.8780577  0.5600585  )
        52        C      tau(  52) = (  0.1201469  0.7197455  0.5115201  )
        53        C      tau(  53) = (  0.3828090  0.8209599  0.5073832  )
        54        C      tau(  54) = (  0.1876748  0.6627348  0.4588171  )
        55        C      tau(  55) = (  0.3203217  0.7125500  0.4556388  )
        56        N      tau(  56) = (  0.0542078  0.9388041  0.6613009  )
        57        N      tau(  57) = (  0.3886449  0.6525292  0.4034891  )
        58        H      tau(  58) = (  0.3335456  0.5966779  0.3662160  )
        59        H      tau(  59) = (  0.4709892  0.7068498  0.4000371  )
        60        H      tau(  60) = (  0.0174735  0.6809711  0.5133741  )
        61        H      tau(  61) = (  0.3645822  0.9619541  0.5996433  )
        62        H      tau(  62) = (  0.1380210  0.5786848  0.4191780  )
        63        H      tau(  63) = (  0.4855411  0.8604963  0.5058572  )

     number of k points=     5  Marzari-Vanderbilt smearing, width (Ry)=  0.0200
                       cart. coord. in units 2pi/alat
        k(    1) = (   0.0000000   0.0000000   0.0000000), wk =   0.2222222
        k(    2) = (   0.0000000   0.3106663   0.1793633), wk =   0.4444444
        k(    3) = (   0.3333333   0.0000000   0.0000000), wk =   0.4444444
        k(    4) = (   0.3333333   0.3106663   0.1793633), wk =   0.4444444
        k(    5) = (   0.3333333  -0.3106663  -0.1793633), wk =   0.4444444

                       cryst. coord.
        k(    1) = (   0.0000000   0.0000000   0.0000000), wk =   0.2222222
        k(    2) = (   0.0000000   0.3333333  -0.0000000), wk =   0.4444444
        k(    3) = (   0.3333333   0.0000000   0.0000000), wk =   0.4444444
        k(    4) = (   0.3333333   0.3333333  -0.0000000), wk =   0.4444444
        k(    5) = (   0.3333333  -0.3333333   0.0000000), wk =   0.4444444

     Dense  grid:  1254623 G-vectors     FFT dimensions: ( 100, 108, 270)

     Smooth grid:   542067 G-vectors     FFT dimensions: (  75,  80, 216)

     Dynamical RAM for                 wfc:      18.85 MB

     Dynamical RAM for     wfc (w. buffer):     113.10 MB

     Dynamical RAM for           str. fact:       2.32 MB

     Dynamical RAM for           local pot:       0.00 MB

     Dynamical RAM for          nlocal pot:      29.68 MB

     Dynamical RAM for                qrad:       5.37 MB

     Dynamical RAM for          rho,v,vnew:       3.97 MB

     Dynamical RAM for               rhoin:       1.32 MB

     Dynamical RAM for            rho*nmix:       9.28 MB

     Dynamical RAM for           G-vectors:       2.30 MB

     Dynamical RAM for          h,s,v(r/c):       2.64 MB

     Dynamical RAM for          <psi|beta>:       8.71 MB

     Dynamical RAM for                 psi:      37.70 MB

     Dynamical RAM for                hpsi:      37.70 MB

     Dynamical RAM for                spsi:      37.70 MB

     Dynamical RAM for      wfcinit/wfcrot:      51.86 MB

     Dynamical RAM for           addusdens:     135.76 MB

     Dynamical RAM for          addusforce:     190.77 MB

     Dynamical RAM for         addusstress:     116.61 MB

     Estimated static dynamical RAM per process >     164.67 MB

     Estimated max dynamical RAM per process >     364.72 MB

     Estimated total dynamical RAM >      11.75 GB

     Initial potential from superposition of free atoms

     starting charge    1003.9929, renormalised to    1004.0000

     negative rho (up, down):  1.783E-03 0.000E+00
     Starting wfcs are  666 randomized atomic wfcs
     Checking if some PAW data can be deallocated... 
       PAW data deallocated on   29 nodes for type:  3

     total cpu time spent up to now is       70.5 secs

     Self-consistent Calculation

     iteration #  1     ecut=    40.00 Ry     beta= 0.40
     Davidson diagonalization with overlap

---- Real-time Memory Report at c_bands before calling an iterative solver
           245 MiB given to the printing process from OS
             0 MiB allocation reported by mallinfo(arena+hblkhd)
         72994 MiB available memory on the node where the printing process lives
------------------
     ethr =  1.00E-02,  avg # of iterations =  7.8

     negative rho (up, down):  2.275E-03 0.000E+00

     total cpu time spent up to now is      345.3 secs

     total energy              =  -22326.33451894 Ry
     estimated scf accuracy    <      10.69045055 Ry

     iteration #  2     ecut=    40.00 Ry     beta= 0.40
     Davidson diagonalization with overlap

---- Real-time Memory Report at c_bands before calling an iterative solver
           342 MiB given to the printing process from OS
             0 MiB allocation reported by mallinfo(arena+hblkhd)
         71651 MiB available memory on the node where the printing process lives
------------------
     ethr =  1.06E-03,  avg # of iterations = 11.0

     negative rho (up, down):  3.684E-03 0.000E+00

     total cpu time spent up to now is      626.1 secs

     total energy              =  -22311.26724821 Ry
     estimated scf accuracy    <     304.36693984 Ry

     iteration #  3     ecut=    40.00 Ry     beta= 0.40
     Davidson diagonalization with overlap

---- Real-time Memory Report at c_bands before calling an iterative solver
           358 MiB given to the printing process from OS
             0 MiB allocation reported by mallinfo(arena+hblkhd)
         71624 MiB available memory on the node where the printing process lives
------------------
     ethr =  1.06E-03,  avg # of iterations =  8.0

     negative rho (up, down):  3.405E-03 0.000E+00

     total cpu time spent up to now is      957.1 secs

     total energy              =  -22330.46919185 Ry
     estimated scf accuracy    <       7.38838958 Ry

     iteration #  4     ecut=    40.00 Ry     beta= 0.40
     Davidson diagonalization with overlap

---- Real-time Memory Report at c_bands before calling an iterative solver
           359 MiB given to the printing process from OS
             0 MiB allocation reported by mallinfo(arena+hblkhd)
         71599 MiB available memory on the node where the printing process lives
------------------
     ethr =  7.36E-04,  avg # of iterations =  3.4

     negative rho (up, down):  3.293E-03 0.000E+00

     total cpu time spent up to now is     1184.4 secs

     total energy              =  -22330.89286562 Ry
     estimated scf accuracy    <       5.99972911 Ry

     iteration #  5     ecut=    40.00 Ry     beta= 0.40
     Davidson diagonalization with overlap

---- Real-time Memory Report at c_bands before calling an iterative solver
           362 MiB given to the printing process from OS
             0 MiB allocation reported by mallinfo(arena+hblkhd)
         71580 MiB available memory on the node where the printing process lives
------------------
     ethr =  5.98E-04,  avg # of iterations =  2.2

     negative rho (up, down):  3.270E-03 0.000E+00

     total cpu time spent up to now is     1402.6 secs

     total energy              =  -22331.26338614 Ry
     estimated scf accuracy    <       0.37210872 Ry

     iteration #  6     ecut=    40.00 Ry     beta= 0.40
     Davidson diagonalization with overlap

---- Real-time Memory Report at c_bands before calling an iterative solver
           363 MiB given to the printing process from OS
             0 MiB allocation reported by mallinfo(arena+hblkhd)
         71549 MiB available memory on the node where the printing process lives
------------------
     ethr =  3.71E-05,  avg # of iterations =  8.0

     negative rho (up, down):  3.348E-03 0.000E+00

     total cpu time spent up to now is     1647.8 secs

     total energy              =  -22331.26913609 Ry
     estimated scf accuracy    <       0.18563868 Ry

     iteration #  7     ecut=    40.00 Ry     beta= 0.40
     Davidson diagonalization with overlap

---- Real-time Memory Report at c_bands before calling an iterative solver
           364 MiB given to the printing process from OS
             0 MiB allocation reported by mallinfo(arena+hblkhd)
         71525 MiB available memory on the node where the printing process lives
------------------
     ethr =  1.85E-05,  avg # of iterations =  6.6

     negative rho (up, down):  3.424E-03 0.000E+00

     total cpu time spent up to now is     1876.8 secs

     total energy              =  -22331.26958085 Ry
     estimated scf accuracy    <       0.06112138 Ry

     iteration #  8     ecut=    40.00 Ry     beta= 0.40
     Davidson diagonalization with overlap

---- Real-time Memory Report at c_bands before calling an iterative solver
           364 MiB given to the printing process from OS
             0 MiB allocation reported by mallinfo(arena+hblkhd)
         71499 MiB available memory on the node where the printing process lives
------------------
     ethr =  6.09E-06,  avg # of iterations = 14.2

     negative rho (up, down):  3.467E-03 0.000E+00

     total cpu time spent up to now is     2133.1 secs

     total energy              =  -22331.26699851 Ry
     estimated scf accuracy    <       0.05792247 Ry

     iteration #  9     ecut=    40.00 Ry     beta= 0.40
     Davidson diagonalization with overlap

---- Real-time Memory Report at c_bands before calling an iterative solver
           365 MiB given to the printing process from OS
             0 MiB allocation reported by mallinfo(arena+hblkhd)
         71475 MiB available memory on the node where the printing process lives
------------------
     ethr =  5.77E-06,  avg # of iterations =  2.8

     negative rho (up, down):  3.503E-03 0.000E+00

     total cpu time spent up to now is     2352.4 secs

     total energy              =  -22331.26547610 Ry
     estimated scf accuracy    <       0.03352115 Ry

     iteration # 10     ecut=    40.00 Ry     beta= 0.40
     Davidson diagonalization with overlap

---- Real-time Memory Report at c_bands before calling an iterative solver
           366 MiB given to the printing process from OS
             0 MiB allocation reported by mallinfo(arena+hblkhd)
         71451 MiB available memory on the node where the printing process lives
------------------
     c_bands:  1 eigenvalues not converged
     c_bands:  1 eigenvalues not converged
     ethr =  3.34E-06,  avg # of iterations = 16.4

     negative rho (up, down):  3.538E-03 0.000E+00

     total cpu time spent up to now is     2599.5 secs

     total energy              =  -22331.26079505 Ry
     estimated scf accuracy    <       0.02625389 Ry

     iteration # 11     ecut=    40.00 Ry     beta= 0.40
     Davidson diagonalization with overlap

---- Real-time Memory Report at c_bands before calling an iterative solver
           367 MiB given to the printing process from OS
             0 MiB allocation reported by mallinfo(arena+hblkhd)
         71451 MiB available memory on the node where the printing process lives
------------------
     c_bands:  1 eigenvalues not converged
     ethr =  2.61E-06,  avg # of iterations = 15.2

     negative rho (up, down):  3.653E-03 0.000E+00

     total cpu time spent up to now is     2849.2 secs

     total energy              =  -22331.24804503 Ry
     estimated scf accuracy    <       0.01792161 Ry

     iteration # 12     ecut=    40.00 Ry     beta= 0.40
     Davidson diagonalization with overlap

---- Real-time Memory Report at c_bands before calling an iterative solver
           367 MiB given to the printing process from OS
             0 MiB allocation reported by mallinfo(arena+hblkhd)
         71448 MiB available memory on the node where the printing process lives
------------------
     ethr =  1.79E-06,  avg # of iterations = 18.8

     negative rho (up, down):  3.617E-03 0.000E+00

     total cpu time spent up to now is     3164.7 secs

     total energy              =  -22331.25097460 Ry
     estimated scf accuracy    <       0.00207694 Ry

     iteration # 13     ecut=    40.00 Ry     beta= 0.40
     Davidson diagonalization with overlap

---- Real-time Memory Report at c_bands before calling an iterative solver
           367 MiB given to the printing process from OS
             0 MiB allocation reported by mallinfo(arena+hblkhd)
         71443 MiB available memory on the node where the printing process lives
------------------
     ethr =  2.07E-07,  avg # of iterations =  2.2

     negative rho (up, down):  3.592E-03 0.000E+00

     total cpu time spent up to now is     3380.6 secs

     total energy              =  -22331.25125581 Ry
     estimated scf accuracy    <       0.00036825 Ry

     iteration # 14     ecut=    40.00 Ry     beta= 0.40
     Davidson diagonalization with overlap

---- Real-time Memory Report at c_bands before calling an iterative solver
           367 MiB given to the printing process from OS
             0 MiB allocation reported by mallinfo(arena+hblkhd)
         71441 MiB available memory on the node where the printing process lives
------------------
     ethr =  3.67E-08,  avg # of iterations =  2.0

     negative rho (up, down):  3.584E-03 0.000E+00

     total cpu time spent up to now is     3598.3 secs

     total energy              =  -22331.25128000 Ry
     estimated scf accuracy    <       0.00011533 Ry

     iteration # 15     ecut=    40.00 Ry     beta= 0.40
     Davidson diagonalization with overlap

---- Real-time Memory Report at c_bands before calling an iterative solver
           367 MiB given to the printing process from OS
             0 MiB allocation reported by mallinfo(arena+hblkhd)
         71440 MiB available memory on the node where the printing process lives
------------------
     ethr =  1.15E-08,  avg # of iterations =  2.0

     negative rho (up, down):  3.576E-03 0.000E+00

     total cpu time spent up to now is     3815.4 secs

     total energy              =  -22331.25127005 Ry
     estimated scf accuracy    <       0.00053495 Ry

     iteration # 16     ecut=    40.00 Ry     beta= 0.40
     Davidson diagonalization with overlap

---- Real-time Memory Report at c_bands before calling an iterative solver
           367 MiB given to the printing process from OS
             0 MiB allocation reported by mallinfo(arena+hblkhd)
         71441 MiB available memory on the node where the printing process lives
------------------
     ethr =  1.15E-08,  avg # of iterations =  2.0

     negative rho (up, down):  3.571E-03 0.000E+00

     total cpu time spent up to now is     4031.6 secs

     total energy              =  -22331.25130753 Ry
     estimated scf accuracy    <       0.00002261 Ry

     iteration # 17     ecut=    40.00 Ry     beta= 0.40
     Davidson diagonalization with overlap

---- Real-time Memory Report at c_bands before calling an iterative solver
           367 MiB given to the printing process from OS
             0 MiB allocation reported by mallinfo(arena+hblkhd)
         71435 MiB available memory on the node where the printing process lives
------------------
     ethr =  2.25E-09,  avg # of iterations =  2.0

     negative rho (up, down):  3.569E-03 0.000E+00

     total cpu time spent up to now is     4249.5 secs

     total energy              =  -22331.25130969 Ry
     estimated scf accuracy    <       0.00000252 Ry

     iteration # 18     ecut=    40.00 Ry     beta= 0.40
     Davidson diagonalization with overlap

---- Real-time Memory Report at c_bands before calling an iterative solver
           367 MiB given to the printing process from OS
             0 MiB allocation reported by mallinfo(arena+hblkhd)
         71432 MiB available memory on the node where the printing process lives
------------------
     ethr =  2.51E-10,  avg # of iterations =  2.0

     negative rho (up, down):  3.569E-03 0.000E+00

     total cpu time spent up to now is     4469.3 secs

     total energy              =  -22331.25130990 Ry
     estimated scf accuracy    <       0.00000165 Ry

     iteration # 19     ecut=    40.00 Ry     beta= 0.40
     Davidson diagonalization with overlap

---- Real-time Memory Report at c_bands before calling an iterative solver
           367 MiB given to the printing process from OS
             0 MiB allocation reported by mallinfo(arena+hblkhd)
         71432 MiB available memory on the node where the printing process lives
------------------
     ethr =  1.64E-10,  avg # of iterations =  2.0

     negative rho (up, down):  3.568E-03 0.000E+00

     total cpu time spent up to now is     4685.3 secs

     End of self-consistent calculation

          k = 0.0000 0.0000 0.0000 ( 67685 PWs)   bands (ev):

  -125.0584-125.0571-125.0560-125.0556-125.0539-125.0535-125.0526-125.0518
  -124.9624-124.9615-124.9604-124.9588-124.9585-124.9563-124.9546-124.9525
  -124.9216-124.9065-124.8883-124.8874-124.8840-124.8831-124.8815-124.8809
  -124.8676-124.8666-124.8658-124.8649-124.8642-124.8634-124.8633-124.8624
  -124.8418-124.8345-124.8323-124.8251-124.8238-124.8225-124.8220-124.8213
  -124.6384-124.6378-124.6375-124.6369-124.6365-124.6363-124.6355-124.6352
   -79.2216 -79.2210 -79.2121 -79.2105 -79.2096 -79.2092 -79.2088 -79.2086
   -79.2084 -79.2082 -79.2073 -79.2069 -79.2059 -79.2050 -79.2027 -79.2017
   -79.2002 -79.2000 -79.1984 -79.1977 -79.1969 -79.1959 -79.1958 -79.1958
   -79.1205 -79.1191 -79.1182 -79.1170 -79.1157 -79.1156 -79.1150 -79.1136
   -79.1131 -79.1126 -79.1115 -79.1113 -79.1103 -79.1095 -79.1092 -79.1088
   -79.1078 -79.1076 -79.1058 -79.1037 -79.1034 -79.1029 -79.0958 -79.0906
   -79.0836 -79.0737 -79.0682 -79.0646 -79.0557 -79.0501 -79.0490 -79.0487
   -79.0480 -79.0446 -79.0436 -79.0420 -79.0413 -79.0387 -79.0365 -79.0352
   -79.0333 -79.0321 -79.0299 -79.0288 -79.0279 -79.0272 -79.0263 -79.0262
   -79.0257 -79.0255 -79.0253 -79.0244 -79.0235 -79.0229 -79.0228 -79.0219
   -79.0218 -79.0210 -79.0177 -79.0175 -79.0149 -79.0149 -79.0115 -79.0104
   -79.0097 -79.0088 -79.0082 -79.0072 -79.0071 -79.0062 -79.0053 -79.0044
   -79.0026 -78.9965 -78.9941 -78.9924 -78.9892 -78.9880 -78.9873 -78.9857
   -78.9839 -78.9835 -78.9828 -78.9814 -78.9794 -78.9770 -78.9763 -78.9728
   -78.9722 -78.9717 -78.9712 -78.9698 -78.9694 -78.9689 -78.9607 -78.9606
   -78.8125 -78.8120 -78.8116 -78.8111 -78.8106 -78.8104 -78.8094 -78.8092
   -78.7937 -78.7935 -78.7852 -78.7846 -78.7842 -78.7836 -78.7832 -78.7831
   -78.7821 -78.7819 -78.7816 -78.7813 -78.7811 -78.7810 -78.7689 -78.7689
   -17.6068 -16.2388 -15.3853 -12.9952 -12.9132  -9.9897  -9.7211  -8.1838
    -7.8313  -7.2808  -7.2317  -7.0886  -6.9225  -6.9192  -6.9168  -6.8031
    -6.7841  -6.7353  -6.6827  -6.6581  -6.6155  -6.5949  -6.5884  -6.5483
    -6.5334  -6.5314  -6.5139  -6.5134  -6.4868  -6.4808  -6.4804  -6.4753
    -6.4682  -6.4298  -6.4271  -6.3934  -6.3928  -6.3886  -6.3720  -6.3713
    -6.3618  -6.3515  -6.3452  -6.3450  -6.3390  -6.3385  -6.3109  -6.3070
    -6.3063  -6.3004  -6.2992  -6.2764  -6.2594  -6.2590  -6.2401  -6.2346
    -6.2324  -6.2290  -6.2233  -6.2174  -6.2159  -6.2117  -6.2001  -6.1988
    -6.1803  -6.1770  -6.1650  -6.1633  -6.1625  -6.1514  -6.1506  -6.1387
    -6.1304  -6.1160  -6.1150  -6.1038  -6.1006  -6.0998  -6.0921  -6.0905
    -6.0819  -6.0793  -6.0782  -6.0553  -6.0545  -6.0502  -6.0492  -6.0311
    -6.0302  -6.0236  -6.0148  -6.0037  -6.0034  -5.9983  -5.9963  -5.9841
    -5.9718  -5.9697  -5.9615  -5.9547  -5.9448  -5.9367  -5.9362  -5.9231
    -5.9190  -5.9155  -5.9144  -5.9052  -5.9033  -5.8923  -5.8910  -5.8895
    -5.8878  -5.8716  -5.8710  -5.8548  -5.8545  -5.8483  -5.8424  -5.8421
    -5.8359  -5.8309  -5.8276  -5.8257  -5.8239  -5.8221  -5.8201  -5.8102
    -5.8081  -5.8054  -5.7910  -5.7829  -5.7820  -5.7798  -5.7781  -5.7730
    -5.7526  -5.7489  -5.7481  -5.7370  -5.7363  -5.7348  -5.7261  -5.7257
    -5.7236  -5.7207  -5.7180  -5.7168  -5.7106  -5.7100  -5.7020  -5.6844
    -5.6715  -5.6706  -5.6687  -5.6665  -5.6655  -5.6457  -5.6424  -5.6393
    -5.6392  -5.6231  -5.6218  -5.6192  -5.6128  -5.6117  -5.6029  -5.6023
    -5.5980  -5.5953  -5.5845  -5.5842  -5.5825  -5.5785  -5.5769  -5.5590
    -5.5436  -5.5433  -5.5428  -5.5423  -5.5338  -5.5329  -5.5250  -5.5214
    -5.5188  -5.5166  -5.5082  -5.5057  -5.5053  -5.5019  -5.4958  -5.4951
    -5.4949  -5.4948  -5.4945  -5.4930  -5.4784  -5.4772  -5.4764  -5.4756
    -5.4746  -5.4729  -5.4668  -5.4645  -5.4643  -5.4606  -5.4595  -5.4563
    -5.4498  -5.4463  -5.4458  -5.4451  -5.4435  -5.4363  -5.4228  -5.4220
    -5.4190  -5.4189  -5.4168  -5.4129  -5.4122  -5.4115  -5.4100  -5.3979
    -5.3973  -5.3895  -5.3892  -5.3774  -5.3755  -5.3745  -5.3730  -5.3648
    -5.3646  -5.3632  -5.3610  -5.3447  -5.3404  -5.3332  -5.3327  -5.3270
    -5.3269  -5.2957  -5.2895  -5.2891  -5.2767  -5.2467  -5.2460  -5.2315
    -5.2188  -5.2069  -5.1930  -5.1913  -5.1832  -5.1500  -5.1442  -5.1441
    -5.1042  -5.0439  -4.6899  -4.5025  -4.5013  -4.4236  -4.4219  -4.2946
    -4.2938  -4.2381  -4.1793  -4.1678  -3.8946  -3.2934  -3.0161  -2.9220
    -2.9173  -2.8376  -2.8059  -2.7940  -2.1804  -2.1644  -2.1552  -2.0501
    -1.8185  -1.8094  -1.7768  -1.7657  -1.5756  -1.3293  -0.8492  -0.8461
    -0.8310  -0.8273  -0.8212  -0.5306  -0.5117  -0.3931  -0.3888  -0.2858
    -0.1434  -0.0273   0.0029   0.2327   0.2336   0.2390   0.5054   0.5310
     0.6343   0.6385   0.7783   1.0576   1.0643   1.3071   1.3864   1.4829
     1.6350   2.0187   2.0250   2.0305   2.2397   2.3464   2.5286   2.5854
     2.5894   2.8312   2.8434   2.9704   3.0736   3.0788   3.2424   3.4707
     3.4993   3.8808   3.8913   4.0631   4.0974   4.1717   4.1966   4.2703
     4.3270   4.4135   4.4162   4.5586   4.7723   4.7796   4.8251   4.8293
     5.1308   5.2183   5.2949   5.3904   5.4066   5.4094   5.4146   5.4791
     5.4878   5.7315   5.9199   6.0179   6.1607   6.2822   6.3697   6.4220
     6.4273   6.5008   6.5498   6.5620   6.5943   6.6614   6.6784   6.7453
     6.8236   6.8603   6.8791   6.9021   6.9072   6.9508   6.9620   6.9953
     7.0399   7.0886   7.1265   7.1333   7.1377   7.2464   7.2637   7.3086
     7.4013   7.4646   7.4841   7.5317   7.5666   7.7285   7.8217   7.8628
     7.9012   7.9756   7.9981   8.1126   8.1341   8.1373   8.2124   8.2407
     8.2788   8.3184   8.3619   8.3985   8.4240   8.4670   8.5190   8.5231
     8.5575   8.5895

     occupation numbers 
     1.0000   1.0000   1.0000   1.0000   1.0000   1.0000   1.0000   1.0000
     1.0000   1.0000   1.0000   1.0000   1.0000   1.0000   1.0000   1.0000
     1.0000   1.0000   1.0000   1.0000   1.0000   1.0000   1.0000   1.0000
     1.0000   1.0000   1.0000   1.0000   1.0000   1.0000   1.0000   1.0000
     1.0000   1.0000   1.0000   1.0000   1.0000   1.0000   1.0000   1.0000
     1.0000   1.0000   1.0000   1.0000   1.0000   1.0000   1.0000   1.0000
     1.0000   1.0000   1.0000   1.0000   1.0000   1.0000   1.0000   1.0000
     1.0000   1.0000   1.0000   1.0000   1.0000   1.0000   1.0000   1.0000
     1.0000   1.0000   1.0000   1.0000   1.0000   1.0000   1.0000   1.0000
     1.0000   1.0000   1.0000   1.0000   1.0000   1.0000   1.0000   1.0000
     1.0000   1.0000   1.0000   1.0000   1.0000   1.0000   1.0000   1.0000
     1.0000   1.0000   1.0000   1.0000   1.0000   1.0000   1.0000   1.0000
     1.0000   1.0000   1.0000   1.0000   1.0000   1.0000   1.0000   1.0000
     1.0000   1.0000   1.0000   1.0000   1.0000   1.0000   1.0000   1.0000
     1.0000   1.0000   1.0000   1.0000   1.0000   1.0000   1.0000   1.0000
     1.0000   1.0000   1.0000   1.0000   1.0000   1.0000   1.0000   1.0000
     1.0000   1.0000   1.0000   1.0000   1.0000   1.0000   1.0000   1.0000
     1.0000   1.0000   1.0000   1.0000   1.0000   1.0000   1.0000   1.0000
     1.0000   1.0000   1.0000   1.0000   1.0000   1.0000   1.0000   1.0000
     1.0000   1.0000   1.0000   1.0000   1.0000   1.0000   1.0000   1.0000
     1.0000   1.0000   1.0000   1.0000   1.0000   1.0000   1.0000   1.0000
     1.0000   1.0000   1.0000   1.0000   1.0000   1.0000   1.0000   1.0000
     1.0000   1.0000   1.0000   1.0000   1.0000   1.0000   1.0000   1.0000
     1.0000   1.0000   1.0000   1.0000   1.0000   1.0000   1.0000   1.0000
     1.0000   1.0000   1.0000   1.0000   1.0000   1.0000   1.0000   1.0000
     1.0000   1.0000   1.0000   1.0000   1.0000   1.0000   1.0000   1.0000
     1.0000   1.0000   1.0000   1.0000   1.0000   1.0000   1.0000   1.0000
     1.0000   1.0000   1.0000   1.0000   1.0000   1.0000   1.0000   1.0000
     1.0000   1.0000   1.0000   1.0000   1.0000   1.0000   1.0000   1.0000
     1.0000   1.0000   1.0000   1.0000   1.0000   1.0000   1.0000   1.0000
     1.0000   1.0000   1.0000   1.0000   1.0000   1.0000   1.0000   1.0000
     1.0000   1.0000   1.0000   1.0000   1.0000   1.0000   1.0000   1.0000
     1.0000   1.0000   1.0000   1.0000   1.0000   1.0000   1.0000   1.0000
     1.0000   1.0000   1.0000   1.0000   1.0000   1.0000   1.0000   1.0000
     1.0000   1.0000   1.0000   1.0000   1.0000   1.0000   1.0000   1.0000
     1.0000   1.0000   1.0000   1.0000   1.0000   1.0000   1.0000   1.0000
     1.0000   1.0000   1.0000   1.0000   1.0000   1.0000   1.0000   1.0000
     1.0000   1.0000   1.0000   1.0000   1.0000   1.0000   1.0000   1.0000
     1.0000   1.0000   1.0000   1.0000   1.0000   1.0000   1.0000   1.0000
     1.0000   1.0000   1.0000   1.0000   1.0000   1.0000   1.0000   1.0000
     1.0000   1.0000   1.0000   1.0000   1.0000   1.0000   1.0000   1.0000
     1.0000   1.0000   1.0000   1.0000   1.0000   1.0000   1.0000   1.0000
     1.0000   1.0000   1.0000   1.0000   1.0000   1.0000   1.0000   1.0000
     1.0000   1.0000   1.0000   1.0000   1.0000   1.0000   1.0000   1.0000
     1.0000   1.0000   1.0000   1.0000   1.0000   1.0000   1.0000   1.0000
     1.0000   1.0000   1.0000   1.0000   1.0000   1.0000   1.0000   1.0000
     1.0000   1.0000   1.0000   1.0000   1.0000   1.0000   1.0000   1.0000
     1.0000   1.0000   1.0000   1.0000   1.0000   1.0000   1.0000   1.0000
     1.0000   1.0000   1.0000   1.0000   1.0000   1.0000   1.0000   1.0000
     1.0000   1.0000   1.0000   1.0000   1.0000   1.0000   1.0000   1.0000
     1.0000   1.0000   1.0000   1.0000   1.0000   1.0000   1.0000   1.0000
     1.0000   1.0000   1.0000   1.0000   1.0000   1.0000   1.0000   1.0000
     1.0000   1.0000   1.0000   1.0000   1.0000   1.0000   1.0000   1.0000
     1.0000   1.0000   1.0000   1.0000   1.0000   1.0000   1.0000   1.0000
     1.0000   1.0000   1.0000   1.0000   1.0000   1.0000   1.0000   1.0000
     1.0000   1.0000   1.0000   1.0000   1.0000   1.0000   1.0000   1.0000
     1.0000   1.0000   1.0000   1.0000   1.0000   1.0000   1.0000   1.0000
     1.0000   1.0000   1.0000   1.0000   1.0000   1.0000   1.0000   1.0000
     1.0000   1.0000   1.0000   1.0000   1.0000   1.0000   1.0000   1.0000
     1.0000   1.0000   1.0000   1.0000   1.0000   1.0000   1.0000   1.0000
     1.0000   1.0000   1.0000   1.0000   1.0000   1.0000   1.0000   1.0000
     1.0000   1.0000   1.0000   1.0000   1.0000   1.0000   1.0002   1.0003
     1.0018   1.0019   1.0130   1.0833   1.0831   0.7595   0.5436   0.3002
     0.0749   0.0002   0.0001   0.0001   0.0000   0.0000   0.0000   0.0000
     0.0000   0.0000   0.0000   0.0000   0.0000   0.0000   0.0000   0.0000
     0.0000   0.0000   0.0000   0.0000   0.0000   0.0000   0.0000   0.0000
     0.0000   0.0000   0.0000   0.0000   0.0000   0.0000   0.0000   0.0000
     0.0000   0.0000   0.0000   0.0000   0.0000   0.0000   0.0000   0.0000
     0.0000   0.0000   0.0000   0.0000   0.0000   0.0000   0.0000   0.0000
     0.0000   0.0000   0.0000   0.0000   0.0000   0.0000   0.0000   0.0000
     0.0000   0.0000   0.0000   0.0000   0.0000   0.0000   0.0000   0.0000
     0.0000   0.0000   0.0000   0.0000   0.0000   0.0000   0.0000   0.0000
     0.0000   0.0000   0.0000   0.0000   0.0000   0.0000   0.0000   0.0000
     0.0000   0.0000   0.0000   0.0000   0.0000   0.0000   0.0000   0.0000
     0.0000   0.0000   0.0000   0.0000   0.0000   0.0000   0.0000   0.0000
     0.0000   0.0000

          k = 0.0000 0.3107 0.1794 ( 67822 PWs)   bands (ev):

  -125.0584-125.0571-125.0560-125.0556-125.0539-125.0535-125.0526-125.0518
  -124.9624-124.9615-124.9604-124.9588-124.9585-124.9563-124.9546-124.9525
  -124.9216-124.9065-124.8882-124.8874-124.8840-124.8831-124.8815-124.8809
  -124.8676-124.8667-124.8657-124.8650-124.8641-124.8637-124.8629-124.8625
  -124.8418-124.8345-124.8323-124.8252-124.8238-124.8225-124.8220-124.8213
  -124.6384-124.6378-124.6376-124.6371-124.6364-124.6362-124.6355-124.6352
   -79.2202 -79.2195 -79.2148 -79.2145 -79.2121 -79.2105 -79.2094 -79.2089
   -79.2072 -79.2069 -79.2059 -79.2050 -79.2030 -79.2027 -79.2024 -79.2017
   -79.2003 -79.2000 -79.1984 -79.1977 -79.1973 -79.1972 -79.1969 -79.1959
   -79.1191 -79.1189 -79.1182 -79.1170 -79.1156 -79.1150 -79.1143 -79.1143
   -79.1135 -79.1131 -79.1127 -79.1115 -79.1113 -79.1103 -79.1095 -79.1092
   -79.1090 -79.1078 -79.1058 -79.1037 -79.1022 -79.0974 -79.0973 -79.0920
   -79.0836 -79.0735 -79.0682 -79.0646 -79.0562 -79.0501 -79.0489 -79.0480
   -79.0474 -79.0446 -79.0436 -79.0420 -79.0416 -79.0413 -79.0382 -79.0333
   -79.0322 -79.0301 -79.0288 -79.0283 -79.0279 -79.0263 -79.0262 -79.0260
   -79.0255 -79.0255 -79.0253 -79.0243 -79.0242 -79.0237 -79.0235 -79.0227
   -79.0223 -79.0215 -79.0211 -79.0210 -79.0115 -79.0115 -79.0105 -79.0096
   -79.0088 -79.0088 -79.0081 -79.0076 -79.0069 -79.0067 -79.0063 -79.0044
   -79.0043 -78.9965 -78.9941 -78.9920 -78.9884 -78.9880 -78.9873 -78.9857
   -78.9839 -78.9835 -78.9828 -78.9814 -78.9802 -78.9794 -78.9787 -78.9722
   -78.9712 -78.9698 -78.9696 -78.9694 -78.9689 -78.9689 -78.9616 -78.9615
   -78.8125 -78.8120 -78.8117 -78.8112 -78.8105 -78.8103 -78.8095 -78.8092
   -78.7921 -78.7919 -78.7874 -78.7873 -78.7851 -78.7846 -78.7843 -78.7838
   -78.7832 -78.7829 -78.7822 -78.7819 -78.7752 -78.7751 -78.7705 -78.7705
   -17.6069 -16.2389 -15.3853 -12.9952 -12.9132  -9.9897  -9.7211  -8.0258
    -7.8313  -7.5713  -7.2754  -7.2283  -6.9608  -6.8210  -6.7071  -6.7065
    -6.6850  -6.6414  -6.6311  -6.6267  -6.6008  -6.5936  -6.5587  -6.5551
    -6.5521  -6.5374  -6.5221  -6.5094  -6.5008  -6.4681  -6.4635  -6.4530
    -6.4516  -6.4455  -6.4453  -6.4372  -6.4317  -6.4139  -6.4121  -6.4073
    -6.4011  -6.3990  -6.3822  -6.3765  -6.3585  -6.3420  -6.3327  -6.3236
    -6.3118  -6.3022  -6.3000  -6.2924  -6.2857  -6.2815  -6.2580  -6.2480
    -6.2374  -6.2354  -6.2251  -6.2232  -6.2181  -6.2015  -6.1935  -6.1903
    -6.1852  -6.1802  -6.1748  -6.1632  -6.1601  -6.1556  -6.1533  -6.1301
    -6.1292  -6.1280  -6.1269  -6.1159  -6.1131  -6.1101  -6.0936  -6.0909
    -6.0861  -6.0834  -6.0756  -6.0710  -6.0677  -6.0620  -6.0563  -6.0561
    -6.0408  -6.0323  -6.0229  -6.0205  -6.0059  -6.0038  -6.0002  -5.9992
    -5.9872  -5.9868  -5.9678  -5.9656  -5.9615  -5.9598  -5.9575  -5.9535
    -5.9500  -5.9443  -5.9409  -5.9350  -5.9223  -5.9123  -5.9076  -5.9047
    -5.8976  -5.8828  -5.8787  -5.8777  -5.8755  -5.8741  -5.8670  -5.8539
    -5.8533  -5.8428  -5.8425  -5.8283  -5.8273  -5.8263  -5.8204  -5.8121
    -5.8081  -5.8033  -5.8001  -5.7972  -5.7958  -5.7851  -5.7834  -5.7764
    -5.7750  -5.7694  -5.7645  -5.7520  -5.7380  -5.7350  -5.7343  -5.7279
    -5.7193  -5.7152  -5.7077  -5.7048  -5.6990  -5.6882  -5.6861  -5.6724
    -5.6712  -5.6642  -5.6616  -5.6544  -5.6520  -5.6251  -5.6240  -5.6213
    -5.6139  -5.6123  -5.6027  -5.6005  -5.5962  -5.5940  -5.5892  -5.5849
    -5.5835  -5.5624  -5.5603  -5.5579  -5.5558  -5.5496  -5.5475  -5.5444
    -5.5432  -5.5407  -5.5363  -5.5349  -5.5253  -5.5161  -5.5149  -5.5109
    -5.5058  -5.5000  -5.4956  -5.4944  -5.4932  -5.4916  -5.4874  -5.4864
    -5.4810  -5.4768  -5.4757  -5.4740  -5.4671  -5.4627  -5.4553  -5.4547
    -5.4520  -5.4508  -5.4465  -5.4452  -5.4442  -5.4438  -5.4415  -5.4404
    -5.4372  -5.4363  -5.4295  -5.4278  -5.4228  -5.4219  -5.4179  -5.4144
    -5.4137  -5.4010  -5.3996  -5.3990  -5.3976  -5.3900  -5.3854  -5.3818
    -5.3806  -5.3751  -5.3692  -5.3683  -5.3596  -5.3595  -5.3580  -5.3560
    -5.3546  -5.3470  -5.3365  -5.3339  -5.3333  -5.3214  -5.3199  -5.3106
    -5.3027  -5.2979  -5.2969  -5.2727  -5.2676  -5.2610  -5.2426  -5.2416
    -5.2357  -5.2226  -5.2030  -5.1965  -5.1939  -5.1845  -5.1755  -5.1042
    -5.1022  -4.9747  -4.9693  -4.8947  -4.8501  -4.6894  -4.1824  -4.0712
    -4.0156  -3.8969  -3.6245  -3.5898  -3.5594  -3.5430  -3.4166  -3.2954
    -3.1751  -3.0105  -2.8484  -2.7850  -2.2359  -2.1774  -1.9894  -1.9210
    -1.9076  -1.8992  -1.8096  -1.7381  -1.6098  -1.5776  -1.5193  -1.1813
    -1.1399  -1.1233  -0.8252  -0.6633  -0.5808  -0.5659  -0.3779  -0.3256
    -0.1791   0.1211   0.1278   0.2114   0.3113   0.4516   0.5021   0.6224
     1.0736   1.0900   1.2315   1.2502   1.4848   1.5123   1.6690   1.7705
     1.8158   1.9011   2.0067   2.1632   2.2132   2.4749   2.5191   2.6493
     2.6872   2.7531   3.1299   3.1537   3.1738   3.2160   3.5934   3.6051
     3.6136   3.6414   3.6803   3.7869   3.8958   4.0369   4.1175   4.2092
     4.2142   4.2475   4.3028   4.3382   4.4978   4.5668   4.7234   4.7664
     4.9463   5.0061   5.0257   5.3256   5.3703   5.4599   5.5125   5.5256
     5.6184   5.6712   5.7814   5.8091   5.9241   5.9724   5.9752   6.0112
     6.0362   6.1490   6.1829   6.2766   6.3877   6.4443   6.5087   6.5155
     6.5455   6.6650   6.8086   6.8834   6.8875   6.9513   7.0466   7.1199
     7.1339   7.1860   7.2555   7.2742   7.3060   7.3450   7.4248   7.4405
     7.4954   7.5366   7.5660   7.5906   7.6283   7.6605   7.7146   7.7828
     7.8348   7.9443   7.9987   8.0183   8.0399   8.0758   8.1570   8.2094
     8.2259   8.2757   8.3437   8.4044   8.5125   8.5479   8.6377   8.6826
     8.7175   8.7608

     occupation numbers 
     1.0000   1.0000   1.0000   1.0000   1.0000   1.0000   1.0000   1.0000
     1.0000   1.0000   1.0000   1.0000   1.0000   1.0000   1.0000   1.0000
     1.0000   1.0000   1.0000   1.0000   1.0000   1.0000   1.0000   1.0000
     1.0000   1.0000   1.0000   1.0000   1.0000   1.0000   1.0000   1.0000
     1.0000   1.0000   1.0000   1.0000   1.0000   1.0000   1.0000   1.0000
     1.0000   1.0000   1.0000   1.0000   1.0000   1.0000   1.0000   1.0000
     1.0000   1.0000   1.0000   1.0000   1.0000   1.0000   1.0000   1.0000
     1.0000   1.0000   1.0000   1.0000   1.0000   1.0000   1.0000   1.0000
     1.0000   1.0000   1.0000   1.0000   1.0000   1.0000   1.0000   1.0000
     1.0000   1.0000   1.0000   1.0000   1.0000   1.0000   1.0000   1.0000
     1.0000   1.0000   1.0000   1.0000   1.0000   1.0000   1.0000   1.0000
     1.0000   1.0000   1.0000   1.0000   1.0000   1.0000   1.0000   1.0000
     1.0000   1.0000   1.0000   1.0000   1.0000   1.0000   1.0000   1.0000
     1.0000   1.0000   1.0000   1.0000   1.0000   1.0000   1.0000   1.0000
     1.0000   1.0000   1.0000   1.0000   1.0000   1.0000   1.0000   1.0000
     1.0000   1.0000   1.0000   1.0000   1.0000   1.0000   1.0000   1.0000
     1.0000   1.0000   1.0000   1.0000   1.0000   1.0000   1.0000   1.0000
     1.0000   1.0000   1.0000   1.0000   1.0000   1.0000   1.0000   1.0000
     1.0000   1.0000   1.0000   1.0000   1.0000   1.0000   1.0000   1.0000
     1.0000   1.0000   1.0000   1.0000   1.0000   1.0000   1.0000   1.0000
     1.0000   1.0000   1.0000   1.0000   1.0000   1.0000   1.0000   1.0000
     1.0000   1.0000   1.0000   1.0000   1.0000   1.0000   1.0000   1.0000
     1.0000   1.0000   1.0000   1.0000   1.0000   1.0000   1.0000   1.0000
     1.0000   1.0000   1.0000   1.0000   1.0000   1.0000   1.0000   1.0000
     1.0000   1.0000   1.0000   1.0000   1.0000   1.0000   1.0000   1.0000
     1.0000   1.0000   1.0000   1.0000   1.0000   1.0000   1.0000   1.0000
     1.0000   1.0000   1.0000   1.0000   1.0000   1.0000   1.0000   1.0000
     1.0000   1.0000   1.0000   1.0000   1.0000   1.0000   1.0000   1.0000
     1.0000   1.0000   1.0000   1.0000   1.0000   1.0000   1.0000   1.0000
     1.0000   1.0000   1.0000   1.0000   1.0000   1.0000   1.0000   1.0000
     1.0000   1.0000   1.0000   1.0000   1.0000   1.0000   1.0000   1.0000
     1.0000   1.0000   1.0000   1.0000   1.0000   1.0000   1.0000   1.0000
     1.0000   1.0000   1.0000   1.0000   1.0000   1.0000   1.0000   1.0000
     1.0000   1.0000   1.0000   1.0000   1.0000   1.0000   1.0000   1.0000
     1.0000   1.0000   1.0000   1.0000   1.0000   1.0000   1.0000   1.0000
     1.0000   1.0000   1.0000   1.0000   1.0000   1.0000   1.0000   1.0000
     1.0000   1.0000   1.0000   1.0000   1.0000   1.0000   1.0000   1.0000
     1.0000   1.0000   1.0000   1.0000   1.0000   1.0000   1.0000   1.0000
     1.0000   1.0000   1.0000   1.0000   1.0000   1.0000   1.0000   1.0000
     1.0000   1.0000   1.0000   1.0000   1.0000   1.0000   1.0000   1.0000
     1.0000   1.0000   1.0000   1.0000   1.0000   1.0000   1.0000   1.0000
     1.0000   1.0000   1.0000   1.0000   1.0000   1.0000   1.0000   1.0000
     1.0000   1.0000   1.0000   1.0000   1.0000   1.0000   1.0000   1.0000
     1.0000   1.0000   1.0000   1.0000   1.0000   1.0000   1.0000   1.0000
     1.0000   1.0000   1.0000   1.0000   1.0000   1.0000   1.0000   1.0000
     1.0000   1.0000   1.0000   1.0000   1.0000   1.0000   1.0000   1.0000
     1.0000   1.0000   1.0000   1.0000   1.0000   1.0000   1.0000   1.0000
     1.0000   1.0000   1.0000   1.0000   1.0000   1.0000   1.0000   1.0000
     1.0000   1.0000   1.0000   1.0000   1.0000   1.0000   1.0000   1.0000
     1.0000   1.0000   1.0000   1.0000   1.0000   1.0000   1.0000   1.0000
     1.0000   1.0000   1.0000   1.0000   1.0000   1.0000   1.0000   1.0000
     1.0000   1.0000   1.0000   1.0000   1.0000   1.0000   1.0000   1.0000
     1.0000   1.0000   1.0000   1.0000   1.0000   1.0000   1.0000   1.0000
     1.0000   1.0000   1.0000   1.0000   1.0000   1.0000   1.0000   1.0000
     1.0000   1.0000   1.0000   1.0000   1.0000   1.0000   1.0000   1.0000
     1.0000   1.0000   1.0000   1.0000   1.0000   1.0000   1.0000   1.0000
     1.0000   1.0000   1.0000   1.0000   1.0000   1.0000   1.0000   1.0000
     1.0000   1.0000   1.0000   1.0000   1.0000   1.0000   1.0000   1.0000
     1.0000   1.0000   1.0000   1.0000   1.0000   1.0000   1.0000   1.0000
     1.0000   1.0000   1.0000   1.0000   1.0000   1.0000   1.0000   1.0000
     1.0000   1.0000   1.0000   1.0000   1.0000   1.0000   1.0000   1.0000
     1.0000   1.0000   1.0000   1.0000   1.0000   1.0001   1.0002   1.0014
     1.0822   1.0789   0.9315   0.8941   0.2961   0.2398   0.0507   0.0133
     0.0067   0.0016   0.0002   0.0000   0.0000   0.0000   0.0000   0.0000
     0.0000   0.0000   0.0000   0.0000   0.0000   0.0000   0.0000   0.0000
     0.0000   0.0000   0.0000   0.0000   0.0000   0.0000   0.0000   0.0000
     0.0000   0.0000   0.0000   0.0000   0.0000   0.0000   0.0000   0.0000
     0.0000   0.0000   0.0000   0.0000   0.0000   0.0000   0.0000   0.0000
     0.0000   0.0000   0.0000   0.0000   0.0000   0.0000   0.0000   0.0000
     0.0000   0.0000   0.0000   0.0000   0.0000   0.0000   0.0000   0.0000
     0.0000   0.0000   0.0000   0.0000   0.0000   0.0000   0.0000   0.0000
     0.0000   0.0000   0.0000   0.0000   0.0000   0.0000   0.0000   0.0000
     0.0000   0.0000   0.0000   0.0000   0.0000   0.0000   0.0000   0.0000
     0.0000   0.0000   0.0000   0.0000   0.0000   0.0000   0.0000   0.0000
     0.0000   0.0000   0.0000   0.0000   0.0000   0.0000   0.0000   0.0000
     0.0000   0.0000

          k = 0.3333 0.0000 0.0000 ( 67745 PWs)   bands (ev):

  -125.0584-125.0571-125.0560-125.0556-125.0539-125.0535-125.0526-125.0518
  -124.9624-124.9615-124.9604-124.9588-124.9585-124.9563-124.9546-124.9525
  -124.9216-124.9065-124.8883-124.8874-124.8840-124.8831-124.8815-124.8809
  -124.8676-124.8666-124.8658-124.8649-124.8642-124.8634-124.8633-124.8624
  -124.8418-124.8345-124.8323-124.8252-124.8238-124.8225-124.8220-124.8213
  -124.6384-124.6378-124.6375-124.6369-124.6365-124.6363-124.6355-124.6352
   -79.2216 -79.2211 -79.2121 -79.2105 -79.2096 -79.2092 -79.2088 -79.2086
   -79.2084 -79.2083 -79.2073 -79.2069 -79.2059 -79.2050 -79.2026 -79.2017
   -79.2002 -79.2000 -79.1984 -79.1977 -79.1969 -79.1959 -79.1958 -79.1958
   -79.1205 -79.1191 -79.1182 -79.1170 -79.1157 -79.1156 -79.1150 -79.1135
   -79.1131 -79.1126 -79.1115 -79.1113 -79.1103 -79.1095 -79.1092 -79.1088
   -79.1078 -79.1076 -79.1058 -79.1037 -79.1034 -79.1029 -79.0958 -79.0906
   -79.0836 -79.0737 -79.0682 -79.0646 -79.0557 -79.0501 -79.0490 -79.0487
   -79.0480 -79.0446 -79.0436 -79.0420 -79.0413 -79.0387 -79.0365 -79.0352
   -79.0333 -79.0321 -79.0299 -79.0287 -79.0280 -79.0272 -79.0263 -79.0262
   -79.0257 -79.0256 -79.0253 -79.0244 -79.0235 -79.0229 -79.0228 -79.0219
   -79.0218 -79.0210 -79.0177 -79.0175 -79.0149 -79.0149 -79.0115 -79.0104
   -79.0097 -79.0088 -79.0082 -79.0072 -79.0071 -79.0062 -79.0053 -79.0044
   -79.0026 -78.9965 -78.9941 -78.9924 -78.9892 -78.9880 -78.9873 -78.9857
   -78.9839 -78.9835 -78.9828 -78.9814 -78.9794 -78.9770 -78.9763 -78.9728
   -78.9722 -78.9717 -78.9712 -78.9698 -78.9694 -78.9689 -78.9607 -78.9606
   -78.8125 -78.8120 -78.8116 -78.8111 -78.8106 -78.8104 -78.8094 -78.8092
   -78.7937 -78.7935 -78.7852 -78.7846 -78.7842 -78.7836 -78.7832 -78.7831
   -78.7821 -78.7819 -78.7816 -78.7813 -78.7811 -78.7810 -78.7689 -78.7689
   -17.6068 -16.2388 -15.3853 -12.9952 -12.9132  -9.9897  -9.7211  -8.0126
    -7.8312  -7.5403  -7.2747  -7.2286  -6.8377  -6.8363  -6.8340  -6.7585
    -6.7523  -6.6834  -6.6599  -6.6595  -6.6462  -6.6345  -6.6056  -6.5859
    -6.5755  -6.5716  -6.5633  -6.5186  -6.5050  -6.4874  -6.4829  -6.4520
    -6.4453  -6.4254  -6.4249  -6.4127  -6.4100  -6.4083  -6.3813  -6.3776
    -6.3625  -6.3621  -6.3522  -6.3494  -6.3488  -6.3336  -6.3331  -6.3279
    -6.3064  -6.3053  -6.2886  -6.2874  -6.2869  -6.2675  -6.2661  -6.2641
    -6.2603  -6.2294  -6.2290  -6.2275  -6.2218  -6.2204  -6.2190  -6.2138
    -6.1724  -6.1601  -6.1552  -6.1547  -6.1451  -6.1423  -6.1378  -6.1367
    -6.1332  -6.1238  -6.1127  -6.1120  -6.1069  -6.1060  -6.1023  -6.0945
    -6.0839  -6.0614  -6.0569  -6.0539  -6.0528  -6.0510  -6.0344  -6.0338
    -6.0260  -6.0247  -6.0245  -6.0235  -6.0179  -6.0171  -5.9872  -5.9855
    -5.9840  -5.9838  -5.9445  -5.9307  -5.9252  -5.9205  -5.9192  -5.9129
    -5.9117  -5.9103  -5.9011  -5.8936  -5.8910  -5.8907  -5.8770  -5.8758
    -5.8582  -5.8551  -5.8509  -5.8470  -5.8403  -5.8385  -5.8354  -5.8285
    -5.8270  -5.8251  -5.8249  -5.8235  -5.8102  -5.8091  -5.8064  -5.7936
    -5.7927  -5.7861  -5.7820  -5.7803  -5.7758  -5.7745  -5.7681  -5.7553
    -5.7545  -5.7474  -5.7452  -5.7422  -5.7417  -5.7411  -5.7320  -5.7276
    -5.7262  -5.7184  -5.7178  -5.7074  -5.7008  -5.6888  -5.6846  -5.6836
    -5.6822  -5.6691  -5.6601  -5.6591  -5.6509  -5.6408  -5.6406  -5.6325
    -5.6304  -5.6282  -5.6274  -5.6083  -5.6005  -5.5999  -5.5953  -5.5949
    -5.5942  -5.5867  -5.5864  -5.5844  -5.5793  -5.5781  -5.5740  -5.5724
    -5.5717  -5.5510  -5.5507  -5.5453  -5.5403  -5.5401  -5.5365  -5.5358
    -5.5218  -5.5199  -5.5173  -5.5163  -5.5153  -5.5149  -5.5137  -5.5103
    -5.5102  -5.4969  -5.4955  -5.4945  -5.4938  -5.4873  -5.4823  -5.4811
    -5.4736  -5.4727  -5.4725  -5.4644  -5.4635  -5.4609  -5.4607  -5.4492
    -5.4419  -5.4368  -5.4349  -5.4346  -5.4323  -5.4295  -5.4278  -5.4272
    -5.4105  -5.4098  -5.4085  -5.3901  -5.3854  -5.3851  -5.3843  -5.3837
    -5.3815  -5.3809  -5.3759  -5.3704  -5.3700  -5.3667  -5.3653  -5.3618
    -5.3604  -5.3603  -5.3549  -5.3508  -5.3405  -5.3402  -5.3334  -5.3334
    -5.3292  -5.2857  -5.2815  -5.2632  -5.2472  -5.2424  -5.2412  -5.2350
    -5.2290  -5.2039  -5.1988  -5.1970  -5.1924  -5.1677  -5.1587  -5.1571
    -5.1177  -5.1043  -5.0675  -4.9385  -4.6901  -4.5699  -4.2778  -4.2749
    -4.1791  -3.9021  -3.7886  -3.7803  -3.2004  -3.1314  -3.1307  -3.0740
    -3.0098  -2.9779  -2.8312  -2.6310  -2.1777  -2.0256  -2.0201  -1.8099
    -1.7214  -1.7144  -1.6882  -1.6266  -1.5753  -1.5022  -1.4993  -1.4548
    -1.3650  -1.3626  -1.2847  -1.1561  -0.8249  -0.7537  -0.2119  -0.1525
    -0.0126   0.0182   0.0209   0.2088   0.3176   0.3999   0.4943   0.6288
     0.6316   0.6468   0.8758   0.9486   1.4494   1.4577   1.5886   1.6934
     1.9419   2.0357   2.0433   2.2457   2.2504   2.6301   2.7486   2.8788
     2.9173   2.9199   2.9430   3.0235   3.0938   3.0959   3.1277   3.4120
     3.6727   4.0618   4.1418   4.1703   4.2803   4.2960   4.3260   4.3324
     4.3389   4.3634   4.4359   4.8081   4.8151   4.9836   5.0108   5.0267
     5.0456   5.1272   5.3405   5.5496   5.5546   5.5715   5.5874   5.5944
     5.6222   5.7114   5.7868   5.8337   5.8774   5.9190   5.9541   6.1075
     6.1112   6.1186   6.1782   6.2686   6.2760   6.3359   6.4756   6.5015
     6.5609   6.6073   6.6294   6.6933   6.7173   6.7438   6.9680   7.0170
     7.0239   7.0669   7.1161   7.1381   7.1486   7.1758   7.2323   7.2476
     7.2670   7.3293   7.4128   7.4312   7.4855   7.5677   7.5916   7.7118
     7.7236   7.7545   7.7766   7.8816   7.9944   8.0851   8.1200   8.2148
     8.2767   8.3188   8.3407   8.4164   8.4306   8.4549   8.4629   8.4882
     8.5276   8.5830

     occupation numbers 
     1.0000   1.0000   1.0000   1.0000   1.0000   1.0000   1.0000   1.0000
     1.0000   1.0000   1.0000   1.0000   1.0000   1.0000   1.0000   1.0000
     1.0000   1.0000   1.0000   1.0000   1.0000   1.0000   1.0000   1.0000
     1.0000   1.0000   1.0000   1.0000   1.0000   1.0000   1.0000   1.0000
     1.0000   1.0000   1.0000   1.0000   1.0000   1.0000   1.0000   1.0000
     1.0000   1.0000   1.0000   1.0000   1.0000   1.0000   1.0000   1.0000
     1.0000   1.0000   1.0000   1.0000   1.0000   1.0000   1.0000   1.0000
     1.0000   1.0000   1.0000   1.0000   1.0000   1.0000   1.0000   1.0000
     1.0000   1.0000   1.0000   1.0000   1.0000   1.0000   1.0000   1.0000
     1.0000   1.0000   1.0000   1.0000   1.0000   1.0000   1.0000   1.0000
     1.0000   1.0000   1.0000   1.0000   1.0000   1.0000   1.0000   1.0000
     1.0000   1.0000   1.0000   1.0000   1.0000   1.0000   1.0000   1.0000
     1.0000   1.0000   1.0000   1.0000   1.0000   1.0000   1.0000   1.0000
     1.0000   1.0000   1.0000   1.0000   1.0000   1.0000   1.0000   1.0000
     1.0000   1.0000   1.0000   1.0000   1.0000   1.0000   1.0000   1.0000
     1.0000   1.0000   1.0000   1.0000   1.0000   1.0000   1.0000   1.0000
     1.0000   1.0000   1.0000   1.0000   1.0000   1.0000   1.0000   1.0000
     1.0000   1.0000   1.0000   1.0000   1.0000   1.0000   1.0000   1.0000
     1.0000   1.0000   1.0000   1.0000   1.0000   1.0000   1.0000   1.0000
     1.0000   1.0000   1.0000   1.0000   1.0000   1.0000   1.0000   1.0000
     1.0000   1.0000   1.0000   1.0000   1.0000   1.0000   1.0000   1.0000
     1.0000   1.0000   1.0000   1.0000   1.0000   1.0000   1.0000   1.0000
     1.0000   1.0000   1.0000   1.0000   1.0000   1.0000   1.0000   1.0000
     1.0000   1.0000   1.0000   1.0000   1.0000   1.0000   1.0000   1.0000
     1.0000   1.0000   1.0000   1.0000   1.0000   1.0000   1.0000   1.0000
     1.0000   1.0000   1.0000   1.0000   1.0000   1.0000   1.0000   1.0000
     1.0000   1.0000   1.0000   1.0000   1.0000   1.0000   1.0000   1.0000
     1.0000   1.0000   1.0000   1.0000   1.0000   1.0000   1.0000   1.0000
     1.0000   1.0000   1.0000   1.0000   1.0000   1.0000   1.0000   1.0000
     1.0000   1.0000   1.0000   1.0000   1.0000   1.0000   1.0000   1.0000
     1.0000   1.0000   1.0000   1.0000   1.0000   1.0000   1.0000   1.0000
     1.0000   1.0000   1.0000   1.0000   1.0000   1.0000   1.0000   1.0000
     1.0000   1.0000   1.0000   1.0000   1.0000   1.0000   1.0000   1.0000
     1.0000   1.0000   1.0000   1.0000   1.0000   1.0000   1.0000   1.0000
     1.0000   1.0000   1.0000   1.0000   1.0000   1.0000   1.0000   1.0000
     1.0000   1.0000   1.0000   1.0000   1.0000   1.0000   1.0000   1.0000
     1.0000   1.0000   1.0000   1.0000   1.0000   1.0000   1.0000   1.0000
     1.0000   1.0000   1.0000   1.0000   1.0000   1.0000   1.0000   1.0000
     1.0000   1.0000   1.0000   1.0000   1.0000   1.0000   1.0000   1.0000
     1.0000   1.0000   1.0000   1.0000   1.0000   1.0000   1.0000   1.0000
     1.0000   1.0000   1.0000   1.0000   1.0000   1.0000   1.0000   1.0000
     1.0000   1.0000   1.0000   1.0000   1.0000   1.0000   1.0000   1.0000
     1.0000   1.0000   1.0000   1.0000   1.0000   1.0000   1.0000   1.0000
     1.0000   1.0000   1.0000   1.0000   1.0000   1.0000   1.0000   1.0000
     1.0000   1.0000   1.0000   1.0000   1.0000   1.0000   1.0000   1.0000
     1.0000   1.0000   1.0000   1.0000   1.0000   1.0000   1.0000   1.0000
     1.0000   1.0000   1.0000   1.0000   1.0000   1.0000   1.0000   1.0000
     1.0000   1.0000   1.0000   1.0000   1.0000   1.0000   1.0000   1.0000
     1.0000   1.0000   1.0000   1.0000   1.0000   1.0000   1.0000   1.0000
     1.0000   1.0000   1.0000   1.0000   1.0000   1.0000   1.0000   1.0000
     1.0000   1.0000   1.0000   1.0000   1.0000   1.0000   1.0000   1.0000
     1.0000   1.0000   1.0000   1.0000   1.0000   1.0000   1.0000   1.0000
     1.0000   1.0000   1.0000   1.0000   1.0000   1.0000   1.0000   1.0000
     1.0000   1.0000   1.0000   1.0000   1.0000   1.0000   1.0000   1.0000
     1.0000   1.0000   1.0000   1.0000   1.0000   1.0000   1.0000   1.0000
     1.0000   1.0000   1.0000   1.0000   1.0000   1.0000   1.0000   1.0000
     1.0000   1.0000   1.0000   1.0000   1.0000   1.0000   1.0000   1.0000
     1.0000   1.0000   1.0000   1.0000   1.0000   1.0000   1.0000   1.0000
     1.0000   1.0000   1.0000   1.0000   1.0000   1.0000   1.0000   1.0000
     1.0000   1.0000   1.0000   1.0000   1.0000   1.0000   1.0000   1.0000
     1.0000   1.0000   1.0000   1.0000   1.0000   1.0000   1.0000   1.0000
     1.0000   1.0000   1.0000   1.0000   1.0000   1.0000   1.0001   1.0016
     1.0017   1.0021   1.0349   1.0591   0.3780   0.3579   0.1215   0.0376
     0.0008   0.0001   0.0001   0.0000   0.0000   0.0000   0.0000   0.0000
     0.0000   0.0000   0.0000   0.0000   0.0000   0.0000   0.0000   0.0000
     0.0000   0.0000   0.0000   0.0000   0.0000   0.0000   0.0000   0.0000
     0.0000   0.0000   0.0000   0.0000   0.0000   0.0000   0.0000   0.0000
     0.0000   0.0000   0.0000   0.0000   0.0000   0.0000   0.0000   0.0000
     0.0000   0.0000   0.0000   0.0000   0.0000   0.0000   0.0000   0.0000
     0.0000   0.0000   0.0000   0.0000   0.0000   0.0000   0.0000   0.0000
     0.0000   0.0000   0.0000   0.0000   0.0000   0.0000   0.0000   0.0000
     0.0000   0.0000   0.0000   0.0000   0.0000   0.0000   0.0000   0.0000
     0.0000   0.0000   0.0000   0.0000   0.0000   0.0000   0.0000   0.0000
     0.0000   0.0000   0.0000   0.0000   0.0000   0.0000   0.0000   0.0000
     0.0000   0.0000   0.0000   0.0000   0.0000   0.0000   0.0000   0.0000
     0.0000   0.0000

          k = 0.3333 0.3107 0.1794 ( 67762 PWs)   bands (ev):

  -125.0584-125.0571-125.0560-125.0556-125.0539-125.0535-125.0526-125.0518
  -124.9624-124.9615-124.9604-124.9588-124.9585-124.9563-124.9546-124.9525
  -124.9216-124.9065-124.8882-124.8874-124.8840-124.8831-124.8815-124.8809
  -124.8676-124.8667-124.8657-124.8650-124.8641-124.8637-124.8629-124.8625
  -124.8418-124.8345-124.8323-124.8252-124.8238-124.8225-124.8220-124.8213
  -124.6384-124.6378-124.6376-124.6371-124.6364-124.6362-124.6355-124.6352
   -79.2201 -79.2195 -79.2148 -79.2145 -79.2121 -79.2105 -79.2094 -79.2089
   -79.2072 -79.2069 -79.2059 -79.2050 -79.2030 -79.2026 -79.2024 -79.2017
   -79.2002 -79.2001 -79.1983 -79.1977 -79.1973 -79.1972 -79.1969 -79.1959
   -79.1191 -79.1189 -79.1182 -79.1170 -79.1156 -79.1150 -79.1143 -79.1143
   -79.1135 -79.1131 -79.1127 -79.1115 -79.1113 -79.1103 -79.1095 -79.1092
   -79.1090 -79.1078 -79.1058 -79.1037 -79.1022 -79.0974 -79.0973 -79.0920
   -79.0836 -79.0735 -79.0682 -79.0646 -79.0562 -79.0501 -79.0489 -79.0480
   -79.0474 -79.0446 -79.0436 -79.0420 -79.0416 -79.0413 -79.0382 -79.0333
   -79.0321 -79.0301 -79.0287 -79.0283 -79.0279 -79.0263 -79.0262 -79.0260
   -79.0256 -79.0255 -79.0253 -79.0243 -79.0242 -79.0237 -79.0235 -79.0227
   -79.0223 -79.0215 -79.0211 -79.0210 -79.0115 -79.0115 -79.0105 -79.0096
   -79.0088 -79.0088 -79.0081 -79.0076 -79.0069 -79.0067 -79.0063 -79.0044
   -79.0043 -78.9965 -78.9941 -78.9920 -78.9884 -78.9880 -78.9873 -78.9857
   -78.9839 -78.9835 -78.9828 -78.9814 -78.9801 -78.9794 -78.9787 -78.9722
   -78.9712 -78.9698 -78.9696 -78.9694 -78.9689 -78.9688 -78.9616 -78.9615
   -78.8125 -78.8120 -78.8117 -78.8112 -78.8105 -78.8103 -78.8095 -78.8092
   -78.7921 -78.7919 -78.7874 -78.7873 -78.7851 -78.7846 -78.7843 -78.7838
   -78.7832 -78.7829 -78.7822 -78.7819 -78.7752 -78.7751 -78.7705 -78.7705
   -17.6068 -16.2389 -15.3853 -12.9952 -12.9132  -9.9897  -9.7211  -7.8573
    -7.8310  -7.4201  -7.3938  -7.2695  -7.2250  -6.9976  -6.7461  -6.6761
    -6.6684  -6.6634  -6.6236  -6.5802  -6.5662  -6.5619  -6.5512  -6.5499
    -6.5479  -6.5279  -6.5159  -6.5051  -6.5044  -6.4877  -6.4851  -6.4823
    -6.4665  -6.4499  -6.4401  -6.4368  -6.4342  -6.4283  -6.4257  -6.4221
    -6.4196  -6.4113  -6.3906  -6.3780  -6.3726  -6.3619  -6.3565  -6.3532
    -6.3523  -6.3290  -6.3186  -6.2978  -6.2913  -6.2900  -6.2767  -6.2680
    -6.2615  -6.2507  -6.2341  -6.2266  -6.2142  -6.2004  -6.1966  -6.1947
    -6.1940  -6.1893  -6.1681  -6.1610  -6.1602  -6.1592  -6.1363  -6.1314
    -6.1293  -6.1285  -6.1272  -6.1187  -6.0987  -6.0972  -6.0900  -6.0889
    -6.0863  -6.0836  -6.0679  -6.0657  -6.0646  -6.0614  -6.0582  -6.0567
    -6.0399  -6.0277  -6.0261  -6.0157  -6.0127  -6.0092  -6.0090  -6.0027
    -5.9888  -5.9800  -5.9767  -5.9737  -5.9595  -5.9574  -5.9492  -5.9425
    -5.9274  -5.9251  -5.9208  -5.9154  -5.9070  -5.9029  -5.9018  -5.8993
    -5.8922  -5.8825  -5.8760  -5.8746  -5.8664  -5.8573  -5.8418  -5.8338
    -5.8270  -5.8230  -5.8201  -5.8188  -5.8114  -5.8108  -5.8016  -5.7908
    -5.7820  -5.7791  -5.7768  -5.7751  -5.7722  -5.7715  -5.7620  -5.7548
    -5.7375  -5.7355  -5.7346  -5.7323  -5.7288  -5.7247  -5.7173  -5.7133
    -5.7067  -5.7026  -5.7008  -5.6988  -5.6960  -5.6920  -5.6902  -5.6834
    -5.6637  -5.6622  -5.6518  -5.6481  -5.6430  -5.6329  -5.6297  -5.6205
    -5.6138  -5.6100  -5.6052  -5.6003  -5.5966  -5.5915  -5.5897  -5.5882
    -5.5874  -5.5835  -5.5800  -5.5677  -5.5632  -5.5544  -5.5530  -5.5500
    -5.5426  -5.5403  -5.5393  -5.5374  -5.5359  -5.5317  -5.5295  -5.5268
    -5.5255  -5.5162  -5.5104  -5.5074  -5.5070  -5.5049  -5.4941  -5.4928
    -5.4872  -5.4850  -5.4838  -5.4801  -5.4762  -5.4709  -5.4701  -5.4687
    -5.4539  -5.4520  -5.4489  -5.4487  -5.4462  -5.4445  -5.4391  -5.4357
    -5.4288  -5.4273  -5.4226  -5.4189  -5.4187  -5.4179  -5.4130  -5.4121
    -5.4082  -5.4051  -5.4012  -5.3953  -5.3915  -5.3875  -5.3863  -5.3794
    -5.3779  -5.3769  -5.3762  -5.3740  -5.3706  -5.3623  -5.3584  -5.3552
    -5.3544  -5.3532  -5.3524  -5.3484  -5.3474  -5.3334  -5.3041  -5.3034
    -5.2997  -5.2968  -5.2947  -5.2885  -5.2835  -5.2802  -5.2723  -5.2630
    -5.2614  -5.2483  -5.2379  -5.2095  -5.2013  -5.1686  -5.1402  -5.1217
    -5.1037  -4.8568  -4.8077  -4.7728  -4.6896  -4.4415  -4.3671  -4.3614
    -4.1808  -3.9008  -3.8694  -3.4143  -3.2588  -3.0692  -3.0129  -2.9600
    -2.9118  -2.8391  -2.7919  -2.7568  -2.6754  -2.4951  -2.4478  -2.2893
    -2.1772  -2.0886  -2.0767  -1.8367  -1.8092  -1.5774  -1.3672  -1.2780
    -1.0387  -0.8251  -0.7720  -0.7494  -0.6926  -0.5932  -0.4365  -0.3523
    -0.1253  -0.0126   0.2324   0.4172   0.4847   0.5512   0.5740   0.6148
     0.8094   0.8309   0.9459   0.9685   1.0664   1.1558   1.3911   1.5759
     1.7178   1.8215   2.2186   2.5438   2.7212   2.8066   2.9035   2.9488
     3.0971   3.1747   3.2307   3.3240   3.4776   3.5546   3.5722   3.6040
     3.6449   3.8250   3.9558   3.9705   4.0325   4.1300   4.2625   4.3018
     4.3456   4.4396   4.4557   4.5547   4.5989   4.7790   4.8464   4.8783
     4.9128   5.0047   5.0652   5.1655   5.2361   5.4013   5.4215   5.4604
     5.4685   5.6212   5.6984   5.7354   5.8732   5.9166   5.9485   5.9996
     6.0046   6.1183   6.1670   6.2423   6.2722   6.3594   6.3877   6.4629
     6.5052   6.5353   6.6106   6.6280   6.7000   6.7134   6.7741   6.8136
     6.8589   6.8893   6.9542   7.0138   7.0730   7.1409   7.2318   7.2746
     7.3524   7.4351   7.4881   7.5567   7.6134   7.6369   7.6589   7.7636
     7.7997   7.8431   7.9658   7.9901   8.0332   8.0811   8.1166   8.1676
     8.2182   8.2383   8.2772   8.3709   8.4503   8.4691   8.4848   8.5237
     8.5692   8.5862

     occupation numbers 
     1.0000   1.0000   1.0000   1.0000   1.0000   1.0000   1.0000   1.0000
     1.0000   1.0000   1.0000   1.0000   1.0000   1.0000   1.0000   1.0000
     1.0000   1.0000   1.0000   1.0000   1.0000   1.0000   1.0000   1.0000
     1.0000   1.0000   1.0000   1.0000   1.0000   1.0000   1.0000   1.0000
     1.0000   1.0000   1.0000   1.0000   1.0000   1.0000   1.0000   1.0000
     1.0000   1.0000   1.0000   1.0000   1.0000   1.0000   1.0000   1.0000
     1.0000   1.0000   1.0000   1.0000   1.0000   1.0000   1.0000   1.0000
     1.0000   1.0000   1.0000   1.0000   1.0000   1.0000   1.0000   1.0000
     1.0000   1.0000   1.0000   1.0000   1.0000   1.0000   1.0000   1.0000
     1.0000   1.0000   1.0000   1.0000   1.0000   1.0000   1.0000   1.0000
     1.0000   1.0000   1.0000   1.0000   1.0000   1.0000   1.0000   1.0000
     1.0000   1.0000   1.0000   1.0000   1.0000   1.0000   1.0000   1.0000
     1.0000   1.0000   1.0000   1.0000   1.0000   1.0000   1.0000   1.0000
     1.0000   1.0000   1.0000   1.0000   1.0000   1.0000   1.0000   1.0000
     1.0000   1.0000   1.0000   1.0000   1.0000   1.0000   1.0000   1.0000
     1.0000   1.0000   1.0000   1.0000   1.0000   1.0000   1.0000   1.0000
     1.0000   1.0000   1.0000   1.0000   1.0000   1.0000   1.0000   1.0000
     1.0000   1.0000   1.0000   1.0000   1.0000   1.0000   1.0000   1.0000
     1.0000   1.0000   1.0000   1.0000   1.0000   1.0000   1.0000   1.0000
     1.0000   1.0000   1.0000   1.0000   1.0000   1.0000   1.0000   1.0000
     1.0000   1.0000   1.0000   1.0000   1.0000   1.0000   1.0000   1.0000
     1.0000   1.0000   1.0000   1.0000   1.0000   1.0000   1.0000   1.0000
     1.0000   1.0000   1.0000   1.0000   1.0000   1.0000   1.0000   1.0000
     1.0000   1.0000   1.0000   1.0000   1.0000   1.0000   1.0000   1.0000
     1.0000   1.0000   1.0000   1.0000   1.0000   1.0000   1.0000   1.0000
     1.0000   1.0000   1.0000   1.0000   1.0000   1.0000   1.0000   1.0000
     1.0000   1.0000   1.0000   1.0000   1.0000   1.0000   1.0000   1.0000
     1.0000   1.0000   1.0000   1.0000   1.0000   1.0000   1.0000   1.0000
     1.0000   1.0000   1.0000   1.0000   1.0000   1.0000   1.0000   1.0000
     1.0000   1.0000   1.0000   1.0000   1.0000   1.0000   1.0000   1.0000
     1.0000   1.0000   1.0000   1.0000   1.0000   1.0000   1.0000   1.0000
     1.0000   1.0000   1.0000   1.0000   1.0000   1.0000   1.0000   1.0000
     1.0000   1.0000   1.0000   1.0000   1.0000   1.0000   1.0000   1.0000
     1.0000   1.0000   1.0000   1.0000   1.0000   1.0000   1.0000   1.0000
     1.0000   1.0000   1.0000   1.0000   1.0000   1.0000   1.0000   1.0000
     1.0000   1.0000   1.0000   1.0000   1.0000   1.0000   1.0000   1.0000
     1.0000   1.0000   1.0000   1.0000   1.0000   1.0000   1.0000   1.0000
     1.0000   1.0000   1.0000   1.0000   1.0000   1.0000   1.0000   1.0000
     1.0000   1.0000   1.0000   1.0000   1.0000   1.0000   1.0000   1.0000
     1.0000   1.0000   1.0000   1.0000   1.0000   1.0000   1.0000   1.0000
     1.0000   1.0000   1.0000   1.0000   1.0000   1.0000   1.0000   1.0000
     1.0000   1.0000   1.0000   1.0000   1.0000   1.0000   1.0000   1.0000
     1.0000   1.0000   1.0000   1.0000   1.0000   1.0000   1.0000   1.0000
     1.0000   1.0000   1.0000   1.0000   1.0000   1.0000   1.0000   1.0000
     1.0000   1.0000   1.0000   1.0000   1.0000   1.0000   1.0000   1.0000
     1.0000   1.0000   1.0000   1.0000   1.0000   1.0000   1.0000   1.0000
     1.0000   1.0000   1.0000   1.0000   1.0000   1.0000   1.0000   1.0000
[...]
     atom   27 type  1   force =     0.00006247   -0.00011743   -0.00000050
     atom   28 type  1   force =     0.00006545    0.00011916    0.00000537
     atom   29 type  1   force =     0.00003784   -0.00011460   -0.00007785
     atom   30 type  1   force =     0.00004030    0.00011914   -0.00005607
     atom   31 type  1   force =     0.00000000    0.00000000    0.00000000
     atom   32 type  1   force =     0.00000000   -0.00000000    0.00000000
     atom   33 type  1   force =     0.00006072    0.00006849   -0.00000944
     atom   34 type  1   force =     0.00006666   -0.00006625    0.00001524
     atom   35 type  1   force =     0.00004238   -0.00003251   -0.00003158
     atom   36 type  1   force =     0.00003862    0.00003274   -0.00010228
     atom   37 type  1   force =    -0.00000000   -0.00000000    0.00000000
     atom   38 type  1   force =    -0.00000000    0.00000000    0.00000000
     atom   39 type  1   force =    -0.00006137   -0.00012823   -0.00000506
     atom   40 type  1   force =    -0.00005589    0.00012563    0.00000101
     atom   41 type  1   force =    -0.00004193   -0.00011220   -0.00006405
     atom   42 type  1   force =    -0.00004405    0.00011785   -0.00004728
     atom   43 type  1   force =    -0.00000000    0.00000000    0.00000000
     atom   44 type  1   force =    -0.00000000   -0.00000000    0.00000000
     atom   45 type  1   force =    -0.00006158    0.00006835   -0.00000775
     atom   46 type  1   force =    -0.00005657   -0.00006526    0.00000449
     atom   47 type  1   force =    -0.00004432   -0.00003662   -0.00002279
     atom   48 type  1   force =    -0.00004712    0.00003523   -0.00008988
     atom   49 type  3   force =     0.00000027   -0.00000453   -0.00000066
     atom   50 type  3   force =    -0.00000182    0.00000404    0.00000308
     atom   51 type  3   force =    -0.00000865   -0.00000192   -0.00000195
     atom   52 type  3   force =    -0.00000131    0.00000843    0.00000751
     atom   53 type  3   force =    -0.00000424    0.00000048    0.00000500
     atom   54 type  3   force =    -0.00000693    0.00000452    0.00000436
     atom   55 type  3   force =    -0.00000001    0.00000061    0.00000332
     atom   56 type  2   force =     0.00000740   -0.00001578   -0.00001049
     atom   57 type  2   force =     0.00000381   -0.00000063   -0.00000040
     atom   58 type  4   force =     0.00000016    0.00000103    0.00000027
     atom   59 type  4   force =     0.00000057    0.00000164    0.00000014
     atom   60 type  4   force =    -0.00000032    0.00000199    0.00000197
     atom   61 type  4   force =    -0.00000082   -0.00000045   -0.00000053
     atom   62 type  4   force =    -0.00000170    0.00000116    0.00000176
     atom   63 type  4   force =     0.00000049    0.00000052    0.00000060

     DFT-D3 dispersion contribution to forces:
     atom    1 type  1   force =    -0.00001288    0.00000114    0.00008444
     atom    2 type  1   force =    -0.00000363   -0.00000377    0.00010115
     atom    3 type  1   force =     0.00075289    0.00000066    0.00117125
     atom    4 type  1   force =     0.00076311   -0.00000040    0.00115844
     atom    5 type  1   force =    -0.00003191    0.00042637   -0.00174302
     atom    6 type  1   force =    -0.00000047   -0.00036437   -0.00194043
     atom    7 type  1   force =    -0.00000733   -0.00000861    0.00008828
     atom    8 type  1   force =    -0.00000694    0.00000743    0.00009594
     atom    9 type  1   force =     0.00073906    0.00000165    0.00116232
     atom   10 type  1   force =     0.00075749   -0.00000614    0.00115413
     atom   11 type  1   force =     0.00031877   -0.00006782   -0.00108777
     atom   12 type  1   force =    -0.00025174    0.00001292   -0.00240169
     atom   13 type  1   force =    -0.00001186   -0.00000056    0.00010699
     atom   14 type  1   force =    -0.00000620   -0.00000301    0.00010955
     atom   15 type  1   force =     0.00080747   -0.00000593    0.00124244
     atom   16 type  1   force =     0.00082156    0.00002682    0.00116402
     atom   17 type  1   force =    -0.00041657    0.00021081   -0.00216718
     atom   18 type  1   force =    -0.00052640   -0.00031106   -0.00197920
     atom   19 type  1   force =    -0.00000691   -0.00000068    0.00011060
     atom   20 type  1   force =    -0.00000719    0.00000305    0.00011115
     atom   21 type  1   force =     0.00081026    0.00000549    0.00128110
     atom   22 type  1   force =     0.00081701   -0.00002380    0.00116509
     atom   23 type  1   force =    -0.00085241    0.00007954   -0.00152872
     atom   24 type  1   force =    -0.00025786   -0.00001233   -0.00244450
     atom   25 type  1   force =    -0.00015777    0.00000402    0.00403384
     atom   26 type  1   force =    -0.00016249   -0.00000448    0.00401166
     atom   27 type  1   force =    -0.00029502   -0.00000771    0.00019243
     atom   28 type  1   force =    -0.00030037    0.00000946    0.00022365
     atom   29 type  1   force =    -0.00017022    0.00018111   -0.00269816
     atom   30 type  1   force =    -0.00010774   -0.00032562   -0.00179641
     atom   31 type  1   force =    -0.00014934   -0.00000318    0.00404733
     atom   32 type  1   force =    -0.00015843    0.00000076    0.00401115
     atom   33 type  1   force =    -0.00031943    0.00000129    0.00033622
     atom   34 type  1   force =    -0.00025812    0.00000072    0.00016112
     atom   35 type  1   force =    -0.00018673    0.00046418   -0.00173452
     atom   36 type  1   force =    -0.00012707   -0.00024447   -0.00263748
     atom   37 type  1   force =    -0.00011963    0.00000412    0.00397692
     atom   38 type  1   force =    -0.00014078   -0.00000053    0.00397918
     atom   39 type  1   force =    -0.00021061   -0.00000382    0.00014176
     atom   40 type  1   force =    -0.00022934    0.00000415    0.00015217
     atom   41 type  1   force =    -0.00010453    0.00002864   -0.00284022
     atom   42 type  1   force =    -0.00007742   -0.00006461   -0.00268306
     atom   43 type  1   force =    -0.00010431   -0.00000453    0.00397752
     atom   44 type  1   force =    -0.00013643    0.00000350    0.00397710
     atom   45 type  1   force =    -0.00023336    0.00000338    0.00015643
     atom   46 type  1   force =    -0.00021527   -0.00000224    0.00014308
     atom   47 type  1   force =    -0.00002248    0.00004995   -0.00262183
     atom   48 type  1   force =    -0.00013087   -0.00001384   -0.00286733
     atom   49 type  3   force =    -0.00009143   -0.00001107    0.00004190
     atom   50 type  3   force =    -0.00004788   -0.00003428   -0.00015321
     atom   51 type  3   force =     0.00017015    0.00009505    0.00005746
     atom   52 type  3   force =    -0.00011801   -0.00002998   -0.00025415
     atom   53 type  3   force =     0.00007954    0.00005592   -0.00008152
     atom   54 type  3   force =    -0.00029285   -0.00012408   -0.00086803
     atom   55 type  3   force =     0.00007642    0.00000900   -0.00098893
     atom   56 type  2   force =     0.00021001    0.00003017   -0.00024614
     atom   57 type  2   force =     0.00003918    0.00002126   -0.00185648
     atom   58 type  4   force =    -0.00000671    0.00001286   -0.00173539
     atom   59 type  4   force =     0.00001678   -0.00001990   -0.00145186
     atom   60 type  4   force =    -0.00004797   -0.00000214   -0.00007699
     atom   61 type  4   force =    -0.00002671   -0.00003078   -0.00001097
     atom   62 type  4   force =    -0.00004377   -0.00000832   -0.00096062
     atom   63 type  4   force =     0.00001366   -0.00001133   -0.00007198

     Total force =     0.001616     Total SCF correction =     0.000631

     DFT-D3 dispersion Force =     0.015524
     SCF correction compared to forces is large: reduce conv_thr to get better values


     Computing stress (Cartesian axis) and pressure


     negative rho (up, down):  3.568E-03 0.000E+00
          total   stress  (Ry/bohr**3)                   (kbar)     P=      -18.47
  -0.00023794   0.00000001  -0.00000032          -35.00        0.00       -0.05
   0.00000001  -0.00012058  -0.00000010            0.00      -17.74       -0.02
  -0.00000032  -0.00000010  -0.00001820           -0.05       -0.02       -2.68

     kinetic stress (kbar)  12412.57    -24.49     10.38
                              -24.49  12447.09     -4.40
                               10.38     -4.40  12441.46

     local   stress (kbar)-972927.68   -624.46    695.25
                             -624.46-979849.38   -104.59
                              695.25   -104.59 980415.36

     nonloc. stress (kbar)  -1155.79      1.73     -1.99
                                1.73  -1148.01      0.39
                               -1.99      0.39  -1183.13

     hartree stress (kbar) 512764.70    231.02   -287.86
                              231.02 515771.34     35.65
                             -287.86     35.65-456773.79

     exc-cor stress (kbar)  -6053.00      1.20     -0.67
                                1.20  -6053.07      0.29
                               -0.67      0.29  -6057.40

     corecor stress (kbar)    -79.97     -0.35      0.23
                               -0.35    -79.24     -0.10
                                0.23     -0.10    -80.32

     ewald   stress (kbar) 455011.62    415.34   -415.30
                              415.34 458902.25     72.75
                             -415.30     72.75-528761.13

     hubbard stress (kbar)      0.00      0.00      0.00
                                0.00      0.00      0.00
                                0.00      0.00      0.00

     DFT-D   stress (kbar)     -7.46      0.01     -0.08
                                0.01     -8.72     -0.00
                               -0.08     -0.00     -3.72

     XDM     stress (kbar)      0.00      0.00      0.00
                                0.00      0.00      0.00
                                0.00      0.00      0.00

     dft-nl  stress (kbar)      0.00      0.00      0.00
                                0.00      0.00      0.00
                                0.00      0.00      0.00

     TS-vdW  stress (kbar)      0.00      0.00      0.00
                                0.00      0.00      0.00
                                0.00      0.00      0.00

     MDB     stress (kbar)      0.00      0.00      0.00
                                0.00      0.00      0.00
                                0.00      0.00      0.00

     3D-RISM stress (kbar)      0.00      0.00      0.00
                                0.00      0.00      0.00
                                0.00      0.00      0.00

     Energy error            =      3.7E-06 Ry
     Gradient error          =      4.2E-04 Ry/Bohr

     bfgs converged in   6 scf cycles and   5 bfgs steps
     (criteria: energy <  1.0E-05 Ry, force <  5.0E-04 Ry/Bohr)

     End of BFGS Geometry Optimization

     Final energy             =  -22331.2513271916 Ry

     File ./tmp/05_Zn100_ABN_topsite_tilted_edgeon.bfgs deleted, as requested
Begin final coordinates

ATOMIC_POSITIONS (angstrom)
Zn               1.2182900000        1.3071800000        0.7547010000    0   0   0
Zn               1.2182900000        6.5359000000        0.7547010000    0   0   0
Zn               0.5051707523       -0.0016678824        3.6491535774
Zn               0.5064249302        5.2310285705        3.6465742633
Zn               1.2181500517       -1.3058163198        6.0919010176
Zn               1.2148873815        3.9222011130        6.0876597978
Zn               1.2182900000        3.9215400000        0.7547010000    0   0   0
Zn               1.2182900000        9.1502600000        0.7547010000    0   0   0
Zn               0.5045730705        2.6166531072        3.6463736525
Zn               0.5071290844        7.8420752374        3.6465437286
Zn               1.2152515311        1.3077584971        6.0795593986
Zn               1.2151283352        6.5365005533        6.0837668786
Zn               6.0914510000        1.3071800000        0.7547010000    0   0   0
Zn               6.0914510000        6.5359000000        0.7547010000    0   0   0
Zn               5.3891977999       -0.0011431921        3.6358467326
Zn               5.3857616272        5.2298429986        3.6421668791
Zn               6.0900593435       -1.3082039500        6.0836316015
Zn               6.0884710832        3.9214082530        6.0792422027
Zn               6.0914510000        3.9215400000        0.7547010000    0   0   0
Zn               6.0914510000        9.1502600000        0.7547010000    0   0   0
Zn               5.3905126185        2.6159984862        3.6302075797
Zn               5.3869785604        7.8418344473        3.6406114740
Zn               6.0897019433        1.3072215795        6.0766697791
Zn               6.0899072087        6.5356623509        6.0778492577
Zn               3.6548710000       -0.0000000000        1.5094010000    0   0   0
Zn               3.6548710000        5.2287200000        1.5094010000    0   0   0
Zn               2.8569119205       -1.3104097721        3.6843132495
Zn               2.8546138341        3.9266918238        3.6821137394
Zn               3.6582241837       -2.6154136357        5.9986491264
Zn               3.6624099794        2.6232417437        5.9489944137
Zn               3.6548710000        2.6143600000        1.5094010000    0   0   0
Zn               3.6548710000        7.8430800000        1.5094010000    0   0   0
Zn               2.8522633102        1.3068296379        3.6780973449
Zn               2.8612317534        6.5369556785        3.6866150283
Zn               3.6668844641       -0.0039716763        5.9699085665
Zn               3.6575356923        5.2320354393        5.9968236702
Zn               8.5280310000       -0.0000000000        1.5094010000    0   0   0
Zn               8.5280310000        5.2287200000        1.5094010000    0   0   0
Zn               7.7412568140       -1.3088097188        3.6934173157
Zn               7.7393030218        3.9235998938        3.6939166652
Zn               8.5333837464       -2.6150478915        6.0079858052
Zn               8.5317043116        2.6154410694        6.0064835940
Zn               8.5280310000        2.6143600000        1.5094010000    0   0   0
Zn               8.5280310000        7.8430800000        1.5094010000    0   0   0
Zn               7.7394970808        1.3076918843        3.6918756360
Zn               7.7409778419        6.5360249175        3.6929300932
Zn               8.5304750622       -0.0006814597        6.0068925296
Zn               8.5312414449        5.2296989776        6.0073114437
C                1.0928564733        1.0803258796       14.2271039272
C                1.7780662992        1.1707288728       12.9816968295
C                3.0716681288        1.7255439047       12.9131385681
C                1.1697595070        0.7194030985       11.7929231288
C                3.7304468719        1.8315205388       11.6982230173
C                1.8282145640        0.8238476295       10.5776131549
C                3.1216497485        1.3859680774       10.5053176919
N                0.5287102987        1.0127950529       15.2476902266
N                3.7884842681        1.4523468026        9.3034144562
H                3.2508055260        1.3638207518        8.4443836042
H                4.5911626998        2.0658568716        9.2232321892
H                0.1701919125        0.2865207270       11.8360098040
H                3.5529488044        2.0777548420       13.8255530578
H                1.3456985094        0.4707485511        9.6631852237
H                4.7322142097        2.2640787889       11.6626035026
End final coordinates



     Writing all to output data dir ./tmp/05_Zn100_ABN_topsite_tilted_edgeon.save/ :
     XML data file, charge density, pseudopotentials, collected wavefunctions

     init_run     :     69.11s CPU     70.18s WALL (       1 calls)
     electrons    :  12671.38s CPU  12832.86s WALL (       6 calls)
     update_pot   :      0.89s CPU      0.92s WALL (       5 calls)
     forces       :    351.48s CPU    353.47s WALL (       6 calls)
     force_dftd3  :      1.17s CPU      1.26s WALL (       6 calls)
     stress       :    947.53s CPU    951.38s WALL (       6 calls)
     stres_dftd3  :      1.18s CPU      1.25s WALL (       6 calls)

     Called by init_run:
     wfcinit      :     67.56s CPU     68.57s WALL (       1 calls)
     wfcinit:atom :      0.05s CPU      0.07s WALL (       5 calls)
     wfcinit:wfcr :     66.92s CPU     67.86s WALL (       5 calls)
     potinit      :      0.15s CPU      0.16s WALL (       1 calls)
     hinit0       :      0.09s CPU      0.09s WALL (       1 calls)

     Called by electrons:
     c_bands      :  11706.92s CPU  11847.96s WALL (      54 calls)
     sum_band     :    907.52s CPU    926.05s WALL (      54 calls)
     v_of_rho     :      4.12s CPU      4.31s WALL (      55 calls)
     v_h          :      0.28s CPU      0.30s WALL (      55 calls)
     v_xc         :      4.66s CPU      4.90s WALL (      67 calls)
     newd         :     54.02s CPU     55.40s WALL (      55 calls)
     PAW_pot      :      3.90s CPU      3.92s WALL (      60 calls)
     mix_rho      :      0.55s CPU      0.58s WALL (      54 calls)
     energy_dftd3 :      0.73s CPU      0.74s WALL (       6 calls)

     Called by c_bands:
     init_us_2    :     13.51s CPU     13.56s WALL (     630 calls)
     cegterg      :  11684.00s CPU  11824.75s WALL (     270 calls)

     Called by sum_band:
     sum_band:wei :      0.12s CPU      0.13s WALL (      54 calls)
     sum_band:loo :    853.76s CPU    870.81s WALL (      54 calls)
     sum_band:buf :      2.54s CPU      2.55s WALL (     270 calls)
     sum_band:ini :      5.89s CPU      5.91s WALL (     270 calls)
     sum_band:cal :    797.04s CPU    800.56s WALL (     295 calls)
     sum_band:bec :      6.58s CPU      6.60s WALL (     295 calls)
     addusdens    :     52.80s CPU     54.20s WALL (      54 calls)
                                        0.00s GPU  (      54 calls)
     addusd:skk   :      0.59s CPU      0.63s WALL (     216 calls)
                                        0.00s GPU  (     216 calls)

     Called by *egterg:
     cdiaghg      :    702.65s CPU    731.03s WALL (    1350 calls)
     cegterg:over :   1705.16s CPU   1710.61s WALL (    1130 calls)
     cegterg:upda :    778.29s CPU    783.10s WALL (    1130 calls)
     cegterg:last :   2874.13s CPU   2890.31s WALL (     550 calls)
     cdiaghg:chol :     46.72s CPU     46.84s WALL (    1350 calls)
     cdiaghg:inve :      6.98s CPU      7.00s WALL (    1350 calls)
     cdiaghg:para :    186.42s CPU    189.99s WALL (    2700 calls)
     h_psi        :   3649.62s CPU   3726.99s WALL (    1405 calls)
     s_psi        :   1526.34s CPU   1529.97s WALL (    1405 calls)
     g_psi        :      1.38s CPU      1.39s WALL (    1130 calls)

     Called by h_psi:
     h_psi:calbec :   1617.26s CPU   1624.60s WALL (    1405 calls)
     vloc_psi     :    458.01s CPU    521.87s WALL (    1405 calls)
     add_vuspsi   :   1570.26s CPU   1574.01s WALL (    1405 calls)

     General routines
     calbec       :   2822.09s CPU   2834.75s WALL (    1850 calls)
     fft          :      2.97s CPU      3.35s WALL (     863 calls)
     ffts         :      0.12s CPU      0.15s WALL (     109 calls)
     fftw         :    504.80s CPU    575.89s WALL (  882946 calls)
     interpolate  :      0.26s CPU      0.29s WALL (      55 calls)

     Parallel routines

     PAW routines
     PAW_pot      :      3.90s CPU      3.92s WALL (      60 calls)

     PWSCF        :      3h55m CPU      3h58m WALL


   This run was terminated on:   7:17:53   5Apr2025            

=------------------------------------------------------------------------------=
   JOB DONE.
=------------------------------------------------------------------------------=
