--------------------------------------------------------------------------
By default, for Open MPI 4.0 and later, infiniband ports on a device
are not used by default.  The intent is to use UCX for these devices.
You can override this policy by setting the btl_openib_allow_ib MCA parameter
to true.

  Local host:              psid09
  Local adapter:           mlx4_0
  Local port:              1

--------------------------------------------------------------------------
--------------------------------------------------------------------------
WARNING: There was an error initializing an OpenFabrics device.

  Local host:   psid09
  Local device: mlx4_0
--------------------------------------------------------------------------

     Program PWSCF v.7.3.1 starts on 13Apr2025 at  1: 6: 5 

     This program is part of the open-source Quantum ESPRESSO suite
     for quantum simulation of materials; please cite
         "P. Giannozzi et al., J. Phys.:Condens. Matter 21 395502 (2009);
         "P. Giannozzi et al., J. Phys.:Condens. Matter 29 465901 (2017);
         "P. Giannozzi et al., J. Chem. Phys. 152 154105 (2020);
          URL http://www.quantum-espresso.org", 
     in publications or presentations arising from this work. More details at
     http://www.quantum-espresso.org/quote

     Parallel version (MPI), running on    33 processors

     MPI processes distributed on     1 nodes
     12003 MiB available memory on the printing compute node when the environment starts

     Waiting for input...
     Reading input from standard input
Warning: card &CELL ignored
Warning: card   CELL_DOFREE = 'ALL' ignored
Warning: card / ignored

     Current dimensions of program PWSCF are:
     Max number of different atomic species (ntypx) = 10
     Max number of k-points (npk) =  40000
     Max angular momentum in pseudopotentials (lmaxx) =  4
     file C.pbe-n-kjpaw_psl.1.0.0.UPF: wavefunction(s)  2S 2P renormalized

     R & G space division:  proc/nbgrp/npool/nimage =      33
     Subspace diagonalization in iterative solution of the eigenvalue problem:
     one sub-group per band group will be used
     custom distributed-memory algorithm (size of sub-group:  5*  5 procs)


     Parallelization info
     --------------------
     sticks:   dense  smooth     PW     G-vecs:    dense   smooth      PW
     Min         270     154     42                40385    17444    2529
     Max         271     155     43                40396    17453    2536
     Sum        8941    5109   1411              1332973   575857   83601

     Using Slab Decomposition



     bravais-lattice index     =            0
     lattice parameter (alat)  =      20.9009  a.u.
     unit-cell volume          =   16846.7507 (a.u.)^3
     number of atoms/cell      =           62
     number of atomic types    =            4
     number of electrons       =       996.00
     number of Kohn-Sham states=          598
     kinetic-energy cutoff     =      40.0000  Ry
     charge density cutoff     =     280.0000  Ry
     scf convergence threshold =      1.0E-06
     mixing beta               =       0.4000
     number of iterations used =            8  plain     mixing
     energy convergence thresh.=      5.0E-05
     force convergence thresh. =      1.0E-03
     Exchange-correlation= PBE
                           (   1   4   3   4   0   0   0)
     nstep                     =          300


     celldm(1)=  20.900943  celldm(2)=   0.000000  celldm(3)=   0.000000
     celldm(4)=   0.000000  celldm(5)=   0.000000  celldm(6)=   0.000000

     crystal axes: (cart. coord. in units of alat)
               a(1) = (   1.000000   0.000000   0.000000 )  
               a(2) = (  -0.223489   0.918700   0.000000 )  
               a(3) = (  -4.200249  -1.021781   2.008375 )  

     reciprocal axes: (cart. coord. in units 2 pi/alat)
               b(1) = (  1.000000  0.243267  2.215131 )  
               b(2) = ( -0.000000  1.088495  0.553783 )  
               b(3) = (  0.000000 -0.000000  0.497915 )  


     PseudoPot. # 1 for Zn read from file:
     /home/ys/qepseudo/SSSP_1.3.0_PBE_efficiency/Zn_pbe_v1.uspp.F.UPF
     MD5 check sum: df62231357ef9e81f77b2b3087fa5675
     Pseudo is Ultrasoft, Zval = 20.0
     Generated by new atomic code, or converted to UPF format
     Using radial grid of  943 points,  6 beta functions with: 
                l(1) =   0
                l(2) =   0
                l(3) =   1
                l(4) =   1
                l(5) =   2
                l(6) =   2
     Q(r) pseudized with  8 coefficients,  rinner =    1.100   1.100   1.100
                                                       1.100   1.100

     PseudoPot. # 2 for N  read from file:
     /home/ys/qepseudo/SSSP_1.3.0_PBE_efficiency/N.pbe-n-radius_5.UPF
     MD5 check sum: 16739722b17309cd8fe442a2ace49922
     Pseudo is Ultrasoft + core correction, Zval =  5.0
     Generated using "atomic" code by A. Dal Corso  v.5.1
     Using radial grid of 1085 points,  4 beta functions with: 
                l(1) =   0
                l(2) =   0
                l(3) =   1
                l(4) =   1
     Q(r) pseudized with 0 coefficients 


     PseudoPot. # 3 for C  read from file:
     /home/ys/qepseudo/SSSP_1.3.0_PBE_efficiency/C.pbe-n-kjpaw_psl.1.0.0.UPF
     MD5 check sum: 5d2aebdfa2cae82b50a7e79e9516da0f
     Pseudo is Projector augmented-wave + core cor, Zval =  4.0
     Generated using "atomic" code by A. Dal Corso  v.5.1
     Shape of augmentation charge: PSQ
     Using radial grid of 1073 points,  4 beta functions with: 
                l(1) =   0
                l(2) =   0
                l(3) =   1
                l(4) =   1
     Q(r) pseudized with 0 coefficients 


     PseudoPot. # 4 for H  read from file:
     /home/ys/qepseudo/SSSP_1.3.0_PBE_efficiency/H.pbe-rrkjus_psl.1.0.0.UPF
     MD5 check sum: f52b6d4d1c606e5624b1dc7b2218f220
     Pseudo is Ultrasoft, Zval =  1.0
     Generated using "atomic" code by A. Dal Corso  v.5.1
     Using radial grid of  929 points,  2 beta functions with: 
                l(1) =   0
                l(2) =   0
     Q(r) pseudized with 0 coefficients 


     atomic species   valence    mass     pseudopotential
     Zn               20.00    65.38000     Zn( 1.00)
     N                 5.00    14.00674     N ( 1.00)
     C                 4.00    12.01070     C ( 1.00)
     H                 1.00     1.00794     H ( 1.00)

     No symmetry found


                                    s                        frac. trans.

      isym =  1     identity                                     

 cryst.   s( 1) = (     1          0          0      )
                  (     0          1          0      )
                  (     0          0          1      )

 cart.    s( 1) = (  1.0000000  0.0000000  0.0000000 )
                  (  0.0000000  1.0000000  0.0000000 )
                  (  0.0000000  0.0000000  1.0000000 )


   Cartesian axes

     site n.     atom                  positions (alat units)
         1        Zn     tau(   1) = (  -0.0970639   0.0980210   0.1082940  )
         2        Zn     tau(   2) = (  -0.2088085   0.5573710   0.1082940  )
         3        Zn     tau(   3) = (  -0.4046889   0.0238356   0.3945112  )
         4        Zn     tau(   4) = (  -0.5148443   0.4836493   0.3915045  )
         5        Zn     tau(   5) = (  -0.7651777  -0.0646356   0.5357447  )
         6        Zn     tau(   6) = (  -0.8759681   0.3956150   0.5369491  )
         7        Zn     tau(   7) = (  -0.1529361   0.3276960   0.1082940  )
         8        Zn     tau(   8) = (  -0.2646808   0.7870460   0.1082940  )
         9        Zn     tau(   9) = (  -0.4597388   0.2533124   0.3935102  )
        10        Zn     tau(  10) = (  -0.5711959   0.7134845   0.3938275  )
        11        Zn     tau(  11) = (  -0.8230187   0.1656743   0.5303209  )
        12        Zn     tau(  12) = (  -0.9326379   0.6238988   0.5403951  )
        13        Zn     tau(  13) = (   0.4029362   0.0980210   0.1082940  )
        14        Zn     tau(  14) = (   0.2911915   0.5573710   0.1082940  )
        15        Zn     tau(  15) = (   0.0248375   0.0089367   0.3261011  )
        16        Zn     tau(  16) = (  -0.0900884   0.4670356   0.3249327  )
        17        Zn     tau(  17) = (  -0.2161100  -0.0512910   0.5229800  )
        18        Zn     tau(  18) = (  -0.3283132   0.4082046   0.5246549  )
        19        Zn     tau(  19) = (   0.3470638   0.3276960   0.1082940  )
        20        Zn     tau(  20) = (   0.2353192   0.7870460   0.1082940  )
        21        Zn     tau(  21) = (  -0.0315642   0.2377376   0.3281019  )
        22        Zn     tau(  22) = (  -0.1468920   0.6967529   0.3255448  )
        23        Zn     tau(  23) = (  -0.2729577   0.1791364   0.5236244  )
        24        Zn     tau(  24) = (  -0.3837215   0.6381745   0.5246769  )
        25        Zn     tau(  25) = (   0.1529361   0.0372043   0.0773528  )
        26        Zn     tau(  26) = (   0.0411915   0.4965543   0.0773528  )
        27        Zn     tau(  27) = (  -0.2137236  -0.0508291   0.2620433  )
        28        Zn     tau(  28) = (  -0.3251803   0.4066863   0.2630412  )
        29        Zn     tau(  29) = (  -0.5700571  -0.1386620   0.4160999  )
        30        Zn     tau(  30) = (  -0.6805474   0.3214363   0.4138667  )
        31        Zn     tau(  31) = (   0.0970639   0.2668793   0.0773528  )
        32        Zn     tau(  32) = (  -0.0146808   0.7262293   0.0773528  )
        33        Zn     tau(  33) = (  -0.2692724   0.1779176   0.2627327  )
        34        Zn     tau(  34) = (  -0.3807500   0.6372383   0.2626346  )
        35        Zn     tau(  35) = (  -0.6260319   0.0910716   0.4138008  )
        36        Zn     tau(  36) = (  -0.7365561   0.5513836   0.4157481  )
        37        Zn     tau(  37) = (   0.6529362   0.0372043   0.0773528  )
        38        Zn     tau(  38) = (   0.5411915   0.4965543   0.0773528  )
        39        Zn     tau(  39) = (   0.2550218  -0.0594263   0.2712343  )
        40        Zn     tau(  40) = (   0.1429526   0.4008052   0.2718025  )
        41        Zn     tau(  41) = (   0.0099401  -0.1167051   0.5363126  )
        42        Zn     tau(  42) = (  -0.1018624   0.3426812   0.5355253  )
        43        Zn     tau(  43) = (   0.5970639   0.2668793   0.0773528  )
        44        Zn     tau(  44) = (   0.4853193   0.7262293   0.0773528  )
        45        Zn     tau(  45) = (   0.2021839   0.1716332   0.2677779  )
        46        Zn     tau(  46) = (   0.0879158   0.6302920   0.2712236  )
        47        Zn     tau(  47) = (  -0.0495801   0.1122431   0.5386904  )
        48        Zn     tau(  48) = (  -0.1583395   0.5716036   0.5337245  )
        49        C      tau(  49) = (  -0.8941526   0.2284692   1.0128780  )
        50        N      tau(  50) = (  -0.9077579   0.1387061   0.8117110  )
        51        C      tau(  51) = (  -0.8849617   0.2145770   1.1379990  )
        52        C      tau(  52) = (  -0.8801939   0.1294846   0.9352319  )
        53        H      tau(  53) = (  -0.9145459   0.3172442   0.9748734  )
        54        H      tau(  54) = (  -0.8999628   0.2228609   0.7759815  )
        55        C      tau(  55) = (  -0.8583586   0.1016996   1.1887963  )
        56        C      tau(  56) = (  -0.8466043   0.0184429   0.9859123  )
        57        C      tau(  57) = (  -0.8373940   0.0041743   1.1110416  )
        58        H      tau(  58) = (  -0.8964306   0.2941341   1.1955317  )
        59        H      tau(  59) = (  -0.8691528   0.0744831   0.7585755  )
        60        H      tau(  60) = (  -0.8537776   0.0900451   1.2866102  )
        61        H      tau(  61) = (  -0.8292266  -0.0581925   0.9263439  )
        62        H      tau(  62) = (  -0.8109355  -0.0841984   1.1465656  )

     --------------------------------------------
     DFT-D3 Dispersion Correction (3-body terms):
     --------------------------------------------
       Reference C6 values for interpolation: 

         atom   Coordination number   C6
         H          0.912             6.05
         H          0.000            15.18
         C          0.000            98.23
         C          0.987            86.49
         C          1.998            58.72
         C          2.999            51.56
         C          3.984            36.41
         N          0.000            50.54
         N          0.994            44.25
         N          2.014            39.35
         N          2.990            31.16
         Zn         0.000           681.04
         Zn         1.942           306.91

       Values used:

         atom   Coordination number  R0_AB[au]  C6      C8
         Zn         5.902            3.053    306.91  23930.67
         Zn         5.961            3.053    306.91  23930.67
         Zn         6.827            3.053    306.91  23930.67
         Zn         6.847            3.053    306.91  23930.67
         Zn         4.996            3.053    306.91  23930.67
         Zn         4.978            3.053    306.91  23930.67
         Zn         5.918            3.053    306.91  23930.67
         Zn         5.937            3.053    306.91  23930.67
         Zn         6.855            3.053    306.91  23930.67
         Zn         6.836            3.053    306.91  23930.67
         Zn         5.115            3.053    306.91  23930.67
         Zn         4.860            3.053    306.91  23930.67
         Zn         4.418            3.053    306.91  23930.67
         Zn         4.359            3.053    306.91  23930.67
         Zn         6.863            3.053    306.91  23930.67
         Zn         6.957            3.053    306.91  23930.67
         Zn         5.759            3.053    306.91  23930.67
         Zn         5.709            3.053    306.91  23930.67
         Zn         4.416            3.053    306.91  23930.67
         Zn         4.363            3.053    306.91  23930.67
         Zn         6.846            3.053    306.91  23930.67
         Zn         6.939            3.053    306.91  23930.67
         Zn         5.753            3.053    306.91  23930.67
         Zn         5.703            3.053    306.91  23930.67
         Zn         5.396            3.053    306.91  23930.67
         Zn         5.370            3.053    306.91  23930.67
         Zn         7.657            3.053    306.91  23930.67
         Zn         7.711            3.053    306.91  23930.67
         Zn         6.888            3.053    306.91  23930.67
         Zn         6.901            3.053    306.91  23930.67
         Zn         5.372            3.053    306.91  23930.67
         Zn         5.367            3.053    306.91  23930.67
         Zn         7.666            3.053    306.91  23930.67
         Zn         7.707            3.053    306.91  23930.67
         Zn         6.928            3.053    306.91  23930.67
         Zn         6.865            3.053    306.91  23930.67
         Zn         5.034            3.053    306.91  23930.67
         Zn         5.021            3.053    306.91  23930.67
         Zn         7.836            3.053    306.91  23930.67
         Zn         7.802            3.053    306.91  23930.67
         Zn         6.000            3.053    306.91  23930.67
         Zn         6.031            3.053    306.91  23930.67
         Zn         5.028            3.053    306.91  23930.67
         Zn         5.023            3.053    306.91  23930.67
         Zn         7.944            3.053    306.91  23930.67
         Zn         7.726            3.053    306.91  23930.67
         Zn         5.984            3.053    306.91  23930.67
         Zn         6.056            3.053    306.91  23930.67
         C          3.168            2.750     50.38   1457.09
         N          3.099            2.478     31.24    689.07
         C          3.131            2.750     50.68   1465.75
         C          3.142            2.750     50.59   1463.25
         H          1.003            2.062      6.18     74.68
         H          1.013            2.062      6.17     74.59
         C          3.121            2.750     50.75   1467.70
         C          3.170            2.750     50.36   1456.59
         C          3.130            2.750     50.68   1465.84
         H          1.002            2.062      6.18     74.69
         H          1.017            2.062      6.17     74.54
         H          1.002            2.062      6.18     74.70
         H          1.004            2.062      6.18     74.68
         H          1.002            2.062      6.18     74.69

         Molecular C6 ( Ry / a.u.^6 ) =    819941.42


   Crystallographic axes

     site n.     atom                  positions (cryst. coord.)
         1        Zn     tau(   1) = (  0.1666667  0.1666667  0.0539212  )
         2        Zn     tau(   2) = (  0.1666668  0.6666667  0.0539212  )
         3        Zn     tau(   3) = (  0.4750037  0.2444185  0.1964330  )
         4        Zn     tau(   4) = (  0.4700455  0.7432581  0.1949360  )
         5        Zn     tau(   5) = (  0.4058435  0.2263307  0.2667553  )
         6        Zn     tau(   6) = (  0.4096847  0.7279779  0.2673550  )
         7        Zn     tau(   7) = (  0.1666668  0.4166667  0.0539212  )
         8        Zn     tau(   8) = (  0.1666667  0.9166667  0.0539212  )
         9        Zn     tau(   9) = (  0.4735604  0.4936483  0.1959346  )
        10        Zn     tau(  10) = (  0.4747509  0.9947190  0.1960926  )
        11        Zn     tau(  11) = (  0.3920147  0.4740182  0.2640547  )
        12        Zn     tau(  12) = (  0.4161821  0.9783720  0.2690708  )
        13        Zn     tau(  13) = (  0.6666668  0.1666667  0.0539212  )
        14        Zn     tau(  14) = (  0.6666667  0.6666667  0.0539212  )
        15        Zn     tau(  15) = (  0.7493683  0.1903168  0.1623706  )
        16        Zn     tau(  16) = (  0.7432945  0.6883079  0.1617889  )
        17        Zn     tau(  17) = (  0.9298820  0.2337874  0.2603996  )
        18        Zn     tau(  18) = (  0.9331689  0.7348733  0.2612335  )
        19        Zn     tau(  19) = (  0.6666668  0.4166667  0.0539212  )
        20        Zn     tau(  20) = (  0.6666668  0.9166667  0.0539212  )
        21        Zn     tau(  21) = (  0.7530583  0.4404733  0.1633669  )
        22        Zn     tau(  22) = (  0.7437293  0.9386928  0.1620936  )
        23        Zn     tau(  23) = (  0.9305171  0.4849632  0.2607205  )
        24        Zn     tau(  24) = (  0.9337535  0.9852066  0.2612445  )
        25        Zn     tau(  25) = (  0.3333333  0.0833333  0.0385151  )
        26        Zn     tau(  26) = (  0.3333333  0.5833333  0.0385151  )
        27        Zn     tau(  27) = (  0.3543716  0.0897879  0.1304753  )
        28        Zn     tau(  28) = (  0.3564239  0.5883436  0.1309722  )
        29        Zn     tau(  29) = (  0.3179270  0.0794961  0.2071824  )
        30        Zn     tau(  30) = (  0.3144166  0.5790739  0.2060704  )
        31        Zn     tau(  31) = (  0.3333333  0.3333333  0.0385151  )
        32        Zn     tau(  32) = (  0.3333333  0.8333333  0.0385151  )
        33        Zn     tau(  33) = (  0.3559966  0.3391592  0.1308186  )
        34        Zn     tau(  34) = (  0.3560392  0.8390731  0.1307697  )
        35        Zn     tau(  35) = (  0.3127460  0.3282868  0.2060376  )
        36        Zn     tau(  36) = (  0.3185139  0.8304122  0.2070072  )
        37        Zn     tau(  37) = (  0.8333333  0.0833333  0.0385151  )
        38        Zn     tau(  38) = (  0.8333333  0.5833333  0.0385151  )
        39        Zn     tau(  39) = (  0.8413849  0.0855197  0.1350516  )
        40        Zn     tau(  40) = (  0.8425335  0.5867939  0.1353346  )
        41        Zn     tau(  41) = (  1.1695525  0.1699678  0.2670381  )
        42        Zn     tau(  42) = (  1.1677594  0.6695714  0.2666461  )
        43        Zn     tau(  43) = (  0.8333333  0.3333333  0.0385151  )
        44        Zn     tau(  44) = (  0.8333333  0.8333333  0.0385151  )
        45        Zn     tau(  45) = (  0.8370997  0.3351126  0.1333306  )
        46        Zn     tau(  46) = (  0.8420408  0.8362684  0.1350463  )
        47        Zn     tau(  47) = (  1.1709950  0.4204935  0.2682220  )
        48        Zn     tau(  48) = (  1.1629826  0.9177549  0.2657494  )
        49        C      tau(  49) = (  1.4050843  0.8096019  0.5043272  )
        50        N      tau(  50) = (  0.9240312  0.6004924  0.4041631  )
        51        C      tau(  51) = (  1.6880550  0.8637702  0.5666268  )
        52        C      tau(  52) = (  1.2229669  0.6588586  0.4656660  )
        53        H      tau(  53) = (  1.3221016  0.8851868  0.4854041  )
        54        H      tau(  54) = (  0.8731529  0.6723081  0.3863728  )
        55        C      tau(  55) = (  1.7997215  0.7690344  0.5919195  )
        56        C      tau(  56) = (  1.3418076  0.5660563  0.4909005  )
        57        C      tau(  57) = (  1.6247246  0.6198194  0.5532043  )
        58        H      tau(  58) = (  1.8233821  0.9822283  0.5952731  )
        59        H      tau(  59) = (  0.8293109  0.5011605  0.3777061  )
        60        H      tau(  60) = (  2.0181379  0.8105162  0.6406225  )
        61        H      tau(  61) = (  1.2085906  0.4496511  0.4612405  )
        62        H      tau(  62) = (  1.7083752  0.5432988  0.5708922  )

     number of k points=     5  Marzari-Vanderbilt smearing, width (Ry)=  0.0200
                       cart. coord. in units 2pi/alat
        k(    1) = (   0.0000000   0.0000000   0.0000000), wk =   0.2222222
        k(    2) = (   0.0000000   0.3628315   0.1845943), wk =   0.4444444
        k(    3) = (   0.3333333   0.0810890   0.7383771), wk =   0.4444444
        k(    4) = (   0.3333333   0.4439205   0.9229714), wk =   0.4444444
        k(    5) = (   0.3333333  -0.2817426   0.5537829), wk =   0.4444444

                       cryst. coord.
        k(    1) = (   0.0000000   0.0000000   0.0000000), wk =   0.2222222
        k(    2) = (   0.0000000   0.3333333   0.0000000), wk =   0.4444444
        k(    3) = (   0.3333333   0.0000000   0.0000000), wk =   0.4444444
        k(    4) = (   0.3333333   0.3333333   0.0000000), wk =   0.4444444
        k(    5) = (   0.3333333  -0.3333333   0.0000000), wk =   0.4444444

     Dense  grid:  1332973 G-vectors     FFT dimensions: ( 120, 108, 540)

     Smooth grid:   575857 G-vectors     FFT dimensions: (  90,  80, 405)

     Dynamical RAM for                 wfc:      19.89 MB

     Dynamical RAM for     wfc (w. buffer):     119.35 MB

     Dynamical RAM for           str. fact:       2.47 MB

     Dynamical RAM for           local pot:       0.00 MB

     Dynamical RAM for          nlocal pot:      31.07 MB

     Dynamical RAM for                qrad:       5.37 MB

     Dynamical RAM for          rho,v,vnew:       6.89 MB

     Dynamical RAM for               rhoin:       2.30 MB

     Dynamical RAM for            rho*nmix:       9.86 MB

     Dynamical RAM for           G-vectors:       2.44 MB

     Dynamical RAM for          h,s,v(r/c):       2.61 MB

     Dynamical RAM for          <psi|beta>:       8.52 MB

     Dynamical RAM for                 psi:      39.78 MB

     Dynamical RAM for                hpsi:      39.78 MB

     Dynamical RAM for                spsi:      39.78 MB

     Dynamical RAM for      wfcinit/wfcrot:      53.79 MB

     Dynamical RAM for           addusdens:     144.24 MB

     Dynamical RAM for          addusforce:     202.67 MB

     Dynamical RAM for         addusstress:     123.90 MB

     Estimated static dynamical RAM per process >     181.38 MB

     Estimated max dynamical RAM per process >     393.92 MB

     Estimated total dynamical RAM >      12.69 GB

     Initial potential from superposition of free atoms

     starting charge     995.9929, renormalised to     996.0000

     negative rho (up, down):  2.101E-03 0.000E+00
     Starting wfcs are  659 randomized atomic wfcs
[psid09:02191] 32 more processes have sent help message help-mpi-btl-openib.txt / ib port not selected
[psid09:02191] Set MCA parameter "orte_base_help_aggregate" to 0 to see all help / error messages
[psid09:02191] 32 more processes have sent help message help-mpi-btl-openib.txt / error in device init
     Checking if some PAW data can be deallocated... 
       PAW data deallocated on   29 nodes for type:  3

     total cpu time spent up to now is       81.2 secs

     Self-consistent Calculation

     iteration #  1     ecut=    40.00 Ry     beta= 0.40
     Davidson diagonalization with overlap

---- Real-time Memory Report at c_bands before calling an iterative solver
           262 MiB given to the printing process from OS
             0 MiB allocation reported by mallinfo(arena+hblkhd)
          5317 MiB available memory on the node where the printing process lives
------------------
     ethr =  1.00E-02,  avg # of iterations =  7.8

     negative rho (up, down):  2.609E-03 0.000E+00

     total cpu time spent up to now is      406.4 secs

     total energy              =  -22288.25918021 Ry
     estimated scf accuracy    <      11.21124603 Ry

     iteration #  2     ecut=    40.00 Ry     beta= 0.40
     Davidson diagonalization with overlap

---- Real-time Memory Report at c_bands before calling an iterative solver
           365 MiB given to the printing process from OS
             0 MiB allocation reported by mallinfo(arena+hblkhd)
          4175 MiB available memory on the node where the printing process lives
------------------
     ethr =  1.13E-03,  avg # of iterations =  9.4

     negative rho (up, down):  3.808E-03 0.000E+00

     total cpu time spent up to now is      722.9 secs

     total energy              =  -22276.40279808 Ry
     estimated scf accuracy    <     242.20795061 Ry

     iteration #  3     ecut=    40.00 Ry     beta= 0.40
     Davidson diagonalization with overlap

---- Real-time Memory Report at c_bands before calling an iterative solver
           381 MiB given to the printing process from OS
             0 MiB allocation reported by mallinfo(arena+hblkhd)
          4680 MiB available memory on the node where the printing process lives
------------------
     ethr =  1.13E-03,  avg # of iterations =  8.2

     negative rho (up, down):  3.741E-03 0.000E+00

     total cpu time spent up to now is     1102.1 secs

     total energy              =  -22292.78031358 Ry
     estimated scf accuracy    <       9.10435951 Ry

     iteration #  4     ecut=    40.00 Ry     beta= 0.40
     Davidson diagonalization with overlap

---- Real-time Memory Report at c_bands before calling an iterative solver
           382 MiB given to the printing process from OS
             0 MiB allocation reported by mallinfo(arena+hblkhd)
          4658 MiB available memory on the node where the printing process lives
------------------
     ethr =  9.14E-04,  avg # of iterations =  3.0

     negative rho (up, down):  3.646E-03 0.000E+00

     total cpu time spent up to now is     1365.6 secs

     total energy              =  -22293.41239104 Ry
     estimated scf accuracy    <       3.95158870 Ry

     iteration #  5     ecut=    40.00 Ry     beta= 0.40
     Davidson diagonalization with overlap

---- Real-time Memory Report at c_bands before calling an iterative solver
           383 MiB given to the printing process from OS
             0 MiB allocation reported by mallinfo(arena+hblkhd)
          4640 MiB available memory on the node where the printing process lives
------------------
     ethr =  3.97E-04,  avg # of iterations =  2.0

     negative rho (up, down):  3.651E-03 0.000E+00

     total cpu time spent up to now is     1620.4 secs

     total energy              =  -22293.65018467 Ry
     estimated scf accuracy    <       0.38582680 Ry

     iteration #  6     ecut=    40.00 Ry     beta= 0.40
     Davidson diagonalization with overlap

---- Real-time Memory Report at c_bands before calling an iterative solver
           384 MiB given to the printing process from OS
             0 MiB allocation reported by mallinfo(arena+hblkhd)
          4611 MiB available memory on the node where the printing process lives
------------------
     ethr =  3.87E-05,  avg # of iterations = 12.2

     negative rho (up, down):  3.749E-03 0.000E+00

     total cpu time spent up to now is     1908.4 secs

     total energy              =  -22293.65691005 Ry
     estimated scf accuracy    <       0.13597981 Ry

     iteration #  7     ecut=    40.00 Ry     beta= 0.40
     Davidson diagonalization with overlap

---- Real-time Memory Report at c_bands before calling an iterative solver
           384 MiB given to the printing process from OS
             0 MiB allocation reported by mallinfo(arena+hblkhd)
          4634 MiB available memory on the node where the printing process lives
------------------
     ethr =  1.37E-05,  avg # of iterations = 10.6

     negative rho (up, down):  3.816E-03 0.000E+00

     total cpu time spent up to now is     2182.7 secs

     total energy              =  -22293.65480986 Ry
     estimated scf accuracy    <       0.05711393 Ry

     iteration #  8     ecut=    40.00 Ry     beta= 0.40
     Davidson diagonalization with overlap

---- Real-time Memory Report at c_bands before calling an iterative solver
           385 MiB given to the printing process from OS
             0 MiB allocation reported by mallinfo(arena+hblkhd)
          4601 MiB available memory on the node where the printing process lives
------------------
     c_bands:  1 eigenvalues not converged
     ethr =  5.73E-06,  avg # of iterations = 15.4

     negative rho (up, down):  3.849E-03 0.000E+00

     total cpu time spent up to now is     2466.3 secs

     total energy              =  -22293.65413489 Ry
     estimated scf accuracy    <       0.04435332 Ry

     iteration #  9     ecut=    40.00 Ry     beta= 0.40
     Davidson diagonalization with overlap

---- Real-time Memory Report at c_bands before calling an iterative solver
           386 MiB given to the printing process from OS
             0 MiB allocation reported by mallinfo(arena+hblkhd)
          4626 MiB available memory on the node where the printing process lives
------------------
     c_bands:  2 eigenvalues not converged
     ethr =  4.45E-06,  avg # of iterations =  6.4

     negative rho (up, down):  3.870E-03 0.000E+00

     total cpu time spent up to now is     2725.1 secs

     total energy              =  -22293.65320485 Ry
     estimated scf accuracy    <       0.02627249 Ry

     iteration # 10     ecut=    40.00 Ry     beta= 0.40
     Davidson diagonalization with overlap

---- Real-time Memory Report at c_bands before calling an iterative solver
           387 MiB given to the printing process from OS
             0 MiB allocation reported by mallinfo(arena+hblkhd)
          4640 MiB available memory on the node where the printing process lives
------------------
     c_bands:  1 eigenvalues not converged
     c_bands:  1 eigenvalues not converged
     ethr =  2.64E-06,  avg # of iterations = 13.0

     negative rho (up, down):  3.898E-03 0.000E+00

     total cpu time spent up to now is     2998.8 secs

     total energy              =  -22293.64963892 Ry
     estimated scf accuracy    <       0.02108491 Ry

     iteration # 11     ecut=    40.00 Ry     beta= 0.40
     Davidson diagonalization with overlap

---- Real-time Memory Report at c_bands before calling an iterative solver
           387 MiB given to the printing process from OS
             0 MiB allocation reported by mallinfo(arena+hblkhd)
          4637 MiB available memory on the node where the printing process lives
------------------
     c_bands:  1 eigenvalues not converged
     c_bands:  1 eigenvalues not converged
     ethr =  2.12E-06,  avg # of iterations = 15.6

     negative rho (up, down):  3.981E-03 0.000E+00

     total cpu time spent up to now is     3283.9 secs

     total energy              =  -22293.63947039 Ry
     estimated scf accuracy    <       0.01444753 Ry

     iteration # 12     ecut=    40.00 Ry     beta= 0.40
     Davidson diagonalization with overlap

---- Real-time Memory Report at c_bands before calling an iterative solver
           387 MiB given to the printing process from OS
             0 MiB allocation reported by mallinfo(arena+hblkhd)
          4639 MiB available memory on the node where the printing process lives
------------------
     ethr =  1.45E-06,  avg # of iterations = 18.0

     negative rho (up, down):  3.960E-03 0.000E+00

     total cpu time spent up to now is     3633.0 secs

     total energy              =  -22293.64205073 Ry
     estimated scf accuracy    <       0.00137595 Ry

     iteration # 13     ecut=    40.00 Ry     beta= 0.40
     Davidson diagonalization with overlap

---- Real-time Memory Report at c_bands before calling an iterative solver
           387 MiB given to the printing process from OS
             0 MiB allocation reported by mallinfo(arena+hblkhd)
          4638 MiB available memory on the node where the printing process lives
------------------
     ethr =  1.38E-07,  avg # of iterations =  2.0

     negative rho (up, down):  3.949E-03 0.000E+00

     total cpu time spent up to now is     3890.2 secs

     total energy              =  -22293.64217870 Ry
     estimated scf accuracy    <       0.00021038 Ry

     iteration # 14     ecut=    40.00 Ry     beta= 0.40
     Davidson diagonalization with overlap

---- Real-time Memory Report at c_bands before calling an iterative solver
           387 MiB given to the printing process from OS
             0 MiB allocation reported by mallinfo(arena+hblkhd)
          4643 MiB available memory on the node where the printing process lives
------------------
     ethr =  2.11E-08,  avg # of iterations =  2.0

     negative rho (up, down):  3.946E-03 0.000E+00

     total cpu time spent up to now is     4148.5 secs

     total energy              =  -22293.64216334 Ry
     estimated scf accuracy    <       0.00047431 Ry

     iteration # 15     ecut=    40.00 Ry     beta= 0.40
     Davidson diagonalization with overlap

---- Real-time Memory Report at c_bands before calling an iterative solver
           387 MiB given to the printing process from OS
             0 MiB allocation reported by mallinfo(arena+hblkhd)
          4641 MiB available memory on the node where the printing process lives
------------------
     ethr =  2.11E-08,  avg # of iterations =  2.0

     negative rho (up, down):  3.944E-03 0.000E+00

     total cpu time spent up to now is     4399.6 secs

     total energy              =  -22293.64220202 Ry
     estimated scf accuracy    <       0.00019967 Ry

     iteration # 16     ecut=    40.00 Ry     beta= 0.40
     Davidson diagonalization with overlap

---- Real-time Memory Report at c_bands before calling an iterative solver
           387 MiB given to the printing process from OS
             0 MiB allocation reported by mallinfo(arena+hblkhd)
          4642 MiB available memory on the node where the printing process lives
------------------
     ethr =  2.00E-08,  avg # of iterations =  1.0

     negative rho (up, down):  3.943E-03 0.000E+00

     total cpu time spent up to now is     4601.8 secs

     total energy              =  -22293.64221750 Ry
     estimated scf accuracy    <       0.00005302 Ry

     iteration # 17     ecut=    40.00 Ry     beta= 0.40
     Davidson diagonalization with overlap

---- Real-time Memory Report at c_bands before calling an iterative solver
           387 MiB given to the printing process from OS
             0 MiB allocation reported by mallinfo(arena+hblkhd)
          4638 MiB available memory on the node where the printing process lives
------------------
     ethr =  5.32E-09,  avg # of iterations =  2.0

     negative rho (up, down):  3.944E-03 0.000E+00

     total cpu time spent up to now is     4852.1 secs

     total energy              =  -22293.64222197 Ry
     estimated scf accuracy    <       0.00000230 Ry

     iteration # 18     ecut=    40.00 Ry     beta= 0.40
     Davidson diagonalization with overlap

---- Real-time Memory Report at c_bands before calling an iterative solver
           387 MiB given to the printing process from OS
             0 MiB allocation reported by mallinfo(arena+hblkhd)
          4643 MiB available memory on the node where the printing process lives
------------------
     ethr =  2.31E-10,  avg # of iterations =  2.0

     negative rho (up, down):  3.944E-03 0.000E+00

     total cpu time spent up to now is     5111.6 secs

     End of self-consistent calculation

          k = 0.0000 0.0000 0.0000 ( 71933 PWs)   bands (ev):

  -125.2310-125.2169-125.2159-125.2137-125.2115-125.2113-125.2080-125.2026
  -125.1608-125.1560-125.1496-125.1481-125.1465-125.1449-125.1439-125.1427
  -125.1138-125.1084-125.1017-125.1003-125.0746-125.0702-125.0649-125.0606
  -125.0374-125.0353-125.0311-125.0288-125.0220-125.0209-125.0193-125.0184
  -125.0111-125.0082-125.0073-125.0055-124.9698-124.9679-124.9628-124.9618
  -124.9523-124.9442-124.9432-124.9402-124.9389-124.9325-124.9310-124.9100
   -79.3924 -79.3797 -79.3780 -79.3753 -79.3750 -79.3744 -79.3711 -79.3708
   -79.3703 -79.3677 -79.3639 -79.3636 -79.3619 -79.3614 -79.3597 -79.3594
   -79.3587 -79.3585 -79.3574 -79.3568 -79.3555 -79.3472 -79.3441 -79.3424
   -79.3187 -79.3159 -79.3127 -79.3084 -79.3080 -79.3065 -79.3048 -79.3039
   -79.3029 -79.2978 -79.2965 -79.2961 -79.2942 -79.2941 -79.2933 -79.2925
   -79.2919 -79.2912 -79.2905 -79.2895 -79.2887 -79.2865 -79.2850 -79.2797
   -79.2741 -79.2671 -79.2623 -79.2612 -79.2610 -79.2579 -79.2570 -79.2557
   -79.2541 -79.2511 -79.2476 -79.2452 -79.2302 -79.2276 -79.2259 -79.2250
   -79.2207 -79.2205 -79.2162 -79.2152 -79.2148 -79.2129 -79.2114 -79.2089
   -79.2071 -79.2040 -79.2015 -79.1998 -79.1855 -79.1850 -79.1837 -79.1835
   -79.1823 -79.1817 -79.1813 -79.1804 -79.1790 -79.1788 -79.1785 -79.1778
   -79.1769 -79.1759 -79.1739 -79.1728 -79.1715 -79.1705 -79.1692 -79.1664
   -79.1663 -79.1658 -79.1650 -79.1591 -79.1562 -79.1555 -79.1548 -79.1536
   -79.1536 -79.1526 -79.1521 -79.1398 -79.1377 -79.1360 -79.1309 -79.1299
   -79.1213 -79.1198 -79.1181 -79.1180 -79.1140 -79.1132 -79.1129 -79.1122
   -79.1102 -79.1090 -79.1089 -79.1074 -79.1053 -79.1043 -79.0998 -79.0982
   -79.0972 -79.0951 -79.0930 -79.0922 -79.0905 -79.0894 -79.0865 -79.0851
   -79.0817 -79.0810 -79.0799 -79.0785 -79.0750 -79.0728 -79.0599 -79.0497
   -17.4568 -15.2361 -12.8095 -12.4160  -9.5210  -9.2072  -8.1156  -7.4291
    -7.3352  -7.1468  -7.0393  -7.0209  -6.9466  -6.9047  -6.9039  -6.8703
    -6.8641  -6.8579  -6.7874  -6.7775  -6.7703  -6.7692  -6.7671  -6.7275
    -6.7010  -6.6717  -6.6684  -6.6587  -6.6409  -6.6285  -6.6230  -6.6221
    -6.6087  -6.5855  -6.5617  -6.5566  -6.5558  -6.5325  -6.5277  -6.5204
    -6.5193  -6.5032  -6.5028  -6.5005  -6.4961  -6.4916  -6.4893  -6.4754
    -6.4744  -6.4707  -6.4638  -6.4563  -6.4485  -6.4456  -6.4378  -6.4324
    -6.4284  -6.4230  -6.4108  -6.4038  -6.3960  -6.3927  -6.3806  -6.3786
    -6.3740  -6.3633  -6.3623  -6.3613  -6.3570  -6.3542  -6.3355  -6.3314
    -6.3142  -6.3083  -6.3049  -6.2939  -6.2889  -6.2777  -6.2736  -6.2707
    -6.2683  -6.2605  -6.2600  -6.2504  -6.2253  -6.2223  -6.2180  -6.2172
    -6.2021  -6.1964  -6.1878  -6.1835  -6.1761  -6.1731  -6.1710  -6.1698
    -6.1647  -6.1587  -6.1456  -6.1432  -6.1402  -6.1331  -6.1322  -6.1304
    -6.1170  -6.1107  -6.0954  -6.0943  -6.0601  -6.0592  -6.0560  -6.0500
    -6.0493  -6.0467  -6.0405  -6.0296  -6.0265  -6.0204  -6.0181  -6.0146
    -6.0091  -6.0083  -5.9994  -5.9956  -5.9836  -5.9789  -5.9759  -5.9669
    -5.9611  -5.9609  -5.9567  -5.9521  -5.9464  -5.9413  -5.9383  -5.9367
    -5.9317  -5.9294  -5.9253  -5.9179  -5.9161  -5.9115  -5.9099  -5.9018
    -5.9009  -5.8994  -5.8950  -5.8857  -5.8842  -5.8723  -5.8718  -5.8677
    -5.8645  -5.8622  -5.8563  -5.8509  -5.8494  -5.8376  -5.8370  -5.8353
    -5.8248  -5.8232  -5.8218  -5.8162  -5.8157  -5.8008  -5.7969  -5.7942
    -5.7921  -5.7903  -5.7861  -5.7832  -5.7809  -5.7758  -5.7737  -5.7713
    -5.7632  -5.7608  -5.7554  -5.7519  -5.7467  -5.7457  -5.7392  -5.7381
    -5.7371  -5.7351  -5.7324  -5.7304  -5.7073  -5.7067  -5.7043  -5.6957
    -5.6948  -5.6854  -5.6811  -5.6788  -5.6747  -5.6726  -5.6682  -5.6667
    -5.6656  -5.6625  -5.6555  -5.6521  -5.6506  -5.6496  -5.6440  -5.6401
    -5.6356  -5.6337  -5.6309  -5.6245  -5.6231  -5.6219  -5.6197  -5.6153
    -5.6022  -5.6021  -5.5894  -5.5885  -5.5866  -5.5778  -5.5759  -5.5738
    -5.5690  -5.5669  -5.5607  -5.5581  -5.5567  -5.5555  -5.5499  -5.5472
    -5.5416  -5.5409  -5.5401  -5.5357  -5.5290  -5.5236  -5.5070  -5.5014
    -5.4991  -5.4903  -5.4847  -5.4742  -5.4611  -5.4574  -5.4459  -5.4421
    -5.4304  -5.4139  -5.3966  -5.3763  -5.3516  -5.3275  -5.2677  -5.1557
    -5.1500  -4.9599  -4.9003  -4.6865  -4.5269  -4.4481  -4.4446  -4.2718
    -3.9421  -3.9240  -3.9064  -3.6887  -3.6832  -3.0259  -2.9215  -2.5959
    -2.5307  -2.5252  -2.3245  -2.1136  -2.0973  -1.8882  -1.8855  -1.8370
    -1.6475  -1.6323  -1.6240  -1.5832  -1.4637  -1.3229  -1.2837  -1.0439
    -1.0411  -0.6741  -0.4113  -0.2772  -0.1507  -0.0931  -0.0656  -0.0607
     0.0867   0.0948   0.1401   0.3722   0.5506   0.5677   0.5887   0.6673
     0.9100   0.9172   1.3246   1.6964   1.7300   1.7972   1.8495   1.9638
     2.1370   2.1555   2.2354   2.2464   2.2539   2.3479   2.5467   2.6831
     2.6956   2.9641   3.0980   3.1036   3.2457   3.3171   3.7316   3.7713
     3.9026   3.9200   4.0133   4.0524   4.2617   4.2844   4.3415   4.3692
     4.5959   4.6334   4.6658   4.8524   4.8721   4.9952   5.1921   5.2133
     5.2358   5.2631   5.3859   5.5275   5.5352   5.6173   5.6271   5.7555
     5.7865   5.8615   5.8758   5.8927   5.9210   6.0109   6.0409   6.0734
     6.1386   6.1660   6.2028   6.2103   6.2221   6.2847   6.3506   6.3963
     6.4247   6.4326   6.4884   6.5427   6.5940   6.6279   6.7197   6.7699
     6.8162   6.9029   6.9449   6.9554   7.0039   7.0293   7.0489   7.0901
     7.1296   7.1780   7.2394   7.2785   7.3203   7.3299   7.4707   7.5085
     7.5352   7.5863   7.6085   7.6797   7.7438   7.8030   7.8429   7.9034
     7.9410   7.9566   7.9951   8.0259   8.0671   8.0803

     occupation numbers 
     1.0000   1.0000   1.0000   1.0000   1.0000   1.0000   1.0000   1.0000
     1.0000   1.0000   1.0000   1.0000   1.0000   1.0000   1.0000   1.0000
     1.0000   1.0000   1.0000   1.0000   1.0000   1.0000   1.0000   1.0000
     1.0000   1.0000   1.0000   1.0000   1.0000   1.0000   1.0000   1.0000
     1.0000   1.0000   1.0000   1.0000   1.0000   1.0000   1.0000   1.0000
     1.0000   1.0000   1.0000   1.0000   1.0000   1.0000   1.0000   1.0000
     1.0000   1.0000   1.0000   1.0000   1.0000   1.0000   1.0000   1.0000
     1.0000   1.0000   1.0000   1.0000   1.0000   1.0000   1.0000   1.0000
     1.0000   1.0000   1.0000   1.0000   1.0000   1.0000   1.0000   1.0000
     1.0000   1.0000   1.0000   1.0000   1.0000   1.0000   1.0000   1.0000
     1.0000   1.0000   1.0000   1.0000   1.0000   1.0000   1.0000   1.0000
     1.0000   1.0000   1.0000   1.0000   1.0000   1.0000   1.0000   1.0000
     1.0000   1.0000   1.0000   1.0000   1.0000   1.0000   1.0000   1.0000
     1.0000   1.0000   1.0000   1.0000   1.0000   1.0000   1.0000   1.0000
     1.0000   1.0000   1.0000   1.0000   1.0000   1.0000   1.0000   1.0000
     1.0000   1.0000   1.0000   1.0000   1.0000   1.0000   1.0000   1.0000
     1.0000   1.0000   1.0000   1.0000   1.0000   1.0000   1.0000   1.0000
     1.0000   1.0000   1.0000   1.0000   1.0000   1.0000   1.0000   1.0000
     1.0000   1.0000   1.0000   1.0000   1.0000   1.0000   1.0000   1.0000
     1.0000   1.0000   1.0000   1.0000   1.0000   1.0000   1.0000   1.0000
     1.0000   1.0000   1.0000   1.0000   1.0000   1.0000   1.0000   1.0000
     1.0000   1.0000   1.0000   1.0000   1.0000   1.0000   1.0000   1.0000
     1.0000   1.0000   1.0000   1.0000   1.0000   1.0000   1.0000   1.0000
     1.0000   1.0000   1.0000   1.0000   1.0000   1.0000   1.0000   1.0000
     1.0000   1.0000   1.0000   1.0000   1.0000   1.0000   1.0000   1.0000
     1.0000   1.0000   1.0000   1.0000   1.0000   1.0000   1.0000   1.0000
     1.0000   1.0000   1.0000   1.0000   1.0000   1.0000   1.0000   1.0000
     1.0000   1.0000   1.0000   1.0000   1.0000   1.0000   1.0000   1.0000
     1.0000   1.0000   1.0000   1.0000   1.0000   1.0000   1.0000   1.0000
     1.0000   1.0000   1.0000   1.0000   1.0000   1.0000   1.0000   1.0000
     1.0000   1.0000   1.0000   1.0000   1.0000   1.0000   1.0000   1.0000
     1.0000   1.0000   1.0000   1.0000   1.0000   1.0000   1.0000   1.0000
     1.0000   1.0000   1.0000   1.0000   1.0000   1.0000   1.0000   1.0000
     1.0000   1.0000   1.0000   1.0000   1.0000   1.0000   1.0000   1.0000
     1.0000   1.0000   1.0000   1.0000   1.0000   1.0000   1.0000   1.0000
     1.0000   1.0000   1.0000   1.0000   1.0000   1.0000   1.0000   1.0000
     1.0000   1.0000   1.0000   1.0000   1.0000   1.0000   1.0000   1.0000
     1.0000   1.0000   1.0000   1.0000   1.0000   1.0000   1.0000   1.0000
     1.0000   1.0000   1.0000   1.0000   1.0000   1.0000   1.0000   1.0000
     1.0000   1.0000   1.0000   1.0000   1.0000   1.0000   1.0000   1.0000
     1.0000   1.0000   1.0000   1.0000   1.0000   1.0000   1.0000   1.0000
     1.0000   1.0000   1.0000   1.0000   1.0000   1.0000   1.0000   1.0000
     1.0000   1.0000   1.0000   1.0000   1.0000   1.0000   1.0000   1.0000
     1.0000   1.0000   1.0000   1.0000   1.0000   1.0000   1.0000   1.0000
     1.0000   1.0000   1.0000   1.0000   1.0000   1.0000   1.0000   1.0000
     1.0000   1.0000   1.0000   1.0000   1.0000   1.0000   1.0000   1.0000
     1.0000   1.0000   1.0000   1.0000   1.0000   1.0000   1.0000   1.0000
     1.0000   1.0000   1.0000   1.0000   1.0000   1.0000   1.0000   1.0000
     1.0000   1.0000   1.0000   1.0000   1.0000   1.0000   1.0000   1.0000
     1.0000   1.0000   1.0000   1.0000   1.0000   1.0000   1.0000   1.0000
     1.0000   1.0000   1.0000   1.0000   1.0000   1.0000   1.0000   1.0000
     1.0000   1.0000   1.0000   1.0000   1.0000   1.0000   1.0000   1.0000
     1.0000   1.0000   1.0000   1.0000   1.0000   1.0000   1.0000   1.0000
     1.0000   1.0000   1.0000   1.0000   1.0000   1.0000   1.0000   1.0000
     1.0000   1.0000   1.0000   1.0000   1.0000   1.0000   1.0000   1.0000
     1.0000   1.0000   1.0000   1.0000   1.0000   1.0000   1.0000   1.0000
     1.0000   1.0000   1.0000   1.0000   1.0000   1.0000   1.0000   1.0000
     1.0000   1.0000   1.0000   1.0000   1.0000   1.0000   1.0000   1.0000
     1.0000   1.0000   1.0000   1.0000   1.0000   1.0000   1.0000   1.0000
     1.0000   1.0000   1.0000   1.0000   1.0000   1.0000   1.0000   1.0000
     1.0000   1.0000   1.0000   1.0000   1.0000   1.0000   1.0000   1.0000
     1.0000   1.0000   1.0000   1.0009   1.0120   1.0146   1.0185   1.0388
     1.0600   1.0548   0.1815   0.0012   0.0006   0.0002   0.0001   0.0000
     0.0000   0.0000   0.0000   0.0000   0.0000   0.0000   0.0000   0.0000
     0.0000   0.0000   0.0000   0.0000   0.0000   0.0000   0.0000   0.0000
     0.0000   0.0000   0.0000   0.0000   0.0000   0.0000   0.0000   0.0000
     0.0000   0.0000   0.0000   0.0000   0.0000   0.0000   0.0000   0.0000
     0.0000   0.0000   0.0000   0.0000   0.0000   0.0000   0.0000   0.0000
     0.0000   0.0000   0.0000   0.0000   0.0000   0.0000   0.0000   0.0000
     0.0000   0.0000   0.0000   0.0000   0.0000   0.0000   0.0000   0.0000
     0.0000   0.0000   0.0000   0.0000   0.0000   0.0000   0.0000   0.0000
     0.0000   0.0000   0.0000   0.0000   0.0000   0.0000   0.0000   0.0000
     0.0000   0.0000   0.0000   0.0000   0.0000   0.0000   0.0000   0.0000
     0.0000   0.0000   0.0000   0.0000   0.0000   0.0000   0.0000   0.0000
     0.0000   0.0000   0.0000   0.0000   0.0000   0.0000

          k = 0.0000 0.3628 0.1846 ( 71963 PWs)   bands (ev):

  -125.2310-125.2169-125.2159-125.2137-125.2115-125.2113-125.2080-125.2026
  -125.1608-125.1560-125.1496-125.1481-125.1465-125.1449-125.1439-125.1427
  -125.1138-125.1084-125.1017-125.1003-125.0746-125.0702-125.0649-125.0606
  -125.0374-125.0353-125.0311-125.0288-125.0220-125.0210-125.0193-125.0184
  -125.0111-125.0082-125.0073-125.0055-124.9698-124.9679-124.9628-124.9618
  -124.9523-124.9442-124.9432-124.9402-124.9389-124.9325-124.9310-124.9100
   -79.3924 -79.3794 -79.3780 -79.3752 -79.3750 -79.3744 -79.3711 -79.3708
   -79.3690 -79.3677 -79.3645 -79.3639 -79.3636 -79.3628 -79.3615 -79.3597
   -79.3587 -79.3587 -79.3565 -79.3555 -79.3513 -79.3472 -79.3455 -79.3428
   -79.3179 -79.3159 -79.3125 -79.3099 -79.3082 -79.3071 -79.3057 -79.3040
   -79.2993 -79.2981 -79.2968 -79.2963 -79.2956 -79.2943 -79.2933 -79.2928
   -79.2919 -79.2913 -79.2902 -79.2893 -79.2869 -79.2863 -79.2845 -79.2811
   -79.2733 -79.2671 -79.2647 -79.2622 -79.2611 -79.2574 -79.2558 -79.2542
   -79.2536 -79.2511 -79.2476 -79.2463 -79.2302 -79.2268 -79.2259 -79.2249
   -79.2207 -79.2205 -79.2188 -79.2161 -79.2151 -79.2114 -79.2090 -79.2089
   -79.2071 -79.2040 -79.2016 -79.2006 -79.1855 -79.1850 -79.1837 -79.1835
   -79.1822 -79.1817 -79.1813 -79.1792 -79.1790 -79.1788 -79.1778 -79.1770
   -79.1769 -79.1760 -79.1739 -79.1734 -79.1729 -79.1721 -79.1714 -79.1705
   -79.1635 -79.1622 -79.1601 -79.1591 -79.1583 -79.1562 -79.1559 -79.1555
   -79.1552 -79.1536 -79.1464 -79.1412 -79.1377 -79.1360 -79.1309 -79.1299
   -79.1202 -79.1198 -79.1181 -79.1180 -79.1140 -79.1138 -79.1132 -79.1129
   -79.1122 -79.1102 -79.1090 -79.1043 -79.1039 -79.1027 -79.0998 -79.0984
   -79.0982 -79.0970 -79.0963 -79.0905 -79.0894 -79.0868 -79.0864 -79.0851
   -79.0817 -79.0813 -79.0810 -79.0785 -79.0769 -79.0710 -79.0599 -79.0498
   -17.4568 -15.2361 -12.8095 -12.4160  -9.5210  -9.2071  -7.9512  -7.4903
    -7.4204  -7.2406  -7.0374  -7.0158  -6.9783  -6.9163  -6.8737  -6.8576
    -6.8255  -6.8110  -6.7834  -6.7408  -6.7382  -6.7300  -6.7147  -6.7082
    -6.7038  -6.6968  -6.6618  -6.6590  -6.6411  -6.6400  -6.6353  -6.6287
    -6.6156  -6.6073  -6.6005  -6.5884  -6.5750  -6.5716  -6.5639  -6.5624
    -6.5564  -6.5481  -6.5451  -6.5263  -6.5235  -6.5019  -6.4995  -6.4973
    -6.4920  -6.4817  -6.4763  -6.4735  -6.4697  -6.4571  -6.4495  -6.4343
    -6.4257  -6.4208  -6.4193  -6.4166  -6.3978  -6.3953  -6.3853  -6.3828
    -6.3777  -6.3652  -6.3590  -6.3473  -6.3376  -6.3353  -6.3301  -6.3267
    -6.3137  -6.3046  -6.2929  -6.2868  -6.2848  -6.2788  -6.2755  -6.2732
    -6.2650  -6.2630  -6.2517  -6.2472  -6.2368  -6.2352  -6.2308  -6.2231
    -6.2049  -6.2040  -6.1999  -6.1955  -6.1864  -6.1848  -6.1811  -6.1779
    -6.1751  -6.1695  -6.1582  -6.1478  -6.1454  -6.1436  -6.1342  -6.1293
    -6.1243  -6.1136  -6.1095  -6.1025  -6.0969  -6.0960  -6.0875  -6.0858
    -6.0815  -6.0687  -6.0648  -6.0620  -6.0536  -6.0513  -6.0483  -6.0366
    -6.0317  -6.0184  -6.0147  -6.0035  -5.9992  -5.9957  -5.9947  -5.9835
    -5.9813  -5.9745  -5.9699  -5.9658  -5.9645  -5.9505  -5.9465  -5.9434
    -5.9384  -5.9301  -5.9275  -5.9209  -5.9194  -5.9124  -5.9085  -5.9063
    -5.8949  -5.8932  -5.8899  -5.8816  -5.8806  -5.8774  -5.8756  -5.8572
    -5.8481  -5.8420  -5.8392  -5.8345  -5.8275  -5.8226  -5.8205  -5.8100
    -5.8051  -5.7978  -5.7937  -5.7874  -5.7833  -5.7823  -5.7787  -5.7747
    -5.7740  -5.7601  -5.7548  -5.7512  -5.7507  -5.7449  -5.7423  -5.7376
    -5.7351  -5.7325  -5.7287  -5.7274  -5.7261  -5.7208  -5.7175  -5.7129
    -5.7098  -5.7051  -5.7033  -5.6955  -5.6915  -5.6864  -5.6851  -5.6839
    -5.6825  -5.6765  -5.6758  -5.6727  -5.6717  -5.6651  -5.6632  -5.6569
    -5.6494  -5.6471  -5.6432  -5.6421  -5.6394  -5.6369  -5.6334  -5.6296
    -5.6254  -5.6207  -5.6193  -5.6138  -5.6100  -5.6040  -5.6012  -5.6000
    -5.5962  -5.5954  -5.5927  -5.5859  -5.5846  -5.5830  -5.5781  -5.5777
    -5.5752  -5.5737  -5.5723  -5.5695  -5.5680  -5.5616  -5.5512  -5.5474
    -5.5431  -5.5417  -5.5340  -5.5325  -5.5286  -5.5266  -5.5244  -5.5171
    -5.5103  -5.4957  -5.4912  -5.4763  -5.4721  -5.4589  -5.4548  -5.4439
    -5.4341  -5.4127  -5.4026  -5.3878  -5.3268  -5.3185  -5.2752  -5.0468
    -4.9544  -4.9012  -4.8153  -4.7636  -4.5768  -4.5271  -4.3705  -4.2692
    -4.0568  -3.9237  -3.4573  -3.4069  -3.3800  -3.0526  -3.0082  -2.8743
    -2.7996  -2.5938  -2.5552  -2.4115  -2.3918  -2.2371  -2.1112  -1.9551
    -1.9429  -1.6259  -1.5427  -1.4941  -1.3298  -1.2185  -1.1168  -0.9944
    -0.7835  -0.6744  -0.6384  -0.5193  -0.3318  -0.2287  -0.1755   0.0014
     0.1543   0.2508   0.3897   0.4408   0.4854   0.6389   0.7660   0.7916
     0.8512   1.0759   1.2831   1.4450   1.7680   1.8161   1.8414   2.1079
     2.1769   2.3232   2.3879   2.4488   2.4553   2.6890   2.9416   3.0282
     3.1140   3.1942   3.2634   3.4420   3.5664   3.7942   3.8507   3.8891
     3.8981   4.0103   4.0314   4.1282   4.1760   4.2166   4.3487   4.3753
     4.4882   4.4988   4.5627   4.6665   4.7048   4.7730   4.8243   4.8865
     4.9280   4.9475   4.9643   5.1446   5.2938   5.3301   5.3557   5.3767
     5.4264   5.4610   5.5380   5.6828   5.7273   5.7619   5.8277   5.8697
     5.9126   6.0415   6.0703   6.1123   6.1846   6.2271   6.2523   6.2983
     6.3416   6.3791   6.4639   6.5029   6.5169   6.6844   6.7057   6.7359
     6.8242   6.8494   6.8754   6.9301   6.9442   7.0064   7.0958   7.1253
     7.1743   7.2127   7.2937   7.3066   7.3866   7.4239   7.4678   7.4843
     7.5288   7.5417   7.6156   7.7037   7.7641   7.7977   7.8333   7.8889
     7.9833   8.0124   8.0389   8.1106   8.1658   8.1997

     occupation numbers 
     1.0000   1.0000   1.0000   1.0000   1.0000   1.0000   1.0000   1.0000
     1.0000   1.0000   1.0000   1.0000   1.0000   1.0000   1.0000   1.0000
     1.0000   1.0000   1.0000   1.0000   1.0000   1.0000   1.0000   1.0000
     1.0000   1.0000   1.0000   1.0000   1.0000   1.0000   1.0000   1.0000
     1.0000   1.0000   1.0000   1.0000   1.0000   1.0000   1.0000   1.0000
     1.0000   1.0000   1.0000   1.0000   1.0000   1.0000   1.0000   1.0000
     1.0000   1.0000   1.0000   1.0000   1.0000   1.0000   1.0000   1.0000
     1.0000   1.0000   1.0000   1.0000   1.0000   1.0000   1.0000   1.0000
     1.0000   1.0000   1.0000   1.0000   1.0000   1.0000   1.0000   1.0000
     1.0000   1.0000   1.0000   1.0000   1.0000   1.0000   1.0000   1.0000
     1.0000   1.0000   1.0000   1.0000   1.0000   1.0000   1.0000   1.0000
     1.0000   1.0000   1.0000   1.0000   1.0000   1.0000   1.0000   1.0000
     1.0000   1.0000   1.0000   1.0000   1.0000   1.0000   1.0000   1.0000
     1.0000   1.0000   1.0000   1.0000   1.0000   1.0000   1.0000   1.0000
     1.0000   1.0000   1.0000   1.0000   1.0000   1.0000   1.0000   1.0000
     1.0000   1.0000   1.0000   1.0000   1.0000   1.0000   1.0000   1.0000
     1.0000   1.0000   1.0000   1.0000   1.0000   1.0000   1.0000   1.0000
     1.0000   1.0000   1.0000   1.0000   1.0000   1.0000   1.0000   1.0000
     1.0000   1.0000   1.0000   1.0000   1.0000   1.0000   1.0000   1.0000
     1.0000   1.0000   1.0000   1.0000   1.0000   1.0000   1.0000   1.0000
     1.0000   1.0000   1.0000   1.0000   1.0000   1.0000   1.0000   1.0000
     1.0000   1.0000   1.0000   1.0000   1.0000   1.0000   1.0000   1.0000
     1.0000   1.0000   1.0000   1.0000   1.0000   1.0000   1.0000   1.0000
     1.0000   1.0000   1.0000   1.0000   1.0000   1.0000   1.0000   1.0000
     1.0000   1.0000   1.0000   1.0000   1.0000   1.0000   1.0000   1.0000
     1.0000   1.0000   1.0000   1.0000   1.0000   1.0000   1.0000   1.0000
     1.0000   1.0000   1.0000   1.0000   1.0000   1.0000   1.0000   1.0000
     1.0000   1.0000   1.0000   1.0000   1.0000   1.0000   1.0000   1.0000
     1.0000   1.0000   1.0000   1.0000   1.0000   1.0000   1.0000   1.0000
     1.0000   1.0000   1.0000   1.0000   1.0000   1.0000   1.0000   1.0000
     1.0000   1.0000   1.0000   1.0000   1.0000   1.0000   1.0000   1.0000
     1.0000   1.0000   1.0000   1.0000   1.0000   1.0000   1.0000   1.0000
     1.0000   1.0000   1.0000   1.0000   1.0000   1.0000   1.0000   1.0000
     1.0000   1.0000   1.0000   1.0000   1.0000   1.0000   1.0000   1.0000
     1.0000   1.0000   1.0000   1.0000   1.0000   1.0000   1.0000   1.0000
     1.0000   1.0000   1.0000   1.0000   1.0000   1.0000   1.0000   1.0000
     1.0000   1.0000   1.0000   1.0000   1.0000   1.0000   1.0000   1.0000
     1.0000   1.0000   1.0000   1.0000   1.0000   1.0000   1.0000   1.0000
     1.0000   1.0000   1.0000   1.0000   1.0000   1.0000   1.0000   1.0000
     1.0000   1.0000   1.0000   1.0000   1.0000   1.0000   1.0000   1.0000
     1.0000   1.0000   1.0000   1.0000   1.0000   1.0000   1.0000   1.0000
     1.0000   1.0000   1.0000   1.0000   1.0000   1.0000   1.0000   1.0000
     1.0000   1.0000   1.0000   1.0000   1.0000   1.0000   1.0000   1.0000
     1.0000   1.0000   1.0000   1.0000   1.0000   1.0000   1.0000   1.0000
     1.0000   1.0000   1.0000   1.0000   1.0000   1.0000   1.0000   1.0000
     1.0000   1.0000   1.0000   1.0000   1.0000   1.0000   1.0000   1.0000
     1.0000   1.0000   1.0000   1.0000   1.0000   1.0000   1.0000   1.0000
     1.0000   1.0000   1.0000   1.0000   1.0000   1.0000   1.0000   1.0000
     1.0000   1.0000   1.0000   1.0000   1.0000   1.0000   1.0000   1.0000
     1.0000   1.0000   1.0000   1.0000   1.0000   1.0000   1.0000   1.0000
     1.0000   1.0000   1.0000   1.0000   1.0000   1.0000   1.0000   1.0000
     1.0000   1.0000   1.0000   1.0000   1.0000   1.0000   1.0000   1.0000
     1.0000   1.0000   1.0000   1.0000   1.0000   1.0000   1.0000   1.0000
     1.0000   1.0000   1.0000   1.0000   1.0000   1.0000   1.0000   1.0000
     1.0000   1.0000   1.0000   1.0000   1.0000   1.0000   1.0000   1.0000
     1.0000   1.0000   1.0000   1.0000   1.0000   1.0000   1.0000   1.0000
     1.0000   1.0000   1.0000   1.0000   1.0000   1.0000   1.0000   1.0000
     1.0000   1.0000   1.0000   1.0000   1.0000   1.0000   1.0000   1.0000
     1.0000   1.0000   1.0000   1.0000   1.0000   1.0000   1.0000   1.0000
     1.0000   1.0000   1.0000   1.0000   1.0000   1.0000   1.0000   1.0000
     1.0000   1.0000   1.0000   1.0000   1.0000   1.0000   1.0000   1.0000
     1.0000   1.0001   1.0012   1.0027   1.0052   1.0304   1.0715   1.0782
     1.0823   0.7856   0.2558   0.0525   0.0003   0.0001   0.0001   0.0000
     0.0000   0.0000   0.0000   0.0000   0.0000   0.0000   0.0000   0.0000
     0.0000   0.0000   0.0000   0.0000   0.0000   0.0000   0.0000   0.0000
     0.0000   0.0000   0.0000   0.0000   0.0000   0.0000   0.0000   0.0000
     0.0000   0.0000   0.0000   0.0000   0.0000   0.0000   0.0000   0.0000
     0.0000   0.0000   0.0000   0.0000   0.0000   0.0000   0.0000   0.0000
     0.0000   0.0000   0.0000   0.0000   0.0000   0.0000   0.0000   0.0000
     0.0000   0.0000   0.0000   0.0000   0.0000   0.0000   0.0000   0.0000
     0.0000   0.0000   0.0000   0.0000   0.0000   0.0000   0.0000   0.0000
     0.0000   0.0000   0.0000   0.0000   0.0000   0.0000   0.0000   0.0000
     0.0000   0.0000   0.0000   0.0000   0.0000   0.0000   0.0000   0.0000
     0.0000   0.0000   0.0000   0.0000   0.0000   0.0000   0.0000   0.0000
     0.0000   0.0000   0.0000   0.0000   0.0000   0.0000

          k = 0.3333 0.0811 0.7384 ( 72005 PWs)   bands (ev):

  -125.2310-125.2169-125.2159-125.2137-125.2115-125.2113-125.2080-125.2026
  -125.1608-125.1560-125.1496-125.1481-125.1465-125.1449-125.1439-125.1427
  -125.1138-125.1084-125.1017-125.1003-125.0746-125.0702-125.0649-125.0606
  -125.0374-125.0353-125.0311-125.0288-125.0220-125.0209-125.0193-125.0184
  -125.0111-125.0082-125.0073-125.0055-124.9698-124.9679-124.9628-124.9618
  -124.9523-124.9442-124.9432-124.9402-124.9389-124.9325-124.9310-124.9100
   -79.3924 -79.3797 -79.3780 -79.3753 -79.3750 -79.3744 -79.3711 -79.3708
   -79.3703 -79.3677 -79.3639 -79.3636 -79.3619 -79.3614 -79.3597 -79.3594
   -79.3587 -79.3585 -79.3574 -79.3568 -79.3555 -79.3472 -79.3441 -79.3424
   -79.3187 -79.3159 -79.3127 -79.3084 -79.3080 -79.3065 -79.3048 -79.3039
   -79.3029 -79.2978 -79.2965 -79.2961 -79.2942 -79.2941 -79.2933 -79.2925
   -79.2919 -79.2912 -79.2905 -79.2895 -79.2887 -79.2865 -79.2850 -79.2797
   -79.2741 -79.2671 -79.2623 -79.2612 -79.2610 -79.2579 -79.2570 -79.2557
   -79.2541 -79.2511 -79.2476 -79.2452 -79.2302 -79.2276 -79.2259 -79.2250
   -79.2207 -79.2205 -79.2162 -79.2152 -79.2148 -79.2129 -79.2114 -79.2089
   -79.2071 -79.2040 -79.2015 -79.1998 -79.1855 -79.1850 -79.1837 -79.1835
   -79.1823 -79.1817 -79.1813 -79.1804 -79.1790 -79.1788 -79.1785 -79.1778
   -79.1769 -79.1759 -79.1739 -79.1728 -79.1715 -79.1705 -79.1692 -79.1664
   -79.1663 -79.1658 -79.1650 -79.1591 -79.1562 -79.1555 -79.1548 -79.1536
   -79.1536 -79.1526 -79.1521 -79.1398 -79.1377 -79.1360 -79.1309 -79.1299
   -79.1214 -79.1198 -79.1181 -79.1180 -79.1140 -79.1132 -79.1129 -79.1122
   -79.1102 -79.1090 -79.1090 -79.1074 -79.1053 -79.1043 -79.0998 -79.0982
   -79.0972 -79.0951 -79.0930 -79.0922 -79.0905 -79.0894 -79.0865 -79.0851
   -79.0817 -79.0810 -79.0799 -79.0785 -79.0750 -79.0728 -79.0599 -79.0497
   -17.4568 -15.2361 -12.8095 -12.4160  -9.5210  -9.2071  -7.9980  -7.6389
    -7.4264  -7.0509  -7.0332  -6.9946  -6.9372  -6.9204  -6.8866  -6.8691
    -6.8589  -6.8521  -6.7912  -6.7827  -6.7721  -6.7670  -6.7619  -6.7251
    -6.7209  -6.6854  -6.6684  -6.6579  -6.6490  -6.6375  -6.6344  -6.6148
    -6.6066  -6.5721  -6.5691  -6.5621  -6.5508  -6.5332  -6.5280  -6.5203
    -6.5120  -6.5061  -6.5004  -6.4979  -6.4905  -6.4892  -6.4874  -6.4797
    -6.4736  -6.4723  -6.4669  -6.4582  -6.4516  -6.4397  -6.4368  -6.4315
    -6.4280  -6.4222  -6.4127  -6.4027  -6.3950  -6.3931  -6.3882  -6.3808
    -6.3770  -6.3734  -6.3627  -6.3592  -6.3537  -6.3485  -6.3382  -6.3284
    -6.3247  -6.3051  -6.3022  -6.2927  -6.2843  -6.2762  -6.2755  -6.2717
    -6.2679  -6.2595  -6.2535  -6.2448  -6.2356  -6.2335  -6.2146  -6.2039
    -6.2019  -6.1966  -6.1907  -6.1802  -6.1749  -6.1680  -6.1616  -6.1571
    -6.1546  -6.1534  -6.1466  -6.1421  -6.1375  -6.1349  -6.1254  -6.1150
    -6.1095  -6.1059  -6.1048  -6.0772  -6.0758  -6.0653  -6.0639  -6.0595
    -6.0583  -6.0499  -6.0481  -6.0463  -6.0305  -6.0251  -6.0200  -6.0158
    -6.0115  -6.0072  -5.9985  -5.9870  -5.9808  -5.9800  -5.9792  -5.9757
    -5.9746  -5.9734  -5.9594  -5.9570  -5.9537  -5.9501  -5.9409  -5.9363
    -5.9354  -5.9259  -5.9200  -5.9190  -5.9150  -5.9042  -5.9021  -5.9012
    -5.8991  -5.8957  -5.8901  -5.8891  -5.8792  -5.8749  -5.8723  -5.8690
    -5.8660  -5.8624  -5.8533  -5.8506  -5.8499  -5.8469  -5.8437  -5.8332
    -5.8277  -5.8239  -5.8234  -5.8197  -5.8156  -5.8129  -5.8054  -5.7997
    -5.7949  -5.7913  -5.7878  -5.7868  -5.7796  -5.7726  -5.7689  -5.7676
    -5.7647  -5.7623  -5.7564  -5.7504  -5.7469  -5.7451  -5.7446  -5.7415
    -5.7362  -5.7351  -5.7329  -5.7322  -5.7099  -5.7068  -5.7056  -5.7011
    -5.6996  -5.6987  -5.6856  -5.6816  -5.6788  -5.6753  -5.6741  -5.6712
    -5.6702  -5.6681  -5.6598  -5.6568  -5.6524  -5.6472  -5.6425  -5.6401
    -5.6395  -5.6379  -5.6308  -5.6280  -5.6212  -5.6179  -5.6167  -5.6139
    -5.6036  -5.5995  -5.5954  -5.5915  -5.5889  -5.5874  -5.5850  -5.5826
    -5.5750  -5.5705  -5.5598  -5.5573  -5.5525  -5.5483  -5.5420  -5.5408
    -5.5382  -5.5343  -5.5279  -5.5211  -5.5114  -5.5052  -5.5003  -5.4991
    -5.4893  -5.4789  -5.4682  -5.4657  -5.4542  -5.4476  -5.4352  -5.4253
    -5.4220  -5.3790  -5.3721  -5.3691  -5.3219  -5.3206  -5.2814  -5.0171
    -4.9643  -4.9165  -4.9006  -4.8849  -4.5272  -4.5008  -4.3710  -4.3138
    -3.9515  -3.9276  -3.7421  -3.5630  -3.4315  -3.3513  -3.0190  -2.9319
    -2.8402  -2.5952  -2.5824  -2.5707  -2.1203  -2.0478  -1.7510  -1.7141
    -1.7039  -1.6480  -1.6370  -1.3690  -1.1223  -0.9974  -0.9467  -0.7641
    -0.6742  -0.5965  -0.4652  -0.3916  -0.3123  -0.2495  -0.2039  -0.1169
    -0.0414   0.0481   0.1336   0.3694   0.5304   0.5387   0.7036   0.9304
     1.0361   1.2774   1.3668   1.3996   1.4628   1.6279   1.7375   1.8547
     1.8672   2.0098   2.3491   2.5021   2.5595   2.6515   2.7360   2.7468
     2.8698   2.9829   3.1859   3.3432   3.3842   3.3930   3.4050   3.6401
     3.6566   3.7519   3.9632   4.2509   4.2738   4.3409   4.3685   4.4522
     4.6413   4.6565   4.6708   4.7056   4.7400   4.7793   4.8577   4.9446
     5.0685   5.0983   5.1422   5.2304   5.3193   5.3614   5.4250   5.4947
     5.5981   5.6162   5.6452   5.7767   5.8882   5.9054   6.0203   6.0696
     6.0913   6.1135   6.1298   6.2806   6.3648   6.4701   6.4976   6.5269
     6.5712   6.5923   6.6426   6.6658   6.7396   6.7960   6.8458   6.8981
     6.9333   6.9704   6.9978   7.0490   7.0813   7.1237   7.1672   7.1886
     7.2149   7.2611   7.3394   7.3500   7.3651   7.3753   7.4177   7.4504
     7.5130   7.5420   7.5617   7.6061   7.6596   7.6915   7.7802   7.8258
     7.9062   7.9444   7.9620   8.0687   8.1147   8.1307

     occupation numbers 
     1.0000   1.0000   1.0000   1.0000   1.0000   1.0000   1.0000   1.0000
     1.0000   1.0000   1.0000   1.0000   1.0000   1.0000   1.0000   1.0000
     1.0000   1.0000   1.0000   1.0000   1.0000   1.0000   1.0000   1.0000
     1.0000   1.0000   1.0000   1.0000   1.0000   1.0000   1.0000   1.0000
     1.0000   1.0000   1.0000   1.0000   1.0000   1.0000   1.0000   1.0000
     1.0000   1.0000   1.0000   1.0000   1.0000   1.0000   1.0000   1.0000
     1.0000   1.0000   1.0000   1.0000   1.0000   1.0000   1.0000   1.0000
     1.0000   1.0000   1.0000   1.0000   1.0000   1.0000   1.0000   1.0000
     1.0000   1.0000   1.0000   1.0000   1.0000   1.0000   1.0000   1.0000
     1.0000   1.0000   1.0000   1.0000   1.0000   1.0000   1.0000   1.0000
     1.0000   1.0000   1.0000   1.0000   1.0000   1.0000   1.0000   1.0000
     1.0000   1.0000   1.0000   1.0000   1.0000   1.0000   1.0000   1.0000
     1.0000   1.0000   1.0000   1.0000   1.0000   1.0000   1.0000   1.0000
     1.0000   1.0000   1.0000   1.0000   1.0000   1.0000   1.0000   1.0000
     1.0000   1.0000   1.0000   1.0000   1.0000   1.0000   1.0000   1.0000
     1.0000   1.0000   1.0000   1.0000   1.0000   1.0000   1.0000   1.0000
     1.0000   1.0000   1.0000   1.0000   1.0000   1.0000   1.0000   1.0000
     1.0000   1.0000   1.0000   1.0000   1.0000   1.0000   1.0000   1.0000
     1.0000   1.0000   1.0000   1.0000   1.0000   1.0000   1.0000   1.0000
     1.0000   1.0000   1.0000   1.0000   1.0000   1.0000   1.0000   1.0000
     1.0000   1.0000   1.0000   1.0000   1.0000   1.0000   1.0000   1.0000
     1.0000   1.0000   1.0000   1.0000   1.0000   1.0000   1.0000   1.0000
     1.0000   1.0000   1.0000   1.0000   1.0000   1.0000   1.0000   1.0000
     1.0000   1.0000   1.0000   1.0000   1.0000   1.0000   1.0000   1.0000
     1.0000   1.0000   1.0000   1.0000   1.0000   1.0000   1.0000   1.0000
     1.0000   1.0000   1.0000   1.0000   1.0000   1.0000   1.0000   1.0000
     1.0000   1.0000   1.0000   1.0000   1.0000   1.0000   1.0000   1.0000
     1.0000   1.0000   1.0000   1.0000   1.0000   1.0000   1.0000   1.0000
     1.0000   1.0000   1.0000   1.0000   1.0000   1.0000   1.0000   1.0000
     1.0000   1.0000   1.0000   1.0000   1.0000   1.0000   1.0000   1.0000
     1.0000   1.0000   1.0000   1.0000   1.0000   1.0000   1.0000   1.0000
     1.0000   1.0000   1.0000   1.0000   1.0000   1.0000   1.0000   1.0000
     1.0000   1.0000   1.0000   1.0000   1.0000   1.0000   1.0000   1.0000
     1.0000   1.0000   1.0000   1.0000   1.0000   1.0000   1.0000   1.0000
     1.0000   1.0000   1.0000   1.0000   1.0000   1.0000   1.0000   1.0000
     1.0000   1.0000   1.0000   1.0000   1.0000   1.0000   1.0000   1.0000
     1.0000   1.0000   1.0000   1.0000   1.0000   1.0000   1.0000   1.0000
     1.0000   1.0000   1.0000   1.0000   1.0000   1.0000   1.0000   1.0000
     1.0000   1.0000   1.0000   1.0000   1.0000   1.0000   1.0000   1.0000
     1.0000   1.0000   1.0000   1.0000   1.0000   1.0000   1.0000   1.0000
     1.0000   1.0000   1.0000   1.0000   1.0000   1.0000   1.0000   1.0000
     1.0000   1.0000   1.0000   1.0000   1.0000   1.0000   1.0000   1.0000
     1.0000   1.0000   1.0000   1.0000   1.0000   1.0000   1.0000   1.0000
     1.0000   1.0000   1.0000   1.0000   1.0000   1.0000   1.0000   1.0000
     1.0000   1.0000   1.0000   1.0000   1.0000   1.0000   1.0000   1.0000
     1.0000   1.0000   1.0000   1.0000   1.0000   1.0000   1.0000   1.0000
     1.0000   1.0000   1.0000   1.0000   1.0000   1.0000   1.0000   1.0000
     1.0000   1.0000   1.0000   1.0000   1.0000   1.0000   1.0000   1.0000
     1.0000   1.0000   1.0000   1.0000   1.0000   1.0000   1.0000   1.0000
     1.0000   1.0000   1.0000   1.0000   1.0000   1.0000   1.0000   1.0000
     1.0000   1.0000   1.0000   1.0000   1.0000   1.0000   1.0000   1.0000
     1.0000   1.0000   1.0000   1.0000   1.0000   1.0000   1.0000   1.0000
     1.0000   1.0000   1.0000   1.0000   1.0000   1.0000   1.0000   1.0000
     1.0000   1.0000   1.0000   1.0000   1.0000   1.0000   1.0000   1.0000
     1.0000   1.0000   1.0000   1.0000   1.0000   1.0000   1.0000   1.0000
     1.0000   1.0000   1.0000   1.0000   1.0000   1.0000   1.0000   1.0000
     1.0000   1.0000   1.0000   1.0000   1.0000   1.0000   1.0000   1.0000
     1.0000   1.0000   1.0000   1.0000   1.0000   1.0000   1.0000   1.0000
     1.0000   1.0000   1.0000   1.0000   1.0000   1.0000   1.0000   1.0000
     1.0000   1.0000   1.0000   1.0000   1.0000   1.0000   1.0000   1.0000
     1.0000   1.0000   1.0000   1.0000   1.0000   1.0000   1.0000   1.0000
     1.0000   1.0000   1.0000   1.0008   1.0094   1.0104   1.0508   1.0438
     0.8793   0.2674   0.1225   0.0874   0.0424   0.0039   0.0005   0.0000
     0.0000   0.0000   0.0000   0.0000   0.0000   0.0000   0.0000   0.0000
     0.0000   0.0000   0.0000   0.0000   0.0000   0.0000   0.0000   0.0000
     0.0000   0.0000   0.0000   0.0000   0.0000   0.0000   0.0000   0.0000
     0.0000   0.0000   0.0000   0.0000   0.0000   0.0000   0.0000   0.0000
     0.0000   0.0000   0.0000   0.0000   0.0000   0.0000   0.0000   0.0000
     0.0000   0.0000   0.0000   0.0000   0.0000   0.0000   0.0000   0.0000
     0.0000   0.0000   0.0000   0.0000   0.0000   0.0000   0.0000   0.0000
     0.0000   0.0000   0.0000   0.0000   0.0000   0.0000   0.0000   0.0000
     0.0000   0.0000   0.0000   0.0000   0.0000   0.0000   0.0000   0.0000
     0.0000   0.0000   0.0000   0.0000   0.0000   0.0000   0.0000   0.0000
     0.0000   0.0000   0.0000   0.0000   0.0000   0.0000   0.0000   0.0000
     0.0000   0.0000   0.0000   0.0000   0.0000   0.0000

          k = 0.3333 0.4439 0.9230 ( 71974 PWs)   bands (ev):

  -125.2310-125.2169-125.2159-125.2137-125.2115-125.2113-125.2080-125.2026
  -125.1608-125.1560-125.1496-125.1481-125.1465-125.1449-125.1439-125.1427
  -125.1138-125.1084-125.1017-125.1003-125.0746-125.0702-125.0649-125.0606
  -125.0374-125.0353-125.0311-125.0288-125.0220-125.0210-125.0193-125.0184
  -125.0111-125.0082-125.0073-125.0055-124.9698-124.9679-124.9628-124.9618
  -124.9523-124.9442-124.9432-124.9402-124.9389-124.9325-124.9310-124.9100
   -79.3924 -79.3794 -79.3780 -79.3752 -79.3750 -79.3744 -79.3711 -79.3708
   -79.3690 -79.3677 -79.3645 -79.3639 -79.3636 -79.3628 -79.3615 -79.3597
   -79.3587 -79.3587 -79.3565 -79.3555 -79.3513 -79.3472 -79.3455 -79.3428
   -79.3179 -79.3159 -79.3125 -79.3099 -79.3082 -79.3071 -79.3057 -79.3040
   -79.2993 -79.2981 -79.2968 -79.2963 -79.2956 -79.2943 -79.2933 -79.2928
   -79.2919 -79.2913 -79.2902 -79.2893 -79.2869 -79.2863 -79.2845 -79.2811
   -79.2733 -79.2671 -79.2647 -79.2622 -79.2611 -79.2574 -79.2558 -79.2542
   -79.2536 -79.2511 -79.2476 -79.2463 -79.2302 -79.2268 -79.2259 -79.2249
   -79.2207 -79.2205 -79.2188 -79.2161 -79.2151 -79.2114 -79.2090 -79.2089
   -79.2071 -79.2040 -79.2015 -79.2006 -79.1855 -79.1850 -79.1837 -79.1835
   -79.1822 -79.1817 -79.1813 -79.1792 -79.1790 -79.1788 -79.1778 -79.1770
   -79.1769 -79.1760 -79.1739 -79.1734 -79.1729 -79.1721 -79.1714 -79.1705
   -79.1635 -79.1622 -79.1601 -79.1591 -79.1583 -79.1562 -79.1559 -79.1555
   -79.1552 -79.1536 -79.1464 -79.1412 -79.1377 -79.1360 -79.1309 -79.1299
   -79.1202 -79.1198 -79.1181 -79.1180 -79.1140 -79.1138 -79.1132 -79.1129
   -79.1122 -79.1102 -79.1090 -79.1043 -79.1039 -79.1027 -79.0998 -79.0984
   -79.0982 -79.0970 -79.0963 -79.0905 -79.0894 -79.0868 -79.0864 -79.0851
   -79.0817 -79.0813 -79.0810 -79.0785 -79.0769 -79.0710 -79.0599 -79.0498
   -17.4568 -15.2361 -12.8095 -12.4160  -9.5210  -9.2071  -7.7871  -7.5808
    -7.4878  -7.4186  -7.0359  -6.9790  -6.9286  -6.9067  -6.8570  -6.8553
    -6.8242  -6.8112  -6.7696  -6.7394  -6.7377  -6.7295  -6.7189  -6.7036
    -6.6995  -6.6920  -6.6620  -6.6600  -6.6587  -6.6471  -6.6375  -6.6346
    -6.6334  -6.6163  -6.6090  -6.6007  -6.5734  -6.5658  -6.5631  -6.5529
    -6.5482  -6.5461  -6.5443  -6.5264  -6.5228  -6.5030  -6.4978  -6.4955
    -6.4928  -6.4908  -6.4706  -6.4696  -6.4685  -6.4509  -6.4477  -6.4352
    -6.4288  -6.4207  -6.4181  -6.4162  -6.3974  -6.3915  -6.3859  -6.3834
    -6.3797  -6.3657  -6.3638  -6.3557  -6.3463  -6.3376  -6.3280  -6.3210
    -6.3200  -6.3044  -6.3016  -6.2840  -6.2807  -6.2762  -6.2731  -6.2689
    -6.2652  -6.2626  -6.2565  -6.2504  -6.2477  -6.2342  -6.2329  -6.2308
    -6.2064  -6.1967  -6.1896  -6.1875  -6.1840  -6.1823  -6.1803  -6.1725
    -6.1646  -6.1597  -6.1462  -6.1443  -6.1426  -6.1364  -6.1336  -6.1208
    -6.1144  -6.1076  -6.1035  -6.1019  -6.0976  -6.0894  -6.0863  -6.0856
    -6.0810  -6.0722  -6.0668  -6.0622  -6.0570  -6.0529  -6.0503  -6.0481
    -6.0343  -6.0186  -6.0138  -6.0099  -5.9956  -5.9945  -5.9844  -5.9824
    -5.9809  -5.9730  -5.9678  -5.9656  -5.9643  -5.9608  -5.9518  -5.9477
    -5.9437  -5.9403  -5.9321  -5.9266  -5.9232  -5.9195  -5.9088  -5.8991
    -5.8964  -5.8930  -5.8911  -5.8886  -5.8811  -5.8788  -5.8775  -5.8640
    -5.8589  -5.8563  -5.8421  -5.8348  -5.8285  -5.8261  -5.8237  -5.8217
    -5.8048  -5.7988  -5.7956  -5.7940  -5.7883  -5.7851  -5.7783  -5.7753
    -5.7727  -5.7670  -5.7614  -5.7536  -5.7531  -5.7517  -5.7455  -5.7425
    -5.7410  -5.7353  -5.7313  -5.7295  -5.7273  -5.7247  -5.7216  -5.7182
    -5.7136  -5.7103  -5.7093  -5.7080  -5.7042  -5.6889  -5.6855  -5.6837
    -5.6791  -5.6746  -5.6722  -5.6714  -5.6676  -5.6624  -5.6524  -5.6498
    -5.6479  -5.6463  -5.6445  -5.6434  -5.6394  -5.6384  -5.6353  -5.6283
    -5.6261  -5.6231  -5.6212  -5.6196  -5.6100  -5.6071  -5.6039  -5.6013
    -5.5989  -5.5967  -5.5958  -5.5876  -5.5848  -5.5822  -5.5771  -5.5751
    -5.5741  -5.5711  -5.5702  -5.5676  -5.5618  -5.5584  -5.5504  -5.5479
    -5.5439  -5.5353  -5.5335  -5.5318  -5.5268  -5.5206  -5.5159  -5.5140
    -5.5111  -5.4944  -5.4927  -5.4709  -5.4630  -5.4592  -5.4545  -5.4371
    -5.4332  -5.4285  -5.4022  -5.3715  -5.3300  -5.2896  -5.0468  -4.9606
    -4.9220  -4.8998  -4.8155  -4.7641  -4.5271  -4.4990  -4.3704  -4.2685
    -3.9288  -3.8375  -3.5142  -3.4576  -3.4066  -3.2401  -3.0089  -2.8735
    -2.7461  -2.5955  -2.5820  -2.5607  -2.5508  -2.4057  -2.2367  -2.1127
    -2.0948  -1.9126  -1.6256  -1.6018  -1.3294  -1.1187  -0.9957  -0.7836
    -0.6745  -0.6386  -0.5245  -0.5178  -0.1990  -0.1755  -0.0257   0.0034
     0.3394   0.3704   0.4616   0.5420   0.5562   0.7692   0.8519   0.8784
     1.1318   1.2834   1.4131   1.4665   1.8185   1.8410   1.9385   2.0207
     2.1762   2.2895   2.4074   2.4529   2.5843   2.6817   2.7281   2.9345
     2.9530   2.9762   3.0331   3.2605   3.2726   3.4723   3.5540   3.6027
     3.7989   3.8579   3.8990   3.9168   4.0214   4.1756   4.2705   4.3651
     4.3975   4.4969   4.5589   4.5750   4.6866   4.7791   4.8064   4.8442
     4.9537   5.0638   5.2906   5.2978   5.3027   5.3284   5.3778   5.4117
     5.4319   5.4783   5.6068   5.6312   5.7451   5.7849   5.8344   5.9010
     5.9638   6.0376   6.0913   6.1280   6.1851   6.2083   6.2735   6.3348
     6.3742   6.4339   6.5070   6.5115   6.5611   6.6374   6.6755   6.6934
     6.7274   6.8203   6.8924   6.9209   6.9856   7.1177   7.1589   7.1751
     7.2015   7.2743   7.3215   7.4097   7.4423   7.4864   7.5384   7.6323
     7.6671   7.6974   7.7356   7.8003   7.8281   7.8832   7.9513   7.9835
     8.0569   8.0944   8.1583   8.1878   8.2125   8.2427

     occupation numbers 
     1.0000   1.0000   1.0000   1.0000   1.0000   1.0000   1.0000   1.0000
     1.0000   1.0000   1.0000   1.0000   1.0000   1.0000   1.0000   1.0000
     1.0000   1.0000   1.0000   1.0000   1.0000   1.0000   1.0000   1.0000
     1.0000   1.0000   1.0000   1.0000   1.0000   1.0000   1.0000   1.0000
     1.0000   1.0000   1.0000   1.0000   1.0000   1.0000   1.0000   1.0000
     1.0000   1.0000   1.0000   1.0000   1.0000   1.0000   1.0000   1.0000
     1.0000   1.0000   1.0000   1.0000   1.0000   1.0000   1.0000   1.0000
     1.0000   1.0000   1.0000   1.0000   1.0000   1.0000   1.0000   1.0000
     1.0000   1.0000   1.0000   1.0000   1.0000   1.0000   1.0000   1.0000
     1.0000   1.0000   1.0000   1.0000   1.0000   1.0000   1.0000   1.0000
     1.0000   1.0000   1.0000   1.0000   1.0000   1.0000   1.0000   1.0000
     1.0000   1.0000   1.0000   1.0000   1.0000   1.0000   1.0000   1.0000
     1.0000   1.0000   1.0000   1.0000   1.0000   1.0000   1.0000   1.0000
     1.0000   1.0000   1.0000   1.0000   1.0000   1.0000   1.0000   1.0000
     1.0000   1.0000   1.0000   1.0000   1.0000   1.0000   1.0000   1.0000
     1.0000   1.0000   1.0000   1.0000   1.0000   1.0000   1.0000   1.0000
     1.0000   1.0000   1.0000   1.0000   1.0000   1.0000   1.0000   1.0000
     1.0000   1.0000   1.0000   1.0000   1.0000   1.0000   1.0000   1.0000
     1.0000   1.0000   1.0000   1.0000   1.0000   1.0000   1.0000   1.0000
     1.0000   1.0000   1.0000   1.0000   1.0000   1.0000   1.0000   1.0000
     1.0000   1.0000   1.0000   1.0000   1.0000   1.0000   1.0000   1.0000
     1.0000   1.0000   1.0000   1.0000   1.0000   1.0000   1.0000   1.0000
     1.0000   1.0000   1.0000   1.0000   1.0000   1.0000   1.0000   1.0000
     1.0000   1.0000   1.0000   1.0000   1.0000   1.0000   1.0000   1.0000
     1.0000   1.0000   1.0000   1.0000   1.0000   1.0000   1.0000   1.0000
     1.0000   1.0000   1.0000   1.0000   1.0000   1.0000   1.0000   1.0000
     1.0000   1.0000   1.0000   1.0000   1.0000   1.0000   1.0000   1.0000
     1.0000   1.0000   1.0000   1.0000   1.0000   1.0000   1.0000   1.0000
     1.0000   1.0000   1.0000   1.0000   1.0000   1.0000   1.0000   1.0000
     1.0000   1.0000   1.0000   1.0000   1.0000   1.0000   1.0000   1.0000
     1.0000   1.0000   1.0000   1.0000   1.0000   1.0000   1.0000   1.0000
     1.0000   1.0000   1.0000   1.0000   1.0000   1.0000   1.0000   1.0000
     1.0000   1.0000   1.0000   1.0000   1.0000   1.0000   1.0000   1.0000
     1.0000   1.0000   1.0000   1.0000   1.0000   1.0000   1.0000   1.0000
     1.0000   1.0000   1.0000   1.0000   1.0000   1.0000   1.0000   1.0000
     1.0000   1.0000   1.0000   1.0000   1.0000   1.0000   1.0000   1.0000
     1.0000   1.0000   1.0000   1.0000   1.0000   1.0000   1.0000   1.0000
     1.0000   1.0000   1.0000   1.0000   1.0000   1.0000   1.0000   1.0000
     1.0000   1.0000   1.0000   1.0000   1.0000   1.0000   1.0000   1.0000
     1.0000   1.0000   1.0000   1.0000   1.0000   1.0000   1.0000   1.0000
     1.0000   1.0000   1.0000   1.0000   1.0000   1.0000   1.0000   1.0000
     1.0000   1.0000   1.0000   1.0000   1.0000   1.0000   1.0000   1.0000
     1.0000   1.0000   1.0000   1.0000   1.0000   1.0000   1.0000   1.0000
     1.0000   1.0000   1.0000   1.0000   1.0000   1.0000   1.0000   1.0000
     1.0000   1.0000   1.0000   1.0000   1.0000   1.0000   1.0000   1.0000
     1.0000   1.0000   1.0000   1.0000   1.0000   1.0000   1.0000   1.0000
     1.0000   1.0000   1.0000   1.0000   1.0000   1.0000   1.0000   1.0000
     1.0000   1.0000   1.0000   1.0000   1.0000   1.0000   1.0000   1.0000
     1.0000   1.0000   1.0000   1.0000   1.0000   1.0000   1.0000   1.0000
[...]
     estimated scf accuracy    <       0.00018836 Ry

     iteration #179     ecut=    40.00 Ry     beta= 0.40
     Davidson diagonalization with overlap

---- Real-time Memory Report at c_bands before calling an iterative solver
           484 MiB given to the printing process from OS
             0 MiB allocation reported by mallinfo(arena+hblkhd)
          8729 MiB available memory on the node where the printing process lives
------------------
     ethr =  4.68E-10,  avg # of iterations =  7.6

     negative rho (up, down):  3.954E-03 0.000E+00

     total cpu time spent up to now is    58636.5 secs

     total energy              =  -22293.64528957 Ry
     estimated scf accuracy    <       0.00000469 Ry

     iteration #180     ecut=    40.00 Ry     beta= 0.40
     Davidson diagonalization with overlap

---- Real-time Memory Report at c_bands before calling an iterative solver
           484 MiB given to the printing process from OS
             0 MiB allocation reported by mallinfo(arena+hblkhd)
          8728 MiB available memory on the node where the printing process lives
------------------
     ethr =  4.68E-10,  avg # of iterations =  2.6

     negative rho (up, down):  3.954E-03 0.000E+00

     total cpu time spent up to now is    58889.6 secs

     total energy              =  -22293.64529996 Ry
     estimated scf accuracy    <       0.00000511 Ry

     iteration #181     ecut=    40.00 Ry     beta= 0.40
     Davidson diagonalization with overlap

---- Real-time Memory Report at c_bands before calling an iterative solver
           484 MiB given to the printing process from OS
             0 MiB allocation reported by mallinfo(arena+hblkhd)
          8729 MiB available memory on the node where the printing process lives
------------------
     ethr =  4.68E-10,  avg # of iterations =  3.4

     negative rho (up, down):  3.954E-03 0.000E+00

     total cpu time spent up to now is    59146.3 secs

     total energy              =  -22293.64534406 Ry
     estimated scf accuracy    <       0.00000916 Ry

     iteration #182     ecut=    40.00 Ry     beta= 0.40
     Davidson diagonalization with overlap

---- Real-time Memory Report at c_bands before calling an iterative solver
           484 MiB given to the printing process from OS
             0 MiB allocation reported by mallinfo(arena+hblkhd)
          8731 MiB available memory on the node where the printing process lives
------------------
     ethr =  4.68E-10,  avg # of iterations = 12.0

     negative rho (up, down):  3.954E-03 0.000E+00

     total cpu time spent up to now is    59437.0 secs

     total energy              =  -22293.64529761 Ry
     estimated scf accuracy    <       0.00005385 Ry

     iteration #183     ecut=    40.00 Ry     beta= 0.40
     Davidson diagonalization with overlap

---- Real-time Memory Report at c_bands before calling an iterative solver
           484 MiB given to the printing process from OS
             0 MiB allocation reported by mallinfo(arena+hblkhd)
          8732 MiB available memory on the node where the printing process lives
------------------
     ethr =  4.68E-10,  avg # of iterations =  5.6

     negative rho (up, down):  3.955E-03 0.000E+00

     total cpu time spent up to now is    59742.7 secs

     total energy              =  -22293.64528664 Ry
     estimated scf accuracy    <       0.00000479 Ry

     iteration #184     ecut=    40.00 Ry     beta= 0.40
     Davidson diagonalization with overlap

---- Real-time Memory Report at c_bands before calling an iterative solver
           484 MiB given to the printing process from OS
             0 MiB allocation reported by mallinfo(arena+hblkhd)
          8731 MiB available memory on the node where the printing process lives
------------------
     ethr =  4.68E-10,  avg # of iterations = 10.4

     negative rho (up, down):  3.955E-03 0.000E+00

     total cpu time spent up to now is    60024.4 secs

     total energy              =  -22293.64525697 Ry
     estimated scf accuracy    <       0.00001360 Ry

     iteration #185     ecut=    40.00 Ry     beta= 0.40
     Davidson diagonalization with overlap

---- Real-time Memory Report at c_bands before calling an iterative solver
           484 MiB given to the printing process from OS
             0 MiB allocation reported by mallinfo(arena+hblkhd)
          8733 MiB available memory on the node where the printing process lives
------------------
     ethr =  4.68E-10,  avg # of iterations =  5.6

     negative rho (up, down):  3.955E-03 0.000E+00

     total cpu time spent up to now is    60288.7 secs

     total energy              =  -22293.64523650 Ry
     estimated scf accuracy    <       0.00005098 Ry

     iteration #186     ecut=    40.00 Ry     beta= 0.40
     Davidson diagonalization with overlap

---- Real-time Memory Report at c_bands before calling an iterative solver
           484 MiB given to the printing process from OS
             0 MiB allocation reported by mallinfo(arena+hblkhd)
          8730 MiB available memory on the node where the printing process lives
------------------
     ethr =  4.68E-10,  avg # of iterations =  2.0

     negative rho (up, down):  3.955E-03 0.000E+00

     total cpu time spent up to now is    60529.7 secs

     total energy              =  -22293.64524562 Ry
     estimated scf accuracy    <       0.00005640 Ry

     iteration #187     ecut=    40.00 Ry     beta= 0.40
     Davidson diagonalization with overlap

---- Real-time Memory Report at c_bands before calling an iterative solver
           484 MiB given to the printing process from OS
             0 MiB allocation reported by mallinfo(arena+hblkhd)
          8732 MiB available memory on the node where the printing process lives
------------------
     ethr =  4.68E-10,  avg # of iterations =  2.0

     negative rho (up, down):  3.954E-03 0.000E+00

     total cpu time spent up to now is    60773.8 secs

     total energy              =  -22293.64536032 Ry
     estimated scf accuracy    <       0.00004271 Ry

     iteration #188     ecut=    40.00 Ry     beta= 0.40
     Davidson diagonalization with overlap

---- Real-time Memory Report at c_bands before calling an iterative solver
           484 MiB given to the printing process from OS
             0 MiB allocation reported by mallinfo(arena+hblkhd)
          8733 MiB available memory on the node where the printing process lives
------------------
     ethr =  4.68E-10,  avg # of iterations =  4.8

     negative rho (up, down):  3.954E-03 0.000E+00

     total cpu time spent up to now is    61069.1 secs

     total energy              =  -22293.64528456 Ry
     estimated scf accuracy    <       0.00000470 Ry

     iteration #189     ecut=    40.00 Ry     beta= 0.40
     Davidson diagonalization with overlap

---- Real-time Memory Report at c_bands before calling an iterative solver
           484 MiB given to the printing process from OS
             0 MiB allocation reported by mallinfo(arena+hblkhd)
          8732 MiB available memory on the node where the printing process lives
------------------
     ethr =  4.68E-10,  avg # of iterations =  1.0

     negative rho (up, down):  3.954E-03 0.000E+00

     total cpu time spent up to now is    61270.9 secs

     total energy              =  -22293.64528097 Ry
     estimated scf accuracy    <       0.00000473 Ry

     iteration #190     ecut=    40.00 Ry     beta= 0.40
     Davidson diagonalization with overlap

---- Real-time Memory Report at c_bands before calling an iterative solver
           484 MiB given to the printing process from OS
             0 MiB allocation reported by mallinfo(arena+hblkhd)
          8726 MiB available memory on the node where the printing process lives
------------------
     ethr =  4.68E-10,  avg # of iterations =  3.0

     negative rho (up, down):  3.955E-03 0.000E+00

     total cpu time spent up to now is    61523.6 secs

     total energy              =  -22293.64527311 Ry
     estimated scf accuracy    <       0.00000627 Ry

     iteration #191     ecut=    40.00 Ry     beta= 0.40
     Davidson diagonalization with overlap

---- Real-time Memory Report at c_bands before calling an iterative solver
           484 MiB given to the printing process from OS
             0 MiB allocation reported by mallinfo(arena+hblkhd)
          8732 MiB available memory on the node where the printing process lives
------------------
     ethr =  4.68E-10,  avg # of iterations =  3.2

     negative rho (up, down):  3.954E-03 0.000E+00

     total cpu time spent up to now is    61778.5 secs

     total energy              =  -22293.64538474 Ry
     estimated scf accuracy    <       0.00001315 Ry

     iteration #192     ecut=    40.00 Ry     beta= 0.40
     Davidson diagonalization with overlap

---- Real-time Memory Report at c_bands before calling an iterative solver
           484 MiB given to the printing process from OS
             0 MiB allocation reported by mallinfo(arena+hblkhd)
          8731 MiB available memory on the node where the printing process lives
------------------
     ethr =  4.68E-10,  avg # of iterations =  6.4

     negative rho (up, down):  3.954E-03 0.000E+00

     total cpu time spent up to now is    62093.4 secs

     total energy              =  -22293.64531227 Ry
     estimated scf accuracy    <       0.00001667 Ry

     iteration #193     ecut=    40.00 Ry     beta= 0.40
     Davidson diagonalization with overlap

---- Real-time Memory Report at c_bands before calling an iterative solver
           484 MiB given to the printing process from OS
             0 MiB allocation reported by mallinfo(arena+hblkhd)
          8731 MiB available memory on the node where the printing process lives
------------------
     ethr =  4.68E-10,  avg # of iterations =  2.0

     negative rho (up, down):  3.954E-03 0.000E+00

     total cpu time spent up to now is    62338.3 secs

     total energy              =  -22293.64539375 Ry
     estimated scf accuracy    <       0.00002202 Ry

     iteration #194     ecut=    40.00 Ry     beta= 0.40
     Davidson diagonalization with overlap

---- Real-time Memory Report at c_bands before calling an iterative solver
           484 MiB given to the printing process from OS
             0 MiB allocation reported by mallinfo(arena+hblkhd)
          8732 MiB available memory on the node where the printing process lives
------------------
     ethr =  4.68E-10,  avg # of iterations = 11.6

     negative rho (up, down):  3.954E-03 0.000E+00

     total cpu time spent up to now is    62648.6 secs

     total energy              =  -22293.64528633 Ry
     estimated scf accuracy    <       0.00014293 Ry

     iteration #195     ecut=    40.00 Ry     beta= 0.40
     Davidson diagonalization with overlap

---- Real-time Memory Report at c_bands before calling an iterative solver
           484 MiB given to the printing process from OS
             0 MiB allocation reported by mallinfo(arena+hblkhd)
          8729 MiB available memory on the node where the printing process lives
------------------
     ethr =  4.68E-10,  avg # of iterations = 10.4

     negative rho (up, down):  3.954E-03 0.000E+00

     total cpu time spent up to now is    63000.6 secs

     total energy              =  -22293.64528660 Ry
     estimated scf accuracy    <       0.00000486 Ry

     iteration #196     ecut=    40.00 Ry     beta= 0.40
     Davidson diagonalization with overlap

---- Real-time Memory Report at c_bands before calling an iterative solver
           484 MiB given to the printing process from OS
             0 MiB allocation reported by mallinfo(arena+hblkhd)
          8732 MiB available memory on the node where the printing process lives
------------------
     ethr =  4.68E-10,  avg # of iterations =  2.0

     negative rho (up, down):  3.955E-03 0.000E+00

     total cpu time spent up to now is    63246.1 secs

     total energy              =  -22293.64529192 Ry
     estimated scf accuracy    <       0.00000470 Ry

     iteration #197     ecut=    40.00 Ry     beta= 0.40
     Davidson diagonalization with overlap

---- Real-time Memory Report at c_bands before calling an iterative solver
           484 MiB given to the printing process from OS
             0 MiB allocation reported by mallinfo(arena+hblkhd)
          8731 MiB available memory on the node where the printing process lives
------------------
     ethr =  4.68E-10,  avg # of iterations =  5.6

     negative rho (up, down):  3.955E-03 0.000E+00

     total cpu time spent up to now is    63525.1 secs

     total energy              =  -22293.64524523 Ry
     estimated scf accuracy    <       0.00002104 Ry

     iteration #198     ecut=    40.00 Ry     beta= 0.40
     Davidson diagonalization with overlap

---- Real-time Memory Report at c_bands before calling an iterative solver
           484 MiB given to the printing process from OS
             0 MiB allocation reported by mallinfo(arena+hblkhd)
          8732 MiB available memory on the node where the printing process lives
------------------
     ethr =  4.68E-10,  avg # of iterations =  4.0

     negative rho (up, down):  3.955E-03 0.000E+00

     total cpu time spent up to now is    63787.2 secs

     total energy              =  -22293.64520177 Ry
     estimated scf accuracy    <       0.00007516 Ry

     iteration #199     ecut=    40.00 Ry     beta= 0.40
     Davidson diagonalization with overlap

---- Real-time Memory Report at c_bands before calling an iterative solver
           484 MiB given to the printing process from OS
             0 MiB allocation reported by mallinfo(arena+hblkhd)
          8734 MiB available memory on the node where the printing process lives
------------------
     ethr =  4.68E-10,  avg # of iterations =  3.2

     negative rho (up, down):  3.956E-03 0.000E+00

     total cpu time spent up to now is    64042.3 secs

     total energy              =  -22293.64515792 Ry
     estimated scf accuracy    <       0.00013704 Ry

     iteration #200     ecut=    40.00 Ry     beta= 0.40
     Davidson diagonalization with overlap

---- Real-time Memory Report at c_bands before calling an iterative solver
           484 MiB given to the printing process from OS
             0 MiB allocation reported by mallinfo(arena+hblkhd)
          8729 MiB available memory on the node where the printing process lives
------------------
     c_bands:  1 eigenvalues not converged
     ethr =  4.68E-10,  avg # of iterations = 12.4

     negative rho (up, down):  3.956E-03 0.000E+00

     total cpu time spent up to now is    64314.6 secs

     total energy              =  -22293.64520760 Ry
     estimated scf accuracy    <       0.00022862 Ry

     End of self-consistent calculation

     convergence NOT achieved after 200 iterations: stopping

     Writing config to output data dir ./tmp/Zn101_3layer_aniline_relax.save/ :
     XML data file, charge density

     init_run     :     79.29s CPU     81.01s WALL (       1 calls)
     electrons    :  62513.59s CPU  63499.04s WALL (       4 calls)
     update_pot   :      0.96s CPU      1.00s WALL (       3 calls)
     forces       :    188.46s CPU    190.23s WALL (       3 calls)
     force_dftd3  :      0.68s CPU      0.83s WALL (       3 calls)
     stress       :    491.99s CPU    495.17s WALL (       3 calls)
     stres_dftd3  :      0.67s CPU      0.83s WALL (       3 calls)

     Called by init_run:
     wfcinit      :     77.50s CPU     79.04s WALL (       1 calls)
     wfcinit:atom :      0.04s CPU      0.09s WALL (       5 calls)
     wfcinit:wfcr :     76.88s CPU     78.20s WALL (       5 calls)
     potinit      :      0.28s CPU      0.31s WALL (       1 calls)
     hinit0       :      0.09s CPU      0.11s WALL (       1 calls)

     Called by electrons:
     c_bands      :  57001.62s CPU  57845.68s WALL (     238 calls)
     sum_band     :   5192.54s CPU   5315.10s WALL (     238 calls)
     v_of_rho     :     45.06s CPU     46.84s WALL (     239 calls)
     v_h          :      3.05s CPU      3.30s WALL (     239 calls)
     v_xc         :     43.05s CPU     44.66s WALL (     245 calls)
     newd         :    251.65s CPU    267.55s WALL (     239 calls)
     PAW_pot      :     15.93s CPU     16.00s WALL (     242 calls)
     mix_rho      :      6.89s CPU      7.55s WALL (     238 calls)
     energy_dftd3 :      0.47s CPU      0.47s WALL (       4 calls)

     Called by c_bands:
     init_us_2    :     52.78s CPU     53.51s WALL (    2430 calls)
     cegterg      :  56901.29s CPU  57738.12s WALL (    1190 calls)

     Called by sum_band:
     sum_band:wei :      0.58s CPU      0.60s WALL (     238 calls)
     sum_band:loo :   4954.10s CPU   5060.22s WALL (     238 calls)
     sum_band:buf :      9.58s CPU     12.75s WALL (    1190 calls)
     sum_band:ini :     25.84s CPU     26.04s WALL (    1190 calls)
     sum_band:cal :   3527.79s CPU   3543.78s WALL (    1205 calls)
     sum_band:bec :     27.44s CPU     27.52s WALL (    1205 calls)
     addusdens    :    232.16s CPU    248.00s WALL (     238 calls)
                                        0.00s GPU  (     238 calls)
     addusd:skk   :      2.46s CPU      3.18s WALL (     952 calls)
                                        0.00s GPU  (     952 calls)

     Called by *egterg:
     cdiaghg      :   3230.77s CPU   3356.96s WALL (    5901 calls)
     cegterg:over :   8188.89s CPU   8217.79s WALL (    4741 calls)
     cegterg:upda :   3845.19s CPU   3873.33s WALL (    4741 calls)
     cegterg:last :  12664.21s CPU  12734.30s WALL (    2277 calls)
     cdiaghg:chol :    218.29s CPU    218.89s WALL (    5901 calls)
     cdiaghg:inve :     33.18s CPU     33.28s WALL (    5901 calls)
     cdiaghg:para :    887.42s CPU    905.89s WALL (   11802 calls)
     h_psi        :  19711.39s CPU  20195.05s WALL (    5936 calls)
     s_psi        :   7005.75s CPU   7023.73s WALL (    5936 calls)
     g_psi        :      6.38s CPU      6.46s WALL (    4741 calls)

     Called by h_psi:
     h_psi:calbec :   7666.27s CPU   7703.98s WALL (    5936 calls)
     vloc_psi     :   4926.90s CPU   5333.27s WALL (    5936 calls)
     add_vuspsi   :   7109.26s CPU   7128.38s WALL (    5936 calls)

     General routines
     calbec       :  11414.83s CPU  11469.54s WALL (    7216 calls)
     fft          :     29.47s CPU     32.12s WALL (    3182 calls)
     ffts         :      1.36s CPU      1.53s WALL (     477 calls)
     fftw         :   4840.25s CPU   5240.41s WALL ( 3838868 calls)
     interpolate  :      3.32s CPU      3.57s WALL (     239 calls)
     davcio       :      0.00s CPU      0.07s WALL (      23 calls)

     Parallel routines

     PAW routines
     PAW_pot      :     15.93s CPU     16.00s WALL (     242 calls)

     PWSCF        :     17h35m CPU     17h51m WALL


   This run was terminated on:  18:58: 2  13Apr2025            

=------------------------------------------------------------------------------=
   JOB DONE.
=------------------------------------------------------------------------------=
Note: The following floating-point exceptions are signalling: IEEE_DENORMAL
Note: The following floating-point exceptions are signalling: IEEE_DENORMAL
Note: The following floating-point exceptions are signalling: IEEE_DENORMAL
Note: The following floating-point exceptions are signalling: IEEE_DENORMAL
Note: The following floating-point exceptions are signalling: IEEE_DENORMAL
Note: The following floating-point exceptions are signalling: IEEE_DENORMAL
Note: The following floating-point exceptions are signalling: IEEE_DENORMAL
Note: The following floating-point exceptions are signalling: IEEE_DENORMAL
Note: The following floating-point exceptions are signalling: IEEE_DENORMAL
Note: The following floating-point exceptions are signalling: IEEE_DENORMAL
Note: The following floating-point exceptions are signalling: IEEE_DENORMAL
Note: The following floating-point exceptions are signalling: IEEE_DENORMAL
