--------------------------------------------------------------------------
By default, for Open MPI 4.0 and later, infiniband ports on a device
are not used by default.  The intent is to use UCX for these devices.
You can override this policy by setting the btl_openib_allow_ib MCA parameter
to true.

  Local host:              psid02
  Local adapter:           mlx5_0
  Local port:              1

--------------------------------------------------------------------------
--------------------------------------------------------------------------
WARNING: There was an error initializing an OpenFabrics device.

  Local host:   psid02
  Local device: mlx5_0
--------------------------------------------------------------------------

     Program PWSCF v.7.3.1 starts on 24Mar2025 at 17:52:17 

     This program is part of the open-source Quantum ESPRESSO suite
     for quantum simulation of materials; please cite
         "P. Giannozzi et al., J. Phys.:Condens. Matter 21 395502 (2009);
         "P. Giannozzi et al., J. Phys.:Condens. Matter 29 465901 (2017);
         "P. Giannozzi et al., J. Chem. Phys. 152 154105 (2020);
          URL http://www.quantum-espresso.org", 
     in publications or presentations arising from this work. More details at
     http://www.quantum-espresso.org/quote

     Parallel version (MPI), running on    34 processors

     MPI processes distributed on     1 nodes
     57955 MiB available memory on the printing compute node when the environment starts

     Waiting for input...
     Reading input from standard input

     Current dimensions of program PWSCF are:
     Max number of different atomic species (ntypx) = 10
     Max number of k-points (npk) =  40000
     Max angular momentum in pseudopotentials (lmaxx) =  4

     R & G space division:  proc/nbgrp/npool/nimage =      34
     Subspace diagonalization in iterative solution of the eigenvalue problem:
     one sub-group per band group will be used
     custom distributed-memory algorithm (size of sub-group:  5*  5 procs)


     Parallelization info
     --------------------
     sticks:   dense  smooth     PW     G-vecs:    dense   smooth      PW
     Min          95      95     25                 9909     9909    1385
     Max          96      96     26                 9921     9921    1394
     Sum        3241    3241    859               337189   337189   47187

     Using Slab Decomposition



     bravais-lattice index     =            0
     lattice parameter (alat)  =      19.7617  a.u.
     unit-cell volume          =   15176.5939 (a.u.)^3
     number of atoms/cell      =           64
     number of atomic types    =            1
     number of electrons       =      1280.00
     number of Kohn-Sham states=          768
     kinetic-energy cutoff     =      30.0000  Ry
     charge density cutoff     =     120.0000  Ry
     scf convergence threshold =      1.0E-08
     mixing beta               =       0.7000
     number of iterations used =            8  plain     mixing
     Exchange-correlation= SLA  PW   PBE  PBE
                           (   1   4   3   4   0   0   0)

     celldm(1)=  19.761696  celldm(2)=   0.000000  celldm(3)=   0.000000
     celldm(4)=   0.000000  celldm(5)=   0.000000  celldm(6)=   0.000000

     crystal axes: (cart. coord. in units of alat)
               a(1) = (   1.000000   0.000000   0.000000 )  
               a(2) = (  -0.500000   0.866025   0.000000 )  
               a(3) = (   0.000000   0.000000   2.270759 )  

     reciprocal axes: (cart. coord. in units 2 pi/alat)
               b(1) = (  1.000000  0.577350 -0.000000 )  
               b(2) = (  0.000000  1.154701  0.000000 )  
               b(3) = (  0.000000 -0.000000  0.440381 )  


     PseudoPot. # 1 for Zn read from file:
     /home/ys/qepseudo/SSSP_1.3.0_PBE_efficiency/Zn_pbe_v1.uspp.F.UPF
     MD5 check sum: df62231357ef9e81f77b2b3087fa5675
     Pseudo is Ultrasoft, Zval = 20.0
     Generated by new atomic code, or converted to UPF format
     Using radial grid of  943 points,  6 beta functions with: 
                l(1) =   0
                l(2) =   0
                l(3) =   1
                l(4) =   1
                l(5) =   2
                l(6) =   2
     Q(r) pseudized with  8 coefficients,  rinner =    1.100   1.100   1.100
                                                       1.100   1.100

     atomic species   valence    mass     pseudopotential
     Zn               20.00    65.38000     Zn( 1.00)

     No symmetry found


                                    s                        frac. trans.

      isym =  1     identity                                     

 cryst.   s( 1) = (     1          0          0      )
                  (     0          1          0      )
                  (     0          0          1      )

 cart.    s( 1) = (  1.0000000  0.0000000  0.0000000 )
                  (  0.0000000  1.0000000  0.0000000 )
                  (  0.0000000  0.0000000  1.0000000 )


   Cartesian axes

     site n.     atom                  positions (alat units)
         1        Zn     tau(   1) = (  -0.0000000   0.1443376   0.1164999  )
         2        Zn     tau(   2) = (   0.5000000   0.1443376   0.1164999  )
         3        Zn     tau(   3) = (   0.0001063   0.1443772   0.5902127  )
         4        Zn     tau(   4) = (   0.4998958   0.1443643   0.5917156  )
         5        Zn     tau(   5) = (  -0.1250000   0.3608439   0.1164999  )
         6        Zn     tau(   6) = (   0.3750000   0.3608439   0.1164999  )
         7        Zn     tau(   7) = (  -0.1249761   0.3609302   0.5908726  )
         8        Zn     tau(   8) = (   0.3749642   0.3608477   0.5913644  )
         9        Zn     tau(   9) = (  -0.2500000   0.5773503   0.1164999  )
        10        Zn     tau(  10) = (   0.2500000   0.5773503   0.1164999  )
        11        Zn     tau(  11) = (  -0.2499911   0.5773738   0.5915504  )
        12        Zn     tau(  12) = (   0.2499824   0.5772583   0.5907382  )
        13        Zn     tau(  13) = (  -0.3750000   0.7938566   0.1164999  )
        14        Zn     tau(  14) = (   0.1250000   0.7938566   0.1164999  )
        15        Zn     tau(  15) = (  -0.3749161   0.7938269   0.5909604  )
        16        Zn     tau(  16) = (   0.1249053   0.7937898   0.5911170  )
        17        Zn     tau(  17) = (   0.2500000   0.1443376   0.1164999  )
        18        Zn     tau(  18) = (   0.7500000   0.1443376   0.1164999  )
        19        Zn     tau(  19) = (   0.2499566   0.1443139   0.5910485  )
        20        Zn     tau(  20) = (   0.7500401   0.1444360   0.5909256  )
        21        Zn     tau(  21) = (   0.1250000   0.3608439   0.1164999  )
        22        Zn     tau(  22) = (   0.6250000   0.3608439   0.1164999  )
        23        Zn     tau(  23) = (   0.1249684   0.3608327   0.5904686  )
        24        Zn     tau(  24) = (   0.6250220   0.3609386   0.5917101  )
        25        Zn     tau(  25) = (  -0.0000000   0.5773503   0.1164999  )
        26        Zn     tau(  26) = (   0.5000000   0.5773503   0.1164999  )
        27        Zn     tau(  27) = (  -0.0000983   0.5773031   0.5910657  )
        28        Zn     tau(  28) = (   0.5000885   0.5773473   0.5912976  )
        29        Zn     tau(  29) = (  -0.1250000   0.7938566   0.1164999  )
        30        Zn     tau(  30) = (   0.3750000   0.7938566   0.1164999  )
        31        Zn     tau(  31) = (  -0.1251014   0.7937984   0.5915674  )
        32        Zn     tau(  32) = (   0.3751324   0.7938157   0.5904624  )
        33        Zn     tau(  33) = (   0.1250000   0.0721688   0.3494996  )
        34        Zn     tau(  34) = (   0.6250000   0.0721688   0.3494996  )
        35        Zn     tau(  35) = (   0.1249168   0.0722609   0.8321064  )
        36        Zn     tau(  36) = (   0.6250907   0.0721249   0.8320849  )
        37        Zn     tau(  37) = (   0.0000000   0.2886751   0.3494996  )
        38        Zn     tau(  38) = (   0.5000000   0.2886751   0.3494996  )
        39        Zn     tau(  39) = (   0.0001155   0.2886284   0.8318992  )
        40        Zn     tau(  40) = (   0.4998869   0.2887254   0.8327133  )
        41        Zn     tau(  41) = (  -0.1250000   0.5051815   0.3494996  )
        42        Zn     tau(  42) = (   0.3750000   0.5051815   0.3494996  )
        43        Zn     tau(  43) = (  -0.1248885   0.5051081   0.8328053  )
        44        Zn     tau(  44) = (   0.3748852   0.5052048   0.8322362  )
        45        Zn     tau(  45) = (  -0.2500000   0.7216878   0.3494996  )
        46        Zn     tau(  46) = (   0.2500000   0.7216878   0.3494996  )
        47        Zn     tau(  47) = (  -0.2500816   0.7217457   0.8330261  )
        48        Zn     tau(  48) = (   0.2500888   0.7216111   0.8315798  )
        49        Zn     tau(  49) = (   0.3750000   0.0721688   0.3494996  )
        50        Zn     tau(  50) = (   0.8750000   0.0721688   0.3494996  )
        51        Zn     tau(  51) = (   0.3748288   0.0722025   0.8328001  )
        52        Zn     tau(  52) = (   0.8751982   0.0721830   0.8313936  )
        53        Zn     tau(  53) = (   0.2500000   0.2886751   0.3494996  )
        54        Zn     tau(  54) = (   0.7500000   0.2886751   0.3494996  )
        55        Zn     tau(  55) = (   0.2498217   0.2886951   0.8322994  )
        56        Zn     tau(  56) = (   0.7501831   0.2886665   0.8323685  )
        57        Zn     tau(  57) = (   0.1250000   0.5051815   0.3494996  )
        58        Zn     tau(  58) = (   0.6250000   0.5051815   0.3494996  )
        59        Zn     tau(  59) = (   0.1250170   0.5050584   0.8321067  )
        60        Zn     tau(  60) = (   0.6249778   0.5052529   0.8329305  )
        61        Zn     tau(  61) = (   0.0000000   0.7216878   0.3494996  )
        62        Zn     tau(  62) = (   0.5000000   0.7216878   0.3494996  )
        63        Zn     tau(  63) = (   0.0000162   0.7215786   0.8326164  )
        64        Zn     tau(  64) = (   0.4999851   0.7217841   0.8320793  )

   Crystallographic axes

     site n.     atom                  positions (cryst. coord.)
         1        Zn     tau(   1) = (  0.0833333  0.1666667  0.0513044  )
         2        Zn     tau(   2) = (  0.5833333  0.1666667  0.0513044  )
         3        Zn     tau(   3) = (  0.0834625  0.1667124  0.2599187  )
         4        Zn     tau(   4) = (  0.5832446  0.1666976  0.2605806  )
         5        Zn     tau(   5) = (  0.0833333  0.4166667  0.0513044  )
         6        Zn     tau(   6) = (  0.5833333  0.4166667  0.0513044  )
         7        Zn     tau(   7) = (  0.0834070  0.4167663  0.2602093  )
         8        Zn     tau(   8) = (  0.5832997  0.4166711  0.2604259  )
         9        Zn     tau(   9) = (  0.0833333  0.6666667  0.0513044  )
        10        Zn     tau(  10) = (  0.5833333  0.6666667  0.0513044  )
        11        Zn     tau(  11) = (  0.0833558  0.6666938  0.2605078  )
        12        Zn     tau(  12) = (  0.5832626  0.6665605  0.2601501  )
        13        Zn     tau(  13) = (  0.0833333  0.9166667  0.0513044  )
        14        Zn     tau(  14) = (  0.5833333  0.9166667  0.0513044  )
        15        Zn     tau(  15) = (  0.0834001  0.9166324  0.2602480  )
        16        Zn     tau(  16) = (  0.5832000  0.9165895  0.2603170  )
        17        Zn     tau(  17) = (  0.3333333  0.1666667  0.0513044  )
        18        Zn     tau(  18) = (  0.8333333  0.1666667  0.0513044  )
        19        Zn     tau(  19) = (  0.3332763  0.1666393  0.2602868  )
        20        Zn     tau(  20) = (  0.8334303  0.1667804  0.2602327  )
        21        Zn     tau(  21) = (  0.3333333  0.4166667  0.0513044  )
        22        Zn     tau(  22) = (  0.8333333  0.4166667  0.0513044  )
        23        Zn     tau(  23) = (  0.3332952  0.4166537  0.2600314  )
        24        Zn     tau(  24) = (  0.8334099  0.4167759  0.2605781  )
        25        Zn     tau(  25) = (  0.3333333  0.6666667  0.0513044  )
        26        Zn     tau(  26) = (  0.8333333  0.6666667  0.0513044  )
        27        Zn     tau(  27) = (  0.3332078  0.6666122  0.2602944  )
        28        Zn     tau(  28) = (  0.8334201  0.6666632  0.2603965  )
        29        Zn     tau(  29) = (  0.3333333  0.9166667  0.0513044  )
        30        Zn     tau(  30) = (  0.8333333  0.9166667  0.0513044  )
        31        Zn     tau(  31) = (  0.3331983  0.9165994  0.2605153  )
        32        Zn     tau(  32) = (  0.8334421  0.9166194  0.2600287  )
        33        Zn     tau(  33) = (  0.1666667  0.0833333  0.1539131  )
        34        Zn     tau(  34) = (  0.6666667  0.0833333  0.1539131  )
        35        Zn     tau(  35) = (  0.1666366  0.0834397  0.3664442  )
        36        Zn     tau(  36) = (  0.6667321  0.0832826  0.3664347  )
        37        Zn     tau(  37) = (  0.1666667  0.3333333  0.1539131  )
        38        Zn     tau(  38) = (  0.6666667  0.3333333  0.1539131  )
        39        Zn     tau(  39) = (  0.1667552  0.3332793  0.3663530  )
        40        Zn     tau(  40) = (  0.6665826  0.3333914  0.3667115  )
        41        Zn     tau(  41) = (  0.1666667  0.5833333  0.1539131  )
        42        Zn     tau(  42) = (  0.6666667  0.5833333  0.1539131  )
        43        Zn     tau(  43) = (  0.1667358  0.5832486  0.3667520  )
        44        Zn     tau(  44) = (  0.6665653  0.5833603  0.3665014  )
        45        Zn     tau(  45) = (  0.1666667  0.8333333  0.1539131  )
        46        Zn     tau(  46) = (  0.6666667  0.8333333  0.1539131  )
        47        Zn     tau(  47) = (  0.1666184  0.8334001  0.3668492  )
        48        Zn     tau(  48) = (  0.6667112  0.8332447  0.3662123  )
        49        Zn     tau(  49) = (  0.4166667  0.0833333  0.1539131  )
        50        Zn     tau(  50) = (  0.9166667  0.0833333  0.1539131  )
        51        Zn     tau(  51) = (  0.4165149  0.0833723  0.3667497  )
        52        Zn     tau(  52) = (  0.9168731  0.0833498  0.3661303  )
        53        Zn     tau(  53) = (  0.4166667  0.3333333  0.1539131  )
        54        Zn     tau(  54) = (  0.9166667  0.3333333  0.1539131  )
        55        Zn     tau(  55) = (  0.4164999  0.3333564  0.3665292  )
        56        Zn     tau(  56) = (  0.9168448  0.3333234  0.3665596  )
        57        Zn     tau(  57) = (  0.4166667  0.5833333  0.1539131  )
        58        Zn     tau(  58) = (  0.9166667  0.5833333  0.1539131  )
        59        Zn     tau(  59) = (  0.4166127  0.5831912  0.3664443  )
        60        Zn     tau(  60) = (  0.9166857  0.5834158  0.3668071  )
        61        Zn     tau(  61) = (  0.4166667  0.8333333  0.1539131  )
        62        Zn     tau(  62) = (  0.9166667  0.8333333  0.1539131  )
        63        Zn     tau(  63) = (  0.4166198  0.8332071  0.3666688  )
        64        Zn     tau(  64) = (  0.9167074  0.8334445  0.3664323  )

     number of k points=     5  Marzari-Vanderbilt smearing, width (Ry)=  0.0200
                       cart. coord. in units 2pi/alat
        k(    1) = (   0.0000000   0.0000000   0.0000000), wk =   0.2222222
        k(    2) = (   0.0000000   0.3849002   0.0000000), wk =   0.4444444
        k(    3) = (   0.3333333   0.1924501   0.0000000), wk =   0.4444444
        k(    4) = (   0.3333333   0.5773503   0.0000000), wk =   0.4444444
        k(    5) = (   0.3333333  -0.1924501   0.0000000), wk =   0.4444444

                       cryst. coord.
        k(    1) = (   0.0000000   0.0000000   0.0000000), wk =   0.2222222
        k(    2) = (   0.0000000   0.3333333   0.0000000), wk =   0.4444444
        k(    3) = (   0.3333333   0.0000000   0.0000000), wk =   0.4444444
        k(    4) = (   0.3333333   0.3333333   0.0000000), wk =   0.4444444
        k(    5) = (   0.3333333  -0.3333333   0.0000000), wk =   0.4444444

     Dense  grid:   337189 G-vectors     FFT dimensions: (  72,  72, 160)

     Dynamical RAM for                 wfc:      14.51 MB

     Dynamical RAM for     wfc (w. buffer):      87.05 MB

     Dynamical RAM for           str. fact:       0.15 MB

     Dynamical RAM for           local pot:       0.00 MB

     Dynamical RAM for          nlocal pot:      21.76 MB

     Dynamical RAM for                qrad:       0.88 MB

     Dynamical RAM for          rho,v,vnew:       1.05 MB

     Dynamical RAM for               rhoin:       0.35 MB

     Dynamical RAM for            rho*nmix:       2.42 MB

     Dynamical RAM for           G-vectors:       0.64 MB

     Dynamical RAM for          h,s,v(r/c):       4.31 MB

     Dynamical RAM for          <psi|beta>:      13.50 MB

     Dynamical RAM for                 psi:      29.02 MB

     Dynamical RAM for                hpsi:      29.02 MB

     Dynamical RAM for                spsi:      29.02 MB

     Dynamical RAM for      wfcinit/wfcrot:      47.28 MB

     Dynamical RAM for           addusdens:      37.84 MB

     Dynamical RAM for          addusforce:      57.23 MB

     Dynamical RAM for         addusstress:      30.42 MB

     Estimated static dynamical RAM per process >     113.17 MB

     Estimated max dynamical RAM per process >     220.45 MB

     Estimated total dynamical RAM >       7.32 GB

     Initial potential from superposition of free atoms

     starting charge    1279.9910, renormalised to    1280.0000

     negative rho (up, down):  1.584E-03 0.000E+00
     Starting wfcs are  832 randomized atomic wfcs
[psid02:23342] 33 more processes have sent help message help-mpi-btl-openib.txt / ib port not selected
[psid02:23342] Set MCA parameter "orte_base_help_aggregate" to 0 to see all help / error messages
[psid02:23342] 33 more processes have sent help message help-mpi-btl-openib.txt / error in device init

     total cpu time spent up to now is       62.8 secs

     Self-consistent Calculation

     iteration #  1     ecut=    30.00 Ry     beta= 0.70
     Davidson diagonalization with overlap

---- Real-time Memory Report at c_bands before calling an iterative solver
           189 MiB given to the printing process from OS
             0 MiB allocation reported by mallinfo(arena+hblkhd)
         53769 MiB available memory on the node where the printing process lives
------------------
     ethr =  1.00E-02,  avg # of iterations =  9.4

     Threshold (ethr) on eigenvalues was too large:
     Diagonalizing with lowered threshold

     Davidson diagonalization with overlap

---- Real-time Memory Report at c_bands before calling an iterative solver
           258 MiB given to the printing process from OS
             0 MiB allocation reported by mallinfo(arena+hblkhd)
         52294 MiB available memory on the node where the printing process lives
------------------
     ethr =  2.10E-04,  avg # of iterations =  5.4

     negative rho (up, down):  5.575E-03 0.000E+00

     total cpu time spent up to now is      557.6 secs

     total energy              =  -29534.06400338 Ry
     estimated scf accuracy    <       2.88603948 Ry

     iteration #  2     ecut=    30.00 Ry     beta= 0.70
     Davidson diagonalization with overlap

---- Real-time Memory Report at c_bands before calling an iterative solver
           259 MiB given to the printing process from OS
             0 MiB allocation reported by mallinfo(arena+hblkhd)
         52291 MiB available memory on the node where the printing process lives
------------------
     ethr =  2.25E-04,  avg # of iterations =  3.0

     negative rho (up, down):  6.895E-03 0.000E+00

     total cpu time spent up to now is      856.1 secs

     total energy              =  -29534.72872918 Ry
     estimated scf accuracy    <       4.79213775 Ry

     iteration #  3     ecut=    30.00 Ry     beta= 0.70
     Davidson diagonalization with overlap

---- Real-time Memory Report at c_bands before calling an iterative solver
           260 MiB given to the printing process from OS
             0 MiB allocation reported by mallinfo(arena+hblkhd)
         52141 MiB available memory on the node where the printing process lives
------------------
     ethr =  2.25E-04,  avg # of iterations =  7.4

     negative rho (up, down):  7.288E-03 0.000E+00

     total cpu time spent up to now is     1137.9 secs

     total energy              =  -29535.47449083 Ry
     estimated scf accuracy    <       0.50780121 Ry

     iteration #  4     ecut=    30.00 Ry     beta= 0.70
     Davidson diagonalization with overlap

---- Real-time Memory Report at c_bands before calling an iterative solver
           261 MiB given to the printing process from OS
             0 MiB allocation reported by mallinfo(arena+hblkhd)
         52132 MiB available memory on the node where the printing process lives
------------------
     ethr =  3.97E-05,  avg # of iterations = 10.2

     negative rho (up, down):  8.210E-03 0.000E+00

     total cpu time spent up to now is     1385.3 secs

     total energy              =  -29535.48602834 Ry
     estimated scf accuracy    <       1.17308261 Ry

     iteration #  5     ecut=    30.00 Ry     beta= 0.70
     Davidson diagonalization with overlap

---- Real-time Memory Report at c_bands before calling an iterative solver
           262 MiB given to the printing process from OS
             0 MiB allocation reported by mallinfo(arena+hblkhd)
         52121 MiB available memory on the node where the printing process lives
------------------
     ethr =  3.97E-05,  avg # of iterations = 10.4

     negative rho (up, down):  9.088E-03 0.000E+00

     total cpu time spent up to now is     1634.6 secs

     total energy              =  -29535.47996507 Ry
     estimated scf accuracy    <       1.86810873 Ry

     iteration #  6     ecut=    30.00 Ry     beta= 0.70
     Davidson diagonalization with overlap

---- Real-time Memory Report at c_bands before calling an iterative solver
           262 MiB given to the printing process from OS
             0 MiB allocation reported by mallinfo(arena+hblkhd)
         52112 MiB available memory on the node where the printing process lives
------------------
     ethr =  3.97E-05,  avg # of iterations =  7.0

     negative rho (up, down):  9.290E-03 0.000E+00

     total cpu time spent up to now is     1866.1 secs

     total energy              =  -29535.59943505 Ry
     estimated scf accuracy    <       0.00736479 Ry

     iteration #  7     ecut=    30.00 Ry     beta= 0.70
     Davidson diagonalization with overlap

---- Real-time Memory Report at c_bands before calling an iterative solver
           263 MiB given to the printing process from OS
             0 MiB allocation reported by mallinfo(arena+hblkhd)
         52101 MiB available memory on the node where the printing process lives
------------------
     c_bands:  2 eigenvalues not converged
     ethr =  5.75E-07,  avg # of iterations = 13.4

     negative rho (up, down):  9.403E-03 0.000E+00

     total cpu time spent up to now is     2143.1 secs

     total energy              =  -29535.60029627 Ry
     estimated scf accuracy    <       0.00103262 Ry

     iteration #  8     ecut=    30.00 Ry     beta= 0.70
     Davidson diagonalization with overlap

---- Real-time Memory Report at c_bands before calling an iterative solver
           263 MiB given to the printing process from OS
             0 MiB allocation reported by mallinfo(arena+hblkhd)
         52090 MiB available memory on the node where the printing process lives
------------------
     ethr =  8.07E-08,  avg # of iterations =  5.6

     negative rho (up, down):  9.447E-03 0.000E+00

     total cpu time spent up to now is     2400.8 secs

     total energy              =  -29535.60041328 Ry
     estimated scf accuracy    <       0.00026698 Ry

     iteration #  9     ecut=    30.00 Ry     beta= 0.70
     Davidson diagonalization with overlap

---- Real-time Memory Report at c_bands before calling an iterative solver
           263 MiB given to the printing process from OS
             0 MiB allocation reported by mallinfo(arena+hblkhd)
         52081 MiB available memory on the node where the printing process lives
------------------
     ethr =  2.09E-08,  avg # of iterations =  2.0

     negative rho (up, down):  9.452E-03 0.000E+00

     total cpu time spent up to now is     2628.7 secs

     total energy              =  -29535.60046170 Ry
     estimated scf accuracy    <       0.00002160 Ry

     iteration # 10     ecut=    30.00 Ry     beta= 0.70
     Davidson diagonalization with overlap

---- Real-time Memory Report at c_bands before calling an iterative solver
           263 MiB given to the printing process from OS
             0 MiB allocation reported by mallinfo(arena+hblkhd)
         52070 MiB available memory on the node where the printing process lives
------------------
     ethr =  1.69E-09,  avg # of iterations =  2.0

     negative rho (up, down):  9.452E-03 0.000E+00

     total cpu time spent up to now is     2849.1 secs

     total energy              =  -29535.60046372 Ry
     estimated scf accuracy    <       0.00001294 Ry

     iteration # 11     ecut=    30.00 Ry     beta= 0.70
     Davidson diagonalization with overlap

---- Real-time Memory Report at c_bands before calling an iterative solver
           264 MiB given to the printing process from OS
             0 MiB allocation reported by mallinfo(arena+hblkhd)
         52061 MiB available memory on the node where the printing process lives
------------------
     ethr =  1.01E-09,  avg # of iterations =  2.0

     negative rho (up, down):  9.452E-03 0.000E+00

     total cpu time spent up to now is     3054.2 secs

     total energy              =  -29535.60046537 Ry
     estimated scf accuracy    <       0.00000259 Ry

     iteration # 12     ecut=    30.00 Ry     beta= 0.70
     Davidson diagonalization with overlap

---- Real-time Memory Report at c_bands before calling an iterative solver
           264 MiB given to the printing process from OS
             0 MiB allocation reported by mallinfo(arena+hblkhd)
         52060 MiB available memory on the node where the printing process lives
------------------
     ethr =  2.02E-10,  avg # of iterations =  2.0

     negative rho (up, down):  9.452E-03 0.000E+00

     total cpu time spent up to now is     3282.0 secs

     total energy              =  -29535.60046581 Ry
     estimated scf accuracy    <       0.00000006 Ry

     iteration # 13     ecut=    30.00 Ry     beta= 0.70
     Davidson diagonalization with overlap

---- Real-time Memory Report at c_bands before calling an iterative solver
           264 MiB given to the printing process from OS
             0 MiB allocation reported by mallinfo(arena+hblkhd)
         52059 MiB available memory on the node where the printing process lives
------------------
     ethr =  4.35E-12,  avg # of iterations =  3.0

     negative rho (up, down):  9.452E-03 0.000E+00

     total cpu time spent up to now is     3536.2 secs

     total energy              =  -29535.60046581 Ry
     estimated scf accuracy    <       0.00000014 Ry

     iteration # 14     ecut=    30.00 Ry     beta= 0.70
     Davidson diagonalization with overlap

---- Real-time Memory Report at c_bands before calling an iterative solver
           264 MiB given to the printing process from OS
             0 MiB allocation reported by mallinfo(arena+hblkhd)
         52058 MiB available memory on the node where the printing process lives
------------------
     ethr =  4.35E-12,  avg # of iterations =  2.0

     negative rho (up, down):  9.452E-03 0.000E+00

     total cpu time spent up to now is     3750.4 secs

     End of self-consistent calculation

          k = 0.0000 0.0000 0.0000 ( 42115 PWs)   bands (ev):

  -123.2865-123.2840-123.2836-123.2834-123.2828-123.2825-123.2823-123.2820
  -123.2815-123.2811-123.2810-123.2806-123.2804-123.2800-123.2797-123.2792
  -123.2363-123.2341-123.2335-123.2328-123.2325-123.2321-123.2318-123.2313
  -123.2311-123.2310-123.2306-123.2302-123.2299-123.2292-123.2289-123.2284
  -123.0899-123.0865-123.0864-123.0862-123.0861-123.0859-123.0859-123.0858
  -123.0857-123.0855-123.0853-123.0852-123.0850-123.0850-123.0847-123.0846
  -123.0521-123.0491-123.0491-123.0489-123.0484-123.0483-123.0480-123.0479
  -123.0477-123.0471-123.0470-123.0468-123.0465-123.0463-123.0461-123.0459
   -77.3946 -77.3944 -77.3944 -77.3856 -77.3855 -77.3850 -77.3849 -77.3846
   -77.3846 -77.3723 -77.3708 -77.3703 -77.3698 -77.3696 -77.3692 -77.3689
   -77.3684 -77.3680 -77.3677 -77.3675 -77.3674 -77.3670 -77.3667 -77.3664
   -77.3660 -77.3627 -77.3627 -77.3624 -77.3620 -77.3617 -77.3616 -77.3596
   -77.3595 -77.3594 -77.3590 -77.3585 -77.3585 -77.3580 -77.3572 -77.3555
   -77.3547 -77.3546 -77.3542 -77.3541 -77.3540 -77.3537 -77.3534 -77.3529
   -77.3441 -77.3438 -77.3437 -77.3349 -77.3349 -77.3343 -77.3341 -77.3338
   -77.3337 -77.3224 -77.3207 -77.3199 -77.3194 -77.3187 -77.3185 -77.3182
   -77.3179 -77.3176 -77.3175 -77.3171 -77.3169 -77.3162 -77.3158 -77.3155
   -77.3152 -77.3121 -77.3120 -77.3118 -77.3113 -77.3108 -77.3108 -77.3089
   -77.3087 -77.3086 -77.3080 -77.3077 -77.3076 -77.3074 -77.3063 -77.3046
   -77.3039 -77.3034 -77.3033 -77.3031 -77.3030 -77.3024 -77.3022 -77.3016
   -77.1955 -77.1955 -77.1955 -77.1861 -77.1861 -77.1860 -77.1860 -77.1859
   -77.1859 -77.1825 -77.1805 -77.1803 -77.1802 -77.1801 -77.1800 -77.1799
   -77.1799 -77.1798 -77.1797 -77.1796 -77.1794 -77.1793 -77.1791 -77.1791
   -77.1789 -77.1629 -77.1629 -77.1628 -77.1628 -77.1627 -77.1626 -77.1599
   -77.1599 -77.1598 -77.1598 -77.1597 -77.1596 -77.1585 -77.1584 -77.1567
   -77.1567 -77.1566 -77.1555 -77.1554 -77.1553 -77.1551 -77.1550 -77.1549
   -77.1548 -77.1548 -77.1547 -77.1479 -77.1478 -77.1473 -77.1473 -77.1469
   -77.1468 -77.1465 -77.1443 -77.1442 -77.1438 -77.1436 -77.1435 -77.1433
   -77.1430 -77.1426 -77.1425 -77.1424 -77.1422 -77.1421 -77.1420 -77.1417
   -77.1414 -77.1247 -77.1246 -77.1244 -77.1242 -77.1239 -77.1238 -77.1215
   -77.1214 -77.1212 -77.1212 -77.1207 -77.1207 -77.1201 -77.1198 -77.1176
   -77.1169 -77.1167 -77.1165 -77.1164 -77.1162 -77.1161 -77.1160 -77.1155
    -6.7327  -5.9431  -5.2547  -5.1714  -5.1550  -5.1548  -5.1523  -5.1521
    -5.1497  -5.1495  -5.0045  -5.0045  -5.0045  -4.9459  -4.9459  -4.9458
    -4.8214  -4.8213  -4.8211  -4.8211  -4.8209  -4.8209  -4.8176  -4.8175
    -4.8175  -4.7374  -4.7374  -4.7374  -4.6742  -4.6741  -4.6739  -4.6738
    -4.6735  -4.6735  -4.6464  -4.6464  -4.6464  -4.5943  -4.5943  -4.5931
    -4.5931  -4.5922  -4.5921  -4.5916  -4.5915  -4.5909  -4.5908  -4.5902
    -4.5901  -4.5741  -4.5741  -4.5741  -4.5478  -4.5478  -4.5474  -4.5473
    -4.5470  -4.5470  -4.5011  -4.5010  -4.5005  -4.5004  -4.4997  -4.4996
    -4.4431  -4.4091  -4.4091  -4.4085  -4.4084  -4.4082  -4.4080  -4.4080
    -4.4079  -4.4075  -4.4074  -4.4071  -4.4070  -4.3657  -4.3657  -4.3652
    -4.3651  -4.3645  -4.3645  -4.3567  -4.3566  -4.3564  -4.3563  -4.3560
    -4.3560  -4.3534  -4.3534  -4.3533  -4.3119  -4.3119  -4.3113  -4.3112
    -4.3105  -4.3105  -4.2712  -4.2712  -4.2708  -4.2708  -4.2703  -4.2703
    -4.2417  -4.2417  -4.2231  -4.2230  -4.2224  -4.2223  -4.2215  -4.2215
    -4.2190  -4.2189  -4.2189  -4.2137  -4.2136  -4.2134  -4.2132  -4.2130
    -4.2129  -4.2007  -4.1851  -4.1851  -4.1539  -4.1539  -4.1535  -4.1535
    -4.1533  -4.1533  -4.1388  -4.1388  -4.1383  -4.1382  -4.1378  -4.1378
    -4.0985  -4.0984  -4.0982  -4.0981  -4.0978  -4.0977  -4.0651  -4.0651
    -4.0647  -4.0647  -4.0644  -4.0643  -4.0387  -4.0387  -3.9988  -3.9987
    -3.9983  -3.9982  -3.9978  -3.9978  -3.9948  -3.9948  -3.9642  -3.9641
    -3.9641  -3.9524  -3.9524  -3.9521  -3.9521  -3.9519  -3.9518  -3.9257
    -3.9256  -3.9253  -3.9252  -3.9248  -3.9248  -3.9016  -3.9016  -3.9014
    -3.9014  -3.9013  -3.9013  -3.8968  -3.8968  -3.8966  -3.8966  -3.8964
    -3.8964  -3.8808  -3.8808  -3.8807  -3.8797  -3.8797  -3.8792  -3.8791
    -3.8786  -3.8786  -3.8648  -3.8647  -3.8647  -3.8646  -3.8646  -3.8645
    -3.8621  -3.8621  -3.8617  -3.8617  -3.8610  -3.8609  -3.8477  -3.8477
    -3.8472  -3.8471  -3.8467  -3.8466  -3.8042  -3.8042  -3.8041  -3.7938
    -3.7938  -3.7935  -3.7934  -3.7931  -3.7930  -3.7844  -3.7841  -3.7839
    -3.7835  -3.7833  -3.7831  -3.7517  -3.7517  -3.7309  -3.7308  -3.7306
    -3.7306  -3.7304  -3.7303  -3.7244  -3.7244  -3.7239  -3.7237  -3.7232
    -3.7232  -3.7172  -3.7172  -3.7169  -3.7167  -3.7164  -3.7163  -3.7075
    -3.7075  -3.7072  -3.7072  -3.7064  -3.7064  -3.6501  -3.6501  -3.6439
    -3.6439  -3.6439  -3.6213  -3.6213  -3.6212  -3.6212  -3.6211  -3.6211
    -3.6107  -3.6107  -3.6107  -3.5931  -3.5931  -3.5931  -3.5855  -3.5854
    -3.5848  -3.5848  -3.5842  -3.5840  -3.5682  -3.5682  -3.5682  -3.5647
    -3.5647  -3.5643  -3.5643  -3.5637  -3.5637  -3.5419  -3.5418  -3.5417
    -3.5417  -3.5416  -3.5415  -3.5149  -3.5149  -3.5144  -3.5144  -3.5140
    -3.5139  -3.5104  -3.5103  -3.5103  -3.4996  -3.4996  -3.4688  -3.4688
    -3.4429  -3.4429  -3.4428  -3.4428  -3.4428  -3.4428  -3.4202  -3.4202
    -3.4198  -3.4198  -3.4196  -3.4195  -3.4084  -3.4084  -3.4084  -3.3577
    -3.3577  -3.3577  -3.2751  -3.2087  -3.2087  -3.2087  -3.1701  -3.1701
    -3.1701  -3.1421  -3.1420  -3.1418  -3.1417  -3.1415  -3.1415  -1.7349
    -1.7346  -1.7325  -1.7318  -1.7298  -1.7294  -1.2751  -0.2659  -0.2659
    -0.2654  -0.2654  -0.2643  -0.2642   0.1599   0.1608   0.1617   0.1634
     0.1644   0.1655   0.5782   0.5783   0.5788   0.5789   0.5798   0.5798
     0.9024   1.0353   1.0353   1.0354   1.5980   1.5981   1.5982   1.9442
     1.9442   1.9443   1.9961   1.9962   1.9971   1.9972   1.9984   1.9985
     2.1970   2.1971   2.1972   3.1993   3.1996   3.2004   3.2011   3.2019
     3.2023   3.6916   3.6917   3.6922   3.6923   3.6932   3.6935   3.8713
     4.2834   4.2835   4.2836   4.5679   4.5680   4.5680   5.3979   5.3980
     5.3981   5.7403   5.7411   5.7440   5.7457   5.7486   5.7497   6.3097
     6.3098   6.3098   6.3551   7.0670   7.0670   7.0677   7.0677   7.0701
     7.0703   7.2364   7.2479   7.2928   7.2929   7.2946   7.2947   7.2961
     7.2962   7.4584   7.4586   7.4596   7.4598   7.4607   7.4609   8.1109
     8.1117   8.1125   8.1140   8.1148   8.1157   8.1865   8.1866   8.1889
     8.1891   8.1916   8.1917   8.2436   8.2438   8.2441   8.2663   8.2663
     8.2668   8.2670   8.2681   8.2686   8.8512   9.0471   9.0473   9.0478
     9.0479   9.0484   9.0485   9.0656   9.0782   9.0783   9.0790   9.0791
     9.0797   9.0799   9.2992   9.2993   9.3034   9.3034   9.3086   9.3087
     9.7119   9.7120   9.7156   9.7156   9.7187   9.7188   9.7663   9.7664
     9.7681   9.7682   9.7716   9.7716   9.8713   9.8715   9.8717  10.6487
    10.6490  10.6498  10.6501  10.6510  10.6514  10.8324  10.8324  10.8334
    10.8336  10.8346  10.8347  11.0230  11.0231  11.0233  11.1581  11.1582
    11.1586  11.1591  11.1595  11.1598  11.4010  11.4012  11.4017  11.4035

     occupation numbers 
     1.0000   1.0000   1.0000   1.0000   1.0000   1.0000   1.0000   1.0000
     1.0000   1.0000   1.0000   1.0000   1.0000   1.0000   1.0000   1.0000
     1.0000   1.0000   1.0000   1.0000   1.0000   1.0000   1.0000   1.0000
     1.0000   1.0000   1.0000   1.0000   1.0000   1.0000   1.0000   1.0000
     1.0000   1.0000   1.0000   1.0000   1.0000   1.0000   1.0000   1.0000
     1.0000   1.0000   1.0000   1.0000   1.0000   1.0000   1.0000   1.0000
     1.0000   1.0000   1.0000   1.0000   1.0000   1.0000   1.0000   1.0000
     1.0000   1.0000   1.0000   1.0000   1.0000   1.0000   1.0000   1.0000
     1.0000   1.0000   1.0000   1.0000   1.0000   1.0000   1.0000   1.0000
     1.0000   1.0000   1.0000   1.0000   1.0000   1.0000   1.0000   1.0000
     1.0000   1.0000   1.0000   1.0000   1.0000   1.0000   1.0000   1.0000
     1.0000   1.0000   1.0000   1.0000   1.0000   1.0000   1.0000   1.0000
     1.0000   1.0000   1.0000   1.0000   1.0000   1.0000   1.0000   1.0000
     1.0000   1.0000   1.0000   1.0000   1.0000   1.0000   1.0000   1.0000
     1.0000   1.0000   1.0000   1.0000   1.0000   1.0000   1.0000   1.0000
     1.0000   1.0000   1.0000   1.0000   1.0000   1.0000   1.0000   1.0000
     1.0000   1.0000   1.0000   1.0000   1.0000   1.0000   1.0000   1.0000
     1.0000   1.0000   1.0000   1.0000   1.0000   1.0000   1.0000   1.0000
     1.0000   1.0000   1.0000   1.0000   1.0000   1.0000   1.0000   1.0000
     1.0000   1.0000   1.0000   1.0000   1.0000   1.0000   1.0000   1.0000
     1.0000   1.0000   1.0000   1.0000   1.0000   1.0000   1.0000   1.0000
     1.0000   1.0000   1.0000   1.0000   1.0000   1.0000   1.0000   1.0000
     1.0000   1.0000   1.0000   1.0000   1.0000   1.0000   1.0000   1.0000
     1.0000   1.0000   1.0000   1.0000   1.0000   1.0000   1.0000   1.0000
     1.0000   1.0000   1.0000   1.0000   1.0000   1.0000   1.0000   1.0000
     1.0000   1.0000   1.0000   1.0000   1.0000   1.0000   1.0000   1.0000
     1.0000   1.0000   1.0000   1.0000   1.0000   1.0000   1.0000   1.0000
     1.0000   1.0000   1.0000   1.0000   1.0000   1.0000   1.0000   1.0000
     1.0000   1.0000   1.0000   1.0000   1.0000   1.0000   1.0000   1.0000
     1.0000   1.0000   1.0000   1.0000   1.0000   1.0000   1.0000   1.0000
     1.0000   1.0000   1.0000   1.0000   1.0000   1.0000   1.0000   1.0000
     1.0000   1.0000   1.0000   1.0000   1.0000   1.0000   1.0000   1.0000
     1.0000   1.0000   1.0000   1.0000   1.0000   1.0000   1.0000   1.0000
     1.0000   1.0000   1.0000   1.0000   1.0000   1.0000   1.0000   1.0000
     1.0000   1.0000   1.0000   1.0000   1.0000   1.0000   1.0000   1.0000
     1.0000   1.0000   1.0000   1.0000   1.0000   1.0000   1.0000   1.0000
     1.0000   1.0000   1.0000   1.0000   1.0000   1.0000   1.0000   1.0000
     1.0000   1.0000   1.0000   1.0000   1.0000   1.0000   1.0000   1.0000
     1.0000   1.0000   1.0000   1.0000   1.0000   1.0000   1.0000   1.0000
     1.0000   1.0000   1.0000   1.0000   1.0000   1.0000   1.0000   1.0000
     1.0000   1.0000   1.0000   1.0000   1.0000   1.0000   1.0000   1.0000
     1.0000   1.0000   1.0000   1.0000   1.0000   1.0000   1.0000   1.0000
     1.0000   1.0000   1.0000   1.0000   1.0000   1.0000   1.0000   1.0000
     1.0000   1.0000   1.0000   1.0000   1.0000   1.0000   1.0000   1.0000
     1.0000   1.0000   1.0000   1.0000   1.0000   1.0000   1.0000   1.0000
     1.0000   1.0000   1.0000   1.0000   1.0000   1.0000   1.0000   1.0000
     1.0000   1.0000   1.0000   1.0000   1.0000   1.0000   1.0000   1.0000
     1.0000   1.0000   1.0000   1.0000   1.0000   1.0000   1.0000   1.0000
     1.0000   1.0000   1.0000   1.0000   1.0000   1.0000   1.0000   1.0000
     1.0000   1.0000   1.0000   1.0000   1.0000   1.0000   1.0000   1.0000
     1.0000   1.0000   1.0000   1.0000   1.0000   1.0000   1.0000   1.0000
     1.0000   1.0000   1.0000   1.0000   1.0000   1.0000   1.0000   1.0000
     1.0000   1.0000   1.0000   1.0000   1.0000   1.0000   1.0000   1.0000
     1.0000   1.0000   1.0000   1.0000   1.0000   1.0000   1.0000   1.0000
     1.0000   1.0000   1.0000   1.0000   1.0000   1.0000   1.0000   1.0000
     1.0000   1.0000   1.0000   1.0000   1.0000   1.0000   1.0000   1.0000
     1.0000   1.0000   1.0000   1.0000   1.0000   1.0000   1.0000   1.0000
     1.0000   1.0000   1.0000   1.0000   1.0000   1.0000   1.0000   1.0000
     1.0000   1.0000   1.0000   1.0000   1.0000   1.0000   1.0000   1.0000
     1.0000   1.0000   1.0000   1.0000   1.0000   1.0000   1.0000   1.0000
     1.0000   1.0000   1.0000   1.0000   1.0000   1.0000   1.0000   1.0000
     1.0000   1.0000   1.0000   1.0000   1.0000   1.0000   1.0000   1.0000
     1.0000   1.0000   1.0000   1.0000   1.0000   1.0000   1.0000   1.0000
     1.0000   1.0000   1.0000   1.0000   1.0000   1.0000   1.0000   1.0000
     1.0000   1.0000   1.0000   1.0000   1.0000   1.0000   1.0000   1.0000
     1.0000   1.0000   1.0000   1.0000   1.0000   1.0000   1.0000   1.0000
     1.0000   1.0000   1.0000   1.0000   1.0000   1.0000   1.0000   1.0000
     1.0000   1.0000   1.0000   1.0000   1.0000   1.0000   1.0000   1.0000
     1.0000   1.0000   1.0000   1.0000   1.0000   1.0000   1.0000   1.0000
     1.0000   1.0000   1.0000   1.0000   1.0000   1.0000   1.0000   1.0000
     1.0000   1.0000   1.0000   1.0000   1.0000   1.0000   1.0000   1.0000
     1.0000   1.0000   1.0000   1.0000   1.0000   1.0000   1.0000   1.0000
     1.0000   1.0000   1.0000   1.0000   1.0000   1.0000   1.0000   1.0000
     1.0000   1.0000   1.0000   1.0000   1.0000   1.0000   1.0000   1.0000
     1.0000   1.0000   1.0000   1.0000   1.0000   1.0000   1.0000   1.0000
     1.0000   1.0000   1.0000   1.0000   1.0000   1.0000   1.0000   1.0000
     1.0000   1.0000   1.0000   1.0000   1.0000   1.0000   1.0000   1.0000
     1.0000   1.0000   1.0000   1.0000   1.0000   1.0000   1.0000   1.0000
     1.0000   1.0000   1.0000   1.0000   1.0000   1.0000   1.0000   1.0000
     1.0000   1.0000   1.0000   1.0380   1.0381   1.0384   1.0386   1.0388
     1.0390   0.5662   0.5661   0.5647   0.5644   0.5618   0.5610   0.1626
     0.0004   0.0004   0.0004   0.0000   0.0000   0.0000   0.0000   0.0000
     0.0000   0.0000   0.0000   0.0000   0.0000   0.0000   0.0000   0.0000
     0.0000   0.0000   0.0000   0.0000   0.0000   0.0000   0.0000   0.0000
     0.0000   0.0000   0.0000   0.0000   0.0000   0.0000   0.0000   0.0000
     0.0000   0.0000   0.0000   0.0000   0.0000   0.0000   0.0000   0.0000
     0.0000   0.0000   0.0000   0.0000   0.0000   0.0000   0.0000   0.0000
     0.0000   0.0000   0.0000   0.0000   0.0000   0.0000   0.0000   0.0000
     0.0000   0.0000   0.0000   0.0000   0.0000   0.0000   0.0000   0.0000
     0.0000   0.0000   0.0000   0.0000   0.0000   0.0000   0.0000   0.0000
     0.0000   0.0000   0.0000   0.0000   0.0000   0.0000   0.0000   0.0000
     0.0000   0.0000   0.0000   0.0000   0.0000   0.0000   0.0000   0.0000
     0.0000   0.0000   0.0000   0.0000   0.0000   0.0000   0.0000   0.0000
     0.0000   0.0000   0.0000   0.0000   0.0000   0.0000   0.0000   0.0000
     0.0000   0.0000   0.0000   0.0000   0.0000   0.0000   0.0000   0.0000
     0.0000   0.0000   0.0000   0.0000   0.0000   0.0000   0.0000   0.0000

          k = 0.0000 0.3849 0.0000 ( 42150 PWs)   bands (ev):

  -123.2854-123.2843-123.2837-123.2835-123.2830-123.2827-123.2826-123.2820
  -123.2817-123.2814-123.2811-123.2808-123.2806-123.2803-123.2801-123.2795
  -123.2354-123.2343-123.2337-123.2330-123.2326-123.2323-123.2320-123.2316
  -123.2314-123.2312-123.2308-123.2305-123.2301-123.2296-123.2292-123.2288
  -123.0885-123.0868-123.0865-123.0864-123.0862-123.0861-123.0860-123.0859
  -123.0859-123.0858-123.0857-123.0856-123.0854-123.0853-123.0852-123.0850
  -123.0508-123.0495-123.0493-123.0490-123.0487-123.0486-123.0484-123.0480
  -123.0477-123.0474-123.0472-123.0470-123.0468-123.0467-123.0466-123.0462
   -77.3934 -77.3933 -77.3899 -77.3870 -77.3869 -77.3860 -77.3856 -77.3795
   -77.3795 -77.3746 -77.3722 -77.3718 -77.3714 -77.3711 -77.3710 -77.3703
   -77.3699 -77.3695 -77.3690 -77.3689 -77.3689 -77.3684 -77.3682 -77.3679
   -77.3677 -77.3673 -77.3664 -77.3662 -77.3655 -77.3653 -77.3652 -77.3650
   -77.3616 -77.3612 -77.3599 -77.3593 -77.3575 -77.3573 -77.3548 -77.3541
   -77.3537 -77.3529 -77.3526 -77.3520 -77.3517 -77.3508 -77.3504 -77.3498
   -77.3427 -77.3425 -77.3392 -77.3363 -77.3363 -77.3350 -77.3346 -77.3285
   -77.3284 -77.3239 -77.3223 -77.3214 -77.3210 -77.3202 -77.3201 -77.3200
   -77.3196 -77.3189 -77.3185 -77.3182 -77.3181 -77.3180 -77.3177 -77.3176
   -77.3173 -77.3169 -77.3158 -77.3155 -77.3150 -77.3147 -77.3143 -77.3141
   -77.3105 -77.3100 -77.3092 -77.3084 -77.3067 -77.3064 -77.3039 -77.3033
   -77.3025 -77.3020 -77.3017 -77.3013 -77.3011 -77.2999 -77.2991 -77.2987
   -77.1943 -77.1943 -77.1908 -77.1879 -77.1879 -77.1869 -77.1868 -77.1827
   -77.1826 -77.1826 -77.1812 -77.1809 -77.1805 -77.1804 -77.1804 -77.1801
   -77.1799 -77.1798 -77.1797 -77.1795 -77.1793 -77.1790 -77.1789 -77.1778
   -77.1778 -77.1756 -77.1720 -77.1720 -77.1699 -77.1699 -77.1659 -77.1659
   -77.1618 -77.1618 -77.1607 -77.1607 -77.1579 -77.1579 -77.1557 -77.1557
   -77.1549 -77.1548 -77.1546 -77.1544 -77.1540 -77.1532 -77.1524 -77.1524
   -77.1521 -77.1513 -77.1511 -77.1494 -77.1493 -77.1483 -77.1480 -77.1460
   -77.1458 -77.1456 -77.1446 -77.1442 -77.1439 -77.1434 -77.1430 -77.1428
   -77.1426 -77.1424 -77.1422 -77.1417 -77.1417 -77.1416 -77.1415 -77.1406
   -77.1405 -77.1370 -77.1333 -77.1332 -77.1313 -77.1312 -77.1273 -77.1272
   -77.1233 -77.1230 -77.1221 -77.1217 -77.1194 -77.1194 -77.1166 -77.1162
   -77.1159 -77.1153 -77.1152 -77.1145 -77.1138 -77.1135 -77.1125 -77.1124
    -6.5205  -5.9144  -5.7457  -5.3751  -5.3750  -5.2224  -5.1193  -5.0560
    -4.9745  -4.9362  -4.9362  -4.9270  -4.9135  -4.8750  -4.8749  -4.8567
    -4.8566  -4.8456  -4.8455  -4.8429  -4.8318  -4.7852  -4.7685  -4.7648
    -4.7648  -4.7365  -4.7365  -4.7305  -4.7305  -4.7071  -4.7056  -4.6849
    -4.6848  -4.6692  -4.6691  -4.6602  -4.6602  -4.6479  -4.6478  -4.6332
    -4.6332  -4.6326  -4.6163  -4.6147  -4.6147  -4.6126  -4.6126  -4.5994
    -4.5994  -4.5748  -4.5748  -4.5626  -4.5626  -4.5624  -4.5624  -4.5457
    -4.5420  -4.5420  -4.5327  -4.5326  -4.5313  -4.5302  -4.5302  -4.5012
    -4.5012  -4.4914  -4.4913  -4.4706  -4.4705  -4.4696  -4.4695  -4.4648
    -4.4647  -4.4630  -4.4153  -4.4151  -4.4148  -4.4137  -4.4134  -4.3911
    -4.3910  -4.3899  -4.3899  -4.3758  -4.3758  -4.3692  -4.3470  -4.3469
    -4.3453  -4.3453  -4.3383  -4.3382  -4.3375  -4.3374  -4.3361  -4.3145
    -4.3145  -4.3087  -4.3087  -4.3071  -4.2994  -4.2993  -4.2937  -4.2937
    -4.2934  -4.2817  -4.2817  -4.2721  -4.2689  -4.2688  -4.2622  -4.2277
    -4.2229  -4.2229  -4.2174  -4.2025  -4.2024  -4.2014  -4.2002  -4.2002
    -4.1933  -4.1932  -4.1887  -4.1879  -4.1878  -4.1868  -4.1627  -4.1627
    -4.1596  -4.1595  -4.1420  -4.1420  -4.1319  -4.1230  -4.1145  -4.1115
    -4.1114  -4.1104  -4.1104  -4.0860  -4.0859  -4.0785  -4.0785  -4.0725
    -4.0724  -4.0653  -4.0599  -4.0533  -4.0533  -4.0386  -4.0374  -4.0374
    -4.0243  -4.0210  -4.0207  -4.0198  -4.0195  -4.0161  -3.9956  -3.9956
    -3.9866  -3.9865  -3.9858  -3.9834  -3.9704  -3.9704  -3.9661  -3.9526
    -3.9412  -3.9377  -3.9376  -3.9196  -3.9178  -3.9176  -3.9152  -3.9152
    -3.9109  -3.9109  -3.9105  -3.9105  -3.9070  -3.8848  -3.8846  -3.8837
    -3.8836  -3.8808  -3.8807  -3.8746  -3.8746  -3.8645  -3.8645  -3.8606
    -3.8606  -3.8593  -3.8469  -3.8469  -3.8446  -3.8445  -3.8354  -3.8315
    -3.8315  -3.8164  -3.8164  -3.8118  -3.8118  -3.8052  -3.8011  -3.7998
    -3.7997  -3.7996  -3.7995  -3.7938  -3.7927  -3.7926  -3.7896  -3.7735
    -3.7734  -3.7725  -3.7718  -3.7718  -3.7703  -3.7693  -3.7693  -3.7672
    -3.7619  -3.7411  -3.7366  -3.7366  -3.7341  -3.7340  -3.7176  -3.7176
    -3.7075  -3.7074  -3.6822  -3.6822  -3.6821  -3.6811  -3.6792  -3.6791
    -3.6759  -3.6750  -3.6732  -3.6732  -3.6723  -3.6723  -3.6639  -3.6639
    -3.6569  -3.6483  -3.6483  -3.6472  -3.6472  -3.6452  -3.6452  -3.6426
    -3.6405  -3.6404  -3.6369  -3.6368  -3.6316  -3.6190  -3.6190  -3.6157
    -3.6157  -3.6050  -3.5936  -3.5936  -3.5883  -3.5883  -3.5878  -3.5878
    -3.5826  -3.5637  -3.5614  -3.5570  -3.5542  -3.5541  -3.5539  -3.5500
    -3.5498  -3.5498  -3.5497  -3.5492  -3.5490  -3.5369  -3.5311  -3.5311
    -3.5264  -3.5264  -3.5247  -3.5247  -3.5247  -3.5221  -3.5216  -3.5215
    -3.5195  -3.5033  -3.4987  -3.4987  -3.4913  -3.4913  -3.4903  -3.4817
    -3.4817  -3.4719  -3.4633  -3.4485  -3.4485  -3.4369  -3.4369  -3.4257
    -3.4257  -3.4170  -3.4136  -3.4120  -3.4118  -3.3970  -3.3969  -3.3792
    -3.3107  -3.3107  -3.3029  -3.3029  -3.2654  -3.2654  -3.2652  -3.2268
    -3.1073  -3.1071  -3.0397  -2.7415  -2.5583  -2.4148  -2.4148  -2.0646
    -2.0645  -1.9321  -1.9321  -1.9021  -1.1387  -1.1386  -1.1218  -0.9628
    -0.9627  -0.8990  -0.6600  -0.4069  -0.1705  -0.1705  -0.1129  -0.1129
    -0.0578   0.2931   0.2932   0.3846   0.3847   0.7285   0.7285   0.8881
     0.8882   1.1864   1.1876   1.1876   1.3439   1.4157   1.8286   1.8286
     1.9845   2.0680   2.0682   2.1231   2.1232   2.3740   2.3741   2.6758
     2.6759   2.7286   2.7287   2.8034   2.8035   2.8609   3.6708   3.6709
     3.9696   3.9697   4.0825   4.1152   4.1155   4.2703   4.2704   4.5074
     4.5074   4.7138   4.7616   4.8673   4.9179   4.9180   5.3376   5.3378
     5.3519   5.3520   5.4271   5.4272   5.5067   5.5083   5.5120   5.6211
     5.6211   5.9775   5.9777   6.0691   6.0691   6.3816   6.5489   6.5524
     6.5551   6.7726   6.7727   6.9361   6.9362   7.0515   7.0516   7.0740
     7.1238   7.1410   7.2812   7.2813   7.4385   7.4525   7.6924   7.6937
     7.7080   7.7094   7.7105   7.7287   7.7290   7.8518   7.8519   7.8703
     7.8705   8.0442   8.0654   8.2546   8.2550   8.2555   8.4961   8.4962
     8.5522   8.6485   8.6486   8.6762   8.6762   8.8655   8.8656   8.9023
     8.9024   8.9973   8.9974   9.0569   9.1252   9.1253   9.2666   9.3233
     9.3809   9.3810   9.4266   9.4889   9.4890   9.6698   9.8396   9.8396
     9.8581   9.8583   9.8591   9.8593   9.8674   9.9256   9.9257  10.0269
    10.0269  10.1344  10.1791  10.1793  10.2759  10.2760  10.4393  10.4394
    10.4632  10.4632  10.5262  10.5696  10.6020  10.6021  10.7061  10.7062
    10.8497  10.8500  10.8627  10.8631  10.9078  10.9079  11.0911  11.0911
    11.1324  11.1325  11.3101  11.4068  11.4698  11.4700  11.5544  11.5544

     occupation numbers 
     1.0000   1.0000   1.0000   1.0000   1.0000   1.0000   1.0000   1.0000
     1.0000   1.0000   1.0000   1.0000   1.0000   1.0000   1.0000   1.0000
     1.0000   1.0000   1.0000   1.0000   1.0000   1.0000   1.0000   1.0000
     1.0000   1.0000   1.0000   1.0000   1.0000   1.0000   1.0000   1.0000
     1.0000   1.0000   1.0000   1.0000   1.0000   1.0000   1.0000   1.0000
     1.0000   1.0000   1.0000   1.0000   1.0000   1.0000   1.0000   1.0000
     1.0000   1.0000   1.0000   1.0000   1.0000   1.0000   1.0000   1.0000
     1.0000   1.0000   1.0000   1.0000   1.0000   1.0000   1.0000   1.0000
     1.0000   1.0000   1.0000   1.0000   1.0000   1.0000   1.0000   1.0000
     1.0000   1.0000   1.0000   1.0000   1.0000   1.0000   1.0000   1.0000
     1.0000   1.0000   1.0000   1.0000   1.0000   1.0000   1.0000   1.0000
     1.0000   1.0000   1.0000   1.0000   1.0000   1.0000   1.0000   1.0000
     1.0000   1.0000   1.0000   1.0000   1.0000   1.0000   1.0000   1.0000
     1.0000   1.0000   1.0000   1.0000   1.0000   1.0000   1.0000   1.0000
     1.0000   1.0000   1.0000   1.0000   1.0000   1.0000   1.0000   1.0000
     1.0000   1.0000   1.0000   1.0000   1.0000   1.0000   1.0000   1.0000
     1.0000   1.0000   1.0000   1.0000   1.0000   1.0000   1.0000   1.0000
     1.0000   1.0000   1.0000   1.0000   1.0000   1.0000   1.0000   1.0000
     1.0000   1.0000   1.0000   1.0000   1.0000   1.0000   1.0000   1.0000
     1.0000   1.0000   1.0000   1.0000   1.0000   1.0000   1.0000   1.0000
     1.0000   1.0000   1.0000   1.0000   1.0000   1.0000   1.0000   1.0000
     1.0000   1.0000   1.0000   1.0000   1.0000   1.0000   1.0000   1.0000
     1.0000   1.0000   1.0000   1.0000   1.0000   1.0000   1.0000   1.0000
     1.0000   1.0000   1.0000   1.0000   1.0000   1.0000   1.0000   1.0000
     1.0000   1.0000   1.0000   1.0000   1.0000   1.0000   1.0000   1.0000
     1.0000   1.0000   1.0000   1.0000   1.0000   1.0000   1.0000   1.0000
     1.0000   1.0000   1.0000   1.0000   1.0000   1.0000   1.0000   1.0000
     1.0000   1.0000   1.0000   1.0000   1.0000   1.0000   1.0000   1.0000
     1.0000   1.0000   1.0000   1.0000   1.0000   1.0000   1.0000   1.0000
     1.0000   1.0000   1.0000   1.0000   1.0000   1.0000   1.0000   1.0000
     1.0000   1.0000   1.0000   1.0000   1.0000   1.0000   1.0000   1.0000
     1.0000   1.0000   1.0000   1.0000   1.0000   1.0000   1.0000   1.0000
     1.0000   1.0000   1.0000   1.0000   1.0000   1.0000   1.0000   1.0000
     1.0000   1.0000   1.0000   1.0000   1.0000   1.0000   1.0000   1.0000
     1.0000   1.0000   1.0000   1.0000   1.0000   1.0000   1.0000   1.0000
     1.0000   1.0000   1.0000   1.0000   1.0000   1.0000   1.0000   1.0000
     1.0000   1.0000   1.0000   1.0000   1.0000   1.0000   1.0000   1.0000
     1.0000   1.0000   1.0000   1.0000   1.0000   1.0000   1.0000   1.0000
     1.0000   1.0000   1.0000   1.0000   1.0000   1.0000   1.0000   1.0000
     1.0000   1.0000   1.0000   1.0000   1.0000   1.0000   1.0000   1.0000
     1.0000   1.0000   1.0000   1.0000   1.0000   1.0000   1.0000   1.0000
     1.0000   1.0000   1.0000   1.0000   1.0000   1.0000   1.0000   1.0000
     1.0000   1.0000   1.0000   1.0000   1.0000   1.0000   1.0000   1.0000
     1.0000   1.0000   1.0000   1.0000   1.0000   1.0000   1.0000   1.0000
     1.0000   1.0000   1.0000   1.0000   1.0000   1.0000   1.0000   1.0000
     1.0000   1.0000   1.0000   1.0000   1.0000   1.0000   1.0000   1.0000
     1.0000   1.0000   1.0000   1.0000   1.0000   1.0000   1.0000   1.0000
     1.0000   1.0000   1.0000   1.0000   1.0000   1.0000   1.0000   1.0000
     1.0000   1.0000   1.0000   1.0000   1.0000   1.0000   1.0000   1.0000
     1.0000   1.0000   1.0000   1.0000   1.0000   1.0000   1.0000   1.0000
     1.0000   1.0000   1.0000   1.0000   1.0000   1.0000   1.0000   1.0000
     1.0000   1.0000   1.0000   1.0000   1.0000   1.0000   1.0000   1.0000
     1.0000   1.0000   1.0000   1.0000   1.0000   1.0000   1.0000   1.0000
     1.0000   1.0000   1.0000   1.0000   1.0000   1.0000   1.0000   1.0000
     1.0000   1.0000   1.0000   1.0000   1.0000   1.0000   1.0000   1.0000
     1.0000   1.0000   1.0000   1.0000   1.0000   1.0000   1.0000   1.0000
     1.0000   1.0000   1.0000   1.0000   1.0000   1.0000   1.0000   1.0000
     1.0000   1.0000   1.0000   1.0000   1.0000   1.0000   1.0000   1.0000
     1.0000   1.0000   1.0000   1.0000   1.0000   1.0000   1.0000   1.0000
     1.0000   1.0000   1.0000   1.0000   1.0000   1.0000   1.0000   1.0000
     1.0000   1.0000   1.0000   1.0000   1.0000   1.0000   1.0000   1.0000
     1.0000   1.0000   1.0000   1.0000   1.0000   1.0000   1.0000   1.0000
     1.0000   1.0000   1.0000   1.0000   1.0000   1.0000   1.0000   1.0000
     1.0000   1.0000   1.0000   1.0000   1.0000   1.0000   1.0000   1.0000
     1.0000   1.0000   1.0000   1.0000   1.0000   1.0000   1.0000   1.0000
     1.0000   1.0000   1.0000   1.0000   1.0000   1.0000   1.0000   1.0000
     1.0000   1.0000   1.0000   1.0000   1.0000   1.0000   1.0000   1.0000
     1.0000   1.0000   1.0000   1.0000   1.0000   1.0000   1.0000   1.0000
     1.0000   1.0000   1.0000   1.0000   1.0000   1.0000   1.0000   1.0000
     1.0000   1.0000   1.0000   1.0000   1.0000   1.0000   1.0000   1.0000
     1.0000   1.0000   1.0000   1.0000   1.0000   1.0000   1.0000   1.0000
     1.0000   1.0000   1.0000   1.0000   1.0000   1.0000   1.0000   1.0000
     1.0000   1.0000   1.0000   1.0000   1.0000   1.0000   1.0000   1.0000
     1.0000   1.0000   1.0000   1.0000   1.0000   1.0000   1.0000   1.0000
     1.0000   1.0000   1.0000   1.0000   1.0000   1.0000   1.0000   1.0000
     1.0000   1.0000   1.0000   1.0000   1.0000   1.0000   1.0000   1.0000
     1.0000   1.0000   1.0000   1.0000   1.0000   1.0000   1.0000   1.0000
     1.0000   1.0000   1.0000   1.0000   1.0000   1.0000   1.0000   1.0000
     1.0000   1.0000   1.0000   1.0000   1.0000   1.0000   1.0000   1.0000
     1.0000   1.0000   1.0000   1.0001   1.0001   1.0004   0.6238   0.6237
     0.0589   0.0588   0.0136   0.0083   0.0083   0.0006   0.0006   0.0000
     0.0000   0.0000   0.0000   0.0000   0.0000   0.0000   0.0000   0.0000
     0.0000   0.0000   0.0000   0.0000   0.0000   0.0000   0.0000   0.0000
     0.0000   0.0000   0.0000   0.0000   0.0000   0.0000   0.0000   0.0000
     0.0000   0.0000   0.0000   0.0000   0.0000   0.0000   0.0000   0.0000
     0.0000   0.0000   0.0000   0.0000   0.0000   0.0000   0.0000   0.0000
     0.0000   0.0000   0.0000   0.0000   0.0000   0.0000   0.0000   0.0000
     0.0000   0.0000   0.0000   0.0000   0.0000   0.0000   0.0000   0.0000
     0.0000   0.0000   0.0000   0.0000   0.0000   0.0000   0.0000   0.0000
     0.0000   0.0000   0.0000   0.0000   0.0000   0.0000   0.0000   0.0000
     0.0000   0.0000   0.0000   0.0000   0.0000   0.0000   0.0000   0.0000
     0.0000   0.0000   0.0000   0.0000   0.0000   0.0000   0.0000   0.0000
     0.0000   0.0000   0.0000   0.0000   0.0000   0.0000   0.0000   0.0000
     0.0000   0.0000   0.0000   0.0000   0.0000   0.0000   0.0000   0.0000
     0.0000   0.0000   0.0000   0.0000   0.0000   0.0000   0.0000   0.0000
     0.0000   0.0000   0.0000   0.0000   0.0000   0.0000   0.0000   0.0000

          k = 0.3333 0.1925 0.0000 ( 42150 PWs)   bands (ev):

  -123.2854-123.2842-123.2838-123.2835-123.2830-123.2827-123.2826-123.2819
  -123.2817-123.2814-123.2811-123.2808-123.2807-123.2803-123.2801-123.2795
  -123.2354-123.2343-123.2337-123.2330-123.2326-123.2323-123.2321-123.2316
  -123.2314-123.2312-123.2308-123.2305-123.2300-123.2296-123.2292-123.2288
  -123.0885-123.0868-123.0864-123.0864-123.0863-123.0861-123.0860-123.0859
  -123.0859-123.0858-123.0857-123.0856-123.0854-123.0853-123.0852-123.0850
  -123.0508-123.0494-123.0493-123.0489-123.0487-123.0486-123.0483-123.0480
  -123.0477-123.0474-123.0472-123.0470-123.0469-123.0467-123.0466-123.0462
   -77.3934 -77.3934 -77.3899 -77.3869 -77.3869 -77.3860 -77.3856 -77.3796
   -77.3795 -77.3746 -77.3722 -77.3718 -77.3715 -77.3711 -77.3710 -77.3702
   -77.3698 -77.3697 -77.3690 -77.3689 -77.3689 -77.3684 -77.3681 -77.3679
   -77.3676 -77.3672 -77.3666 -77.3662 -77.3656 -77.3652 -77.3652 -77.3650
   -77.3616 -77.3611 -77.3599 -77.3593 -77.3575 -77.3573 -77.3549 -77.3540
   -77.3538 -77.3529 -77.3527 -77.3520 -77.3517 -77.3507 -77.3504 -77.3499
   -77.3427 -77.3426 -77.3392 -77.3362 -77.3362 -77.3351 -77.3346 -77.3285
   -77.3285 -77.3238 -77.3223 -77.3215 -77.3210 -77.3202 -77.3201 -77.3198
   -77.3197 -77.3191 -77.3183 -77.3181 -77.3181 -77.3180 -77.3178 -77.3176
   -77.3171 -77.3169 -77.3159 -77.3155 -77.3150 -77.3146 -77.3144 -77.3141
   -77.3105 -77.3098 -77.3093 -77.3083 -77.3067 -77.3065 -77.3039 -77.3032
   -77.3026 -77.3021 -77.3018 -77.3012 -77.3011 -77.2999 -77.2990 -77.2988
   -77.1943 -77.1943 -77.1908 -77.1879 -77.1879 -77.1869 -77.1868 -77.1827
   -77.1826 -77.1826 -77.1812 -77.1809 -77.1804 -77.1804 -77.1804 -77.1800
   -77.1799 -77.1798 -77.1797 -77.1795 -77.1793 -77.1790 -77.1789 -77.1778
   -77.1778 -77.1756 -77.1720 -77.1720 -77.1699 -77.1699 -77.1659 -77.1659
   -77.1618 -77.1618 -77.1607 -77.1607 -77.1579 -77.1579 -77.1557 -77.1557
   -77.1549 -77.1548 -77.1546 -77.1544 -77.1540 -77.1532 -77.1524 -77.1524
   -77.1521 -77.1513 -77.1511 -77.1493 -77.1493 -77.1483 -77.1480 -77.1460
   -77.1458 -77.1457 -77.1445 -77.1442 -77.1439 -77.1434 -77.1430 -77.1429
   -77.1426 -77.1424 -77.1421 -77.1418 -77.1417 -77.1417 -77.1415 -77.1406
   -77.1404 -77.1370 -77.1333 -77.1332 -77.1312 -77.1312 -77.1274 -77.1272
   -77.1233 -77.1230 -77.1222 -77.1217 -77.1194 -77.1194 -77.1167 -77.1162
   -77.1160 -77.1154 -77.1152 -77.1145 -77.1138 -77.1134 -77.1125 -77.1124
    -6.5205  -5.9144  -5.7457  -5.3751  -5.3751  -5.2224  -5.1193  -5.0561
    -4.9745  -4.9362  -4.9362  -4.9270  -4.9135  -4.8750  -4.8749  -4.8567
    -4.8566  -4.8455  -4.8455  -4.8429  -4.8318  -4.7852  -4.7685  -4.7648
    -4.7648  -4.7365  -4.7365  -4.7305  -4.7305  -4.7071  -4.7056  -4.6849
    -4.6848  -4.6692  -4.6691  -4.6602  -4.6602  -4.6479  -4.6478  -4.6332
    -4.6332  -4.6326  -4.6163  -4.6147  -4.6147  -4.6127  -4.6126  -4.5994
    -4.5994  -4.5748  -4.5748  -4.5629  -4.5628  -4.5622  -4.5622  -4.5457
    -4.5420  -4.5420  -4.5327  -4.5326  -4.5313  -4.5302  -4.5302  -4.5012
    -4.5012  -4.4914  -4.4914  -4.4706  -4.4704  -4.4696  -4.4695  -4.4648
    -4.4647  -4.4630  -4.4153  -4.4151  -4.4148  -4.4137  -4.4134  -4.3911
    -4.3911  -4.3899  -4.3898  -4.3758  -4.3758  -4.3692  -4.3470  -4.3469
    -4.3453  -4.3453  -4.3383  -4.3382  -4.3375  -4.3375  -4.3361  -4.3145
    -4.3145  -4.3087  -4.3087  -4.3071  -4.2994  -4.2993  -4.2937  -4.2937
    -4.2934  -4.2817  -4.2817  -4.2721  -4.2689  -4.2688  -4.2622  -4.2277
    -4.2229  -4.2229  -4.2174  -4.2025  -4.2024  -4.2014  -4.2002  -4.2002
    -4.1933  -4.1932  -4.1887  -4.1879  -4.1878  -4.1868  -4.1627  -4.1627
    -4.1595  -4.1595  -4.1420  -4.1420  -4.1319  -4.1230  -4.1145  -4.1115
    -4.1114  -4.1104  -4.1104  -4.0859  -4.0859  -4.0785  -4.0785  -4.0724
    -4.0724  -4.0653  -4.0599  -4.0533  -4.0533  -4.0386  -4.0374  -4.0374
    -4.0243  -4.0210  -4.0206  -4.0199  -4.0195  -4.0161  -3.9956  -3.9955
    -3.9866  -3.9865  -3.9858  -3.9834  -3.9704  -3.9704  -3.9661  -3.9526
    -3.9412  -3.9377  -3.9376  -3.9195  -3.9178  -3.9176  -3.9152  -3.9152
    -3.9109  -3.9109  -3.9105  -3.9105  -3.9070  -3.8848  -3.8847  -3.8837
    -3.8836  -3.8808  -3.8807  -3.8746  -3.8746  -3.8645  -3.8645  -3.8606
    -3.8606  -3.8593  -3.8469  -3.8469  -3.8446  -3.8445  -3.8354  -3.8315
    -3.8315  -3.8164  -3.8164  -3.8118  -3.8118  -3.8052  -3.8011  -3.7999
    -3.7998  -3.7995  -3.7994  -3.7938  -3.7927  -3.7926  -3.7896  -3.7735
    -3.7734  -3.7724  -3.7719  -3.7718  -3.7703  -3.7693  -3.7693  -3.7672
    -3.7619  -3.7411  -3.7366  -3.7366  -3.7341  -3.7340  -3.7176  -3.7176
    -3.7075  -3.7074  -3.6822  -3.6822  -3.6821  -3.6811  -3.6792  -3.6791
    -3.6759  -3.6750  -3.6732  -3.6732  -3.6723  -3.6723  -3.6639  -3.6639
    -3.6569  -3.6483  -3.6482  -3.6472  -3.6472  -3.6452  -3.6452  -3.6426
    -3.6405  -3.6404  -3.6369  -3.6368  -3.6316  -3.6190  -3.6190  -3.6157
    -3.6157  -3.6050  -3.5936  -3.5936  -3.5883  -3.5883  -3.5878  -3.5878
    -3.5826  -3.5637  -3.5614  -3.5570  -3.5541  -3.5541  -3.5539  -3.5500
    -3.5498  -3.5498  -3.5497  -3.5492  -3.5490  -3.5369  -3.5311  -3.5311
    -3.5264  -3.5264  -3.5247  -3.5247  -3.5247  -3.5221  -3.5216  -3.5216
    -3.5195  -3.5033  -3.4987  -3.4987  -3.4913  -3.4913  -3.4903  -3.4817
    -3.4817  -3.4719  -3.4633  -3.4485  -3.4485  -3.4369  -3.4369  -3.4257
    -3.4257  -3.4170  -3.4136  -3.4120  -3.4118  -3.3970  -3.3969  -3.3792
    -3.3107  -3.3107  -3.3029  -3.3029  -3.2654  -3.2654  -3.2652  -3.2268
    -3.1072  -3.1072  -3.0397  -2.7415  -2.5583  -2.4148  -2.4148  -2.0646
    -2.0646  -1.9321  -1.9321  -1.9021  -1.1387  -1.1386  -1.1218  -0.9628
    -0.9627  -0.8990  -0.6600  -0.4069  -0.1705  -0.1705  -0.1129  -0.1129
    -0.0578   0.2932   0.2932   0.3846   0.3847   0.7285   0.7285   0.8881
     0.8882   1.1864   1.1876   1.1876   1.3439   1.4157   1.8286   1.8286
     1.9845   2.0680   2.0682   2.1231   2.1231   2.3740   2.3741   2.6759
     2.6759   2.7287   2.7287   2.8034   2.8035   2.8609   3.6708   3.6709
     3.9697   3.9697   4.0824   4.1152   4.1155   4.2703   4.2703   4.5074
     4.5074   4.7138   4.7616   4.8673   4.9179   4.9180   5.3376   5.3378
     5.3519   5.3520   5.4271   5.4271   5.5066   5.5083   5.5121   5.6211
     5.6211   5.9775   5.9777   6.0691   6.0691   6.3816   6.5491   6.5523
     6.5550   6.7727   6.7727   6.9361   6.9363   7.0515   7.0516   7.0740
     7.1238   7.1410   7.2812   7.2813   7.4386   7.4525   7.6924   7.6936
     7.7080   7.7095   7.7105   7.7287   7.7290   7.8518   7.8519   7.8703
     7.8704   8.0442   8.0654   8.2548   8.2550   8.2552   8.4961   8.4962
     8.5522   8.6485   8.6486   8.6762   8.6762   8.8654   8.8656   8.9023
     8.9024   8.9973   8.9973   9.0569   9.1252   9.1253   9.2666   9.3233
     9.3809   9.3810   9.4266   9.4889   9.4890   9.6698   9.8396   9.8397
     9.8581   9.8583   9.8590   9.8593   9.8674   9.9256   9.9257  10.0269
    10.0269  10.1344  10.1791  10.1793  10.2759  10.2760  10.4393  10.4394
    10.4632  10.4632  10.5262  10.5695  10.6020  10.6021  10.7061  10.7062
    10.8497  10.8501  10.8627  10.8631  10.9078  10.9080  11.0911  11.0911
    11.1324  11.1325  11.3100  11.4068  11.4069  11.4698  11.4700  11.5545

     occupation numbers 
     1.0000   1.0000   1.0000   1.0000   1.0000   1.0000   1.0000   1.0000
     1.0000   1.0000   1.0000   1.0000   1.0000   1.0000   1.0000   1.0000
     1.0000   1.0000   1.0000   1.0000   1.0000   1.0000   1.0000   1.0000
     1.0000   1.0000   1.0000   1.0000   1.0000   1.0000   1.0000   1.0000
     1.0000   1.0000   1.0000   1.0000   1.0000   1.0000   1.0000   1.0000
     1.0000   1.0000   1.0000   1.0000   1.0000   1.0000   1.0000   1.0000
     1.0000   1.0000   1.0000   1.0000   1.0000   1.0000   1.0000   1.0000
     1.0000   1.0000   1.0000   1.0000   1.0000   1.0000   1.0000   1.0000
     1.0000   1.0000   1.0000   1.0000   1.0000   1.0000   1.0000   1.0000
     1.0000   1.0000   1.0000   1.0000   1.0000   1.0000   1.0000   1.0000
     1.0000   1.0000   1.0000   1.0000   1.0000   1.0000   1.0000   1.0000
     1.0000   1.0000   1.0000   1.0000   1.0000   1.0000   1.0000   1.0000
     1.0000   1.0000   1.0000   1.0000   1.0000   1.0000   1.0000   1.0000
     1.0000   1.0000   1.0000   1.0000   1.0000   1.0000   1.0000   1.0000
     1.0000   1.0000   1.0000   1.0000   1.0000   1.0000   1.0000   1.0000
     1.0000   1.0000   1.0000   1.0000   1.0000   1.0000   1.0000   1.0000
     1.0000   1.0000   1.0000   1.0000   1.0000   1.0000   1.0000   1.0000
     1.0000   1.0000   1.0000   1.0000   1.0000   1.0000   1.0000   1.0000
     1.0000   1.0000   1.0000   1.0000   1.0000   1.0000   1.0000   1.0000
     1.0000   1.0000   1.0000   1.0000   1.0000   1.0000   1.0000   1.0000
     1.0000   1.0000   1.0000   1.0000   1.0000   1.0000   1.0000   1.0000
     1.0000   1.0000   1.0000   1.0000   1.0000   1.0000   1.0000   1.0000
     1.0000   1.0000   1.0000   1.0000   1.0000   1.0000   1.0000   1.0000
     1.0000   1.0000   1.0000   1.0000   1.0000   1.0000   1.0000   1.0000
     1.0000   1.0000   1.0000   1.0000   1.0000   1.0000   1.0000   1.0000
     1.0000   1.0000   1.0000   1.0000   1.0000   1.0000   1.0000   1.0000
     1.0000   1.0000   1.0000   1.0000   1.0000   1.0000   1.0000   1.0000
     1.0000   1.0000   1.0000   1.0000   1.0000   1.0000   1.0000   1.0000
     1.0000   1.0000   1.0000   1.0000   1.0000   1.0000   1.0000   1.0000
     1.0000   1.0000   1.0000   1.0000   1.0000   1.0000   1.0000   1.0000
     1.0000   1.0000   1.0000   1.0000   1.0000   1.0000   1.0000   1.0000
     1.0000   1.0000   1.0000   1.0000   1.0000   1.0000   1.0000   1.0000
     1.0000   1.0000   1.0000   1.0000   1.0000   1.0000   1.0000   1.0000
     1.0000   1.0000   1.0000   1.0000   1.0000   1.0000   1.0000   1.0000
     1.0000   1.0000   1.0000   1.0000   1.0000   1.0000   1.0000   1.0000
     1.0000   1.0000   1.0000   1.0000   1.0000   1.0000   1.0000   1.0000
     1.0000   1.0000   1.0000   1.0000   1.0000   1.0000   1.0000   1.0000
     1.0000   1.0000   1.0000   1.0000   1.0000   1.0000   1.0000   1.0000
     1.0000   1.0000   1.0000   1.0000   1.0000   1.0000   1.0000   1.0000
     1.0000   1.0000   1.0000   1.0000   1.0000   1.0000   1.0000   1.0000
     1.0000   1.0000   1.0000   1.0000   1.0000   1.0000   1.0000   1.0000
     1.0000   1.0000   1.0000   1.0000   1.0000   1.0000   1.0000   1.0000
     1.0000   1.0000   1.0000   1.0000   1.0000   1.0000   1.0000   1.0000
     1.0000   1.0000   1.0000   1.0000   1.0000   1.0000   1.0000   1.0000
     1.0000   1.0000   1.0000   1.0000   1.0000   1.0000   1.0000   1.0000
     1.0000   1.0000   1.0000   1.0000   1.0000   1.0000   1.0000   1.0000
     1.0000   1.0000   1.0000   1.0000   1.0000   1.0000   1.0000   1.0000
     1.0000   1.0000   1.0000   1.0000   1.0000   1.0000   1.0000   1.0000
     1.0000   1.0000   1.0000   1.0000   1.0000   1.0000   1.0000   1.0000
     1.0000   1.0000   1.0000   1.0000   1.0000   1.0000   1.0000   1.0000
     1.0000   1.0000   1.0000   1.0000   1.0000   1.0000   1.0000   1.0000
     1.0000   1.0000   1.0000   1.0000   1.0000   1.0000   1.0000   1.0000
     1.0000   1.0000   1.0000   1.0000   1.0000   1.0000   1.0000   1.0000
     1.0000   1.0000   1.0000   1.0000   1.0000   1.0000   1.0000   1.0000
     1.0000   1.0000   1.0000   1.0000   1.0000   1.0000   1.0000   1.0000
     1.0000   1.0000   1.0000   1.0000   1.0000   1.0000   1.0000   1.0000
     1.0000   1.0000   1.0000   1.0000   1.0000   1.0000   1.0000   1.0000
     1.0000   1.0000   1.0000   1.0000   1.0000   1.0000   1.0000   1.0000
     1.0000   1.0000   1.0000   1.0000   1.0000   1.0000   1.0000   1.0000
     1.0000   1.0000   1.0000   1.0000   1.0000   1.0000   1.0000   1.0000
     1.0000   1.0000   1.0000   1.0000   1.0000   1.0000   1.0000   1.0000
     1.0000   1.0000   1.0000   1.0000   1.0000   1.0000   1.0000   1.0000
     1.0000   1.0000   1.0000   1.0000   1.0000   1.0000   1.0000   1.0000
     1.0000   1.0000   1.0000   1.0000   1.0000   1.0000   1.0000   1.0000
     1.0000   1.0000   1.0000   1.0000   1.0000   1.0000   1.0000   1.0000
     1.0000   1.0000   1.0000   1.0000   1.0000   1.0000   1.0000   1.0000
     1.0000   1.0000   1.0000   1.0000   1.0000   1.0000   1.0000   1.0000
     1.0000   1.0000   1.0000   1.0000   1.0000   1.0000   1.0000   1.0000
     1.0000   1.0000   1.0000   1.0000   1.0000   1.0000   1.0000   1.0000
     1.0000   1.0000   1.0000   1.0000   1.0000   1.0000   1.0000   1.0000
     1.0000   1.0000   1.0000   1.0000   1.0000   1.0000   1.0000   1.0000
     1.0000   1.0000   1.0000   1.0000   1.0000   1.0000   1.0000   1.0000
     1.0000   1.0000   1.0000   1.0000   1.0000   1.0000   1.0000   1.0000
     1.0000   1.0000   1.0000   1.0000   1.0000   1.0000   1.0000   1.0000
     1.0000   1.0000   1.0000   1.0000   1.0000   1.0000   1.0000   1.0000
     1.0000   1.0000   1.0000   1.0000   1.0000   1.0000   1.0000   1.0000
     1.0000   1.0000   1.0000   1.0000   1.0000   1.0000   1.0000   1.0000
     1.0000   1.0000   1.0000   1.0000   1.0000   1.0000   1.0000   1.0000
     1.0000   1.0000   1.0000   1.0000   1.0000   1.0000   1.0000   1.0000
     1.0000   1.0000   1.0000   1.0001   1.0001   1.0004   0.6238   0.6237
     0.0588   0.0588   0.0136   0.0083   0.0083   0.0006   0.0006   0.0000
     0.0000   0.0000   0.0000   0.0000   0.0000   0.0000   0.0000   0.0000
     0.0000   0.0000   0.0000   0.0000   0.0000   0.0000   0.0000   0.0000
     0.0000   0.0000   0.0000   0.0000   0.0000   0.0000   0.0000   0.0000
     0.0000   0.0000   0.0000   0.0000   0.0000   0.0000   0.0000   0.0000
     0.0000   0.0000   0.0000   0.0000   0.0000   0.0000   0.0000   0.0000
     0.0000   0.0000   0.0000   0.0000   0.0000   0.0000   0.0000   0.0000
     0.0000   0.0000   0.0000   0.0000   0.0000   0.0000   0.0000   0.0000
     0.0000   0.0000   0.0000   0.0000   0.0000   0.0000   0.0000   0.0000
     0.0000   0.0000   0.0000   0.0000   0.0000   0.0000   0.0000   0.0000
     0.0000   0.0000   0.0000   0.0000   0.0000   0.0000   0.0000   0.0000
     0.0000   0.0000   0.0000   0.0000   0.0000   0.0000   0.0000   0.0000
     0.0000   0.0000   0.0000   0.0000   0.0000   0.0000   0.0000   0.0000
     0.0000   0.0000   0.0000   0.0000   0.0000   0.0000   0.0000   0.0000
     0.0000   0.0000   0.0000   0.0000   0.0000   0.0000   0.0000   0.0000
     0.0000   0.0000   0.0000   0.0000   0.0000   0.0000   0.0000   0.0000

          k = 0.3333 0.5774 0.0000 ( 42123 PWs)   bands (ev):

  -123.2849-123.2843-123.2837-123.2836-123.2830-123.2827-123.2826-123.2819
  -123.2816-123.2814-123.2812-123.2808-123.2806-123.2801-123.2800-123.2793
  -123.2351-123.2342-123.2337-123.2328-123.2327-123.2324-123.2320-123.2316
  -123.2314-123.2313-123.2307-123.2304-123.2301-123.2295-123.2292-123.2285
  -123.0875-123.0872-123.0869-123.0866-123.0864-123.0863-123.0862-123.0860
  -123.0858-123.0857-123.0855-123.0855-123.0852-123.0851-123.0851-123.0845
  -123.0502-123.0496-123.0494-123.0490-123.0488-123.0485-123.0484-123.0478
  -123.0477-123.0475-123.0473-123.0470-123.0468-123.0465-123.0464-123.0459
   -77.3908 -77.3903 -77.3898 -77.3833 -77.3830 -77.3825 -77.3824 -77.3816
   -77.3814 -77.3763 -77.3758 -77.3730 -77.3722 -77.3713 -77.3711 -77.3708
   -77.3706 -77.3705 -77.3698 -77.3698 -77.3689 -77.3683 -77.3679 -77.3675
   -77.3671 -77.3665 -77.3663 -77.3659 -77.3651 -77.3650 -77.3649 -77.3649
   -77.3643 -77.3596 -77.3594 -77.3593 -77.3569 -77.3562 -77.3557 -77.3554
   -77.3552 -77.3548 -77.3545 -77.3542 -77.3537 -77.3468 -77.3464 -77.3459
   -77.3400 -77.3394 -77.3388 -77.3326 -77.3324 -77.3317 -77.3315 -77.3306
   -77.3305 -77.3253 -77.3249 -77.3231 -77.3222 -77.3211 -77.3208 -77.3202
   -77.3201 -77.3197 -77.3196 -77.3190 -77.3188 -77.3180 -77.3172 -77.3170
   -77.3164 -77.3162 -77.3158 -77.3152 -77.3142 -77.3140 -77.3138 -77.3137
   -77.3134 -77.3086 -77.3083 -77.3082 -77.3064 -77.3055 -77.3047 -77.3046
   -77.3042 -77.3040 -77.3038 -77.3034 -77.3026 -77.2961 -77.2956 -77.2950
   -77.1913 -77.1912 -77.1910 -77.1836 -77.1836 -77.1834 -77.1834 -77.1832
   -77.1831 -77.1830 -77.1828 -77.1826 -77.1825 -77.1824 -77.1821 -77.1795
   -77.1794 -77.1792 -77.1791 -77.1789 -77.1789 -77.1781 -77.1779 -77.1776
   -77.1771 -77.1770 -77.1762 -77.1714 -77.1712 -77.1711 -77.1657 -77.1657
   -77.1657 -77.1600 -77.1600 -77.1600 -77.1567 -77.1567 -77.1565 -77.1564
   -77.1563 -77.1563 -77.1555 -77.1554 -77.1552 -77.1530 -77.1526 -77.1522
   -77.1474 -77.1473 -77.1471 -77.1470 -77.1465 -77.1459 -77.1457 -77.1456
   -77.1455 -77.1452 -77.1450 -77.1448 -77.1446 -77.1441 -77.1438 -77.1430
   -77.1427 -77.1423 -77.1422 -77.1419 -77.1416 -77.1412 -77.1409 -77.1403
   -77.1392 -77.1384 -77.1383 -77.1330 -77.1327 -77.1322 -77.1271 -77.1270
   -77.1270 -77.1216 -77.1215 -77.1214 -77.1188 -77.1183 -77.1179 -77.1178
   -77.1177 -77.1174 -77.1168 -77.1166 -77.1164 -77.1087 -77.1086 -77.1085
    -6.1122  -6.1082  -6.1048  -5.3789  -5.3782  -5.3775  -4.9038  -4.9032
    -4.9027  -4.8757  -4.8750  -4.8747  -4.8745  -4.8741  -4.8735  -4.8525
    -4.8497  -4.8473  -4.8131  -4.8128  -4.8120  -4.8118  -4.8110  -4.8106
    -4.7738  -4.7734  -4.7728  -4.7245  -4.7242  -4.7241  -4.7173  -4.7168
    -4.7167  -4.7000  -4.6995  -4.6991  -4.6989  -4.6985  -4.6981  -4.6592
    -4.6589  -4.6585  -4.6093  -4.6088  -4.6084  -4.6082  -4.6078  -4.6073
    -4.5486  -4.5484  -4.5480  -4.5478  -4.5473  -4.5471  -4.5441  -4.5440
    -4.5438  -4.5241  -4.5240  -4.5240  -4.5234  -4.5231  -4.5229  -4.4888
    -4.4888  -4.4882  -4.4879  -4.4875  -4.4873  -4.4872  -4.4869  -4.4867
    -4.4862  -4.4813  -4.4813  -4.4813  -4.4471  -4.4468  -4.4465  -4.4212
    -4.4211  -4.4210  -4.4022  -4.3956  -4.3834  -4.3827  -4.3821  -4.3668
    -4.3668  -4.3668  -4.3437  -4.3419  -4.3418  -4.3417  -4.3299  -4.3142
    -4.3138  -4.3136  -4.3123  -4.3117  -4.3116  -4.3115  -4.3112  -4.3108
    -4.3030  -4.3024  -4.3017  -4.2740  -4.2604  -4.2594  -4.2587  -4.2575
    -4.2371  -4.2366  -4.2361  -4.2233  -4.2233  -4.2233  -4.1996  -4.1996
    -4.1996  -4.1769  -4.1768  -4.1767  -4.1728  -4.1726  -4.1725  -4.1524
    -4.1523  -4.1519  -4.1517  -4.1513  -4.1512  -4.1331  -4.1328  -4.1328
    -4.1328  -4.1101  -4.1100  -4.1099  -4.0991  -4.0791  -4.0786  -4.0781
    -4.0731  -4.0726  -4.0721  -4.0674  -4.0665  -4.0656  -4.0301  -4.0189
    -4.0176  -4.0169  -4.0145  -4.0144  -4.0143  -4.0035  -4.0030  -4.0027
    -4.0009  -4.0005  -4.0002  -3.9781  -3.9775  -3.9774  -3.9772  -3.9770
    -3.9765  -3.9759  -3.9736  -3.9553  -3.9551  -3.9545  -3.9544  -3.9538
    -3.9535  -3.9398  -3.9392  -3.9114  -3.9114  -3.9114  -3.8852  -3.8851
    -3.8849  -3.8650  -3.8422  -3.8415  -3.8409  -3.8351  -3.8339  -3.8325
    -3.8096  -3.8093  -3.8090  -3.8090  -3.8086  -3.8084  -3.8053  -3.8052
    -3.8052  -3.7965  -3.7962  -3.7961  -3.7946  -3.7935  -3.7930  -3.7878
    -3.7876  -3.7874  -3.7871  -3.7722  -3.7716  -3.7714  -3.7712  -3.7711
    -3.7705  -3.7584  -3.7577  -3.7569  -3.7553  -3.7550  -3.7547  -3.7451
    -3.7448  -3.7445  -3.7443  -3.7440  -3.7437  -3.6816  -3.6813  -3.6808
    -3.6690  -3.6684  -3.6678  -3.6466  -3.6465  -3.6465  -3.6461  -3.6460
    -3.6458  -3.6457  -3.6455  -3.6454  -3.6435  -3.6383  -3.6380  -3.6378
    -3.6350  -3.6339  -3.6337  -3.6337  -3.6280  -3.6279  -3.6278  -3.6278
    -3.6277  -3.6276  -3.6252  -3.6250  -3.6248  -3.6162  -3.6162  -3.6161
    -3.5865  -3.5864  -3.5862  -3.5859  -3.5857  -3.5856  -3.5760  -3.5760
    -3.5757  -3.5757  -3.5754  -3.5753  -3.5669  -3.5669  -3.5669  -3.5668
    -3.5526  -3.5526  -3.5526  -3.5516  -3.5465  -3.5462  -3.5460  -3.5289
    -3.5289  -3.5287  -3.5218  -3.5216  -3.5214  -3.5145  -3.5145  -3.5144
    -3.5089  -3.5082  -3.5076  -3.5069  -3.5067  -3.5064  -3.5061  -3.5057
    -3.5056  -3.4920  -3.4916  -3.4912  -3.4788  -3.4787  -3.4786  -3.4482
    -3.4476  -3.4466  -3.3840  -3.3839  -3.3838  -3.3838  -3.3837  -3.3836
    -3.3454  -3.3452  -3.3450  -3.3449  -3.3447  -3.3445  -3.1274  -3.1274
    -3.1274  -2.7117  -2.7099  -2.7081  -2.5264  -2.5263  -2.5263  -1.6598
    -1.6582  -1.6574  -1.6569  -1.6560  -1.6545  -1.1278  -1.1277  -1.1276
    -0.8227  -0.8226  -0.8222  -0.8218  -0.8214  -0.8213  -0.8173  -0.8161
    -0.8137   0.6235   0.6239   0.6255   0.6261   0.6276   0.6281   0.7236
     0.7237   0.7238   1.7245   1.7257   1.7274   1.9250   1.9264   1.9272
     2.3308   2.3325   2.3345   2.3614   2.3620   2.3627   2.3642   2.3650
     2.3655   2.7747   2.7750   2.7753   3.0042   3.0048   3.0055   3.8972
     3.8972   3.8973   4.0695   4.1360   4.2022   4.4995   4.5037   4.5095
     4.8089   4.8105   4.8124   4.8783   4.9711   5.0433   5.0447   5.0464
     5.1220   5.7988   5.7997   5.8002   5.8016   5.8020   5.8030   6.0600
     6.0606   6.0629   6.2535   6.2540   6.2544   6.2555   6.2559   6.2564
     6.3637   6.3639   6.3640   6.4856   6.7589   6.7655   6.8157   6.8176
     6.8185   6.9429   6.9445   6.9470   7.0447   7.0465   7.0473   7.0490
     7.0498   7.0516   7.8418   7.8424   7.8433   7.8435   7.8606   7.8613
     7.8621   8.1232   8.1256   8.1285   8.1294   8.1325   8.1348   8.4964
     8.5247   8.5468   8.5483   8.5497   8.5510   8.5522   8.5538   8.7001
     8.7002   8.7004   8.9315   8.9331   8.9338   9.4650   9.4661   9.4679
     9.6512   9.6513   9.6513   9.6667   9.6677   9.6689   9.6868   9.6868
     9.6868   9.7106   9.7113   9.7121  10.3045  10.3063  10.3074  10.3087
    10.3096  10.3119  10.3720  10.3734  10.3757  10.6118  10.6138  10.6155
    10.6832  10.6836  10.6848  10.6853  10.6866  10.6870  10.8941  10.9340
    11.2414  11.2415  11.2416  11.4085  11.4086  11.4087  11.4931  11.4940
    11.4943  11.4949  11.4950  11.4961  11.5323  11.5326  11.5337  11.5339

     occupation numbers 
     1.0000   1.0000   1.0000   1.0000   1.0000   1.0000   1.0000   1.0000
     1.0000   1.0000   1.0000   1.0000   1.0000   1.0000   1.0000   1.0000
     1.0000   1.0000   1.0000   1.0000   1.0000   1.0000   1.0000   1.0000
     1.0000   1.0000   1.0000   1.0000   1.0000   1.0000   1.0000   1.0000
     1.0000   1.0000   1.0000   1.0000   1.0000   1.0000   1.0000   1.0000
     1.0000   1.0000   1.0000   1.0000   1.0000   1.0000   1.0000   1.0000
     1.0000   1.0000   1.0000   1.0000   1.0000   1.0000   1.0000   1.0000
     1.0000   1.0000   1.0000   1.0000   1.0000   1.0000   1.0000   1.0000
     1.0000   1.0000   1.0000   1.0000   1.0000   1.0000   1.0000   1.0000
     1.0000   1.0000   1.0000   1.0000   1.0000   1.0000   1.0000   1.0000
     1.0000   1.0000   1.0000   1.0000   1.0000   1.0000   1.0000   1.0000
     1.0000   1.0000   1.0000   1.0000   1.0000   1.0000   1.0000   1.0000
     1.0000   1.0000   1.0000   1.0000   1.0000   1.0000   1.0000   1.0000
     1.0000   1.0000   1.0000   1.0000   1.0000   1.0000   1.0000   1.0000
     1.0000   1.0000   1.0000   1.0000   1.0000   1.0000   1.0000   1.0000
     1.0000   1.0000   1.0000   1.0000   1.0000   1.0000   1.0000   1.0000
     1.0000   1.0000   1.0000   1.0000   1.0000   1.0000   1.0000   1.0000
     1.0000   1.0000   1.0000   1.0000   1.0000   1.0000   1.0000   1.0000
     1.0000   1.0000   1.0000   1.0000   1.0000   1.0000   1.0000   1.0000
     1.0000   1.0000   1.0000   1.0000   1.0000   1.0000   1.0000   1.0000
     1.0000   1.0000   1.0000   1.0000   1.0000   1.0000   1.0000   1.0000
[...]
     atom   28 type  1   force =     0.00000000    0.00000000    0.00000000
     atom   29 type  1   force =     0.00000000    0.00000000    0.00000000
     atom   30 type  1   force =     0.00000000    0.00000000    0.00000000
     atom   31 type  1   force =     0.00000000    0.00000000    0.00000000
     atom   32 type  1   force =     0.00000000    0.00000000    0.00000000
     atom   33 type  1   force =     0.00000000    0.00000000    0.00000000
     atom   34 type  1   force =     0.00000000    0.00000000    0.00000000
     atom   35 type  1   force =     0.00000000    0.00000000    0.00000000
     atom   36 type  1   force =     0.00000000    0.00000000    0.00000000
     atom   37 type  1   force =     0.00000000    0.00000000    0.00000000
     atom   38 type  1   force =     0.00000000    0.00000000    0.00000000
     atom   39 type  1   force =     0.00000000    0.00000000    0.00000000
     atom   40 type  1   force =     0.00000000    0.00000000    0.00000000
     atom   41 type  1   force =     0.00000000    0.00000000    0.00000000
     atom   42 type  1   force =     0.00000000    0.00000000    0.00000000
     atom   43 type  1   force =     0.00000000    0.00000000    0.00000000
     atom   44 type  1   force =     0.00000000    0.00000000    0.00000000
     atom   45 type  1   force =     0.00000000    0.00000000    0.00000000
     atom   46 type  1   force =     0.00000000    0.00000000    0.00000000
     atom   47 type  1   force =     0.00000000    0.00000000    0.00000000
     atom   48 type  1   force =     0.00000000    0.00000000    0.00000000
     atom   49 type  1   force =     0.00000000    0.00000000    0.00000000
     atom   50 type  1   force =     0.00000000    0.00000000    0.00000000
     atom   51 type  1   force =     0.00000000    0.00000000    0.00000000
     atom   52 type  1   force =     0.00000000    0.00000000    0.00000000
     atom   53 type  1   force =     0.00000000    0.00000000    0.00000000
     atom   54 type  1   force =     0.00000000    0.00000000    0.00000000
     atom   55 type  1   force =     0.00000000    0.00000000    0.00000000
     atom   56 type  1   force =     0.00000000    0.00000000    0.00000000
     atom   57 type  1   force =     0.00000000    0.00000000    0.00000000
     atom   58 type  1   force =     0.00000000    0.00000000    0.00000000
     atom   59 type  1   force =     0.00000000    0.00000000    0.00000000
     atom   60 type  1   force =     0.00000000    0.00000000    0.00000000
     atom   61 type  1   force =     0.00000000    0.00000000    0.00000000
     atom   62 type  1   force =     0.00000000    0.00000000    0.00000000
     atom   63 type  1   force =     0.00000000    0.00000000    0.00000000
     atom   64 type  1   force =     0.00000000    0.00000000    0.00000000
     The Hubbard contrib.    to forces
     atom    1 type  1   force =     0.00000000    0.00000000    0.00000000
     atom    2 type  1   force =     0.00000000    0.00000000    0.00000000
     atom    3 type  1   force =     0.00000000    0.00000000    0.00000000
     atom    4 type  1   force =     0.00000000    0.00000000    0.00000000
     atom    5 type  1   force =     0.00000000    0.00000000    0.00000000
     atom    6 type  1   force =     0.00000000    0.00000000    0.00000000
     atom    7 type  1   force =     0.00000000    0.00000000    0.00000000
     atom    8 type  1   force =     0.00000000    0.00000000    0.00000000
     atom    9 type  1   force =     0.00000000    0.00000000    0.00000000
     atom   10 type  1   force =     0.00000000    0.00000000    0.00000000
     atom   11 type  1   force =     0.00000000    0.00000000    0.00000000
     atom   12 type  1   force =     0.00000000    0.00000000    0.00000000
     atom   13 type  1   force =     0.00000000    0.00000000    0.00000000
     atom   14 type  1   force =     0.00000000    0.00000000    0.00000000
     atom   15 type  1   force =     0.00000000    0.00000000    0.00000000
     atom   16 type  1   force =     0.00000000    0.00000000    0.00000000
     atom   17 type  1   force =     0.00000000    0.00000000    0.00000000
     atom   18 type  1   force =     0.00000000    0.00000000    0.00000000
     atom   19 type  1   force =     0.00000000    0.00000000    0.00000000
     atom   20 type  1   force =     0.00000000    0.00000000    0.00000000
     atom   21 type  1   force =     0.00000000    0.00000000    0.00000000
     atom   22 type  1   force =     0.00000000    0.00000000    0.00000000
     atom   23 type  1   force =     0.00000000    0.00000000    0.00000000
     atom   24 type  1   force =     0.00000000    0.00000000    0.00000000
     atom   25 type  1   force =     0.00000000    0.00000000    0.00000000
     atom   26 type  1   force =     0.00000000    0.00000000    0.00000000
     atom   27 type  1   force =     0.00000000    0.00000000    0.00000000
     atom   28 type  1   force =     0.00000000    0.00000000    0.00000000
     atom   29 type  1   force =     0.00000000    0.00000000    0.00000000
     atom   30 type  1   force =     0.00000000    0.00000000    0.00000000
     atom   31 type  1   force =     0.00000000    0.00000000    0.00000000
     atom   32 type  1   force =     0.00000000    0.00000000    0.00000000
     atom   33 type  1   force =     0.00000000    0.00000000    0.00000000
     atom   34 type  1   force =     0.00000000    0.00000000    0.00000000
     atom   35 type  1   force =     0.00000000    0.00000000    0.00000000
     atom   36 type  1   force =     0.00000000    0.00000000    0.00000000
     atom   37 type  1   force =     0.00000000    0.00000000    0.00000000
     atom   38 type  1   force =     0.00000000    0.00000000    0.00000000
     atom   39 type  1   force =     0.00000000    0.00000000    0.00000000
     atom   40 type  1   force =     0.00000000    0.00000000    0.00000000
     atom   41 type  1   force =     0.00000000    0.00000000    0.00000000
     atom   42 type  1   force =     0.00000000    0.00000000    0.00000000
     atom   43 type  1   force =     0.00000000    0.00000000    0.00000000
     atom   44 type  1   force =     0.00000000    0.00000000    0.00000000
     atom   45 type  1   force =     0.00000000    0.00000000    0.00000000
     atom   46 type  1   force =     0.00000000    0.00000000    0.00000000
     atom   47 type  1   force =     0.00000000    0.00000000    0.00000000
     atom   48 type  1   force =     0.00000000    0.00000000    0.00000000
     atom   49 type  1   force =     0.00000000    0.00000000    0.00000000
     atom   50 type  1   force =     0.00000000    0.00000000    0.00000000
     atom   51 type  1   force =     0.00000000    0.00000000    0.00000000
     atom   52 type  1   force =     0.00000000    0.00000000    0.00000000
     atom   53 type  1   force =     0.00000000    0.00000000    0.00000000
     atom   54 type  1   force =     0.00000000    0.00000000    0.00000000
     atom   55 type  1   force =     0.00000000    0.00000000    0.00000000
     atom   56 type  1   force =     0.00000000    0.00000000    0.00000000
     atom   57 type  1   force =     0.00000000    0.00000000    0.00000000
     atom   58 type  1   force =     0.00000000    0.00000000    0.00000000
     atom   59 type  1   force =     0.00000000    0.00000000    0.00000000
     atom   60 type  1   force =     0.00000000    0.00000000    0.00000000
     atom   61 type  1   force =     0.00000000    0.00000000    0.00000000
     atom   62 type  1   force =     0.00000000    0.00000000    0.00000000
     atom   63 type  1   force =     0.00000000    0.00000000    0.00000000
     atom   64 type  1   force =     0.00000000    0.00000000    0.00000000
     The SCF correction term to forces
     atom    1 type  1   force =    -0.00000456    0.00000298    0.00001336
     atom    2 type  1   force =     0.00000458   -0.00001403    0.00001567
     atom    3 type  1   force =     0.00000744   -0.00000083   -0.00009986
     atom    4 type  1   force =    -0.00000757    0.00000189    0.00001973
     atom    5 type  1   force =     0.00004949   -0.00004042    0.00001695
     atom    6 type  1   force =    -0.00005013    0.00000462    0.00000595
     atom    7 type  1   force =    -0.00006763    0.00005014   -0.00003797
     atom    8 type  1   force =     0.00006803   -0.00003050   -0.00000270
     atom    9 type  1   force =     0.00001336    0.00000252    0.00001669
     atom   10 type  1   force =    -0.00001544    0.00000798    0.00000565
     atom   11 type  1   force =    -0.00000399    0.00000687    0.00003996
     atom   12 type  1   force =     0.00000490   -0.00000525   -0.00005808
     atom   13 type  1   force =    -0.00003974    0.00004677    0.00001753
     atom   14 type  1   force =     0.00003838   -0.00001055    0.00001090
     atom   15 type  1   force =     0.00007558   -0.00005130   -0.00002858
     atom   16 type  1   force =    -0.00007053    0.00002793   -0.00003022
     atom   17 type  1   force =    -0.00005316    0.00001283    0.00001621
     atom   18 type  1   force =     0.00005157   -0.00002413    0.00001551
     atom   19 type  1   force =     0.00006560   -0.00004221   -0.00003395
     atom   20 type  1   force =    -0.00006419    0.00004259   -0.00004801
     atom   21 type  1   force =    -0.00001977   -0.00001575    0.00001066
     atom   22 type  1   force =     0.00001882   -0.00001749    0.00001388
     atom   23 type  1   force =     0.00000340    0.00000258   -0.00007738
     atom   24 type  1   force =    -0.00000319    0.00001597    0.00003488
     atom   25 type  1   force =     0.00003710   -0.00002694    0.00001240
     atom   26 type  1   force =    -0.00003504    0.00003862    0.00000777
     atom   27 type  1   force =    -0.00007540    0.00003933   -0.00001978
     atom   28 type  1   force =     0.00007546   -0.00003975    0.00000353
     atom   29 type  1   force =    -0.00000009    0.00000780    0.00001876
     atom   30 type  1   force =     0.00000072    0.00002723    0.00001011
     atom   31 type  1   force =    -0.00001185   -0.00000916    0.00002368
     atom   32 type  1   force =     0.00000901   -0.00001108   -0.00008265
     atom   33 type  1   force =    -0.00000506    0.00000207   -0.00005804
     atom   34 type  1   force =     0.00001154   -0.00000233   -0.00002436
     atom   35 type  1   force =     0.00009158   -0.00005595    0.00001173
     atom   36 type  1   force =    -0.00008530    0.00003941   -0.00002023
     atom   37 type  1   force =    -0.00000436   -0.00000994   -0.00007664
     atom   38 type  1   force =     0.00000261   -0.00001481    0.00000303
     atom   39 type  1   force =    -0.00003304    0.00004127    0.00002428
     atom   40 type  1   force =     0.00002716    0.00000236   -0.00003391
     atom   41 type  1   force =     0.00000815   -0.00000954   -0.00001724
     atom   42 type  1   force =    -0.00000767    0.00000654   -0.00004104
     atom   43 type  1   force =    -0.00008187    0.00005742   -0.00002376
     atom   44 type  1   force =     0.00008914   -0.00004764   -0.00000487
     atom   45 type  1   force =    -0.00000213    0.00001548    0.00000020
     atom   46 type  1   force =    -0.00000035    0.00001258   -0.00006663
     atom   47 type  1   force =     0.00003354   -0.00003895   -0.00003671
     atom   48 type  1   force =    -0.00003992   -0.00000107    0.00001289
     atom   49 type  1   force =    -0.00001148   -0.00000666   -0.00000557
     atom   50 type  1   force =     0.00000666    0.00000878   -0.00007973
     atom   51 type  1   force =     0.00002836   -0.00002534   -0.00003123
     atom   52 type  1   force =    -0.00003225    0.00001667    0.00002264
     atom   53 type  1   force =    -0.00001724   -0.00001401   -0.00005247
     atom   54 type  1   force =     0.00001905   -0.00001284   -0.00002202
     atom   55 type  1   force =     0.00008817   -0.00003136    0.00000749
     atom   56 type  1   force =    -0.00008204    0.00007134   -0.00002026
     atom   57 type  1   force =    -0.00001203   -0.00000576   -0.00006414
     atom   58 type  1   force =     0.00001130    0.00000616    0.00000974
     atom   59 type  1   force =    -0.00003806    0.00002577    0.00001696
     atom   60 type  1   force =     0.00003311   -0.00000838   -0.00003902
     atom   61 type  1   force =     0.00000043    0.00000182   -0.00001765
     atom   62 type  1   force =     0.00000388    0.00002116   -0.00004790
     atom   63 type  1   force =    -0.00008448    0.00002494   -0.00002410
     atom   64 type  1   force =     0.00009427   -0.00007491    0.00000219

     Total force =     0.031020     Total SCF correction =     0.000512


     Computing stress (Cartesian axis) and pressure

          total   stress  (Ry/bohr**3)                   (kbar)     P=     -304.47
  -0.00206813  -0.00000000   0.00000000         -304.23       -0.00        0.00
  -0.00000000  -0.00206813   0.00000000           -0.00     -304.23        0.00
   0.00000000   0.00000000  -0.00207293            0.00        0.00     -304.94

     kinetic stress (kbar)  16716.23     -0.00     -0.00
                               -0.00  16716.23      0.00
                               -0.00      0.00  16803.37

     local   stress (kbar)**********     -0.30     -0.19
                               -0.30**********      0.04
                               -0.19      0.041558742.82

     nonloc. stress (kbar)  -2012.12      0.00      0.00
                                0.00  -2012.12      0.00
                                0.00      0.00  -2076.16

     hartree stress (kbar) 806054.29      0.14      0.08
                                0.14 806054.47     -0.02
                                0.08     -0.02-732026.45

     exc-cor stress (kbar)  -8371.55      0.00      0.00
                                0.00  -8371.55     -0.00
                                0.00     -0.00  -8382.53

     corecor stress (kbar)      0.00      0.00      0.00
                                0.00      0.00      0.00
                                0.00      0.00      0.00

     ewald   stress (kbar) 726681.15      0.16      0.11
                                0.16 726681.37     -0.02
                                0.11     -0.02-833365.99

     hubbard stress (kbar)      0.00      0.00      0.00
                                0.00      0.00      0.00
                                0.00      0.00      0.00

     DFT-D   stress (kbar)      0.00      0.00      0.00
                                0.00      0.00      0.00
                                0.00      0.00      0.00

     XDM     stress (kbar)      0.00      0.00      0.00
                                0.00      0.00      0.00
                                0.00      0.00      0.00

     dft-nl  stress (kbar)      0.00      0.00      0.00
                                0.00      0.00      0.00
                                0.00      0.00      0.00

     TS-vdW  stress (kbar)      0.00      0.00      0.00
                                0.00      0.00      0.00
                                0.00      0.00      0.00

     MDB     stress (kbar)      0.00      0.00      0.00
                                0.00      0.00      0.00
                                0.00      0.00      0.00

     3D-RISM stress (kbar)      0.00      0.00      0.00
                                0.00      0.00      0.00
                                0.00      0.00      0.00


     Writing all to output data dir ./tmp/Zn002_2x2x4_scf.save/ :
     XML data file, charge density, pseudopotentials, collected wavefunctions

     init_run     :     62.14s CPU     62.68s WALL (       1 calls)
     electrons    :   3649.70s CPU   3687.64s WALL (       1 calls)
     forces       :     53.17s CPU     53.46s WALL (       1 calls)
     stress       :    145.26s CPU    145.78s WALL (       1 calls)

     Called by init_run:
     wfcinit      :     61.74s CPU     62.27s WALL (       1 calls)
     wfcinit:atom :      0.03s CPU      0.06s WALL (       5 calls)
     wfcinit:wfcr :     61.26s CPU     61.71s WALL (       5 calls)
     potinit      :      0.02s CPU      0.02s WALL (       1 calls)
     hinit0       :      0.01s CPU      0.02s WALL (       1 calls)

     Called by electrons:
     c_bands      :   3428.98s CPU   3465.62s WALL (      15 calls)
     sum_band     :    216.17s CPU    217.43s WALL (      15 calls)
     v_of_rho     :      0.25s CPU      0.26s WALL (      15 calls)
     v_h          :      0.01s CPU      0.01s WALL (      15 calls)
     v_xc         :      0.23s CPU      0.25s WALL (      15 calls)
     newd         :      4.55s CPU      4.57s WALL (      15 calls)
     mix_rho      :      0.04s CPU      0.04s WALL (      15 calls)

     Called by c_bands:
     init_us_2    :      2.51s CPU      2.52s WALL (     165 calls)
     cegterg      :   3423.59s CPU   3460.15s WALL (      75 calls)

     Called by sum_band:
     sum_band:wei :      0.06s CPU      0.06s WALL (      15 calls)
     sum_band:loo :    212.13s CPU    213.36s WALL (      15 calls)
     sum_band:buf :      0.52s CPU      0.52s WALL (      75 calls)
     sum_band:ini :      1.16s CPU      1.16s WALL (      75 calls)
     sum_band:cal :    190.65s CPU    191.71s WALL (      75 calls)
     sum_band:bec :      2.81s CPU      2.82s WALL (      75 calls)
     addusdens    :      3.73s CPU      3.74s WALL (      15 calls)
                                        0.00s GPU  (      15 calls)
     addusd:skk   :      0.05s CPU      0.05s WALL (      15 calls)
                                        0.00s GPU  (      15 calls)

     Called by *egterg:
     cdiaghg      :    473.63s CPU    493.47s WALL (     494 calls)
     cegterg:over :    516.44s CPU    518.72s WALL (     424 calls)
     cegterg:upda :    217.66s CPU    218.98s WALL (     424 calls)
     cegterg:last :    753.72s CPU    759.61s WALL (     150 calls)
     cdiaghg:chol :     32.34s CPU     32.42s WALL (     494 calls)
     cdiaghg:inve :      5.26s CPU      5.28s WALL (     494 calls)
     cdiaghg:para :    147.31s CPU    149.55s WALL (     988 calls)
     h_psi        :    955.07s CPU    960.27s WALL (     504 calls)
     s_psi        :    411.70s CPU    412.70s WALL (     504 calls)
     g_psi        :      0.37s CPU      0.38s WALL (     424 calls)

     Called by h_psi:
     h_psi:calbec :    458.45s CPU    461.04s WALL (     504 calls)
     vloc_psi     :     81.86s CPU     82.62s WALL (     504 calls)
     add_vuspsi   :    413.86s CPU    415.14s WALL (     504 calls)

     General routines
     calbec       :    715.05s CPU    719.04s WALL (     604 calls)
     fft          :      0.28s CPU      0.31s WALL (     174 calls)
     ffts         :      0.01s CPU      0.01s WALL (      15 calls)
     fftw         :     91.77s CPU     92.64s WALL (  333716 calls)

     Parallel routines

     PWSCF        :      1h 5m CPU      1h 5m WALL


   This run was terminated on:  18:58:12  24Mar2025            

=------------------------------------------------------------------------------=
   JOB DONE.
=------------------------------------------------------------------------------=
Note: The following floating-point exceptions are signalling: IEEE_DENORMAL
Note: The following floating-point exceptions are signalling: IEEE_DENORMAL
Note: The following floating-point exceptions are signalling: IEEE_DENORMAL
Note: The following floating-point exceptions are signalling: IEEE_DENORMAL
Note: The following floating-point exceptions are signalling: IEEE_DENORMAL
Note: The following floating-point exceptions are signalling: IEEE_DENORMAL
Note: The following floating-point exceptions are signalling: IEEE_DENORMAL
Note: The following floating-point exceptions are signalling: IEEE_DENORMAL
Note: The following floating-point exceptions are signalling: IEEE_DENORMAL
Note: The following floating-point exceptions are signalling: IEEE_DENORMAL
