--------------------------------------------------------------------------
By default, for Open MPI 4.0 and later, infiniband ports on a device
are not used by default.  The intent is to use UCX for these devices.
You can override this policy by setting the btl_openib_allow_ib MCA parameter
to true.

  Local host:              psid03
  Local adapter:           mlx5_0
  Local port:              1

--------------------------------------------------------------------------
--------------------------------------------------------------------------
WARNING: There was an error initializing an OpenFabrics device.

  Local host:   psid03
  Local device: mlx5_0
--------------------------------------------------------------------------

     Program PWSCF v.7.3.1 starts on 24Mar2025 at 17:47:58 

     This program is part of the open-source Quantum ESPRESSO suite
     for quantum simulation of materials; please cite
         "P. Giannozzi et al., J. Phys.:Condens. Matter 21 395502 (2009);
         "P. Giannozzi et al., J. Phys.:Condens. Matter 29 465901 (2017);
         "P. Giannozzi et al., J. Chem. Phys. 152 154105 (2020);
          URL http://www.quantum-espresso.org", 
     in publications or presentations arising from this work. More details at
     http://www.quantum-espresso.org/quote

     Parallel version (MPI), running on    33 processors

     MPI processes distributed on     1 nodes
     89006 MiB available memory on the printing compute node when the environment starts

     Waiting for input...
     Reading input from standard input

     Current dimensions of program PWSCF are:
     Max number of different atomic species (ntypx) = 10
     Max number of k-points (npk) =  40000
     Max angular momentum in pseudopotentials (lmaxx) =  4

     R & G space division:  proc/nbgrp/npool/nimage =      33
     Subspace diagonalization in iterative solution of the eigenvalue problem:
     one sub-group per band group will be used
     custom distributed-memory algorithm (size of sub-group:  5*  5 procs)


     Parallelization info
     --------------------
     sticks:   dense  smooth     PW     G-vecs:    dense   smooth      PW
     Min         105     105     27                10664    10664    1451
     Max         106     106     28                10670    10670    1462
     Sum        3477    3477    923               351985   351985   48189

     Using Slab Decomposition



     bravais-lattice index     =            0
     lattice parameter (alat)  =      18.4179  a.u.
     unit-cell volume          =   15858.2170 (a.u.)^3
     number of atoms/cell      =           64
     number of atomic types    =            1
     number of electrons       =      1280.00
     number of Kohn-Sham states=          768
     kinetic-energy cutoff     =      30.0000  Ry
     charge density cutoff     =     120.0000  Ry
     scf convergence threshold =      1.0E-08
     mixing beta               =       0.7000
     number of iterations used =            8  plain     mixing
     Exchange-correlation= SLA  PW   PBE  PBE
                           (   1   4   3   4   0   0   0)

     celldm(1)=  18.417879  celldm(2)=   0.000000  celldm(3)=   0.000000
     celldm(4)=   0.000000  celldm(5)=   0.000000  celldm(6)=   0.000000

     crystal axes: (cart. coord. in units of alat)
               a(1) = (   1.000000   0.000000   0.000000 )  
               a(2) = (   0.000000   1.072963   0.000000 )  
               a(3) = (   0.000000  -1.365810   2.365652 )  

     reciprocal axes: (cart. coord. in units 2 pi/alat)
               b(1) = (  1.000000  0.000000 -0.000000 )  
               b(2) = ( -0.000000  0.931999  0.538090 )  
               b(3) = (  0.000000  0.000000  0.422716 )  


     PseudoPot. # 1 for Zn read from file:
     /home/ys/qepseudo/SSSP_1.3.0_PBE_efficiency/Zn_pbe_v1.uspp.F.UPF
     MD5 check sum: df62231357ef9e81f77b2b3087fa5675
     Pseudo is Ultrasoft, Zval = 20.0
     Generated by new atomic code, or converted to UPF format
     Using radial grid of  943 points,  6 beta functions with: 
                l(1) =   0
                l(2) =   0
                l(3) =   1
                l(4) =   1
                l(5) =   2
                l(6) =   2
     Q(r) pseudized with  8 coefficients,  rinner =    1.100   1.100   1.100
                                                       1.100   1.100

     atomic species   valence    mass     pseudopotential
     Zn               20.00    65.38000     Zn( 1.00)

     No symmetry found


                                    s                        frac. trans.

      isym =  1     identity                                     

 cryst.   s( 1) = (     1          0          0      )
                  (     0          1          0      )
                  (     0          0          1      )

 cart.    s( 1) = (  1.0000000  0.0000000  0.0000000 )
                  (  0.0000000  1.0000000 -0.0000000 )
                  (  0.0000000  0.0000000  1.0000000 )


   Cartesian axes

     site n.     atom                  positions (alat units)
         1        Zn     tau(   1) = (   0.1250000   0.1341203   0.0774344  )
         2        Zn     tau(   2) = (   0.1250000   0.6706017   0.0774344  )
         3        Zn     tau(   3) = (   0.1250000   0.0000000   0.3097376  )
         4        Zn     tau(   4) = (   0.1250000   0.5364813   0.3097376  )
         5        Zn     tau(   5) = (   0.1250290  -0.1341417   0.5820584  )
         6        Zn     tau(   6) = (   0.1250405   0.4023616   0.5819647  )
         7        Zn     tau(   7) = (   0.1250408  -0.2682706   0.8528810  )
         8        Zn     tau(   8) = (   0.1250466   0.2682807   0.8528293  )
         9        Zn     tau(   9) = (   0.1250000   0.4023610   0.0774344  )
        10        Zn     tau(  10) = (   0.1250000   0.9388423   0.0774344  )
        11        Zn     tau(  11) = (   0.1250000   0.2682407   0.3097376  )
        12        Zn     tau(  12) = (   0.1250000   0.8047220   0.3097376  )
        13        Zn     tau(  13) = (   0.1250408   0.1341312   0.5819983  )
        14        Zn     tau(  14) = (   0.1250279   0.6705889   0.5820360  )
        15        Zn     tau(  15) = (   0.1250442  -0.0000368   0.8528823  )
        16        Zn     tau(  16) = (   0.1250426   0.5365266   0.8528201  )
        17        Zn     tau(  17) = (   0.6250000   0.1341203   0.0774344  )
        18        Zn     tau(  18) = (   0.6250000   0.6706017   0.0774344  )
        19        Zn     tau(  19) = (   0.6250000   0.0000000   0.3097376  )
        20        Zn     tau(  20) = (   0.6250000   0.5364813   0.3097376  )
        21        Zn     tau(  21) = (   0.6249675  -0.1341249   0.5822560  )
        22        Zn     tau(  22) = (   0.6249625   0.4023466   0.5821830  )
        23        Zn     tau(  23) = (   0.6249647  -0.2682775   0.8528614  )
        24        Zn     tau(  24) = (   0.6249499   0.2682885   0.8528196  )
        25        Zn     tau(  25) = (   0.6250000   0.4023610   0.0774344  )
        26        Zn     tau(  26) = (   0.6250000   0.9388423   0.0774344  )
        27        Zn     tau(  27) = (   0.6250000   0.2682407   0.3097376  )
        28        Zn     tau(  28) = (   0.6250000   0.8047220   0.3097376  )
        29        Zn     tau(  29) = (   0.6249643   0.1341641   0.5822135  )
        30        Zn     tau(  30) = (   0.6249672   0.6705553   0.5822335  )
        31        Zn     tau(  31) = (   0.6249591  -0.0000159   0.8528717  )
        32        Zn     tau(  32) = (   0.6249573   0.5365055   0.8528056  )
        33        Zn     tau(  33) = (   0.3750000  -0.0000000   0.1548688  )
        34        Zn     tau(  34) = (   0.3750000   0.5364813   0.1548688  )
        35        Zn     tau(  35) = (   0.3750000  -0.1341203   0.3871721  )
        36        Zn     tau(  36) = (   0.3750000   0.4023610   0.3871721  )
        37        Zn     tau(  37) = (   0.3749795  -0.2682828   0.6236034  )
        38        Zn     tau(  38) = (   0.3749869   0.2682730   0.6235323  )
        39        Zn     tau(  39) = (   0.3751136  -0.4023763   0.8687437  )
        40        Zn     tau(  40) = (   0.3751189   0.1341221   0.8687719  )
        41        Zn     tau(  41) = (   0.3750000   0.2682407   0.1548688  )
        42        Zn     tau(  42) = (   0.3750000   0.8047220   0.1548688  )
        43        Zn     tau(  43) = (   0.3750000   0.1341203   0.3871721  )
        44        Zn     tau(  44) = (   0.3750000   0.6706017   0.3871721  )
        45        Zn     tau(  45) = (   0.3749870   0.0000171   0.6235532  )
        46        Zn     tau(  46) = (   0.3749914   0.5364504   0.6235764  )
        47        Zn     tau(  47) = (   0.3751105  -0.1341730   0.8687759  )
        48        Zn     tau(  48) = (   0.3751210   0.4023978   0.8687386  )
        49        Zn     tau(  49) = (   0.8750000  -0.0000000   0.1548688  )
        50        Zn     tau(  50) = (   0.8750000   0.5364813   0.1548688  )
        51        Zn     tau(  51) = (   0.8750000  -0.1341203   0.3871721  )
        52        Zn     tau(  52) = (   0.8750000   0.4023610   0.3871721  )
        53        Zn     tau(  53) = (   0.8750137  -0.2682816   0.6236127  )
        54        Zn     tau(  54) = (   0.8750145   0.2682702   0.6235379  )
        55        Zn     tau(  55) = (   0.8748930  -0.4023645   0.8688529  )
        56        Zn     tau(  56) = (   0.8748831   0.1341076   0.8688814  )
        57        Zn     tau(  57) = (   0.8750000   0.2682407   0.1548688  )
        58        Zn     tau(  58) = (   0.8750000   0.8047220   0.1548688  )
        59        Zn     tau(  59) = (   0.8750000   0.1341203   0.3871721  )
        60        Zn     tau(  60) = (   0.8750000   0.6706017   0.3871721  )
        61        Zn     tau(  61) = (   0.8750191  -0.0000014   0.6235616  )
        62        Zn     tau(  62) = (   0.8750146   0.5364705   0.6235843  )
        63        Zn     tau(  63) = (   0.8748974  -0.1341803   0.8688835  )
        64        Zn     tau(  64) = (   0.8748800   0.4024084   0.8688483  )

   Crystallographic axes

     site n.     atom                  positions (cryst. coord.)
         1        Zn     tau(   1) = (  0.1250000  0.1666667  0.0327328  )
         2        Zn     tau(   2) = (  0.1250000  0.6666667  0.0327328  )
         3        Zn     tau(   3) = (  0.1250000  0.1666667  0.1309312  )
         4        Zn     tau(   4) = (  0.1250000  0.6666667  0.1309312  )
         5        Zn     tau(   5) = (  0.1250290  0.1881798  0.2460456  )
         6        Zn     tau(   6) = (  0.1250405  0.6881498  0.2460060  )
         7        Zn     tau(   7) = (  0.1250408  0.2088987  0.3605268  )
         8        Zn     tau(   8) = (  0.1250466  0.7089361  0.3605049  )
         9        Zn     tau(   9) = (  0.1250000  0.4166667  0.0327328  )
        10        Zn     tau(  10) = (  0.1250000  0.9166667  0.0327328  )
        11        Zn     tau(  11) = (  0.1250000  0.4166667  0.1309312  )
        12        Zn     tau(  12) = (  0.1250000  0.9166667  0.1309312  )
        13        Zn     tau(  13) = (  0.1250408  0.4381774  0.2460202  )
        14        Zn     tau(  14) = (  0.1250279  0.9381757  0.2460362  )
        15        Zn     tau(  15) = (  0.1250442  0.4588930  0.3605273  )
        16        Zn     tau(  16) = (  0.1250426  0.9589360  0.3605011  )
        17        Zn     tau(  17) = (  0.6250000  0.1666667  0.0327328  )
        18        Zn     tau(  18) = (  0.6250000  0.6666667  0.0327328  )
        19        Zn     tau(  19) = (  0.6250000  0.1666667  0.1309312  )
        20        Zn     tau(  20) = (  0.6250000  0.6666667  0.1309312  )
        21        Zn     tau(  21) = (  0.6249675  0.1883018  0.2461292  )
        22        Zn     tau(  22) = (  0.6249625  0.6882533  0.2460983  )
        23        Zn     tau(  23) = (  0.6249647  0.2088817  0.3605185  )
        24        Zn     tau(  24) = (  0.6249499  0.7089381  0.3605008  )
        25        Zn     tau(  25) = (  0.6250000  0.4166667  0.0327328  )
        26        Zn     tau(  26) = (  0.6250000  0.9166667  0.0327328  )
        27        Zn     tau(  27) = (  0.6250000  0.4166667  0.1309312  )
        28        Zn     tau(  28) = (  0.6250000  0.9166667  0.1309312  )
        29        Zn     tau(  29) = (  0.6249643  0.4383239  0.2461112  )
        30        Zn     tau(  30) = (  0.6249672  0.9382507  0.2461196  )
        31        Zn     tau(  31) = (  0.6249591  0.4589067  0.3605228  )
        32        Zn     tau(  32) = (  0.6249573  0.9589085  0.3604949  )
        33        Zn     tau(  33) = (  0.3750000  0.0833333  0.0654656  )
        34        Zn     tau(  34) = (  0.3750000  0.5833333  0.0654656  )
        35        Zn     tau(  35) = (  0.3750000  0.0833333  0.1636640  )
        36        Zn     tau(  36) = (  0.3750000  0.5833333  0.1636640  )
        37        Zn     tau(  37) = (  0.3749795  0.0855154  0.2636074  )
        38        Zn     tau(  38) = (  0.3749869  0.5855465  0.2635773  )
        39        Zn     tau(  39) = (  0.3751136  0.0924479  0.3672322  )
        40        Zn     tau(  40) = (  0.3751189  0.5924790  0.3672441  )
        41        Zn     tau(  41) = (  0.3750000  0.3333333  0.0654656  )
        42        Zn     tau(  42) = (  0.3750000  0.8333333  0.0654656  )
        43        Zn     tau(  43) = (  0.3750000  0.3333333  0.1636640  )
        44        Zn     tau(  44) = (  0.3750000  0.8333333  0.1636640  )
        45        Zn     tau(  45) = (  0.3749870  0.3355436  0.2635862  )
        46        Zn     tau(  46) = (  0.3749914  0.8355113  0.2635959  )
        47        Zn     tau(  47) = (  0.3751105  0.3424304  0.3672458  )
        48        Zn     tau(  48) = (  0.3751210  0.8424936  0.3672300  )
        49        Zn     tau(  49) = (  0.8750000  0.0833333  0.0654656  )
        50        Zn     tau(  50) = (  0.8750000  0.5833333  0.0654656  )
        51        Zn     tau(  51) = (  0.8750000  0.0833333  0.1636640  )
        52        Zn     tau(  52) = (  0.8750000  0.5833333  0.1636640  )
        53        Zn     tau(  53) = (  0.8750137  0.0855215  0.2636113  )
        54        Zn     tau(  54) = (  0.8750145  0.5855469  0.2635797  )
        55        Zn     tau(  55) = (  0.8748930  0.0925177  0.3672784  )
        56        Zn     tau(  56) = (  0.8748831  0.5925243  0.3672904  )
        57        Zn     tau(  57) = (  0.8750000  0.3333333  0.0654656  )
        58        Zn     tau(  58) = (  0.8750000  0.8333333  0.0654656  )
        59        Zn     tau(  59) = (  0.8750000  0.3333333  0.1636640  )
        60        Zn     tau(  60) = (  0.8750000  0.8333333  0.1636640  )
        61        Zn     tau(  61) = (  0.8750191  0.3355308  0.2635897  )
        62        Zn     tau(  62) = (  0.8750146  0.8355343  0.2635993  )
        63        Zn     tau(  63) = (  0.8748974  0.3424815  0.3672913  )
        64        Zn     tau(  64) = (  0.8748800  0.8425626  0.3672764  )

     number of k points=     5  Marzari-Vanderbilt smearing, width (Ry)=  0.0200
                       cart. coord. in units 2pi/alat
        k(    1) = (   0.0000000   0.0000000   0.0000000), wk =   0.2222222
        k(    2) = (   0.0000000   0.3106663   0.1793633), wk =   0.4444444
        k(    3) = (   0.3333333   0.0000000   0.0000000), wk =   0.4444444
        k(    4) = (   0.3333333   0.3106663   0.1793633), wk =   0.4444444
        k(    5) = (   0.3333333  -0.3106663  -0.1793633), wk =   0.4444444

                       cryst. coord.
        k(    1) = (   0.0000000   0.0000000   0.0000000), wk =   0.2222222
        k(    2) = (   0.0000000   0.3333333  -0.0000000), wk =   0.4444444
        k(    3) = (   0.3333333   0.0000000   0.0000000), wk =   0.4444444
        k(    4) = (   0.3333333   0.3333333  -0.0000000), wk =   0.4444444
        k(    5) = (   0.3333333  -0.3333333   0.0000000), wk =   0.4444444

     Dense  grid:   351985 G-vectors     FFT dimensions: (  72,  72, 180)

     Dynamical RAM for                 wfc:      15.62 MB

     Dynamical RAM for     wfc (w. buffer):      93.73 MB

     Dynamical RAM for           str. fact:       0.16 MB

     Dynamical RAM for           local pot:       0.00 MB

     Dynamical RAM for          nlocal pot:      23.43 MB

     Dynamical RAM for                qrad:       0.88 MB

     Dynamical RAM for          rho,v,vnew:       1.20 MB

     Dynamical RAM for               rhoin:       0.40 MB

     Dynamical RAM for            rho*nmix:       2.60 MB

     Dynamical RAM for           G-vectors:       0.69 MB

     Dynamical RAM for          h,s,v(r/c):       4.31 MB

     Dynamical RAM for          <psi|beta>:      13.50 MB

     Dynamical RAM for                 psi:      31.24 MB

     Dynamical RAM for                hpsi:      31.24 MB

     Dynamical RAM for                spsi:      31.24 MB

     Dynamical RAM for      wfcinit/wfcrot:      49.70 MB

     Dynamical RAM for           addusdens:      40.69 MB

     Dynamical RAM for          addusforce:      61.53 MB

     Dynamical RAM for         addusstress:      32.71 MB

     Estimated static dynamical RAM per process >     122.01 MB

     Estimated max dynamical RAM per process >     236.15 MB

     Estimated total dynamical RAM >       7.61 GB

     Initial potential from superposition of free atoms

     starting charge    1279.9910, renormalised to    1280.0000

     negative rho (up, down):  1.578E-03 0.000E+00
     Starting wfcs are  832 randomized atomic wfcs
[psid03:243008] 32 more processes have sent help message help-mpi-btl-openib.txt / ib port not selected
[psid03:243008] Set MCA parameter "orte_base_help_aggregate" to 0 to see all help / error messages
[psid03:243008] 32 more processes have sent help message help-mpi-btl-openib.txt / error in device init

     total cpu time spent up to now is       66.6 secs

     Self-consistent Calculation

     iteration #  1     ecut=    30.00 Ry     beta= 0.70
     Davidson diagonalization with overlap

---- Real-time Memory Report at c_bands before calling an iterative solver
           201 MiB given to the printing process from OS
             0 MiB allocation reported by mallinfo(arena+hblkhd)
         84649 MiB available memory on the node where the printing process lives
------------------
     ethr =  1.00E-02,  avg # of iterations =  7.4

     Threshold (ethr) on eigenvalues was too large:
     Diagonalizing with lowered threshold

     Davidson diagonalization with overlap

---- Real-time Memory Report at c_bands before calling an iterative solver
           277 MiB given to the printing process from OS
             0 MiB allocation reported by mallinfo(arena+hblkhd)
         82900 MiB available memory on the node where the printing process lives
------------------
     ethr =  1.81E-04,  avg # of iterations =  6.8

     negative rho (up, down):  5.925E-03 0.000E+00

     total cpu time spent up to now is      586.8 secs

     total energy              =  -29533.85659708 Ry
     estimated scf accuracy    <       2.51209801 Ry

     iteration #  2     ecut=    30.00 Ry     beta= 0.70
     Davidson diagonalization with overlap

---- Real-time Memory Report at c_bands before calling an iterative solver
           277 MiB given to the printing process from OS
             0 MiB allocation reported by mallinfo(arena+hblkhd)
         82898 MiB available memory on the node where the printing process lives
------------------
     ethr =  1.96E-04,  avg # of iterations =  6.8

     negative rho (up, down):  7.045E-03 0.000E+00

     total cpu time spent up to now is      947.1 secs

     total energy              =  -29533.84324148 Ry
     estimated scf accuracy    <       6.13497074 Ry

     iteration #  3     ecut=    30.00 Ry     beta= 0.70
     Davidson diagonalization with overlap

---- Real-time Memory Report at c_bands before calling an iterative solver
           295 MiB given to the printing process from OS
             0 MiB allocation reported by mallinfo(arena+hblkhd)
         82728 MiB available memory on the node where the printing process lives
------------------
     ethr =  1.96E-04,  avg # of iterations =  8.8

     negative rho (up, down):  7.279E-03 0.000E+00

     total cpu time spent up to now is     1296.1 secs

     total energy              =  -29532.58198803 Ry
     estimated scf accuracy    <      64.18069190 Ry

     iteration #  4     ecut=    30.00 Ry     beta= 0.70
     Davidson diagonalization with overlap

---- Real-time Memory Report at c_bands before calling an iterative solver
           295 MiB given to the printing process from OS
             0 MiB allocation reported by mallinfo(arena+hblkhd)
         82720 MiB available memory on the node where the printing process lives
------------------
     ethr =  1.96E-04,  avg # of iterations =  8.8

     negative rho (up, down):  8.271E-03 0.000E+00

     total cpu time spent up to now is     1556.5 secs

     total energy              =  -29535.14996978 Ry
     estimated scf accuracy    <       0.14708756 Ry

     iteration #  5     ecut=    30.00 Ry     beta= 0.70
     Davidson diagonalization with overlap

---- Real-time Memory Report at c_bands before calling an iterative solver
           295 MiB given to the printing process from OS
             0 MiB allocation reported by mallinfo(arena+hblkhd)
         82709 MiB available memory on the node where the printing process lives
------------------
     ethr =  1.15E-05,  avg # of iterations = 13.2

     negative rho (up, down):  9.648E-03 0.000E+00

     total cpu time spent up to now is     1862.6 secs

     total energy              =  -29535.13744572 Ry
     estimated scf accuracy    <       0.77196474 Ry

     iteration #  6     ecut=    30.00 Ry     beta= 0.70
     Davidson diagonalization with overlap

---- Real-time Memory Report at c_bands before calling an iterative solver
           296 MiB given to the printing process from OS
             0 MiB allocation reported by mallinfo(arena+hblkhd)
         82698 MiB available memory on the node where the printing process lives
------------------
     ethr =  1.15E-05,  avg # of iterations = 11.4

     negative rho (up, down):  9.869E-03 0.000E+00

     total cpu time spent up to now is     2128.4 secs

     total energy              =  -29535.20148826 Ry
     estimated scf accuracy    <       0.00554065 Ry

     iteration #  7     ecut=    30.00 Ry     beta= 0.70
     Davidson diagonalization with overlap

---- Real-time Memory Report at c_bands before calling an iterative solver
           296 MiB given to the printing process from OS
             0 MiB allocation reported by mallinfo(arena+hblkhd)
         82687 MiB available memory on the node where the printing process lives
------------------
     ethr =  4.33E-07,  avg # of iterations =  6.8

     negative rho (up, down):  9.953E-03 0.000E+00

     total cpu time spent up to now is     2414.9 secs

     total energy              =  -29535.20265193 Ry
     estimated scf accuracy    <       0.00119380 Ry

     iteration #  8     ecut=    30.00 Ry     beta= 0.70
     Davidson diagonalization with overlap

---- Real-time Memory Report at c_bands before calling an iterative solver
           296 MiB given to the printing process from OS
             0 MiB allocation reported by mallinfo(arena+hblkhd)
         82678 MiB available memory on the node where the printing process lives
------------------
     ethr =  9.33E-08,  avg # of iterations =  2.0

     negative rho (up, down):  9.981E-03 0.000E+00

     total cpu time spent up to now is     2633.0 secs

     total energy              =  -29535.20282971 Ry
     estimated scf accuracy    <       0.00019386 Ry

     iteration #  9     ecut=    30.00 Ry     beta= 0.70
     Davidson diagonalization with overlap

---- Real-time Memory Report at c_bands before calling an iterative solver
           296 MiB given to the printing process from OS
             0 MiB allocation reported by mallinfo(arena+hblkhd)
         82667 MiB available memory on the node where the printing process lives
------------------
     ethr =  1.51E-08,  avg # of iterations =  2.0

     negative rho (up, down):  9.985E-03 0.000E+00

     total cpu time spent up to now is     2873.0 secs

     total energy              =  -29535.20284830 Ry
     estimated scf accuracy    <       0.00006636 Ry

     iteration # 10     ecut=    30.00 Ry     beta= 0.70
     Davidson diagonalization with overlap

---- Real-time Memory Report at c_bands before calling an iterative solver
           296 MiB given to the printing process from OS
             0 MiB allocation reported by mallinfo(arena+hblkhd)
         82657 MiB available memory on the node where the printing process lives
------------------
     ethr =  5.18E-09,  avg # of iterations =  2.0

     negative rho (up, down):  9.986E-03 0.000E+00

     total cpu time spent up to now is     3089.3 secs

     total energy              =  -29535.20285534 Ry
     estimated scf accuracy    <       0.00009570 Ry

     iteration # 11     ecut=    30.00 Ry     beta= 0.70
     Davidson diagonalization with overlap

---- Real-time Memory Report at c_bands before calling an iterative solver
           296 MiB given to the printing process from OS
             0 MiB allocation reported by mallinfo(arena+hblkhd)
         82649 MiB available memory on the node where the printing process lives
------------------
     ethr =  5.18E-09,  avg # of iterations =  2.0

     negative rho (up, down):  9.984E-03 0.000E+00

     total cpu time spent up to now is     3304.3 secs

     total energy              =  -29535.20286444 Ry
     estimated scf accuracy    <       0.00001003 Ry

     iteration # 12     ecut=    30.00 Ry     beta= 0.70
     Davidson diagonalization with overlap

---- Real-time Memory Report at c_bands before calling an iterative solver
           296 MiB given to the printing process from OS
             0 MiB allocation reported by mallinfo(arena+hblkhd)
         82645 MiB available memory on the node where the printing process lives
------------------
     ethr =  7.83E-10,  avg # of iterations =  2.0

     negative rho (up, down):  9.981E-03 0.000E+00

     total cpu time spent up to now is     3522.5 secs

     total energy              =  -29535.20286546 Ry
     estimated scf accuracy    <       0.00000964 Ry

     iteration # 13     ecut=    30.00 Ry     beta= 0.70
     Davidson diagonalization with overlap

---- Real-time Memory Report at c_bands before calling an iterative solver
           296 MiB given to the printing process from OS
             0 MiB allocation reported by mallinfo(arena+hblkhd)
         82647 MiB available memory on the node where the printing process lives
------------------
     ethr =  7.53E-10,  avg # of iterations =  2.0

     negative rho (up, down):  9.982E-03 0.000E+00

     total cpu time spent up to now is     3737.2 secs

     total energy              =  -29535.20286632 Ry
     estimated scf accuracy    <       0.00000449 Ry

     iteration # 14     ecut=    30.00 Ry     beta= 0.70
     Davidson diagonalization with overlap

---- Real-time Memory Report at c_bands before calling an iterative solver
           296 MiB given to the printing process from OS
             0 MiB allocation reported by mallinfo(arena+hblkhd)
         82645 MiB available memory on the node where the printing process lives
------------------
     ethr =  3.51E-10,  avg # of iterations =  1.0

     negative rho (up, down):  9.981E-03 0.000E+00

     total cpu time spent up to now is     3913.7 secs

     total energy              =  -29535.20286660 Ry
     estimated scf accuracy    <       0.00000268 Ry

     iteration # 15     ecut=    30.00 Ry     beta= 0.70
     Davidson diagonalization with overlap

---- Real-time Memory Report at c_bands before calling an iterative solver
           296 MiB given to the printing process from OS
             0 MiB allocation reported by mallinfo(arena+hblkhd)
         82644 MiB available memory on the node where the printing process lives
------------------
     ethr =  2.10E-10,  avg # of iterations =  1.0

     negative rho (up, down):  9.981E-03 0.000E+00

     total cpu time spent up to now is     4090.3 secs

     total energy              =  -29535.20286666 Ry
     estimated scf accuracy    <       0.00000062 Ry

     iteration # 16     ecut=    30.00 Ry     beta= 0.70
     Davidson diagonalization with overlap

---- Real-time Memory Report at c_bands before calling an iterative solver
           296 MiB given to the printing process from OS
             0 MiB allocation reported by mallinfo(arena+hblkhd)
         82644 MiB available memory on the node where the printing process lives
------------------
     ethr =  4.83E-11,  avg # of iterations =  2.0

     negative rho (up, down):  9.981E-03 0.000E+00

     total cpu time spent up to now is     4304.6 secs

     total energy              =  -29535.20286673 Ry
     estimated scf accuracy    <       0.00000008 Ry

     iteration # 17     ecut=    30.00 Ry     beta= 0.70
     Davidson diagonalization with overlap

---- Real-time Memory Report at c_bands before calling an iterative solver
           296 MiB given to the printing process from OS
             0 MiB allocation reported by mallinfo(arena+hblkhd)
         82645 MiB available memory on the node where the printing process lives
------------------
     ethr =  6.36E-12,  avg # of iterations =  2.0

     negative rho (up, down):  9.980E-03 0.000E+00

     total cpu time spent up to now is     4519.9 secs

     total energy              =  -29535.20286673 Ry
     estimated scf accuracy    <       0.00000002 Ry

     iteration # 18     ecut=    30.00 Ry     beta= 0.70
     Davidson diagonalization with overlap

---- Real-time Memory Report at c_bands before calling an iterative solver
           296 MiB given to the printing process from OS
             0 MiB allocation reported by mallinfo(arena+hblkhd)
         82724 MiB available memory on the node where the printing process lives
------------------
     ethr =  1.33E-12,  avg # of iterations =  2.0

     negative rho (up, down):  9.980E-03 0.000E+00

     total cpu time spent up to now is     4735.2 secs

     End of self-consistent calculation

          k = 0.0000 0.0000 0.0000 ( 44003 PWs)   bands (ev):

  -123.6185-123.6170-123.6170-123.6163-123.6163-123.6160-123.6160-123.6159
  -123.5546-123.5533-123.5532-123.5526-123.5524-123.5519-123.5518-123.5514
  -123.5454-123.5440-123.5440-123.5433-123.5429-123.5429-123.5428-123.5427
  -123.4335-123.4321-123.4320-123.4315-123.4313-123.4312-123.4311-123.4309
  -123.4273-123.4259-123.4259-123.4251-123.4251-123.4251-123.4249-123.4249
  -123.3913-123.3899-123.3899-123.3891-123.3890-123.3889-123.3889-123.3888
  -123.3425-123.3412-123.3411-123.3405-123.3403-123.3398-123.3397-123.3392
  -123.2726-123.2714-123.2713-123.2708-123.2698-123.2695-123.2691-123.2689
   -77.7208 -77.7179 -77.7113 -77.7100 -77.7099 -77.7097 -77.7096 -77.7094
   -77.7094 -77.7089 -77.7076 -77.7041 -77.7041 -77.7002 -77.7002 -77.6983
   -77.6979 -77.6979 -77.6970 -77.6966 -77.6965 -77.6962 -77.6889 -77.6820
   -77.6545 -77.6517 -77.6472 -77.6464 -77.6451 -77.6450 -77.6450 -77.6444
   -77.6441 -77.6441 -77.6434 -77.6423 -77.6417 -77.6417 -77.6417 -77.6404
   -77.6392 -77.6378 -77.6372 -77.6372 -77.6366 -77.6366 -77.6359 -77.6359
   -77.6359 -77.6354 -77.6346 -77.6340 -77.6340 -77.6336 -77.6326 -77.6326
   -77.6323 -77.6323 -77.6315 -77.6304 -77.6291 -77.6291 -77.6284 -77.6251
   -77.6241 -77.6239 -77.6239 -77.6215 -77.6215 -77.6194 -77.6130 -77.6014
   -77.5357 -77.5352 -77.5335 -77.5304 -77.5303 -77.5286 -77.5270 -77.5262
   -77.5238 -77.5237 -77.5231 -77.5230 -77.5221 -77.5217 -77.5217 -77.5202
   -77.5201 -77.5179 -77.5178 -77.5175 -77.5175 -77.5165 -77.5156 -77.5154
   -77.5151 -77.5151 -77.5143 -77.5143 -77.5140 -77.5140 -77.5136 -77.5136
   -77.5132 -77.5126 -77.5126 -77.5119 -77.5107 -77.5107 -77.5103 -77.5094
   -77.5081 -77.5081 -77.5064 -77.5064 -77.5052 -77.5011 -77.5008 -77.5008
   -77.5005 -77.5005 -77.5002 -77.4989 -77.4986 -77.4981 -77.4975 -77.4905
   -77.4850 -77.4825 -77.4762 -77.4717 -77.4717 -77.4652 -77.4647 -77.4647
   -77.4642 -77.4642 -77.4638 -77.4635 -77.4628 -77.4628 -77.4545 -77.4442
   -77.4426 -77.4413 -77.4399 -77.4398 -77.4397 -77.4391 -77.4388 -77.4385
   -77.4383 -77.4367 -77.4310 -77.4263 -77.4263 -77.4219 -77.4219 -77.4202
   -77.4198 -77.4198 -77.4192 -77.4187 -77.4186 -77.4179 -77.4115 -77.4049
   -77.3711 -77.3688 -77.3681 -77.3670 -77.3669 -77.3663 -77.3663 -77.3659
   -77.3656 -77.3655 -77.3652 -77.3650 -77.3637 -77.3605 -77.3586 -77.3586
   -77.3581 -77.3578 -77.3482 -77.3482 -77.3456 -77.3456 -77.3378 -77.3273
    -6.7768  -5.8715  -5.7137  -5.5057  -5.5056  -5.4246  -5.2782  -5.2144
    -5.2038  -5.1517  -5.1251  -5.1249  -5.1171  -5.1011  -5.1000  -5.0992
    -5.0975  -5.0514  -5.0480  -5.0328  -5.0328  -4.9751  -4.9735  -4.9734
    -4.9640  -4.9533  -4.9502  -4.9440  -4.9424  -4.9424  -4.9233  -4.9160
    -4.9128  -4.9128  -4.9101  -4.9041  -4.8956  -4.8956  -4.8920  -4.8882
    -4.8713  -4.8713  -4.8684  -4.8608  -4.8551  -4.8551  -4.8284  -4.8284
    -4.8264  -4.8052  -4.8024  -4.7974  -4.7940  -4.7736  -4.7736  -4.7719
    -4.7719  -4.7581  -4.7544  -4.7391  -4.7391  -4.7304  -4.7304  -4.6950
    -4.6950  -4.6920  -4.6913  -4.6912  -4.6894  -4.6893  -4.6855  -4.6846
    -4.6723  -4.6723  -4.6712  -4.6638  -4.6578  -4.6549  -4.6548  -4.6514
    -4.6514  -4.6460  -4.6393  -4.6381  -4.6380  -4.6334  -4.6051  -4.5909
    -4.5833  -4.5833  -4.5795  -4.5777  -4.5655  -4.5648  -4.5647  -4.5402
    -4.5340  -4.5306  -4.5306  -4.5253  -4.5104  -4.5104  -4.5097  -4.4992
    -4.4986  -4.4985  -4.4938  -4.4937  -4.4850  -4.4850  -4.4806  -4.4806
    -4.4743  -4.4519  -4.4414  -4.4414  -4.4360  -4.4358  -4.4358  -4.4299
    -4.4299  -4.4277  -4.4242  -4.4242  -4.4204  -4.4127  -4.4121  -4.4076
    -4.4045  -4.4002  -4.4002  -4.3944  -4.3938  -4.3938  -4.3743  -4.3703
    -4.3703  -4.3669  -4.3647  -4.3647  -4.3602  -4.3562  -4.3561  -4.3542
    -4.3542  -4.3325  -4.3319  -4.3182  -4.3182  -4.3157  -4.3156  -4.3130
    -4.3112  -4.3076  -4.3019  -4.2951  -4.2951  -4.2883  -4.2831  -4.2831
    -4.2786  -4.2710  -4.2565  -4.2523  -4.2523  -4.2505  -4.2505  -4.2456
    -4.2411  -4.2379  -4.2379  -4.2367  -4.2228  -4.2159  -4.2159  -4.2159
    -4.2139  -4.2138  -4.2126  -4.2098  -4.2013  -4.1982  -4.1982  -4.1955
    -4.1955  -4.1898  -4.1898  -4.1609  -4.1609  -4.1552  -4.1504  -4.1492
    -4.1406  -4.1375  -4.1374  -4.1341  -4.1341  -4.1312  -4.1310  -4.1310
    -4.1300  -4.1241  -4.1241  -4.1001  -4.0997  -4.0971  -4.0938  -4.0891
    -4.0891  -4.0867  -4.0862  -4.0841  -4.0841  -4.0840  -4.0820  -4.0820
    -4.0769  -4.0751  -4.0735  -4.0702  -4.0702  -4.0609  -4.0609  -4.0509
    -4.0498  -4.0460  -4.0460  -4.0460  -4.0399  -4.0393  -4.0358  -4.0357
    -4.0353  -4.0232  -4.0232  -4.0223  -4.0179  -4.0150  -4.0150  -4.0126
    -4.0126  -4.0095  -3.9957  -3.9957  -3.9747  -3.9747  -3.9730  -3.9697
    -3.9671  -3.9671  -3.9628  -3.9623  -3.9602  -3.9582  -3.9582  -3.9548
    -3.9529  -3.9514  -3.9514  -3.9490  -3.9408  -3.9408  -3.9334  -3.9263
    -3.9252  -3.9212  -3.9089  -3.9088  -3.9086  -3.9058  -3.9049  -3.8960
    -3.8831  -3.8831  -3.8813  -3.8761  -3.8719  -3.8719  -3.8716  -3.8716
    -3.8638  -3.8638  -3.8561  -3.8560  -3.8482  -3.8482  -3.8467  -3.8467
    -3.8439  -3.8439  -3.8438  -3.8428  -3.8413  -3.8379  -3.8323  -3.8121
    -3.7938  -3.7891  -3.7869  -3.7825  -3.7825  -3.7771  -3.7742  -3.7735
    -3.7735  -3.7734  -3.7686  -3.7650  -3.7606  -3.7606  -3.7551  -3.7482
    -3.7423  -3.7325  -3.7290  -3.7279  -3.7262  -3.7164  -3.6988  -3.6949
    -3.6872  -3.6745  -3.6613  -3.5469  -3.5465  -3.5314  -3.5314  -3.5096
    -3.4501  -3.4121  -3.3468  -3.0727  -3.0727  -2.9007  -2.9007  -2.2018
    -2.2017  -2.1112  -2.1111  -2.1011  -2.1010  -2.0196  -1.9255  -1.2400
    -0.5900  -0.5900  -0.5360  -0.5359  -0.4121  -0.4095  -0.0217  -0.0216
     0.1548   0.2164   0.2998   0.3806   0.6119   0.7565   0.7892   0.8865
     0.9363   1.1274   1.2145   1.3325   1.4298   1.4299   1.5165   1.6667
     1.6757   1.6757   1.7157   1.7157   1.7249   1.8225   1.8256   2.0548
     2.1190   2.1191   2.2389   2.5033   2.5033   2.6472   2.6703   2.6703
     2.6905   2.9388   2.9398   3.1310   3.1310   3.7271   3.7639   4.0823
     4.1266   4.1517   4.1517   4.1685   4.2288   4.2955   4.2956   4.3082
     4.3365   4.3365   4.6593   4.6593   4.8016   5.1018   5.1869   5.1870
     5.2681   5.5146   5.7008   5.7663   5.8339   6.0113   6.0442   6.0549
     6.1163   6.2435   6.2436   6.3900   6.4288   6.4542   6.4543   6.6844
     6.6886   6.6886   6.7783   6.8969   6.9082   6.9083   7.0171   7.0857
     7.0989   7.3049   7.3081   7.3081   7.3270   7.4739   7.4739   7.7469
     7.7731   7.7731   7.7899   8.1039   8.1102   8.1102   8.1648   8.2732
     8.2732   8.3915   8.4407   8.4408   8.4771   8.5028   8.5029   8.5263
     8.5661   8.6208   8.6473   8.6646   8.7143   8.7529   8.7951   8.8107
     8.8525   8.8775   8.9187   8.9187   9.0472   9.0473   9.0875   9.1105
     9.1105   9.3260   9.3261   9.3620   9.3647   9.3647   9.4273   9.4342
     9.4344   9.5359   9.5390   9.5428   9.6504   9.7137   9.7137   9.7398
     9.7398   9.7411   9.7411   9.9120   9.9121   9.9617   9.9618  10.2471
    10.2606  10.3385  10.3887  10.3887  10.4406  10.4406  10.5888  10.5899
    10.6163  10.6164  10.6265  10.7228  10.7446  10.7578  10.8643  10.8643

     occupation numbers 
     1.0000   1.0000   1.0000   1.0000   1.0000   1.0000   1.0000   1.0000
     1.0000   1.0000   1.0000   1.0000   1.0000   1.0000   1.0000   1.0000
     1.0000   1.0000   1.0000   1.0000   1.0000   1.0000   1.0000   1.0000
     1.0000   1.0000   1.0000   1.0000   1.0000   1.0000   1.0000   1.0000
     1.0000   1.0000   1.0000   1.0000   1.0000   1.0000   1.0000   1.0000
     1.0000   1.0000   1.0000   1.0000   1.0000   1.0000   1.0000   1.0000
     1.0000   1.0000   1.0000   1.0000   1.0000   1.0000   1.0000   1.0000
     1.0000   1.0000   1.0000   1.0000   1.0000   1.0000   1.0000   1.0000
     1.0000   1.0000   1.0000   1.0000   1.0000   1.0000   1.0000   1.0000
     1.0000   1.0000   1.0000   1.0000   1.0000   1.0000   1.0000   1.0000
     1.0000   1.0000   1.0000   1.0000   1.0000   1.0000   1.0000   1.0000
     1.0000   1.0000   1.0000   1.0000   1.0000   1.0000   1.0000   1.0000
     1.0000   1.0000   1.0000   1.0000   1.0000   1.0000   1.0000   1.0000
     1.0000   1.0000   1.0000   1.0000   1.0000   1.0000   1.0000   1.0000
     1.0000   1.0000   1.0000   1.0000   1.0000   1.0000   1.0000   1.0000
     1.0000   1.0000   1.0000   1.0000   1.0000   1.0000   1.0000   1.0000
     1.0000   1.0000   1.0000   1.0000   1.0000   1.0000   1.0000   1.0000
     1.0000   1.0000   1.0000   1.0000   1.0000   1.0000   1.0000   1.0000
     1.0000   1.0000   1.0000   1.0000   1.0000   1.0000   1.0000   1.0000
     1.0000   1.0000   1.0000   1.0000   1.0000   1.0000   1.0000   1.0000
     1.0000   1.0000   1.0000   1.0000   1.0000   1.0000   1.0000   1.0000
     1.0000   1.0000   1.0000   1.0000   1.0000   1.0000   1.0000   1.0000
     1.0000   1.0000   1.0000   1.0000   1.0000   1.0000   1.0000   1.0000
     1.0000   1.0000   1.0000   1.0000   1.0000   1.0000   1.0000   1.0000
     1.0000   1.0000   1.0000   1.0000   1.0000   1.0000   1.0000   1.0000
     1.0000   1.0000   1.0000   1.0000   1.0000   1.0000   1.0000   1.0000
     1.0000   1.0000   1.0000   1.0000   1.0000   1.0000   1.0000   1.0000
     1.0000   1.0000   1.0000   1.0000   1.0000   1.0000   1.0000   1.0000
     1.0000   1.0000   1.0000   1.0000   1.0000   1.0000   1.0000   1.0000
     1.0000   1.0000   1.0000   1.0000   1.0000   1.0000   1.0000   1.0000
     1.0000   1.0000   1.0000   1.0000   1.0000   1.0000   1.0000   1.0000
     1.0000   1.0000   1.0000   1.0000   1.0000   1.0000   1.0000   1.0000
     1.0000   1.0000   1.0000   1.0000   1.0000   1.0000   1.0000   1.0000
     1.0000   1.0000   1.0000   1.0000   1.0000   1.0000   1.0000   1.0000
     1.0000   1.0000   1.0000   1.0000   1.0000   1.0000   1.0000   1.0000
     1.0000   1.0000   1.0000   1.0000   1.0000   1.0000   1.0000   1.0000
     1.0000   1.0000   1.0000   1.0000   1.0000   1.0000   1.0000   1.0000
     1.0000   1.0000   1.0000   1.0000   1.0000   1.0000   1.0000   1.0000
     1.0000   1.0000   1.0000   1.0000   1.0000   1.0000   1.0000   1.0000
     1.0000   1.0000   1.0000   1.0000   1.0000   1.0000   1.0000   1.0000
     1.0000   1.0000   1.0000   1.0000   1.0000   1.0000   1.0000   1.0000
     1.0000   1.0000   1.0000   1.0000   1.0000   1.0000   1.0000   1.0000
     1.0000   1.0000   1.0000   1.0000   1.0000   1.0000   1.0000   1.0000
     1.0000   1.0000   1.0000   1.0000   1.0000   1.0000   1.0000   1.0000
     1.0000   1.0000   1.0000   1.0000   1.0000   1.0000   1.0000   1.0000
     1.0000   1.0000   1.0000   1.0000   1.0000   1.0000   1.0000   1.0000
     1.0000   1.0000   1.0000   1.0000   1.0000   1.0000   1.0000   1.0000
     1.0000   1.0000   1.0000   1.0000   1.0000   1.0000   1.0000   1.0000
     1.0000   1.0000   1.0000   1.0000   1.0000   1.0000   1.0000   1.0000
     1.0000   1.0000   1.0000   1.0000   1.0000   1.0000   1.0000   1.0000
     1.0000   1.0000   1.0000   1.0000   1.0000   1.0000   1.0000   1.0000
     1.0000   1.0000   1.0000   1.0000   1.0000   1.0000   1.0000   1.0000
     1.0000   1.0000   1.0000   1.0000   1.0000   1.0000   1.0000   1.0000
     1.0000   1.0000   1.0000   1.0000   1.0000   1.0000   1.0000   1.0000
     1.0000   1.0000   1.0000   1.0000   1.0000   1.0000   1.0000   1.0000
     1.0000   1.0000   1.0000   1.0000   1.0000   1.0000   1.0000   1.0000
     1.0000   1.0000   1.0000   1.0000   1.0000   1.0000   1.0000   1.0000
     1.0000   1.0000   1.0000   1.0000   1.0000   1.0000   1.0000   1.0000
     1.0000   1.0000   1.0000   1.0000   1.0000   1.0000   1.0000   1.0000
     1.0000   1.0000   1.0000   1.0000   1.0000   1.0000   1.0000   1.0000
     1.0000   1.0000   1.0000   1.0000   1.0000   1.0000   1.0000   1.0000
     1.0000   1.0000   1.0000   1.0000   1.0000   1.0000   1.0000   1.0000
     1.0000   1.0000   1.0000   1.0000   1.0000   1.0000   1.0000   1.0000
     1.0000   1.0000   1.0000   1.0000   1.0000   1.0000   1.0000   1.0000
     1.0000   1.0000   1.0000   1.0000   1.0000   1.0000   1.0000   1.0000
     1.0000   1.0000   1.0000   1.0000   1.0000   1.0000   1.0000   1.0000
     1.0000   1.0000   1.0000   1.0000   1.0000   1.0000   1.0000   1.0000
     1.0000   1.0000   1.0000   1.0000   1.0000   1.0000   1.0000   1.0000
     1.0000   1.0000   1.0000   1.0000   1.0000   1.0000   1.0000   1.0000
     1.0000   1.0000   1.0000   1.0000   1.0000   1.0000   1.0000   1.0000
     1.0000   1.0000   1.0000   1.0000   1.0000   1.0000   1.0000   1.0000
     1.0000   1.0000   1.0000   1.0000   1.0000   1.0000   1.0000   1.0000
     1.0000   1.0000   1.0000   1.0000   1.0000   1.0000   1.0000   1.0000
     1.0000   1.0000   1.0000   1.0000   1.0000   1.0000   1.0000   1.0000
     1.0000   1.0000   1.0000   1.0000   1.0000   1.0000   1.0000   1.0000
     1.0000   1.0000   1.0000   1.0000   1.0000   1.0000   1.0000   1.0000
     1.0000   1.0000   1.0000   1.0000   1.0000   1.0000   1.0000   1.0000
     1.0000   1.0000   1.0000   1.0000   1.0000   1.0000   1.0000   1.0000
     1.0000   1.0000   1.0000   1.0000   1.0000   1.0000   1.0000   1.0000
     1.0001   1.0001   1.0011   1.0330   1.0330   1.0783   1.0822   1.0822
     1.0833   0.7654   0.7630   0.2703   0.2702   0.0000   0.0000   0.0000
     0.0000   0.0000   0.0000   0.0000   0.0000   0.0000   0.0000   0.0000
     0.0000   0.0000   0.0000   0.0000   0.0000   0.0000   0.0000   0.0000
     0.0000   0.0000   0.0000   0.0000   0.0000   0.0000   0.0000   0.0000
     0.0000   0.0000   0.0000   0.0000   0.0000   0.0000   0.0000   0.0000
     0.0000   0.0000   0.0000   0.0000   0.0000   0.0000   0.0000   0.0000
     0.0000   0.0000   0.0000   0.0000   0.0000   0.0000   0.0000   0.0000
     0.0000   0.0000   0.0000   0.0000   0.0000   0.0000   0.0000   0.0000
     0.0000   0.0000   0.0000   0.0000   0.0000   0.0000   0.0000   0.0000
     0.0000   0.0000   0.0000   0.0000   0.0000   0.0000   0.0000   0.0000
     0.0000   0.0000   0.0000   0.0000   0.0000   0.0000   0.0000   0.0000
     0.0000   0.0000   0.0000   0.0000   0.0000   0.0000   0.0000   0.0000
     0.0000   0.0000   0.0000   0.0000   0.0000   0.0000   0.0000   0.0000
     0.0000   0.0000   0.0000   0.0000   0.0000   0.0000   0.0000   0.0000
     0.0000   0.0000   0.0000   0.0000   0.0000   0.0000   0.0000   0.0000
     0.0000   0.0000   0.0000   0.0000   0.0000   0.0000   0.0000   0.0000

          k = 0.0000 0.3107 0.1794 ( 43969 PWs)   bands (ev):

  -123.6180-123.6171-123.6167-123.6164-123.6163-123.6161-123.6159-123.6158
  -123.5542-123.5533-123.5528-123.5526-123.5524-123.5520-123.5517-123.5513
  -123.5449-123.5441-123.5434-123.5434-123.5432-123.5431-123.5427-123.5426
  -123.4331-123.4321-123.4318-123.4315-123.4314-123.4312-123.4310-123.4308
  -123.4269-123.4260-123.4257-123.4253-123.4251-123.4250-123.4250-123.4248
  -123.3908-123.3900-123.3894-123.3893-123.3891-123.3889-123.3889-123.3888
  -123.3421-123.3412-123.3407-123.3406-123.3403-123.3399-123.3396-123.3391
  -123.2723-123.2715-123.2710-123.2706-123.2701-123.2695-123.2691-123.2688
   -77.7169 -77.7137 -77.7108 -77.7106 -77.7105 -77.7096 -77.7094 -77.7089
   -77.7086 -77.7085 -77.7083 -77.7071 -77.7062 -77.7048 -77.7012 -77.6976
   -77.6961 -77.6956 -77.6954 -77.6950 -77.6926 -77.6921 -77.6885 -77.6880
   -77.6509 -77.6477 -77.6465 -77.6455 -77.6451 -77.6445 -77.6444 -77.6438
   -77.6432 -77.6431 -77.6424 -77.6416 -77.6413 -77.6408 -77.6398 -77.6398
   -77.6394 -77.6389 -77.6386 -77.6384 -77.6381 -77.6377 -77.6373 -77.6370
   -77.6361 -77.6360 -77.6355 -77.6331 -77.6328 -77.6328 -77.6319 -77.6312
   -77.6310 -77.6308 -77.6299 -77.6297 -77.6283 -77.6275 -77.6274 -77.6272
   -77.6262 -77.6262 -77.6239 -77.6226 -77.6165 -77.6156 -77.6125 -77.6113
   -77.5340 -77.5322 -77.5304 -77.5290 -77.5273 -77.5254 -77.5246 -77.5239
   -77.5229 -77.5227 -77.5220 -77.5219 -77.5219 -77.5217 -77.5214 -77.5212
   -77.5199 -77.5191 -77.5188 -77.5184 -77.5176 -77.5173 -77.5169 -77.5162
   -77.5158 -77.5147 -77.5144 -77.5142 -77.5134 -77.5133 -77.5128 -77.5127
   -77.5122 -77.5122 -77.5122 -77.5119 -77.5113 -77.5112 -77.5111 -77.5106
   -77.5081 -77.5076 -77.5046 -77.5043 -77.5018 -77.5015 -77.5015 -77.5011
   -77.5007 -77.5007 -77.5004 -77.5004 -77.4995 -77.4992 -77.4978 -77.4965
   -77.4811 -77.4785 -77.4751 -77.4720 -77.4716 -77.4709 -77.4687 -77.4650
   -77.4638 -77.4629 -77.4626 -77.4624 -77.4577 -77.4571 -77.4540 -77.4528
   -77.4411 -77.4401 -77.4400 -77.4397 -77.4394 -77.4392 -77.4383 -77.4380
   -77.4372 -77.4355 -77.4302 -77.4293 -77.4277 -77.4268 -77.4234 -77.4198
   -77.4184 -77.4179 -77.4175 -77.4170 -77.4153 -77.4138 -77.4115 -77.4102
   -77.3699 -77.3681 -77.3671 -77.3668 -77.3666 -77.3663 -77.3662 -77.3656
   -77.3648 -77.3646 -77.3637 -77.3635 -77.3615 -77.3600 -77.3581 -77.3574
   -77.3570 -77.3567 -77.3556 -77.3536 -77.3413 -77.3394 -77.3375 -77.3355
    -6.6178  -6.1592  -5.7221  -5.5857  -5.3172  -5.3063  -5.2644  -5.2095
    -5.1380  -5.1357  -5.1258  -5.1010  -5.0993  -5.0887  -5.0797  -5.0438
    -5.0415  -5.0406  -5.0386  -5.0382  -5.0316  -5.0315  -5.0240  -5.0203
    -5.0122  -5.0028  -4.9825  -4.9780  -4.9714  -4.9481  -4.9390  -4.9161
    -4.9161  -4.9150  -4.9147  -4.9075  -4.9070  -4.8996  -4.8869  -4.8864
    -4.8754  -4.8737  -4.8724  -4.8719  -4.8611  -4.8396  -4.8375  -4.8254
    -4.8216  -4.8201  -4.8149  -4.8137  -4.8113  -4.8074  -4.7980  -4.7911
    -4.7810  -4.7752  -4.7700  -4.7651  -4.7623  -4.7557  -4.7455  -4.7411
    -4.7284  -4.7269  -4.7213  -4.7163  -4.7095  -4.7088  -4.7012  -4.6932
    -4.6821  -4.6766  -4.6683  -4.6529  -4.6507  -4.6446  -4.6438  -4.6436
    -4.6362  -4.6342  -4.6197  -4.6182  -4.6149  -4.6129  -4.6085  -4.6085
    -4.6070  -4.6038  -4.6010  -4.5987  -4.5906  -4.5761  -4.5726  -4.5716
    -4.5714  -4.5614  -4.5611  -4.5510  -4.5367  -4.5295  -4.5164  -4.5114
    -4.5094  -4.5081  -4.4978  -4.4958  -4.4841  -4.4755  -4.4740  -4.4733
    -4.4713  -4.4700  -4.4566  -4.4545  -4.4527  -4.4349  -4.4310  -4.4258
    -4.4252  -4.4199  -4.4167  -4.4132  -4.4130  -4.4111  -4.4085  -4.4076
    -4.4063  -4.4040  -4.4022  -4.3936  -4.3922  -4.3838  -4.3745  -4.3723
    -4.3706  -4.3660  -4.3654  -4.3585  -4.3577  -4.3568  -4.3491  -4.3464
    -4.3450  -4.3427  -4.3381  -4.3368  -4.3244  -4.3243  -4.3235  -4.3199
    -4.3168  -4.3166  -4.3160  -4.3030  -4.3004  -4.2991  -4.2983  -4.2983
    -4.2981  -4.2971  -4.2963  -4.2918  -4.2742  -4.2697  -4.2619  -4.2572
    -4.2540  -4.2492  -4.2423  -4.2392  -4.2305  -4.2257  -4.2167  -4.2145
    -4.2109  -4.2079  -4.2030  -4.2002  -4.1958  -4.1879  -4.1826  -4.1812
    -4.1797  -4.1766  -4.1602  -4.1581  -4.1554  -4.1541  -4.1523  -4.1506
    -4.1416  -4.1408  -4.1401  -4.1392  -4.1388  -4.1369  -4.1359  -4.1328
    -4.1301  -4.1292  -4.1259  -4.1224  -4.1220  -4.1142  -4.1127  -4.1126
    -4.1069  -4.0948  -4.0873  -4.0850  -4.0846  -4.0794  -4.0768  -4.0704
    -4.0694  -4.0640  -4.0623  -4.0501  -4.0457  -4.0450  -4.0439  -4.0405
    -4.0340  -4.0264  -4.0259  -4.0213  -4.0207  -4.0161  -4.0088  -4.0072
    -4.0039  -4.0028  -4.0017  -3.9942  -3.9823  -3.9800  -3.9768  -3.9753
    -3.9740  -3.9721  -3.9686  -3.9593  -3.9589  -3.9548  -3.9482  -3.9476
    -3.9475  -3.9472  -3.9456  -3.9434  -3.9359  -3.9325  -3.9318  -3.9278
    -3.9274  -3.9263  -3.9123  -3.9120  -3.9102  -3.9048  -3.8978  -3.8932
    -3.8921  -3.8912  -3.8872  -3.8852  -3.8827  -3.8819  -3.8809  -3.8780
    -3.8755  -3.8754  -3.8695  -3.8564  -3.8563  -3.8545  -3.8528  -3.8510
    -3.8508  -3.8465  -3.8461  -3.8448  -3.8433  -3.8427  -3.8397  -3.8376
    -3.8354  -3.8329  -3.8323  -3.8321  -3.8313  -3.8208  -3.8207  -3.8150
    -3.8145  -3.8122  -3.8088  -3.8087  -3.8062  -3.7983  -3.7954  -3.7937
    -3.7877  -3.7798  -3.7779  -3.7734  -3.7692  -3.7692  -3.7675  -3.7655
    -3.7579  -3.7497  -3.7462  -3.7422  -3.7406  -3.7352  -3.7333  -3.7185
    -3.6992  -3.6968  -3.6873  -3.6187  -3.5922  -3.5596  -3.5246  -3.4470
    -3.4288  -3.2835  -3.2368  -3.1745  -2.8724  -2.8075  -2.7632  -2.6787
    -2.1742  -2.1472  -1.9286  -1.8437  -1.7600  -1.3546  -1.2896  -1.2745
    -1.1881  -1.1049  -1.0901  -1.0713  -0.8152  -0.7019  -0.5378   0.1578
     0.2921   0.2984   0.3032   0.4513   0.4558   0.4614   0.5067   0.7252
     0.8548   0.9296   0.9676   1.1214   1.1299   1.1607   1.5513   1.6314
     1.6659   1.6718   1.6861   1.7491   1.9910   2.1740   2.2087   2.3941
     2.5759   2.6440   2.6474   2.7787   2.8457   2.8773   2.9217   3.0773
     3.1437   3.3888   3.4189   3.4227   3.4237   3.4845   3.7345   3.7390
     3.7833   3.8921   3.9213   4.1067   4.3678   4.3680   4.3847   4.5602
     4.6084   4.6450   4.7043   4.8940   4.9948   5.1602   5.2466   5.2950
     5.4270   5.4301   5.5133   5.5569   5.5711   5.6740   5.7480   5.8350
     5.8665   5.9108   5.9551   5.9956   6.0228   6.1573   6.2941   6.2985
     6.3129   6.5343   6.5951   6.7191   6.7265   6.7293   6.8174   6.8252
     6.8560   7.0059   7.1428   7.2601   7.3937   7.4670   7.6433   7.6657
     7.6734   7.7274   7.7741   7.8085   7.9458   7.9641   8.0006   8.0185
     8.0866   8.1604   8.2466   8.3483   8.4035   8.4053   8.4098   8.4134
     8.4255   8.4995   8.5194   8.6916   8.7000   8.8011   8.8132   8.8366
     8.9811   9.0529   9.0731   9.1140   9.1502   9.1672   9.1877   9.2337
     9.2736   9.3956   9.4057   9.4423   9.4584   9.5121   9.5985   9.5986
     9.6244   9.6643   9.7119   9.8239   9.8855   9.9132   9.9139   9.9356
     9.9737   9.9980  10.0412  10.1140  10.1199  10.1465  10.2170  10.2295
    10.2963  10.3947  10.4491  10.4558  10.6091  10.6122  10.6241  10.6276
    10.6848  10.7611  10.7646  10.7841  10.8171  10.8194  10.8374  10.9335

     occupation numbers 
     1.0000   1.0000   1.0000   1.0000   1.0000   1.0000   1.0000   1.0000
     1.0000   1.0000   1.0000   1.0000   1.0000   1.0000   1.0000   1.0000
     1.0000   1.0000   1.0000   1.0000   1.0000   1.0000   1.0000   1.0000
     1.0000   1.0000   1.0000   1.0000   1.0000   1.0000   1.0000   1.0000
     1.0000   1.0000   1.0000   1.0000   1.0000   1.0000   1.0000   1.0000
     1.0000   1.0000   1.0000   1.0000   1.0000   1.0000   1.0000   1.0000
     1.0000   1.0000   1.0000   1.0000   1.0000   1.0000   1.0000   1.0000
     1.0000   1.0000   1.0000   1.0000   1.0000   1.0000   1.0000   1.0000
     1.0000   1.0000   1.0000   1.0000   1.0000   1.0000   1.0000   1.0000
     1.0000   1.0000   1.0000   1.0000   1.0000   1.0000   1.0000   1.0000
     1.0000   1.0000   1.0000   1.0000   1.0000   1.0000   1.0000   1.0000
     1.0000   1.0000   1.0000   1.0000   1.0000   1.0000   1.0000   1.0000
     1.0000   1.0000   1.0000   1.0000   1.0000   1.0000   1.0000   1.0000
     1.0000   1.0000   1.0000   1.0000   1.0000   1.0000   1.0000   1.0000
     1.0000   1.0000   1.0000   1.0000   1.0000   1.0000   1.0000   1.0000
     1.0000   1.0000   1.0000   1.0000   1.0000   1.0000   1.0000   1.0000
     1.0000   1.0000   1.0000   1.0000   1.0000   1.0000   1.0000   1.0000
     1.0000   1.0000   1.0000   1.0000   1.0000   1.0000   1.0000   1.0000
     1.0000   1.0000   1.0000   1.0000   1.0000   1.0000   1.0000   1.0000
     1.0000   1.0000   1.0000   1.0000   1.0000   1.0000   1.0000   1.0000
     1.0000   1.0000   1.0000   1.0000   1.0000   1.0000   1.0000   1.0000
     1.0000   1.0000   1.0000   1.0000   1.0000   1.0000   1.0000   1.0000
     1.0000   1.0000   1.0000   1.0000   1.0000   1.0000   1.0000   1.0000
     1.0000   1.0000   1.0000   1.0000   1.0000   1.0000   1.0000   1.0000
     1.0000   1.0000   1.0000   1.0000   1.0000   1.0000   1.0000   1.0000
     1.0000   1.0000   1.0000   1.0000   1.0000   1.0000   1.0000   1.0000
     1.0000   1.0000   1.0000   1.0000   1.0000   1.0000   1.0000   1.0000
     1.0000   1.0000   1.0000   1.0000   1.0000   1.0000   1.0000   1.0000
     1.0000   1.0000   1.0000   1.0000   1.0000   1.0000   1.0000   1.0000
     1.0000   1.0000   1.0000   1.0000   1.0000   1.0000   1.0000   1.0000
     1.0000   1.0000   1.0000   1.0000   1.0000   1.0000   1.0000   1.0000
     1.0000   1.0000   1.0000   1.0000   1.0000   1.0000   1.0000   1.0000
     1.0000   1.0000   1.0000   1.0000   1.0000   1.0000   1.0000   1.0000
     1.0000   1.0000   1.0000   1.0000   1.0000   1.0000   1.0000   1.0000
     1.0000   1.0000   1.0000   1.0000   1.0000   1.0000   1.0000   1.0000
     1.0000   1.0000   1.0000   1.0000   1.0000   1.0000   1.0000   1.0000
     1.0000   1.0000   1.0000   1.0000   1.0000   1.0000   1.0000   1.0000
     1.0000   1.0000   1.0000   1.0000   1.0000   1.0000   1.0000   1.0000
     1.0000   1.0000   1.0000   1.0000   1.0000   1.0000   1.0000   1.0000
     1.0000   1.0000   1.0000   1.0000   1.0000   1.0000   1.0000   1.0000
     1.0000   1.0000   1.0000   1.0000   1.0000   1.0000   1.0000   1.0000
     1.0000   1.0000   1.0000   1.0000   1.0000   1.0000   1.0000   1.0000
     1.0000   1.0000   1.0000   1.0000   1.0000   1.0000   1.0000   1.0000
     1.0000   1.0000   1.0000   1.0000   1.0000   1.0000   1.0000   1.0000
     1.0000   1.0000   1.0000   1.0000   1.0000   1.0000   1.0000   1.0000
     1.0000   1.0000   1.0000   1.0000   1.0000   1.0000   1.0000   1.0000
     1.0000   1.0000   1.0000   1.0000   1.0000   1.0000   1.0000   1.0000
     1.0000   1.0000   1.0000   1.0000   1.0000   1.0000   1.0000   1.0000
     1.0000   1.0000   1.0000   1.0000   1.0000   1.0000   1.0000   1.0000
     1.0000   1.0000   1.0000   1.0000   1.0000   1.0000   1.0000   1.0000
     1.0000   1.0000   1.0000   1.0000   1.0000   1.0000   1.0000   1.0000
     1.0000   1.0000   1.0000   1.0000   1.0000   1.0000   1.0000   1.0000
     1.0000   1.0000   1.0000   1.0000   1.0000   1.0000   1.0000   1.0000
     1.0000   1.0000   1.0000   1.0000   1.0000   1.0000   1.0000   1.0000
     1.0000   1.0000   1.0000   1.0000   1.0000   1.0000   1.0000   1.0000
     1.0000   1.0000   1.0000   1.0000   1.0000   1.0000   1.0000   1.0000
     1.0000   1.0000   1.0000   1.0000   1.0000   1.0000   1.0000   1.0000
     1.0000   1.0000   1.0000   1.0000   1.0000   1.0000   1.0000   1.0000
     1.0000   1.0000   1.0000   1.0000   1.0000   1.0000   1.0000   1.0000
     1.0000   1.0000   1.0000   1.0000   1.0000   1.0000   1.0000   1.0000
     1.0000   1.0000   1.0000   1.0000   1.0000   1.0000   1.0000   1.0000
     1.0000   1.0000   1.0000   1.0000   1.0000   1.0000   1.0000   1.0000
     1.0000   1.0000   1.0000   1.0000   1.0000   1.0000   1.0000   1.0000
     1.0000   1.0000   1.0000   1.0000   1.0000   1.0000   1.0000   1.0000
     1.0000   1.0000   1.0000   1.0000   1.0000   1.0000   1.0000   1.0000
     1.0000   1.0000   1.0000   1.0000   1.0000   1.0000   1.0000   1.0000
     1.0000   1.0000   1.0000   1.0000   1.0000   1.0000   1.0000   1.0000
     1.0000   1.0000   1.0000   1.0000   1.0000   1.0000   1.0000   1.0000
     1.0000   1.0000   1.0000   1.0000   1.0000   1.0000   1.0000   1.0000
     1.0000   1.0000   1.0000   1.0000   1.0000   1.0000   1.0000   1.0000
     1.0000   1.0000   1.0000   1.0000   1.0000   1.0000   1.0000   1.0000
     1.0000   1.0000   1.0000   1.0000   1.0000   1.0000   1.0000   1.0000
     1.0000   1.0000   1.0000   1.0000   1.0000   1.0000   1.0000   1.0000
     1.0000   1.0000   1.0000   1.0000   1.0000   1.0000   1.0000   1.0000
     1.0000   1.0000   1.0000   1.0000   1.0000   1.0000   1.0000   1.0000
     1.0000   1.0000   1.0000   1.0000   1.0000   1.0000   1.0000   1.0000
     1.0000   1.0000   1.0000   1.0000   1.0000   1.0000   1.0000   1.0000
     1.0000   1.0000   1.0000   1.0000   1.0000   1.0000   1.0000   1.0000
     1.0000   1.0000   1.0000   1.0000   1.0000   1.0003   1.0006   1.0104
     1.0568   1.0776   1.0784   1.0496   0.9666   0.9083   0.8085   0.3932
     0.2449   0.0166   0.0108   0.0102   0.0100   0.0038   0.0000   0.0000
     0.0000   0.0000   0.0000   0.0000   0.0000   0.0000   0.0000   0.0000
     0.0000   0.0000   0.0000   0.0000   0.0000   0.0000   0.0000   0.0000
     0.0000   0.0000   0.0000   0.0000   0.0000   0.0000   0.0000   0.0000
     0.0000   0.0000   0.0000   0.0000   0.0000   0.0000   0.0000   0.0000
     0.0000   0.0000   0.0000   0.0000   0.0000   0.0000   0.0000   0.0000
     0.0000   0.0000   0.0000   0.0000   0.0000   0.0000   0.0000   0.0000
     0.0000   0.0000   0.0000   0.0000   0.0000   0.0000   0.0000   0.0000
     0.0000   0.0000   0.0000   0.0000   0.0000   0.0000   0.0000   0.0000
     0.0000   0.0000   0.0000   0.0000   0.0000   0.0000   0.0000   0.0000
     0.0000   0.0000   0.0000   0.0000   0.0000   0.0000   0.0000   0.0000
     0.0000   0.0000   0.0000   0.0000   0.0000   0.0000   0.0000   0.0000
     0.0000   0.0000   0.0000   0.0000   0.0000   0.0000   0.0000   0.0000
     0.0000   0.0000   0.0000   0.0000   0.0000   0.0000   0.0000   0.0000
     0.0000   0.0000   0.0000   0.0000   0.0000   0.0000   0.0000   0.0000
     0.0000   0.0000   0.0000   0.0000   0.0000   0.0000   0.0000   0.0000

          k = 0.3333 0.0000 0.0000 ( 44008 PWs)   bands (ev):

  -123.6178-123.6168-123.6166-123.6166-123.6164-123.6164-123.6162-123.6162
  -123.5541-123.5534-123.5529-123.5527-123.5524-123.5522-123.5518-123.5516
  -123.5447-123.5439-123.5435-123.5435-123.5433-123.5432-123.5430-123.5430
  -123.4329-123.4319-123.4318-123.4316-123.4314-123.4314-123.4313-123.4311
  -123.4267-123.4256-123.4256-123.4256-123.4253-123.4253-123.4253-123.4253
  -123.3906-123.3896-123.3896-123.3893-123.3893-123.3892-123.3892-123.3892
  -123.3420-123.3413-123.3408-123.3406-123.3404-123.3402-123.3397-123.3394
  -123.2721-123.2715-123.2710-123.2709-123.2699-123.2698-123.2692-123.2691
   -77.7197 -77.7188 -77.7105 -77.7102 -77.7099 -77.7099 -77.7096 -77.7096
   -77.7091 -77.7084 -77.7059 -77.7020 -77.7010 -77.7010 -77.7008 -77.7008
   -77.7005 -77.6971 -77.6970 -77.6968 -77.6968 -77.6965 -77.6884 -77.6854
   -77.6537 -77.6526 -77.6454 -77.6451 -77.6448 -77.6447 -77.6443 -77.6439
   -77.6438 -77.6437 -77.6424 -77.6422 -77.6418 -77.6395 -77.6395 -77.6392
   -77.6387 -77.6380 -77.6379 -77.6378 -77.6376 -77.6369 -77.6369 -77.6366
   -77.6362 -77.6361 -77.6359 -77.6355 -77.6339 -77.6332 -77.6332 -77.6325
   -77.6324 -77.6323 -77.6316 -77.6313 -77.6313 -77.6297 -77.6297 -77.6263
   -77.6241 -77.6219 -77.6219 -77.6212 -77.6207 -77.6207 -77.6120 -77.6072
   -77.5347 -77.5339 -77.5319 -77.5281 -77.5274 -77.5271 -77.5269 -77.5269
   -77.5263 -77.5262 -77.5261 -77.5227 -77.5209 -77.5192 -77.5190 -77.5189
   -77.5189 -77.5184 -77.5184 -77.5179 -77.5179 -77.5171 -77.5171 -77.5171
   -77.5168 -77.5167 -77.5159 -77.5143 -77.5143 -77.5137 -77.5133 -77.5126
   -77.5125 -77.5120 -77.5120 -77.5116 -77.5116 -77.5111 -77.5109 -77.5109
   -77.5062 -77.5062 -77.5055 -77.5055 -77.5049 -77.5020 -77.5007 -77.5007
   -77.5006 -77.5006 -77.5006 -77.4999 -77.4997 -77.4996 -77.4970 -77.4947
   -77.4840 -77.4833 -77.4730 -77.4695 -77.4682 -77.4682 -77.4679 -77.4678
   -77.4678 -77.4629 -77.4629 -77.4617 -77.4617 -77.4616 -77.4540 -77.4491
   -77.4417 -77.4405 -77.4402 -77.4401 -77.4399 -77.4396 -77.4391 -77.4389
   -77.4384 -77.4378 -77.4277 -77.4240 -77.4233 -77.4233 -77.4228 -77.4227
   -77.4221 -77.4194 -77.4194 -77.4186 -77.4186 -77.4185 -77.4112 -77.4081
   -77.3680 -77.3676 -77.3675 -77.3672 -77.3670 -77.3666 -77.3661 -77.3656
   -77.3655 -77.3648 -77.3646 -77.3643 -77.3631 -77.3630 -77.3621 -77.3612
   -77.3612 -77.3564 -77.3468 -77.3468 -77.3447 -77.3447 -77.3370 -77.3319
    -6.6093  -6.1489  -5.7277  -5.4091  -5.4025  -5.4025  -5.2706  -5.2620
    -5.1750  -5.1748  -5.1748  -5.1616  -5.1507  -5.1442  -5.1237  -5.1087
    -5.1054  -5.1016  -5.0864  -5.0354  -5.0244  -5.0202  -4.9856  -4.9836
    -4.9819  -4.9672  -4.9672  -4.9599  -4.9473  -4.9472  -4.9339  -4.8968
    -4.8968  -4.8898  -4.8880  -4.8831  -4.8831  -4.8718  -4.8678  -4.8654
    -4.8654  -4.8618  -4.8618  -4.8616  -4.8515  -4.8468  -4.8376  -4.8211
    -4.8202  -4.8168  -4.8168  -4.7993  -4.7993  -4.7726  -4.7726  -4.7716
    -4.7478  -4.7478  -4.7299  -4.7245  -4.7162  -4.7162  -4.7134  -4.7062
    -4.6950  -4.6950  -4.6883  -4.6859  -4.6859  -4.6806  -4.6806  -4.6769
    -4.6769  -4.6760  -4.6753  -4.6652  -4.6628  -4.6515  -4.6433  -4.6432
    -4.6432  -4.6291  -4.6255  -4.6212  -4.6211  -4.6070  -4.6069  -4.5987
    -4.5867  -4.5867  -4.5811  -4.5810  -4.5797  -4.5788  -4.5706  -4.5690
    -4.5672  -4.5672  -4.5600  -4.5590  -4.5587  -4.5505  -4.5505  -4.5465
    -4.5465  -4.5368  -4.5341  -4.5337  -4.5337  -4.5285  -4.4990  -4.4990
    -4.4855  -4.4845  -4.4845  -4.4771  -4.4571  -4.4556  -4.4555  -4.4368
    -4.4368  -4.4316  -4.4298  -4.4298  -4.4168  -4.4108  -4.4108  -4.4083
    -4.4038  -4.4037  -4.4017  -4.4000  -4.3941  -4.3940  -4.3935  -4.3534
    -4.3458  -4.3446  -4.3439  -4.3359  -4.3359  -4.3350  -4.3251  -4.3251
    -4.3216  -4.3216  -4.3167  -4.3106  -4.3106  -4.2995  -4.2995  -4.2918
    -4.2895  -4.2891  -4.2870  -4.2870  -4.2815  -4.2758  -4.2754  -4.2754
    -4.2674  -4.2674  -4.2654  -4.2640  -4.2524  -4.2523  -4.2444  -4.2421
    -4.2375  -4.2374  -4.2293  -4.2293  -4.2244  -4.2243  -4.2168  -4.2168
    -4.2154  -4.2131  -4.2123  -4.1932  -4.1922  -4.1769  -4.1769  -4.1759
    -4.1735  -4.1615  -4.1615  -4.1476  -4.1476  -4.1431  -4.1431  -4.1430
    -4.1295  -4.1295  -4.1278  -4.1278  -4.1197  -4.1197  -4.1130  -4.1075
    -4.1069  -4.1069  -4.1052  -4.1048  -4.1006  -4.0927  -4.0927  -4.0907
    -4.0891  -4.0890  -4.0890  -4.0853  -4.0797  -4.0796  -4.0738  -4.0670
    -4.0670  -4.0664  -4.0636  -4.0510  -4.0510  -4.0508  -4.0498  -4.0493
    -4.0453  -4.0453  -4.0443  -4.0382  -4.0376  -4.0321  -4.0224  -4.0224
    -4.0095  -4.0090  -4.0090  -4.0060  -4.0049  -4.0049  -4.0016  -3.9995
    -3.9995  -3.9981  -3.9981  -3.9839  -3.9804  -3.9745  -3.9715  -3.9715
    -3.9707  -3.9682  -3.9663  -3.9653  -3.9632  -3.9632  -3.9615  -3.9587
    -3.9587  -3.9549  -3.9545  -3.9545  -3.9488  -3.9360  -3.9331  -3.9331
    -3.9296  -3.9230  -3.9230  -3.9184  -3.9173  -3.9074  -3.9042  -3.9042
    -3.9006  -3.8993  -3.8993  -3.8907  -3.8854  -3.8852  -3.8852  -3.8836
    -3.8836  -3.8756  -3.8751  -3.8699  -3.8696  -3.8620  -3.8620  -3.8574
    -3.8531  -3.8496  -3.8496  -3.8418  -3.8343  -3.8343  -3.8213  -3.8213
    -3.8202  -3.8096  -3.7996  -3.7878  -3.7859  -3.7837  -3.7814  -3.7789
    -3.7712  -3.7603  -3.7527  -3.7527  -3.7510  -3.7408  -3.7392  -3.7304
    -3.7303  -3.7303  -3.7278  -3.7243  -3.7169  -3.7119  -3.7119  -3.7118
    -3.6924  -3.6910  -3.6882  -3.6737  -3.6415  -3.6049  -3.5824  -3.5645
    -3.4487  -3.4487  -3.2356  -3.1513  -3.0467  -3.0466  -2.7748  -2.2555
    -1.9604  -1.9604  -1.8124  -1.8123  -1.5595  -1.4110  -1.4109  -1.1173
    -0.8770  -0.8413  -0.8413  -0.5543  -0.4324  -0.2651  -0.2548  -0.1522
    -0.1521   0.1661   0.1661   0.1842   0.2263   0.5165   0.5165   0.5310
     0.7327   0.8151   0.8583   0.8583   0.8883   0.8883   0.9687   1.1042
     1.3124   1.3966   1.7904   1.8971   1.9041   2.2860   2.2860   2.3343
     2.3431   2.3544   2.5359   2.7360   2.7360   2.8289   2.9311   2.9312
     2.9830   3.4316   3.4973   3.4974   3.6142   3.7473   3.7633   3.9179
     3.9734   4.1574   4.2535   4.2536   4.4043   4.4044   4.7109   4.8788
     4.9888   4.9895   5.0039   5.0273   5.1808   5.1808   5.2064   5.2483
     5.2484   5.2782   5.2914   5.3081   5.4034   5.4034   5.6073   6.0817
     6.2917   6.3637   6.3637   6.4026   6.5226   6.5226   6.5824   6.6146
     6.7199   6.8234   6.9552   6.9552   6.9650   6.9651   7.0107   7.0778
     7.1017   7.2041   7.2652   7.4272   7.4272   7.4389   7.4863   7.4864
     7.5017   7.7267   7.7267   7.7798   7.7917   7.7917   7.8413   7.9550
     7.9550   7.9551   8.0318   8.0318   8.0673   8.1113   8.3098   8.3098
     8.4723   8.4724   8.5031   8.5115   8.5820   8.5820   8.6029   8.6351
     8.6351   8.7361   8.7446   8.8844   8.8844   9.0874   9.0874   9.1362
     9.2473   9.2477   9.2653   9.2894   9.2894   9.3715   9.4076   9.4853
     9.4854   9.5760   9.5895   9.5895   9.6566   9.7609   9.7610   9.7698
     9.7716   9.8125   9.8501   9.8501   9.8765   9.9996  10.0988  10.0989
    10.1080  10.1848  10.1848  10.2946  10.4198  10.4198  10.4808  10.4808
    10.5226  10.5532  10.6373  10.6373  10.7876  10.9462  10.9708  10.9708

     occupation numbers 
     1.0000   1.0000   1.0000   1.0000   1.0000   1.0000   1.0000   1.0000
     1.0000   1.0000   1.0000   1.0000   1.0000   1.0000   1.0000   1.0000
     1.0000   1.0000   1.0000   1.0000   1.0000   1.0000   1.0000   1.0000
     1.0000   1.0000   1.0000   1.0000   1.0000   1.0000   1.0000   1.0000
     1.0000   1.0000   1.0000   1.0000   1.0000   1.0000   1.0000   1.0000
     1.0000   1.0000   1.0000   1.0000   1.0000   1.0000   1.0000   1.0000
     1.0000   1.0000   1.0000   1.0000   1.0000   1.0000   1.0000   1.0000
     1.0000   1.0000   1.0000   1.0000   1.0000   1.0000   1.0000   1.0000
     1.0000   1.0000   1.0000   1.0000   1.0000   1.0000   1.0000   1.0000
     1.0000   1.0000   1.0000   1.0000   1.0000   1.0000   1.0000   1.0000
     1.0000   1.0000   1.0000   1.0000   1.0000   1.0000   1.0000   1.0000
     1.0000   1.0000   1.0000   1.0000   1.0000   1.0000   1.0000   1.0000
     1.0000   1.0000   1.0000   1.0000   1.0000   1.0000   1.0000   1.0000
     1.0000   1.0000   1.0000   1.0000   1.0000   1.0000   1.0000   1.0000
     1.0000   1.0000   1.0000   1.0000   1.0000   1.0000   1.0000   1.0000
     1.0000   1.0000   1.0000   1.0000   1.0000   1.0000   1.0000   1.0000
     1.0000   1.0000   1.0000   1.0000   1.0000   1.0000   1.0000   1.0000
     1.0000   1.0000   1.0000   1.0000   1.0000   1.0000   1.0000   1.0000
     1.0000   1.0000   1.0000   1.0000   1.0000   1.0000   1.0000   1.0000
     1.0000   1.0000   1.0000   1.0000   1.0000   1.0000   1.0000   1.0000
     1.0000   1.0000   1.0000   1.0000   1.0000   1.0000   1.0000   1.0000
     1.0000   1.0000   1.0000   1.0000   1.0000   1.0000   1.0000   1.0000
     1.0000   1.0000   1.0000   1.0000   1.0000   1.0000   1.0000   1.0000
     1.0000   1.0000   1.0000   1.0000   1.0000   1.0000   1.0000   1.0000
     1.0000   1.0000   1.0000   1.0000   1.0000   1.0000   1.0000   1.0000
     1.0000   1.0000   1.0000   1.0000   1.0000   1.0000   1.0000   1.0000
     1.0000   1.0000   1.0000   1.0000   1.0000   1.0000   1.0000   1.0000
     1.0000   1.0000   1.0000   1.0000   1.0000   1.0000   1.0000   1.0000
     1.0000   1.0000   1.0000   1.0000   1.0000   1.0000   1.0000   1.0000
     1.0000   1.0000   1.0000   1.0000   1.0000   1.0000   1.0000   1.0000
     1.0000   1.0000   1.0000   1.0000   1.0000   1.0000   1.0000   1.0000
     1.0000   1.0000   1.0000   1.0000   1.0000   1.0000   1.0000   1.0000
     1.0000   1.0000   1.0000   1.0000   1.0000   1.0000   1.0000   1.0000
     1.0000   1.0000   1.0000   1.0000   1.0000   1.0000   1.0000   1.0000
     1.0000   1.0000   1.0000   1.0000   1.0000   1.0000   1.0000   1.0000
     1.0000   1.0000   1.0000   1.0000   1.0000   1.0000   1.0000   1.0000
     1.0000   1.0000   1.0000   1.0000   1.0000   1.0000   1.0000   1.0000
     1.0000   1.0000   1.0000   1.0000   1.0000   1.0000   1.0000   1.0000
     1.0000   1.0000   1.0000   1.0000   1.0000   1.0000   1.0000   1.0000
     1.0000   1.0000   1.0000   1.0000   1.0000   1.0000   1.0000   1.0000
     1.0000   1.0000   1.0000   1.0000   1.0000   1.0000   1.0000   1.0000
     1.0000   1.0000   1.0000   1.0000   1.0000   1.0000   1.0000   1.0000
     1.0000   1.0000   1.0000   1.0000   1.0000   1.0000   1.0000   1.0000
     1.0000   1.0000   1.0000   1.0000   1.0000   1.0000   1.0000   1.0000
     1.0000   1.0000   1.0000   1.0000   1.0000   1.0000   1.0000   1.0000
     1.0000   1.0000   1.0000   1.0000   1.0000   1.0000   1.0000   1.0000
     1.0000   1.0000   1.0000   1.0000   1.0000   1.0000   1.0000   1.0000
     1.0000   1.0000   1.0000   1.0000   1.0000   1.0000   1.0000   1.0000
     1.0000   1.0000   1.0000   1.0000   1.0000   1.0000   1.0000   1.0000
     1.0000   1.0000   1.0000   1.0000   1.0000   1.0000   1.0000   1.0000
     1.0000   1.0000   1.0000   1.0000   1.0000   1.0000   1.0000   1.0000
     1.0000   1.0000   1.0000   1.0000   1.0000   1.0000   1.0000   1.0000
     1.0000   1.0000   1.0000   1.0000   1.0000   1.0000   1.0000   1.0000
     1.0000   1.0000   1.0000   1.0000   1.0000   1.0000   1.0000   1.0000
     1.0000   1.0000   1.0000   1.0000   1.0000   1.0000   1.0000   1.0000
     1.0000   1.0000   1.0000   1.0000   1.0000   1.0000   1.0000   1.0000
     1.0000   1.0000   1.0000   1.0000   1.0000   1.0000   1.0000   1.0000
     1.0000   1.0000   1.0000   1.0000   1.0000   1.0000   1.0000   1.0000
     1.0000   1.0000   1.0000   1.0000   1.0000   1.0000   1.0000   1.0000
     1.0000   1.0000   1.0000   1.0000   1.0000   1.0000   1.0000   1.0000
     1.0000   1.0000   1.0000   1.0000   1.0000   1.0000   1.0000   1.0000
     1.0000   1.0000   1.0000   1.0000   1.0000   1.0000   1.0000   1.0000
     1.0000   1.0000   1.0000   1.0000   1.0000   1.0000   1.0000   1.0000
     1.0000   1.0000   1.0000   1.0000   1.0000   1.0000   1.0000   1.0000
     1.0000   1.0000   1.0000   1.0000   1.0000   1.0000   1.0000   1.0000
     1.0000   1.0000   1.0000   1.0000   1.0000   1.0000   1.0000   1.0000
     1.0000   1.0000   1.0000   1.0000   1.0000   1.0000   1.0000   1.0000
     1.0000   1.0000   1.0000   1.0000   1.0000   1.0000   1.0000   1.0000
     1.0000   1.0000   1.0000   1.0000   1.0000   1.0000   1.0000   1.0000
     1.0000   1.0000   1.0000   1.0000   1.0000   1.0000   1.0000   1.0000
     1.0000   1.0000   1.0000   1.0000   1.0000   1.0000   1.0000   1.0000
     1.0000   1.0000   1.0000   1.0000   1.0000   1.0000   1.0000   1.0000
     1.0000   1.0000   1.0000   1.0000   1.0000   1.0000   1.0000   1.0000
     1.0000   1.0000   1.0000   1.0000   1.0000   1.0000   1.0000   1.0000
     1.0000   1.0000   1.0000   1.0000   1.0000   1.0000   1.0000   1.0000
     1.0000   1.0000   1.0000   1.0000   1.0000   1.0000   1.0000   1.0000
     1.0000   1.0000   1.0000   1.0000   1.0000   1.0000   1.0000   1.0000
     1.0000   1.0000   1.0000   1.0000   1.0000   1.0000   1.0000   1.0000
     1.0000   1.0000   1.0000   1.0000   1.0000   1.0023   1.0023   1.0047
     1.0054   1.0063   1.0431   1.0751   1.0751   0.9926   0.7852   0.7850
     0.6470   0.0089   0.0031   0.0031   0.0004   0.0000   0.0000   0.0000
     0.0000   0.0000   0.0000   0.0000   0.0000   0.0000   0.0000   0.0000
     0.0000   0.0000   0.0000   0.0000   0.0000   0.0000   0.0000   0.0000
     0.0000   0.0000   0.0000   0.0000   0.0000   0.0000   0.0000   0.0000
     0.0000   0.0000   0.0000   0.0000   0.0000   0.0000   0.0000   0.0000
     0.0000   0.0000   0.0000   0.0000   0.0000   0.0000   0.0000   0.0000
     0.0000   0.0000   0.0000   0.0000   0.0000   0.0000   0.0000   0.0000
     0.0000   0.0000   0.0000   0.0000   0.0000   0.0000   0.0000   0.0000
     0.0000   0.0000   0.0000   0.0000   0.0000   0.0000   0.0000   0.0000
     0.0000   0.0000   0.0000   0.0000   0.0000   0.0000   0.0000   0.0000
     0.0000   0.0000   0.0000   0.0000   0.0000   0.0000   0.0000   0.0000
     0.0000   0.0000   0.0000   0.0000   0.0000   0.0000   0.0000   0.0000
     0.0000   0.0000   0.0000   0.0000   0.0000   0.0000   0.0000   0.0000
     0.0000   0.0000   0.0000   0.0000   0.0000   0.0000   0.0000   0.0000
     0.0000   0.0000   0.0000   0.0000   0.0000   0.0000   0.0000   0.0000
     0.0000   0.0000   0.0000   0.0000   0.0000   0.0000   0.0000   0.0000

          k = 0.3333 0.3107 0.1794 ( 44020 PWs)   bands (ev):

  -123.6174-123.6170-123.6169-123.6168-123.6166-123.6164-123.6164-123.6160
  -123.5538-123.5535-123.5531-123.5527-123.5526-123.5523-123.5520-123.5516
  -123.5443-123.5440-123.5438-123.5436-123.5434-123.5434-123.5432-123.5428
  -123.4324-123.4321-123.4320-123.4319-123.4317-123.4315-123.4314-123.4311
  -123.4262-123.4259-123.4259-123.4257-123.4256-123.4254-123.4253-123.4251
  -123.3901-123.3899-123.3897-123.3897-123.3896-123.3893-123.3892-123.3890
  -123.3417-123.3413-123.3410-123.3407-123.3405-123.3402-123.3399-123.3394
  -123.2719-123.2716-123.2713-123.2709-123.2702-123.2699-123.2695-123.2690
   -77.7175 -77.7160 -77.7109 -77.7103 -77.7100 -77.7100 -77.7094 -77.7092
   -77.7090 -77.7087 -77.7068 -77.7061 -77.7043 -77.7037 -77.7015 -77.7005
   -77.6999 -77.6998 -77.6991 -77.6981 -77.6923 -77.6920 -77.6888 -77.6868
   -77.6514 -77.6499 -77.6459 -77.6451 -77.6449 -77.6447 -77.6442 -77.6440
   -77.6433 -77.6430 -77.6413 -77.6413 -77.6409 -77.6409 -77.6404 -77.6400
   -77.6388 -77.6384 -77.6382 -77.6381 -77.6376 -77.6374 -77.6373 -77.6373
   -77.6366 -77.6364 -77.6364 -77.6361 -77.6358 -77.6357 -77.6341 -77.6338
   -77.6335 -77.6333 -77.6325 -77.6313 -77.6306 -77.6298 -77.6294 -77.6273
   -77.6269 -77.6259 -77.6234 -77.6218 -77.6160 -77.6155 -77.6123 -77.6102
   -77.5328 -77.5318 -77.5304 -77.5299 -77.5276 -77.5274 -77.5272 -77.5259
   -77.5256 -77.5251 -77.5243 -77.5237 -77.5218 -77.5214 -77.5206 -77.5203
   -77.5194 -77.5192 -77.5186 -77.5186 -77.5183 -77.5178 -77.5177 -77.5170
   -77.5170 -77.5169 -77.5166 -77.5164 -77.5162 -77.5152 -77.5138 -77.5129
   -77.5122 -77.5121 -77.5120 -77.5118 -77.5118 -77.5115 -77.5114 -77.5112
   -77.5080 -77.5075 -77.5048 -77.5022 -77.5016 -77.5013 -77.5012 -77.5011
   -77.5008 -77.5006 -77.5005 -77.5001 -77.4997 -77.4994 -77.4974 -77.4963
   -77.4818 -77.4808 -77.4721 -77.4712 -77.4710 -77.4707 -77.4690 -77.4679
   -77.4671 -77.4671 -77.4660 -77.4646 -77.4570 -77.4569 -77.4538 -77.4516
   -77.4407 -77.4400 -77.4398 -77.4396 -77.4394 -77.4393 -77.4387 -77.4385
   -77.4381 -77.4376 -77.4290 -77.4280 -77.4262 -77.4257 -77.4233 -77.4226
   -77.4220 -77.4216 -77.4210 -77.4200 -77.4149 -77.4138 -77.4116 -77.4095
   -77.3677 -77.3672 -77.3670 -77.3666 -77.3660 -77.3660 -77.3657 -77.3654
   -77.3653 -77.3650 -77.3649 -77.3645 -77.3636 -77.3629 -77.3621 -77.3614
   -77.3607 -77.3591 -77.3543 -77.3526 -77.3410 -77.3392 -77.3373 -77.3346
    -6.4523  -6.0044  -6.0002  -5.5960  -5.5842  -5.2932  -5.2133  -5.2002
    -5.1782  -5.1255  -5.1180  -5.1096  -5.0998  -5.0990  -5.0858  -5.0829
    -5.0766  -5.0519  -5.0392  -5.0370  -5.0326  -5.0288  -5.0181  -5.0093
    -5.0028  -4.9977  -4.9959  -4.9917  -4.9609  -4.9585  -4.9439  -4.9262
    -4.9229  -4.9211  -4.9201  -4.9187  -4.9125  -4.9064  -4.9045  -4.8913
    -4.8849  -4.8601  -4.8531  -4.8504  -4.8442  -4.8256  -4.8255  -4.8239
    -4.8236  -4.8164  -4.8010  -4.7956  -4.7943  -4.7933  -4.7922  -4.7894
    -4.7835  -4.7797  -4.7543  -4.7529  -4.7416  -4.7389  -4.7331  -4.7287
    -4.7168  -4.7128  -4.7078  -4.7077  -4.7062  -4.7060  -4.6956  -4.6855
    -4.6778  -4.6770  -4.6732  -4.6641  -4.6591  -4.6494  -4.6491  -4.6395
    -4.6389  -4.6368  -4.6326  -4.6312  -4.6309  -4.6173  -4.6092  -4.6069
    -4.6026  -4.6010  -4.5970  -4.5952  -4.5933  -4.5811  -4.5754  -4.5682
    -4.5677  -4.5627  -4.5594  -4.5572  -4.5556  -4.5548  -4.5501  -4.5472
    -4.5462  -4.5383  -4.5345  -4.5310  -4.5309  -4.5286  -4.5108  -4.5090
    -4.4972  -4.4926  -4.4910  -4.4882  -4.4791  -4.4789  -4.4736  -4.4707
    -4.4672  -4.4537  -4.4529  -4.4466  -4.4437  -4.4323  -4.4207  -4.4191
    -4.4135  -4.4091  -4.4009  -4.3984  -4.3965  -4.3943  -4.3902  -4.3900
    -4.3859  -4.3744  -4.3737  -4.3642  -4.3562  -4.3500  -4.3474  -4.3474
    -4.3407  -4.3370  -4.3242  -4.3231  -4.3229  -4.3223  -4.3204  -4.3129
    -4.3100  -4.3016  -4.2991  -4.2970  -4.2906  -4.2864  -4.2840  -4.2817
    -4.2780  -4.2683  -4.2683  -4.2678  -4.2604  -4.2556  -4.2528  -4.2395
    -4.2350  -4.2331  -4.2222  -4.2215  -4.2134  -4.2115  -4.2001  -4.1993
    -4.1920  -4.1904  -4.1861  -4.1833  -4.1782  -4.1737  -4.1735  -4.1650
    -4.1588  -4.1580  -4.1509  -4.1473  -4.1457  -4.1393  -4.1365  -4.1348
    -4.1292  -4.1278  -4.1219  -4.1166  -4.1151  -4.1118  -4.1008  -4.0994
    -4.0993  -4.0977  -4.0934  -4.0928  -4.0898  -4.0891  -4.0864  -4.0787
    -4.0768  -4.0748  -4.0680  -4.0627  -4.0578  -4.0578  -4.0572  -4.0565
    -4.0529  -4.0513  -4.0439  -4.0385  -4.0331  -4.0331  -4.0323  -4.0257
    -4.0246  -4.0245  -4.0199  -4.0172  -4.0127  -4.0116  -4.0049  -4.0039
    -3.9983  -3.9981  -3.9894  -3.9880  -3.9874  -3.9854  -3.9841  -3.9796
    -3.9780  -3.9708  -3.9670  -3.9629  -3.9608  -3.9599  -3.9566  -3.9549
    -3.9548  -3.9531  -3.9521  -3.9484  -3.9473  -3.9401  -3.9376  -3.9345
    -3.9297  -3.9276  -3.9230  -3.9228  -3.9224  -3.9220  -3.9212  -3.9158
    -3.9154  -3.9140  -3.9110  -3.9026  -3.9012  -3.9003  -3.8915  -3.8890
    -3.8884  -3.8853  -3.8851  -3.8802  -3.8796  -3.8775  -3.8770  -3.8762
    -3.8689  -3.8666  -3.8642  -3.8641  -3.8633  -3.8618  -3.8570  -3.8563
    -3.8458  -3.8447  -3.8384  -3.8352  -3.8347  -3.8338  -3.8299  -3.8191
    -3.8178  -3.8173  -3.8148  -3.8125  -3.8081  -3.8034  -3.7928  -3.7921
    -3.7879  -3.7864  -3.7850  -3.7787  -3.7745  -3.7738  -3.7718  -3.7577
    -3.7537  -3.7511  -3.7414  -3.7392  -3.7388  -3.7344  -3.7335  -3.7256
    -3.7230  -3.7203  -3.7130  -3.6806  -3.6594  -3.6480  -3.6076  -3.5478
    -3.3461  -3.0619  -2.9627  -2.9342  -2.6390  -2.6014  -2.5442  -2.5095
    -2.1404  -2.0788  -2.0628  -2.0103  -1.5970  -1.5449  -1.3809  -1.1286
    -0.9717  -0.9416  -0.8966  -0.7997  -0.7113  -0.6569  -0.5432  -0.3862
    -0.3714  -0.2829  -0.2368   0.0948   0.1593   0.2012   0.4327   0.5468
     0.8722   0.9778   0.9906   1.1718   1.4769   1.4950   1.5037   1.5311
     1.5545   1.7949   1.8920   1.8958   1.9898   2.0101   2.0576   2.2031
     2.2807   2.3165   2.4636   2.5734   2.8364   2.9475   2.9908   3.1003
     3.1441   3.2762   3.4706   3.5762   3.6270   3.8053   3.9235   4.0106
     4.0873   4.1256   4.2130   4.3627   4.3996   4.5897   4.6498   4.7103
[...]
     atom   30 type  1   force =     0.00000000    0.00000000    0.00000000
     atom   31 type  1   force =     0.00000000    0.00000000    0.00000000
     atom   32 type  1   force =     0.00000000    0.00000000    0.00000000
     atom   33 type  1   force =     0.00000000    0.00000000    0.00000000
     atom   34 type  1   force =     0.00000000    0.00000000    0.00000000
     atom   35 type  1   force =     0.00000000    0.00000000    0.00000000
     atom   36 type  1   force =     0.00000000    0.00000000    0.00000000
     atom   37 type  1   force =     0.00000000    0.00000000    0.00000000
     atom   38 type  1   force =     0.00000000    0.00000000    0.00000000
     atom   39 type  1   force =     0.00000000    0.00000000    0.00000000
     atom   40 type  1   force =     0.00000000    0.00000000    0.00000000
     atom   41 type  1   force =     0.00000000    0.00000000    0.00000000
     atom   42 type  1   force =     0.00000000    0.00000000    0.00000000
     atom   43 type  1   force =     0.00000000    0.00000000    0.00000000
     atom   44 type  1   force =     0.00000000    0.00000000    0.00000000
     atom   45 type  1   force =     0.00000000    0.00000000    0.00000000
     atom   46 type  1   force =     0.00000000    0.00000000    0.00000000
     atom   47 type  1   force =     0.00000000    0.00000000    0.00000000
     atom   48 type  1   force =     0.00000000    0.00000000    0.00000000
     atom   49 type  1   force =     0.00000000    0.00000000    0.00000000
     atom   50 type  1   force =     0.00000000    0.00000000    0.00000000
     atom   51 type  1   force =     0.00000000    0.00000000    0.00000000
     atom   52 type  1   force =     0.00000000    0.00000000    0.00000000
     atom   53 type  1   force =     0.00000000    0.00000000    0.00000000
     atom   54 type  1   force =     0.00000000    0.00000000    0.00000000
     atom   55 type  1   force =     0.00000000    0.00000000    0.00000000
     atom   56 type  1   force =     0.00000000    0.00000000    0.00000000
     atom   57 type  1   force =     0.00000000    0.00000000    0.00000000
     atom   58 type  1   force =     0.00000000    0.00000000    0.00000000
     atom   59 type  1   force =     0.00000000    0.00000000    0.00000000
     atom   60 type  1   force =     0.00000000    0.00000000    0.00000000
     atom   61 type  1   force =     0.00000000    0.00000000    0.00000000
     atom   62 type  1   force =     0.00000000    0.00000000    0.00000000
     atom   63 type  1   force =     0.00000000    0.00000000    0.00000000
     atom   64 type  1   force =     0.00000000    0.00000000    0.00000000
     The Hubbard contrib.    to forces
     atom    1 type  1   force =     0.00000000    0.00000000    0.00000000
     atom    2 type  1   force =     0.00000000    0.00000000    0.00000000
     atom    3 type  1   force =     0.00000000    0.00000000    0.00000000
     atom    4 type  1   force =     0.00000000    0.00000000    0.00000000
     atom    5 type  1   force =     0.00000000    0.00000000    0.00000000
     atom    6 type  1   force =     0.00000000    0.00000000    0.00000000
     atom    7 type  1   force =     0.00000000    0.00000000    0.00000000
     atom    8 type  1   force =     0.00000000    0.00000000    0.00000000
     atom    9 type  1   force =     0.00000000    0.00000000    0.00000000
     atom   10 type  1   force =     0.00000000    0.00000000    0.00000000
     atom   11 type  1   force =     0.00000000    0.00000000    0.00000000
     atom   12 type  1   force =     0.00000000    0.00000000    0.00000000
     atom   13 type  1   force =     0.00000000    0.00000000    0.00000000
     atom   14 type  1   force =     0.00000000    0.00000000    0.00000000
     atom   15 type  1   force =     0.00000000    0.00000000    0.00000000
     atom   16 type  1   force =     0.00000000    0.00000000    0.00000000
     atom   17 type  1   force =     0.00000000    0.00000000    0.00000000
     atom   18 type  1   force =     0.00000000    0.00000000    0.00000000
     atom   19 type  1   force =     0.00000000    0.00000000    0.00000000
     atom   20 type  1   force =     0.00000000    0.00000000    0.00000000
     atom   21 type  1   force =     0.00000000    0.00000000    0.00000000
     atom   22 type  1   force =     0.00000000    0.00000000    0.00000000
     atom   23 type  1   force =     0.00000000    0.00000000    0.00000000
     atom   24 type  1   force =     0.00000000    0.00000000    0.00000000
     atom   25 type  1   force =     0.00000000    0.00000000    0.00000000
     atom   26 type  1   force =     0.00000000    0.00000000    0.00000000
     atom   27 type  1   force =     0.00000000    0.00000000    0.00000000
     atom   28 type  1   force =     0.00000000    0.00000000    0.00000000
     atom   29 type  1   force =     0.00000000    0.00000000    0.00000000
     atom   30 type  1   force =     0.00000000    0.00000000    0.00000000
     atom   31 type  1   force =     0.00000000    0.00000000    0.00000000
     atom   32 type  1   force =     0.00000000    0.00000000    0.00000000
     atom   33 type  1   force =     0.00000000    0.00000000    0.00000000
     atom   34 type  1   force =     0.00000000    0.00000000    0.00000000
     atom   35 type  1   force =     0.00000000    0.00000000    0.00000000
     atom   36 type  1   force =     0.00000000    0.00000000    0.00000000
     atom   37 type  1   force =     0.00000000    0.00000000    0.00000000
     atom   38 type  1   force =     0.00000000    0.00000000    0.00000000
     atom   39 type  1   force =     0.00000000    0.00000000    0.00000000
     atom   40 type  1   force =     0.00000000    0.00000000    0.00000000
     atom   41 type  1   force =     0.00000000    0.00000000    0.00000000
     atom   42 type  1   force =     0.00000000    0.00000000    0.00000000
     atom   43 type  1   force =     0.00000000    0.00000000    0.00000000
     atom   44 type  1   force =     0.00000000    0.00000000    0.00000000
     atom   45 type  1   force =     0.00000000    0.00000000    0.00000000
     atom   46 type  1   force =     0.00000000    0.00000000    0.00000000
     atom   47 type  1   force =     0.00000000    0.00000000    0.00000000
     atom   48 type  1   force =     0.00000000    0.00000000    0.00000000
     atom   49 type  1   force =     0.00000000    0.00000000    0.00000000
     atom   50 type  1   force =     0.00000000    0.00000000    0.00000000
     atom   51 type  1   force =     0.00000000    0.00000000    0.00000000
     atom   52 type  1   force =     0.00000000    0.00000000    0.00000000
     atom   53 type  1   force =     0.00000000    0.00000000    0.00000000
     atom   54 type  1   force =     0.00000000    0.00000000    0.00000000
     atom   55 type  1   force =     0.00000000    0.00000000    0.00000000
     atom   56 type  1   force =     0.00000000    0.00000000    0.00000000
     atom   57 type  1   force =     0.00000000    0.00000000    0.00000000
     atom   58 type  1   force =     0.00000000    0.00000000    0.00000000
     atom   59 type  1   force =     0.00000000    0.00000000    0.00000000
     atom   60 type  1   force =     0.00000000    0.00000000    0.00000000
     atom   61 type  1   force =     0.00000000    0.00000000    0.00000000
     atom   62 type  1   force =     0.00000000    0.00000000    0.00000000
     atom   63 type  1   force =     0.00000000    0.00000000    0.00000000
     atom   64 type  1   force =     0.00000000    0.00000000    0.00000000
     The SCF correction term to forces
     atom    1 type  1   force =    -0.00002691   -0.00003641   -0.00003250
     atom    2 type  1   force =    -0.00002737    0.00003560   -0.00005298
     atom    3 type  1   force =    -0.00003743    0.00000655    0.00000166
     atom    4 type  1   force =    -0.00003805   -0.00000700    0.00007701
     atom    5 type  1   force =    -0.00003447   -0.00002646   -0.00006258
     atom    6 type  1   force =    -0.00003366    0.00002868   -0.00001705
     atom    7 type  1   force =    -0.00002151   -0.00005901   -0.00004329
     atom    8 type  1   force =    -0.00002084    0.00005986   -0.00003688
     atom    9 type  1   force =    -0.00002717   -0.00005463   -0.00004994
     atom   10 type  1   force =    -0.00002747    0.00005576   -0.00003366
     atom   11 type  1   force =    -0.00003828   -0.00004802    0.00002684
     atom   12 type  1   force =    -0.00003779    0.00004822    0.00005284
     atom   13 type  1   force =    -0.00003397    0.00000426   -0.00007873
     atom   14 type  1   force =    -0.00003366   -0.00000666   -0.00000029
     atom   15 type  1   force =    -0.00002051   -0.00002391   -0.00003571
     atom   16 type  1   force =    -0.00002127    0.00002307   -0.00004764
     atom   17 type  1   force =     0.00002736   -0.00003736   -0.00005633
     atom   18 type  1   force =     0.00002653    0.00003825   -0.00007729
     atom   19 type  1   force =     0.00003624    0.00000570    0.00003047
     atom   20 type  1   force =     0.00003800   -0.00000758    0.00010978
     atom   21 type  1   force =     0.00003249   -0.00002767   -0.00002481
     atom   22 type  1   force =     0.00003428    0.00002843    0.00002713
     atom   23 type  1   force =     0.00002192   -0.00006495   -0.00003556
     atom   24 type  1   force =     0.00002120    0.00006489   -0.00002778
     atom   25 type  1   force =     0.00002706   -0.00005779   -0.00007471
     atom   26 type  1   force =     0.00002766    0.00005679   -0.00005863
     atom   27 type  1   force =     0.00003778   -0.00004729    0.00005786
     atom   28 type  1   force =     0.00003734    0.00004924    0.00008249
     atom   29 type  1   force =     0.00003304    0.00000701   -0.00003891
     atom   30 type  1   force =     0.00003332   -0.00000768    0.00004249
     atom   31 type  1   force =     0.00002082   -0.00002282   -0.00002480
     atom   32 type  1   force =     0.00002136    0.00002213   -0.00004062
     atom   33 type  1   force =    -0.00005076    0.00001386   -0.00004749
     atom   34 type  1   force =    -0.00005309   -0.00001309   -0.00004128
     atom   35 type  1   force =    -0.00004083    0.00002057    0.00002222
     atom   36 type  1   force =    -0.00003694   -0.00002028    0.00007301
     atom   37 type  1   force =    -0.00001118   -0.00004004   -0.00001821
     atom   38 type  1   force =    -0.00000936    0.00004111   -0.00003838
     atom   39 type  1   force =     0.00000968   -0.00003126   -0.00002574
     atom   40 type  1   force =     0.00000648    0.00002889   -0.00000595
     atom   41 type  1   force =    -0.00005301   -0.00006996   -0.00004815
     atom   42 type  1   force =    -0.00005010    0.00006889   -0.00004196
     atom   43 type  1   force =    -0.00004130   -0.00001897    0.00000390
     atom   44 type  1   force =    -0.00003880    0.00001800    0.00009117
     atom   45 type  1   force =    -0.00001383   -0.00001719   -0.00006941
     atom   46 type  1   force =    -0.00000838    0.00001651    0.00001509
     atom   47 type  1   force =     0.00000555   -0.00005988   -0.00001056
     atom   48 type  1   force =     0.00001079    0.00006244   -0.00002063
     atom   49 type  1   force =     0.00005045    0.00001290   -0.00003051
     atom   50 type  1   force =     0.00005403   -0.00001397   -0.00002354
     atom   51 type  1   force =     0.00004234    0.00001943    0.00001996
     atom   52 type  1   force =     0.00003830   -0.00002003    0.00007014
     atom   53 type  1   force =     0.00001123   -0.00004043   -0.00002700
     atom   54 type  1   force =     0.00000915    0.00004188   -0.00004778
     atom   55 type  1   force =    -0.00001031   -0.00003143   -0.00004487
     atom   56 type  1   force =    -0.00000656    0.00002982   -0.00002494
     atom   57 type  1   force =     0.00005148   -0.00006840   -0.00003046
     atom   58 type  1   force =     0.00005166    0.00007003   -0.00002432
     atom   59 type  1   force =     0.00004193   -0.00001732    0.00000267
     atom   60 type  1   force =     0.00003961    0.00001703    0.00008960
     atom   61 type  1   force =     0.00001383   -0.00001712   -0.00007811
     atom   62 type  1   force =     0.00000784    0.00001527    0.00000407
     atom   63 type  1   force =    -0.00000506   -0.00006083   -0.00002951
     atom   64 type  1   force =    -0.00001121    0.00006277   -0.00004030

     Total force =     0.121532     Total SCF correction =     0.000556


     Computing stress (Cartesian axis) and pressure

          total   stress  (Ry/bohr**3)                   (kbar)     P=     -301.26
  -0.00217294   0.00000000  -0.00000000         -319.65        0.00       -0.00
   0.00000000  -0.00202193  -0.00000032            0.00     -297.44       -0.05
  -0.00000000  -0.00000032  -0.00194899           -0.00       -0.05     -286.71

     kinetic stress (kbar)  16017.97      0.00     -0.00
                                0.00  15991.06     -0.00
                               -0.00     -0.00  16051.26

     local   stress (kbar)**********     -0.00     -0.04
                               -0.00**********     -0.15
                               -0.04     -0.151322857.38

     nonloc. stress (kbar)  -1978.71      0.00      0.00
                                0.00  -1939.36     -0.04
                                0.00     -0.04  -1991.00

     hartree stress (kbar) 688794.77      0.00      0.02
                                0.00 696063.21      0.06
                                0.02      0.06-617396.53

     exc-cor stress (kbar)  -8012.73      0.00      0.00
                                0.00  -8008.23      0.00
                                0.00      0.00  -8016.23

     corecor stress (kbar)      0.00      0.00      0.00
                                0.00      0.00      0.00
                                0.00      0.00      0.00

     ewald   stress (kbar) 610469.72      0.00      0.02
                                0.00 620124.16      0.08
                                0.02      0.08-711791.59

     hubbard stress (kbar)      0.00      0.00      0.00
                                0.00      0.00      0.00
                                0.00      0.00      0.00

     DFT-D   stress (kbar)      0.00      0.00      0.00
                                0.00      0.00      0.00
                                0.00      0.00      0.00

     XDM     stress (kbar)      0.00      0.00      0.00
                                0.00      0.00      0.00
                                0.00      0.00      0.00

     dft-nl  stress (kbar)      0.00      0.00      0.00
                                0.00      0.00      0.00
                                0.00      0.00      0.00

     TS-vdW  stress (kbar)      0.00      0.00      0.00
                                0.00      0.00      0.00
                                0.00      0.00      0.00

     MDB     stress (kbar)      0.00      0.00      0.00
                                0.00      0.00      0.00
                                0.00      0.00      0.00

     3D-RISM stress (kbar)      0.00      0.00      0.00
                                0.00      0.00      0.00
                                0.00      0.00      0.00


     Writing all to output data dir ./tmp/Zn100_2x2x4_scf.save/ :
     XML data file, charge density, pseudopotentials, collected wavefunctions

     init_run     :     65.92s CPU     66.44s WALL (       1 calls)
     electrons    :   4625.16s CPU   4668.55s WALL (       1 calls)
     forces       :     55.84s CPU     56.14s WALL (       1 calls)
     stress       :    155.87s CPU    156.28s WALL (       1 calls)

     Called by init_run:
     wfcinit      :     65.49s CPU     66.00s WALL (       1 calls)
     wfcinit:atom :      0.03s CPU      0.06s WALL (       5 calls)
     wfcinit:wfcr :     64.99s CPU     65.40s WALL (       5 calls)
     potinit      :      0.02s CPU      0.02s WALL (       1 calls)
     hinit0       :      0.02s CPU      0.02s WALL (       1 calls)

     Called by electrons:
     c_bands      :   4328.04s CPU   4369.72s WALL (      19 calls)
     sum_band     :    290.81s CPU    292.45s WALL (      19 calls)
     v_of_rho     :      0.36s CPU      0.40s WALL (      19 calls)
     v_h          :      0.02s CPU      0.02s WALL (      19 calls)
     v_xc         :      0.35s CPU      0.38s WALL (      19 calls)
     newd         :      6.19s CPU      6.23s WALL (      19 calls)
     mix_rho      :      0.06s CPU      0.06s WALL (      19 calls)

     Called by c_bands:
     init_us_2    :      3.37s CPU      3.39s WALL (     205 calls)
     cegterg      :   4320.64s CPU   4362.21s WALL (      95 calls)

     Called by sum_band:
     sum_band:wei :      0.06s CPU      0.06s WALL (      19 calls)
     sum_band:loo :    285.28s CPU    286.91s WALL (      19 calls)
     sum_band:buf :      0.70s CPU      0.71s WALL (      95 calls)
     sum_band:ini :      1.58s CPU      1.59s WALL (      95 calls)
     sum_band:cal :    254.87s CPU    256.25s WALL (      95 calls)
     sum_band:bec :      3.56s CPU      3.57s WALL (      95 calls)
     addusdens    :      5.31s CPU      5.33s WALL (      19 calls)
                                        0.00s GPU  (      19 calls)
     addusd:skk   :      0.06s CPU      0.06s WALL (      19 calls)
                                        0.00s GPU  (      19 calls)

     Called by *egterg:
     cdiaghg      :    582.25s CPU    605.56s WALL (     540 calls)
     cegterg:over :    627.96s CPU    630.22s WALL (     450 calls)
     cegterg:upda :    276.43s CPU    277.94s WALL (     450 calls)
     cegterg:last :    910.02s CPU    917.26s WALL (     180 calls)
     cdiaghg:chol :     41.41s CPU     41.51s WALL (     540 calls)
     cdiaghg:inve :      6.43s CPU      6.45s WALL (     540 calls)
     cdiaghg:para :    183.66s CPU    186.29s WALL (    1080 calls)
     h_psi        :   1249.37s CPU   1254.89s WALL (     550 calls)
     s_psi        :    545.09s CPU    546.38s WALL (     550 calls)
     g_psi        :      0.41s CPU      0.41s WALL (     450 calls)

     Called by h_psi:
     h_psi:calbec :    583.61s CPU    586.81s WALL (     550 calls)
     vloc_psi     :    113.75s CPU    114.71s WALL (     550 calls)
     add_vuspsi   :    550.78s CPU    552.12s WALL (     550 calls)

     General routines
     calbec       :    906.08s CPU    911.04s WALL (     670 calls)
     fft          :      0.19s CPU      0.23s WALL (     218 calls)
     ffts         :      0.02s CPU      0.02s WALL (      19 calls)
     fftw         :    127.90s CPU    129.00s WALL (  406126 calls)

     Parallel routines

     PWSCF        :      1h21m CPU      1h22m WALL


   This run was terminated on:  19:10:31  24Mar2025            

=------------------------------------------------------------------------------=
   JOB DONE.
=------------------------------------------------------------------------------=
Note: The following floating-point exceptions are signalling: IEEE_DENORMAL
Note: The following floating-point exceptions are signalling: IEEE_DENORMAL
Note: The following floating-point exceptions are signalling: IEEE_DENORMAL
Note: The following floating-point exceptions are signalling: IEEE_DENORMAL
Note: The following floating-point exceptions are signalling: IEEE_DENORMAL
Note: The following floating-point exceptions are signalling: IEEE_DENORMAL
Note: The following floating-point exceptions are signalling: IEEE_DENORMAL
Note: The following floating-point exceptions are signalling: IEEE_DENORMAL
Note: The following floating-point exceptions are signalling: IEEE_DENORMAL
Note: The following floating-point exceptions are signalling: IEEE_DENORMAL
Note: The following floating-point exceptions are signalling: IEEE_DENORMAL
Note: The following floating-point exceptions are signalling: IEEE_DENORMAL
