--------------------------------------------------------------------------
By default, for Open MPI 4.0 and later, infiniband ports on a device
are not used by default.  The intent is to use UCX for these devices.
You can override this policy by setting the btl_openib_allow_ib MCA parameter
to true.

  Local host:              psid05
  Local adapter:           mlx4_0
  Local port:              1

--------------------------------------------------------------------------
--------------------------------------------------------------------------
WARNING: There was an error initializing an OpenFabrics device.

  Local host:   psid05
  Local device: mlx4_0
--------------------------------------------------------------------------

     Program PWSCF v.7.3.1 starts on 24Mar2025 at 17:57: 3 

     This program is part of the open-source Quantum ESPRESSO suite
     for quantum simulation of materials; please cite
         "P. Giannozzi et al., J. Phys.:Condens. Matter 21 395502 (2009);
         "P. Giannozzi et al., J. Phys.:Condens. Matter 29 465901 (2017);
         "P. Giannozzi et al., J. Chem. Phys. 152 154105 (2020);
          URL http://www.quantum-espresso.org", 
     in publications or presentations arising from this work. More details at
     http://www.quantum-espresso.org/quote

     Parallel version (MPI), running on    33 processors

     MPI processes distributed on     1 nodes
     84586 MiB available memory on the printing compute node when the environment starts

     Waiting for input...
     Reading input from standard input
Warning: card &CELL ignored
Warning: card   CELL_DOFREE = 'ALL' ignored
Warning: card / ignored

     Current dimensions of program PWSCF are:
     Max number of different atomic species (ntypx) = 10
     Max number of k-points (npk) =  40000
     Max angular momentum in pseudopotentials (lmaxx) =  4

     R & G space division:  proc/nbgrp/npool/nimage =      33
     Subspace diagonalization in iterative solution of the eigenvalue problem:
     one sub-group per band group will be used
     custom distributed-memory algorithm (size of sub-group:  5*  5 procs)


     Parallelization info
     --------------------
     sticks:   dense  smooth     PW     G-vecs:    dense   smooth      PW
     Min         116     116     32                11331    11331    1679
     Max         117     117     33                11336    11336    1687
     Sum        3835    3835   1083               374027   374027   55577

     Using Slab Decomposition



     bravais-lattice index     =            0
     lattice parameter (alat)  =      20.9009  a.u.
     unit-cell volume          =   16846.7507 (a.u.)^3
     number of atoms/cell      =           64
     number of atomic types    =            1
     number of electrons       =      1280.00
     number of Kohn-Sham states=          768
     kinetic-energy cutoff     =      30.0000  Ry
     charge density cutoff     =     120.0000  Ry
     scf convergence threshold =      1.0E-08
     mixing beta               =       0.7000
     number of iterations used =            8  plain     mixing
     Exchange-correlation= SLA  PW   PBE  PBE
                           (   1   4   3   4   0   0   0)

     celldm(1)=  20.900943  celldm(2)=   0.000000  celldm(3)=   0.000000
     celldm(4)=   0.000000  celldm(5)=   0.000000  celldm(6)=   0.000000

     crystal axes: (cart. coord. in units of alat)
               a(1) = (   1.000000   0.000000   0.000000 )  
               a(2) = (  -0.223489   0.918700   0.000000 )  
               a(3) = (  -4.200249  -1.021781   2.008375 )  

     reciprocal axes: (cart. coord. in units 2 pi/alat)
               b(1) = (  1.000000  0.243267  2.215131 )  
               b(2) = ( -0.000000  1.088495  0.553783 )  
               b(3) = (  0.000000 -0.000000  0.497915 )  


     PseudoPot. # 1 for Zn read from file:
     /home/ys/qepseudo/SSSP_1.3.0_PBE_efficiency/Zn_pbe_v1.uspp.F.UPF
     MD5 check sum: df62231357ef9e81f77b2b3087fa5675
     Pseudo is Ultrasoft, Zval = 20.0
     Generated by new atomic code, or converted to UPF format
     Using radial grid of  943 points,  6 beta functions with: 
                l(1) =   0
                l(2) =   0
                l(3) =   1
                l(4) =   1
                l(5) =   2
                l(6) =   2
     Q(r) pseudized with  8 coefficients,  rinner =    1.100   1.100   1.100
                                                       1.100   1.100

     atomic species   valence    mass     pseudopotential
     Zn               20.00    65.38000     Zn( 1.00)

     No symmetry found


                                    s                        frac. trans.

      isym =  1     identity                                     

 cryst.   s( 1) = (     1          0          0      )
                  (     0          1          0      )
                  (     0          0          1      )

 cart.    s( 1) = (  1.0000000  0.0000000  0.0000000 )
                  (  0.0000000  1.0000000  0.0000000 )
                  (  0.0000000  0.0000000  1.0000000 )


   Cartesian axes

     site n.     atom                  positions (alat units)
         1        Zn     tau(   1) = (  -0.0970639   0.0980210   0.1082939  )
         2        Zn     tau(   2) = (  -0.2088085   0.5573710   0.1082939  )
         3        Zn     tau(   3) = (  -0.4853192   0.0035714   0.2939406  )
         4        Zn     tau(   4) = (  -0.5970639   0.4629214   0.2939406  )
         5        Zn     tau(   5) = (  -0.8778168  -0.0917986   0.5024637  )
         6        Zn     tau(   6) = (  -0.9895264   0.3675466   0.5024137  )
         7        Zn     tau(   7) = (  -1.2406027  -0.1798552   0.6910406  )
         8        Zn     tau(   8) = (  -1.3522669   0.2794611   0.6910199  )
         9        Zn     tau(   9) = (  -0.1529362   0.3276960   0.1082939  )
        10        Zn     tau(  10) = (  -0.2646808   0.7870460   0.1082939  )
        11        Zn     tau(  11) = (  -0.5411915   0.2332464   0.2939406  )
        12        Zn     tau(  12) = (  -0.6529362   0.6925964   0.2939406  )
        13        Zn     tau(  13) = (  -0.9336469   0.1378867   0.5024624  )
        14        Zn     tau(  14) = (  -1.0454415   0.5972109   0.5024147  )
        15        Zn     tau(  15) = (  -1.2963824   0.0498229   0.6909782  )
        16        Zn     tau(  16) = (  -1.4082339   0.5091311   0.6910822  )
        17        Zn     tau(  17) = (   0.4029361   0.0980210   0.1082939  )
        18        Zn     tau(  18) = (   0.2911915   0.5573710   0.1082939  )
        19        Zn     tau(  19) = (   0.0146808   0.0035714   0.2939406  )
        20        Zn     tau(  20) = (  -0.0970639   0.4629214   0.2939406  )
        21        Zn     tau(  21) = (  -0.3778584  -0.0918024   0.5025944  )
        22        Zn     tau(  22) = (  -0.4896087   0.3675192   0.5025659  )
        23        Zn     tau(  23) = (  -0.7409254  -0.1799822   0.6911262  )
        24        Zn     tau(  24) = (  -0.8527216   0.2793980   0.6911899  )
        25        Zn     tau(  25) = (   0.3470638   0.3276960   0.1082939  )
        26        Zn     tau(  26) = (   0.2353192   0.7870460   0.1082939  )
        27        Zn     tau(  27) = (  -0.0411915   0.2332464   0.2939406  )
        28        Zn     tau(  28) = (  -0.1529362   0.6925964   0.2939406  )
        29        Zn     tau(  29) = (  -0.4337391   0.1378295   0.5025928  )
        30        Zn     tau(  30) = (  -0.5454721   0.5972380   0.5025679  )
        31        Zn     tau(  31) = (  -0.7968526   0.0496773   0.6911857  )
        32        Zn     tau(  32) = (  -0.9085381   0.5090884   0.6911313  )
        33        Zn     tau(  33) = (   0.1529362   0.0372043   0.0773528  )
        34        Zn     tau(  34) = (   0.0411915   0.4965543   0.0773528  )
        35        Zn     tau(  35) = (  -0.2353192  -0.0572454   0.2629995  )
        36        Zn     tau(  36) = (  -0.3470638   0.4021046   0.2629995  )
        37        Zn     tau(  37) = (  -0.6280951  -0.1529585   0.4553783  )
        38        Zn     tau(  38) = (  -0.7398296   0.3064181   0.4553934  )
        39        Zn     tau(  39) = (  -1.0052352  -0.2442836   0.6603749  )
        40        Zn     tau(  40) = (  -1.1168712   0.2151081   0.6603799  )
        41        Zn     tau(  41) = (   0.0970639   0.2668793   0.0773528  )
        42        Zn     tau(  42) = (  -0.0146808   0.7262293   0.0773528  )
        43        Zn     tau(  43) = (  -0.2911915   0.1724296   0.2629995  )
        44        Zn     tau(  44) = (  -0.4029361   0.6317796   0.2629995  )
        45        Zn     tau(  45) = (  -0.6839755   0.0767104   0.4553893  )
        46        Zn     tau(  46) = (  -0.7956904   0.5360988   0.4553814  )
        47        Zn     tau(  47) = (  -1.0610488  -0.0145857   0.6603978  )
        48        Zn     tau(  48) = (  -1.1728037   0.4447627   0.6603571  )
        49        Zn     tau(  49) = (   0.6529362   0.0372043   0.0773528  )
        50        Zn     tau(  50) = (   0.5411915   0.4965543   0.0773528  )
        51        Zn     tau(  51) = (   0.2646808  -0.0572454   0.2629995  )
        52        Zn     tau(  52) = (   0.1529362   0.4021046   0.2629995  )
        53        Zn     tau(  53) = (  -0.1280445  -0.1528982   0.4553743  )
        54        Zn     tau(  54) = (  -0.2397657   0.3063891   0.4553297  )
        55        Zn     tau(  55) = (  -0.5055002  -0.2443167   0.6603316  )
        56        Zn     tau(  56) = (  -0.6173111   0.2149623   0.6603566  )
        57        Zn     tau(  57) = (   0.5970639   0.2668793   0.0773528  )
        58        Zn     tau(  58) = (   0.4853192   0.7262293   0.0773528  )
        59        Zn     tau(  59) = (   0.2088085   0.1724296   0.2629995  )
        60        Zn     tau(  60) = (   0.0970639   0.6317796   0.2629995  )
        61        Zn     tau(  61) = (  -0.1838756   0.0767547   0.4553744  )
        62        Zn     tau(  62) = (  -0.2956772   0.5360837   0.4553280  )
        63        Zn     tau(  63) = (  -0.5614277  -0.0146977   0.6603020  )
        64        Zn     tau(  64) = (  -0.6731294   0.4446946   0.6603871  )

   Crystallographic axes

     site n.     atom                  positions (cryst. coord.)
         1        Zn     tau(   1) = (  0.1666667  0.1666667  0.0539212  )
         2        Zn     tau(   2) = (  0.1666667  0.6666667  0.0539212  )
         3        Zn     tau(   3) = (  0.1666667  0.1666667  0.1463574  )
         4        Zn     tau(   4) = (  0.1666667  0.6666667  0.1463574  )
         5        Zn     tau(   5) = (  0.2128747  0.1783335  0.2501842  )
         6        Zn     tau(   6) = (  0.2127978  0.6783005  0.2501593  )
         7        Zn     tau(   7) = (  0.2463902  0.1869149  0.3440795  )
         8        Zn     tau(   8) = (  0.2464166  0.6868668  0.3440692  )
         9        Zn     tau(   9) = (  0.1666667  0.4166667  0.0539212  )
        10        Zn     tau(  10) = (  0.1666667  0.9166667  0.0539212  )
        11        Zn     tau(  11) = (  0.1666667  0.4166667  0.1463574  )
        12        Zn     tau(  12) = (  0.1666667  0.9166667  0.1463574  )
        13        Zn     tau(  13) = (  0.2129167  0.4283440  0.2501836  )
        14        Zn     tau(  14) = (  0.2127547  0.9282895  0.2501598  )
        15        Zn     tau(  15) = (  0.2463452  0.4368838  0.3440484  )
        16        Zn     tau(  16) = (  0.2464587  0.9368959  0.3441002  )
        17        Zn     tau(  17) = (  0.6666667  0.1666667  0.0539212  )
        18        Zn     tau(  18) = (  0.6666667  0.6666667  0.0539212  )
        19        Zn     tau(  19) = (  0.6666667  0.1666667  0.1463574  )
        20        Zn     tau(  20) = (  0.6666667  0.6666667  0.1463574  )
        21        Zn     tau(  21) = (  0.7131217  0.1784017  0.2502493  )
        22        Zn     tau(  22) = (  0.7130461  0.6783550  0.2502351  )
        23        Zn     tau(  23) = (  0.7462263  0.1868242  0.3441221  )
        24        Zn     tau(  24) = (  0.7463231  0.6868923  0.3441538  )
        25        Zn     tau(  25) = (  0.6666667  0.4166667  0.0539212  )
        26        Zn     tau(  26) = (  0.6666667  0.9166667  0.0539212  )
        27        Zn     tau(  27) = (  0.6666667  0.4166667  0.1463574  )
        28        Zn     tau(  28) = (  0.6666667  0.9166667  0.1463574  )
        29        Zn     tau(  29) = (  0.7130994  0.4283539  0.2502485  )
        30        Zn     tau(  30) = (  0.7130701  0.9284039  0.2502361  )
        31        Zn     tau(  31) = (  0.7462994  0.4368403  0.3441517  )
        32        Zn     tau(  32) = (  0.7462528  0.9368766  0.3441246  )
        33        Zn     tau(  33) = (  0.3333333  0.0833333  0.0385151  )
        34        Zn     tau(  34) = (  0.3333333  0.5833333  0.0385151  )
        35        Zn     tau(  35) = (  0.3333333  0.0833333  0.1309514  )
        36        Zn     tau(  36) = (  0.3333333  0.5833333  0.1309514  )
        37        Zn     tau(  37) = (  0.3434179  0.0856861  0.2267397  )
        38        Zn     tau(  38) = (  0.3434679  0.5857235  0.2267472  )
        39        Zn     tau(  39) = (  0.3981557  0.0998028  0.3288105  )
        40        Zn     tau(  40) = (  0.3982858  0.5998511  0.3288131  )
        41        Zn     tau(  41) = (  0.3333333  0.3333333  0.0385151  )
        42        Zn     tau(  42) = (  0.3333333  0.8333333  0.0385151  )
        43        Zn     tau(  43) = (  0.3333333  0.3333333  0.1309514  )
        44        Zn     tau(  44) = (  0.3333333  0.8333333  0.1309514  )
        45        Zn     tau(  45) = (  0.3434327  0.3356857  0.2267452  )
        46        Zn     tau(  46) = (  0.3434542  0.8357230  0.2267412  )
        47        Zn     tau(  47) = (  0.3982709  0.3498405  0.3288220  )
        48        Zn     tau(  48) = (  0.3981701  0.8498162  0.3288017  )
        49        Zn     tau(  49) = (  0.8333333  0.0833333  0.0385151  )
        50        Zn     tau(  50) = (  0.8333333  0.5833333  0.0385151  )
        51        Zn     tau(  51) = (  0.8333333  0.0833333  0.1309514  )
        52        Zn     tau(  52) = (  0.8333333  0.5833333  0.1309514  )
        53        Zn     tau(  53) = (  0.8434743  0.0857495  0.2267377  )
        54        Zn     tau(  54) = (  0.8433836  0.5856566  0.2267155  )
        55        Zn     tau(  55) = (  0.8977868  0.0997428  0.3287890  )
        56        Zn     tau(  56) = (  0.8977586  0.5996794  0.3288014  )
        57        Zn     tau(  57) = (  0.8333333  0.3333333  0.0385151  )
        58        Zn     tau(  58) = (  0.8333333  0.8333333  0.0385151  )
        59        Zn     tau(  59) = (  0.8333333  0.3333333  0.1309514  )
        60        Zn     tau(  60) = (  0.8333333  0.8333333  0.1309514  )
        61        Zn     tau(  61) = (  0.8435104  0.3357256  0.2267377  )
        62        Zn     tau(  62) = (  0.8433456  0.8356770  0.2267147  )
        63        Zn     tau(  63) = (  0.8976524  0.3496655  0.3287743  )
        64        Zn     tau(  64) = (  0.8978942  0.8497587  0.3288166  )

     number of k points=     5  Marzari-Vanderbilt smearing, width (Ry)=  0.0200
                       cart. coord. in units 2pi/alat
        k(    1) = (   0.0000000   0.0000000   0.0000000), wk =   0.2222222
        k(    2) = (   0.0000000   0.3628315   0.1845943), wk =   0.4444444
        k(    3) = (   0.3333333   0.0810890   0.7383771), wk =   0.4444444
        k(    4) = (   0.3333333   0.4439205   0.9229714), wk =   0.4444444
        k(    5) = (   0.3333333  -0.2817426   0.5537829), wk =   0.4444444

                       cryst. coord.
        k(    1) = (   0.0000000   0.0000000   0.0000000), wk =   0.2222222
        k(    2) = (   0.0000000   0.3333333   0.0000000), wk =   0.4444444
        k(    3) = (   0.3333333   0.0000000   0.0000000), wk =   0.4444444
        k(    4) = (   0.3333333   0.3333333   0.0000000), wk =   0.4444444
        k(    5) = (   0.3333333  -0.3333333   0.0000000), wk =   0.4444444

     Dense  grid:   374027 G-vectors     FFT dimensions: (  75,  72, 360)

     Dynamical RAM for                 wfc:      16.59 MB

     Dynamical RAM for     wfc (w. buffer):      99.56 MB

     Dynamical RAM for           str. fact:       0.17 MB

     Dynamical RAM for           local pot:       0.00 MB

     Dynamical RAM for          nlocal pot:      24.89 MB

     Dynamical RAM for                qrad:       0.88 MB

     Dynamical RAM for          rho,v,vnew:       1.88 MB

     Dynamical RAM for               rhoin:       0.63 MB

     Dynamical RAM for            rho*nmix:       2.77 MB

     Dynamical RAM for           G-vectors:       0.73 MB

     Dynamical RAM for          h,s,v(r/c):       4.31 MB

     Dynamical RAM for          <psi|beta>:      13.50 MB

     Dynamical RAM for                 psi:      33.19 MB

     Dynamical RAM for                hpsi:      33.19 MB

     Dynamical RAM for                spsi:      33.19 MB

     Dynamical RAM for      wfcinit/wfcrot:      51.80 MB

     Dynamical RAM for           addusdens:      43.23 MB

     Dynamical RAM for          addusforce:      65.35 MB

     Dynamical RAM for         addusstress:      34.76 MB

     Estimated static dynamical RAM per process >     131.36 MB

     Estimated max dynamical RAM per process >     251.50 MB

     Estimated total dynamical RAM >       8.11 GB

     Initial potential from superposition of free atoms

     starting charge    1279.9910, renormalised to    1280.0000

     negative rho (up, down):  1.808E-03 0.000E+00
     Starting wfcs are  832 randomized atomic wfcs
[psid05:170432] 32 more processes have sent help message help-mpi-btl-openib.txt / ib port not selected
[psid05:170432] Set MCA parameter "orte_base_help_aggregate" to 0 to see all help / error messages
[psid05:170432] 32 more processes have sent help message help-mpi-btl-openib.txt / error in device init

     total cpu time spent up to now is       75.4 secs

     Self-consistent Calculation

     iteration #  1     ecut=    30.00 Ry     beta= 0.70
     Davidson diagonalization with overlap

---- Real-time Memory Report at c_bands before calling an iterative solver
           209 MiB given to the printing process from OS
             0 MiB allocation reported by mallinfo(arena+hblkhd)
         79890 MiB available memory on the node where the printing process lives
------------------
     ethr =  1.00E-02,  avg # of iterations =  7.6

     Threshold (ethr) on eigenvalues was too large:
     Diagonalizing with lowered threshold

     Davidson diagonalization with overlap

---- Real-time Memory Report at c_bands before calling an iterative solver
           289 MiB given to the printing process from OS
             0 MiB allocation reported by mallinfo(arena+hblkhd)
         78469 MiB available memory on the node where the printing process lives
------------------
     ethr =  1.80E-04,  avg # of iterations =  6.6

     negative rho (up, down):  6.397E-03 0.000E+00

     total cpu time spent up to now is      649.7 secs

     total energy              =  -29533.66357917 Ry
     estimated scf accuracy    <       2.49988337 Ry

     iteration #  2     ecut=    30.00 Ry     beta= 0.70
     Davidson diagonalization with overlap

---- Real-time Memory Report at c_bands before calling an iterative solver
           305 MiB given to the printing process from OS
             0 MiB allocation reported by mallinfo(arena+hblkhd)
         78424 MiB available memory on the node where the printing process lives
------------------
     ethr =  1.95E-04,  avg # of iterations =  3.2

     negative rho (up, down):  7.724E-03 0.000E+00

     total cpu time spent up to now is     1005.2 secs

     total energy              =  -29534.04520244 Ry
     estimated scf accuracy    <       4.75310902 Ry

     iteration #  3     ecut=    30.00 Ry     beta= 0.70
     Davidson diagonalization with overlap

---- Real-time Memory Report at c_bands before calling an iterative solver
           308 MiB given to the printing process from OS
             0 MiB allocation reported by mallinfo(arena+hblkhd)
         78404 MiB available memory on the node where the printing process lives
------------------
     ethr =  1.95E-04,  avg # of iterations =  8.0

     negative rho (up, down):  7.940E-03 0.000E+00

     total cpu time spent up to now is     1360.6 secs

     total energy              =  -29534.12796663 Ry
     estimated scf accuracy    <      17.29355028 Ry

     iteration #  4     ecut=    30.00 Ry     beta= 0.70
     Davidson diagonalization with overlap

---- Real-time Memory Report at c_bands before calling an iterative solver
           308 MiB given to the printing process from OS
             0 MiB allocation reported by mallinfo(arena+hblkhd)
         78391 MiB available memory on the node where the printing process lives
------------------
     ethr =  1.95E-04,  avg # of iterations =  7.0

     negative rho (up, down):  8.791E-03 0.000E+00

     total cpu time spent up to now is     1633.4 secs

     total energy              =  -29534.93256899 Ry
     estimated scf accuracy    <       0.31515865 Ry

     iteration #  5     ecut=    30.00 Ry     beta= 0.70
     Davidson diagonalization with overlap

---- Real-time Memory Report at c_bands before calling an iterative solver
           309 MiB given to the printing process from OS
             0 MiB allocation reported by mallinfo(arena+hblkhd)
         78378 MiB available memory on the node where the printing process lives
------------------
     ethr =  2.46E-05,  avg # of iterations = 14.0

     negative rho (up, down):  1.031E-02 0.000E+00

     total cpu time spent up to now is     1947.0 secs

     total energy              =  -29534.95538639 Ry
     estimated scf accuracy    <       0.48673288 Ry

     iteration #  6     ecut=    30.00 Ry     beta= 0.70
     Davidson diagonalization with overlap

---- Real-time Memory Report at c_bands before calling an iterative solver
           310 MiB given to the printing process from OS
             0 MiB allocation reported by mallinfo(arena+hblkhd)
         78364 MiB available memory on the node where the printing process lives
------------------
     ethr =  2.46E-05,  avg # of iterations =  5.8

     negative rho (up, down):  1.064E-02 0.000E+00

     total cpu time spent up to now is     2217.6 secs

     total energy              =  -29534.99901640 Ry
     estimated scf accuracy    <       0.00434322 Ry

     iteration #  7     ecut=    30.00 Ry     beta= 0.70
     Davidson diagonalization with overlap

---- Real-time Memory Report at c_bands before calling an iterative solver
           310 MiB given to the printing process from OS
             0 MiB allocation reported by mallinfo(arena+hblkhd)
         78350 MiB available memory on the node where the printing process lives
------------------
     ethr =  3.39E-07,  avg # of iterations = 12.2

     negative rho (up, down):  1.072E-02 0.000E+00

     total cpu time spent up to now is     2562.6 secs

     total energy              =  -29534.99991193 Ry
     estimated scf accuracy    <       0.00026685 Ry

     iteration #  8     ecut=    30.00 Ry     beta= 0.70
     Davidson diagonalization with overlap

---- Real-time Memory Report at c_bands before calling an iterative solver
           311 MiB given to the printing process from OS
             0 MiB allocation reported by mallinfo(arena+hblkhd)
         78338 MiB available memory on the node where the printing process lives
------------------
     ethr =  2.08E-08,  avg # of iterations =  2.0

     negative rho (up, down):  1.074E-02 0.000E+00

     total cpu time spent up to now is     2859.4 secs

     total energy              =  -29534.99993910 Ry
     estimated scf accuracy    <       0.00014483 Ry

     iteration #  9     ecut=    30.00 Ry     beta= 0.70
     Davidson diagonalization with overlap

---- Real-time Memory Report at c_bands before calling an iterative solver
           311 MiB given to the printing process from OS
             0 MiB allocation reported by mallinfo(arena+hblkhd)
         78324 MiB available memory on the node where the printing process lives
------------------
     ethr =  1.13E-08,  avg # of iterations =  2.2

     negative rho (up, down):  1.075E-02 0.000E+00

     total cpu time spent up to now is     3107.3 secs

     total energy              =  -29534.99994528 Ry
     estimated scf accuracy    <       0.00025207 Ry

     iteration # 10     ecut=    30.00 Ry     beta= 0.70
     Davidson diagonalization with overlap

---- Real-time Memory Report at c_bands before calling an iterative solver
           312 MiB given to the printing process from OS
             0 MiB allocation reported by mallinfo(arena+hblkhd)
         78311 MiB available memory on the node where the printing process lives
------------------
     ethr =  1.13E-08,  avg # of iterations =  2.0

     negative rho (up, down):  1.074E-02 0.000E+00

     total cpu time spent up to now is     3355.6 secs

     total energy              =  -29534.99997144 Ry
     estimated scf accuracy    <       0.00001052 Ry

     iteration # 11     ecut=    30.00 Ry     beta= 0.70
     Davidson diagonalization with overlap

---- Real-time Memory Report at c_bands before calling an iterative solver
           312 MiB given to the printing process from OS
             0 MiB allocation reported by mallinfo(arena+hblkhd)
         78297 MiB available memory on the node where the printing process lives
------------------
     ethr =  8.22E-10,  avg # of iterations =  2.0

     negative rho (up, down):  1.074E-02 0.000E+00

     total cpu time spent up to now is     3607.6 secs

     total energy              =  -29534.99997230 Ry
     estimated scf accuracy    <       0.00001126 Ry

     iteration # 12     ecut=    30.00 Ry     beta= 0.70
     Davidson diagonalization with overlap

---- Real-time Memory Report at c_bands before calling an iterative solver
           312 MiB given to the printing process from OS
             0 MiB allocation reported by mallinfo(arena+hblkhd)
         78296 MiB available memory on the node where the printing process lives
------------------
     ethr =  8.22E-10,  avg # of iterations =  2.0

     negative rho (up, down):  1.074E-02 0.000E+00

     total cpu time spent up to now is     3856.2 secs

     total energy              =  -29534.99997363 Ry
     estimated scf accuracy    <       0.00000163 Ry

     iteration # 13     ecut=    30.00 Ry     beta= 0.70
     Davidson diagonalization with overlap

---- Real-time Memory Report at c_bands before calling an iterative solver
           312 MiB given to the printing process from OS
             0 MiB allocation reported by mallinfo(arena+hblkhd)
         78292 MiB available memory on the node where the printing process lives
------------------
     ethr =  1.27E-10,  avg # of iterations =  2.0

     negative rho (up, down):  1.074E-02 0.000E+00

     total cpu time spent up to now is     4100.2 secs

     total energy              =  -29534.99997380 Ry
     estimated scf accuracy    <       0.00000114 Ry

     iteration # 14     ecut=    30.00 Ry     beta= 0.70
     Davidson diagonalization with overlap

---- Real-time Memory Report at c_bands before calling an iterative solver
           312 MiB given to the printing process from OS
             0 MiB allocation reported by mallinfo(arena+hblkhd)
         78292 MiB available memory on the node where the printing process lives
------------------
     ethr =  8.88E-11,  avg # of iterations =  2.0

     negative rho (up, down):  1.074E-02 0.000E+00

     total cpu time spent up to now is     4343.2 secs

     total energy              =  -29534.99997384 Ry
     estimated scf accuracy    <       0.00000130 Ry

     iteration # 15     ecut=    30.00 Ry     beta= 0.70
     Davidson diagonalization with overlap

---- Real-time Memory Report at c_bands before calling an iterative solver
           312 MiB given to the printing process from OS
             0 MiB allocation reported by mallinfo(arena+hblkhd)
         78292 MiB available memory on the node where the printing process lives
------------------
     ethr =  8.88E-11,  avg # of iterations =  1.0

     negative rho (up, down):  1.074E-02 0.000E+00

     total cpu time spent up to now is     4546.6 secs

     total energy              =  -29534.99997389 Ry
     estimated scf accuracy    <       0.00000112 Ry

     iteration # 16     ecut=    30.00 Ry     beta= 0.70
     Davidson diagonalization with overlap

---- Real-time Memory Report at c_bands before calling an iterative solver
           312 MiB given to the printing process from OS
             0 MiB allocation reported by mallinfo(arena+hblkhd)
         78290 MiB available memory on the node where the printing process lives
------------------
     ethr =  8.72E-11,  avg # of iterations =  1.0

     negative rho (up, down):  1.074E-02 0.000E+00

     total cpu time spent up to now is     4751.2 secs

     total energy              =  -29534.99997395 Ry
     estimated scf accuracy    <       0.00000004 Ry

     iteration # 17     ecut=    30.00 Ry     beta= 0.70
     Davidson diagonalization with overlap

---- Real-time Memory Report at c_bands before calling an iterative solver
           312 MiB given to the printing process from OS
             0 MiB allocation reported by mallinfo(arena+hblkhd)
         78289 MiB available memory on the node where the printing process lives
------------------
     ethr =  2.86E-12,  avg # of iterations =  2.0

     negative rho (up, down):  1.074E-02 0.000E+00

     total cpu time spent up to now is     4996.0 secs

     total energy              =  -29534.99997396 Ry
     estimated scf accuracy    <       0.00000002 Ry

     iteration # 18     ecut=    30.00 Ry     beta= 0.70
     Davidson diagonalization with overlap

---- Real-time Memory Report at c_bands before calling an iterative solver
           313 MiB given to the printing process from OS
             0 MiB allocation reported by mallinfo(arena+hblkhd)
         78288 MiB available memory on the node where the printing process lives
------------------
     ethr =  1.53E-12,  avg # of iterations =  2.0

     negative rho (up, down):  1.074E-02 0.000E+00

     total cpu time spent up to now is     5239.4 secs

     End of self-consistent calculation

          k = 0.0000 0.0000 0.0000 ( 46769 PWs)   bands (ev):

  -124.1219-124.1211-124.1208-124.1207-124.1207-124.1203-124.1201-124.1201
  -124.0808-124.0800-124.0798-124.0796-124.0796-124.0793-124.0791-124.0791
  -124.0189-124.0180-124.0179-124.0178-124.0177-124.0172-124.0169-124.0169
  -123.9751-123.9742-123.9741-123.9740-123.9739-123.9732-123.9729-123.9727
  -123.9469-123.9463-123.9457-123.9457-123.9457-123.9457-123.9454-123.9454
  -123.8507-123.8500-123.8498-123.8496-123.8495-123.8494-123.8489-123.8487
  -123.8208-123.8201-123.8196-123.8196-123.8196-123.8195-123.8192-123.8192
  -123.7374-123.7368-123.7364-123.7363-123.7361-123.7361-123.7357-123.7355
   -78.2272 -78.2268 -78.2143 -78.2118 -78.2113 -78.2113 -78.2107 -78.2107
   -78.2106 -78.2102 -78.2079 -78.2079 -78.2068 -78.2045 -78.2045 -78.2036
   -78.2032 -78.2028 -78.2028 -78.2027 -78.2025 -78.2025 -78.1950 -78.1945
   -78.1879 -78.1875 -78.1750 -78.1702 -78.1702 -78.1701 -78.1699 -78.1698
   -78.1693 -78.1689 -78.1686 -78.1686 -78.1658 -78.1643 -78.1643 -78.1638
   -78.1636 -78.1636 -78.1634 -78.1632 -78.1628 -78.1628 -78.1552 -78.1548
   -78.1236 -78.1229 -78.1118 -78.1083 -78.1077 -78.1077 -78.1070 -78.1069
   -78.1069 -78.1063 -78.1060 -78.1053 -78.1053 -78.1045 -78.1045 -78.1039
   -78.1033 -78.1024 -78.1024 -78.1023 -78.0999 -78.0998 -78.0920 -78.0911
   -78.0786 -78.0775 -78.0703 -78.0647 -78.0647 -78.0633 -78.0630 -78.0629
   -78.0625 -78.0622 -78.0607 -78.0606 -78.0606 -78.0600 -78.0593 -78.0590
   -78.0590 -78.0589 -78.0587 -78.0585 -78.0546 -78.0546 -78.0473 -78.0472
   -78.0469 -78.0469 -78.0465 -78.0464 -78.0464 -78.0457 -78.0457 -78.0455
   -78.0454 -78.0453 -78.0334 -78.0294 -78.0294 -78.0283 -78.0283 -78.0280
   -78.0279 -78.0269 -78.0261 -78.0260 -78.0222 -78.0222 -78.0136 -78.0135
   -77.9526 -77.9520 -77.9481 -77.9477 -77.9474 -77.9473 -77.9469 -77.9466
   -77.9463 -77.9461 -77.9390 -77.9356 -77.9356 -77.9349 -77.9348 -77.9346
   -77.9342 -77.9328 -77.9321 -77.9321 -77.9286 -77.9286 -77.9214 -77.9203
   -77.9200 -77.9197 -77.9197 -77.9195 -77.9194 -77.9193 -77.9191 -77.9191
   -77.9191 -77.9190 -77.9103 -77.9057 -77.9057 -77.9047 -77.9047 -77.9044
   -77.9044 -77.9026 -77.8999 -77.8999 -77.8958 -77.8958 -77.8870 -77.8869
   -77.8421 -77.8410 -77.8400 -77.8400 -77.8399 -77.8397 -77.8396 -77.8393
   -77.8333 -77.8329 -77.8256 -77.8222 -77.8222 -77.8215 -77.8215 -77.8208
   -77.8204 -77.8199 -77.8140 -77.8140 -77.8098 -77.8098 -77.8010 -77.8005
    -7.2869  -6.2733  -6.2164  -6.1649  -5.9610  -5.9610  -5.7723  -5.7396
    -5.6760  -5.6713  -5.6514  -5.6456  -5.6454  -5.6399  -5.6399  -5.6243
    -5.5929  -5.5926  -5.5537  -5.5534  -5.5066  -5.4961  -5.4961  -5.4941
    -5.4828  -5.4828  -5.4716  -5.4686  -5.4683  -5.4549  -5.4406  -5.4406
    -5.4152  -5.4152  -5.4050  -5.4004  -5.4004  -5.3900  -5.3879  -5.3878
    -5.3578  -5.3578  -5.3526  -5.3526  -5.3399  -5.3395  -5.3381  -5.3333
    -5.3333  -5.3187  -5.3187  -5.3133  -5.2969  -5.2944  -5.2944  -5.2812
    -5.2809  -5.2806  -5.2806  -5.2668  -5.2668  -5.2504  -5.2494  -5.2458
    -5.2458  -5.2139  -5.2139  -5.2127  -5.2127  -5.2120  -5.2116  -5.1965
    -5.1957  -5.1945  -5.1732  -5.1682  -5.1682  -5.1499  -5.1497  -5.1492
    -5.1492  -5.1431  -5.1431  -5.1297  -5.1297  -5.1228  -5.1149  -5.1052
    -5.1052  -5.1015  -5.1015  -5.1007  -5.0844  -5.0790  -5.0790  -5.0753
    -5.0687  -5.0682  -5.0612  -5.0611  -5.0504  -5.0387  -5.0387  -5.0346
    -5.0341  -5.0249  -5.0240  -5.0240  -5.0222  -5.0031  -5.0031  -4.9868
    -4.9868  -4.9865  -4.9865  -4.9768  -4.9686  -4.9680  -4.9611  -4.9611
    -4.9374  -4.9327  -4.9324  -4.9310  -4.9310  -4.9256  -4.9165  -4.9109
    -4.9108  -4.8907  -4.8905  -4.8815  -4.8813  -4.8749  -4.8727  -4.8727
    -4.8717  -4.8717  -4.8493  -4.8486  -4.8409  -4.8409  -4.8394  -4.8368
    -4.8282  -4.8282  -4.8209  -4.8209  -4.8169  -4.8169  -4.8079  -4.8046
    -4.7955  -4.7955  -4.7943  -4.7943  -4.7826  -4.7826  -4.7722  -4.7722
    -4.7649  -4.7649  -4.7634  -4.7633  -4.7466  -4.7466  -4.7439  -4.7439
    -4.7434  -4.7434  -4.7280  -4.7280  -4.7209  -4.7209  -4.7158  -4.7158
    -4.7134  -4.7043  -4.7023  -4.6984  -4.6984  -4.6821  -4.6820  -4.6746
    -4.6742  -4.6700  -4.6680  -4.6680  -4.6553  -4.6496  -4.6473  -4.6473
    -4.6400  -4.6395  -4.6276  -4.6187  -4.6187  -4.6143  -4.6143  -4.6118
    -4.6072  -4.6072  -4.5981  -4.5981  -4.5979  -4.5977  -4.5938  -4.5936
    -4.5936  -4.5821  -4.5735  -4.5735  -4.5724  -4.5724  -4.5641  -4.5636
    -4.5574  -4.5567  -4.5564  -4.5555  -4.5539  -4.5518  -4.5518  -4.5508
    -4.5508  -4.5390  -4.5390  -4.5383  -4.5300  -4.5265  -4.5223  -4.5222
    -4.5158  -4.5158  -4.5127  -4.5127  -4.5059  -4.5059  -4.5002  -4.4965
    -4.4927  -4.4927  -4.4891  -4.4891  -4.4851  -4.4845  -4.4757  -4.4648
    -4.4642  -4.4597  -4.4565  -4.4555  -4.4555  -4.4464  -4.4461  -4.4457
    -4.4309  -4.4309  -4.4309  -4.4277  -4.4277  -4.4267  -4.4263  -4.4235
    -4.4233  -4.4156  -4.3958  -4.3958  -4.3943  -4.3943  -4.3934  -4.3934
    -4.3928  -4.3924  -4.3804  -4.3800  -4.3757  -4.3757  -4.3749  -4.3712
    -4.3662  -4.3662  -4.3631  -4.3461  -4.3459  -4.3404  -4.3388  -4.3388
    -4.3303  -4.3244  -4.3244  -4.3241  -4.3241  -4.3161  -4.3009  -4.3009
    -4.2998  -4.2962  -4.2962  -4.2958  -4.2956  -4.2930  -4.2837  -4.2819
    -4.2818  -4.2707  -4.2707  -4.2628  -4.2628  -4.2505  -4.2504  -4.2485
    -4.2356  -4.2353  -4.2084  -4.2044  -4.1934  -4.1822  -4.1661  -4.1656
    -4.1494  -4.1494  -4.1305  -4.1304  -4.1262  -4.1172  -4.0601  -4.0599
    -4.0232  -3.8833  -3.8770  -3.8770  -3.4124  -3.2917  -3.2917  -3.0571
    -3.0571  -2.2634  -1.9955  -1.9955  -1.9858  -1.9858  -1.9321  -1.3000
    -1.2922  -1.2921  -1.2106  -1.1040  -1.1040  -0.7338  -0.6876  -0.6868
    -0.5668  -0.5660  -0.1825  -0.0793   0.0265   0.0265   0.0345   0.0345
     0.3602   0.3773   0.3785   0.4639   0.4662   0.6101   0.6105   0.6107
     1.2879   1.2879   1.3659   1.3932   1.3944   1.4746   1.4746   1.8108
     2.0622   2.0635   2.1988   2.2008   2.2447   2.2447   2.2767   2.5732
     2.5732   2.6124   2.6139   2.7031   2.7031   2.7780   3.2201   3.2938
     3.2938   3.4244   3.4271   3.7497   3.7518   3.9114   3.9115   3.9590
     4.5593   4.5593   4.8121   4.8121   4.8493   4.8522   4.8809   4.8809
     4.9433   4.9680   4.9821   4.9832   5.0202   5.0204   5.3840   5.4132
     5.4132   5.4925   5.6334   5.7593   5.7632   6.1077   6.1077   6.1219
     6.1494   6.2788   6.2788   6.3949   6.3949   6.6376   6.6884   6.7797
     6.7826   6.7975   6.7975   7.0118   7.0118   7.0164   7.0766   7.2268
     7.2269   7.3224   7.3789   7.3789   7.5000   7.5009   7.5320   7.5320
     7.5666   7.5679   7.6417   7.6433   7.6666   7.6796   7.6877   7.6878
     7.7065   7.8798   7.9429   7.9447   7.9582   8.0101   8.0101   8.2077
     8.2077   8.2659   8.2659   8.3124   8.3151   8.3508   8.3508   8.3662
     8.3662   8.3828   8.3828   8.7363   8.7363   8.7593   8.7647   8.7693
     8.7696   8.7696   8.8608   8.8608   9.0880   9.1623   9.1829   9.2508
     9.4354   9.4354   9.4857   9.4857   9.5075   9.5643   9.5667   9.5851
     9.6839   9.7125   9.7125   9.8179   9.8179   9.8271   9.8738   9.8738
     9.9982   9.9992  10.0174  10.0174  10.0494  10.0494  10.1543  10.1543

     occupation numbers 
     1.0000   1.0000   1.0000   1.0000   1.0000   1.0000   1.0000   1.0000
     1.0000   1.0000   1.0000   1.0000   1.0000   1.0000   1.0000   1.0000
     1.0000   1.0000   1.0000   1.0000   1.0000   1.0000   1.0000   1.0000
     1.0000   1.0000   1.0000   1.0000   1.0000   1.0000   1.0000   1.0000
     1.0000   1.0000   1.0000   1.0000   1.0000   1.0000   1.0000   1.0000
     1.0000   1.0000   1.0000   1.0000   1.0000   1.0000   1.0000   1.0000
     1.0000   1.0000   1.0000   1.0000   1.0000   1.0000   1.0000   1.0000
     1.0000   1.0000   1.0000   1.0000   1.0000   1.0000   1.0000   1.0000
     1.0000   1.0000   1.0000   1.0000   1.0000   1.0000   1.0000   1.0000
     1.0000   1.0000   1.0000   1.0000   1.0000   1.0000   1.0000   1.0000
     1.0000   1.0000   1.0000   1.0000   1.0000   1.0000   1.0000   1.0000
     1.0000   1.0000   1.0000   1.0000   1.0000   1.0000   1.0000   1.0000
     1.0000   1.0000   1.0000   1.0000   1.0000   1.0000   1.0000   1.0000
     1.0000   1.0000   1.0000   1.0000   1.0000   1.0000   1.0000   1.0000
     1.0000   1.0000   1.0000   1.0000   1.0000   1.0000   1.0000   1.0000
     1.0000   1.0000   1.0000   1.0000   1.0000   1.0000   1.0000   1.0000
     1.0000   1.0000   1.0000   1.0000   1.0000   1.0000   1.0000   1.0000
     1.0000   1.0000   1.0000   1.0000   1.0000   1.0000   1.0000   1.0000
     1.0000   1.0000   1.0000   1.0000   1.0000   1.0000   1.0000   1.0000
     1.0000   1.0000   1.0000   1.0000   1.0000   1.0000   1.0000   1.0000
     1.0000   1.0000   1.0000   1.0000   1.0000   1.0000   1.0000   1.0000
     1.0000   1.0000   1.0000   1.0000   1.0000   1.0000   1.0000   1.0000
     1.0000   1.0000   1.0000   1.0000   1.0000   1.0000   1.0000   1.0000
     1.0000   1.0000   1.0000   1.0000   1.0000   1.0000   1.0000   1.0000
     1.0000   1.0000   1.0000   1.0000   1.0000   1.0000   1.0000   1.0000
     1.0000   1.0000   1.0000   1.0000   1.0000   1.0000   1.0000   1.0000
     1.0000   1.0000   1.0000   1.0000   1.0000   1.0000   1.0000   1.0000
     1.0000   1.0000   1.0000   1.0000   1.0000   1.0000   1.0000   1.0000
     1.0000   1.0000   1.0000   1.0000   1.0000   1.0000   1.0000   1.0000
     1.0000   1.0000   1.0000   1.0000   1.0000   1.0000   1.0000   1.0000
     1.0000   1.0000   1.0000   1.0000   1.0000   1.0000   1.0000   1.0000
     1.0000   1.0000   1.0000   1.0000   1.0000   1.0000   1.0000   1.0000
     1.0000   1.0000   1.0000   1.0000   1.0000   1.0000   1.0000   1.0000
     1.0000   1.0000   1.0000   1.0000   1.0000   1.0000   1.0000   1.0000
     1.0000   1.0000   1.0000   1.0000   1.0000   1.0000   1.0000   1.0000
     1.0000   1.0000   1.0000   1.0000   1.0000   1.0000   1.0000   1.0000
     1.0000   1.0000   1.0000   1.0000   1.0000   1.0000   1.0000   1.0000
     1.0000   1.0000   1.0000   1.0000   1.0000   1.0000   1.0000   1.0000
     1.0000   1.0000   1.0000   1.0000   1.0000   1.0000   1.0000   1.0000
     1.0000   1.0000   1.0000   1.0000   1.0000   1.0000   1.0000   1.0000
     1.0000   1.0000   1.0000   1.0000   1.0000   1.0000   1.0000   1.0000
     1.0000   1.0000   1.0000   1.0000   1.0000   1.0000   1.0000   1.0000
     1.0000   1.0000   1.0000   1.0000   1.0000   1.0000   1.0000   1.0000
     1.0000   1.0000   1.0000   1.0000   1.0000   1.0000   1.0000   1.0000
     1.0000   1.0000   1.0000   1.0000   1.0000   1.0000   1.0000   1.0000
     1.0000   1.0000   1.0000   1.0000   1.0000   1.0000   1.0000   1.0000
     1.0000   1.0000   1.0000   1.0000   1.0000   1.0000   1.0000   1.0000
     1.0000   1.0000   1.0000   1.0000   1.0000   1.0000   1.0000   1.0000
     1.0000   1.0000   1.0000   1.0000   1.0000   1.0000   1.0000   1.0000
     1.0000   1.0000   1.0000   1.0000   1.0000   1.0000   1.0000   1.0000
     1.0000   1.0000   1.0000   1.0000   1.0000   1.0000   1.0000   1.0000
     1.0000   1.0000   1.0000   1.0000   1.0000   1.0000   1.0000   1.0000
     1.0000   1.0000   1.0000   1.0000   1.0000   1.0000   1.0000   1.0000
     1.0000   1.0000   1.0000   1.0000   1.0000   1.0000   1.0000   1.0000
     1.0000   1.0000   1.0000   1.0000   1.0000   1.0000   1.0000   1.0000
     1.0000   1.0000   1.0000   1.0000   1.0000   1.0000   1.0000   1.0000
     1.0000   1.0000   1.0000   1.0000   1.0000   1.0000   1.0000   1.0000
     1.0000   1.0000   1.0000   1.0000   1.0000   1.0000   1.0000   1.0000
     1.0000   1.0000   1.0000   1.0000   1.0000   1.0000   1.0000   1.0000
     1.0000   1.0000   1.0000   1.0000   1.0000   1.0000   1.0000   1.0000
     1.0000   1.0000   1.0000   1.0000   1.0000   1.0000   1.0000   1.0000
     1.0000   1.0000   1.0000   1.0000   1.0000   1.0000   1.0000   1.0000
     1.0000   1.0000   1.0000   1.0000   1.0000   1.0000   1.0000   1.0000
     1.0000   1.0000   1.0000   1.0000   1.0000   1.0000   1.0000   1.0000
     1.0000   1.0000   1.0000   1.0000   1.0000   1.0000   1.0000   1.0000
     1.0000   1.0000   1.0000   1.0000   1.0000   1.0000   1.0000   1.0000
     1.0000   1.0000   1.0000   1.0000   1.0000   1.0000   1.0000   1.0000
     1.0000   1.0000   1.0000   1.0000   1.0000   1.0000   1.0000   1.0000
     1.0000   1.0000   1.0000   1.0000   1.0000   1.0000   1.0000   1.0000
     1.0000   1.0000   1.0000   1.0000   1.0000   1.0000   1.0000   1.0000
     1.0000   1.0000   1.0000   1.0000   1.0000   1.0000   1.0000   1.0000
     1.0000   1.0000   1.0000   1.0000   1.0000   1.0000   1.0000   1.0000
     1.0000   1.0000   1.0000   1.0000   1.0000   1.0000   1.0000   1.0000
     1.0000   1.0000   1.0000   1.0000   1.0000   1.0000   1.0000   1.0000
     1.0000   1.0000   1.0000   1.0000   1.0000   1.0000   1.0000   1.0000
     1.0000   1.0000   1.0000   1.0000   1.0000   1.0000   1.0000   1.0000
     1.0000   1.0000   1.0000   1.0000   1.0000   1.0000   1.0000   1.0000
     1.0000   1.0000   1.0000   1.0000   1.0000   1.0000   1.0000   1.0000
     1.0000   1.0000   1.0000   1.0000   1.0000   1.0000   1.0000   1.0023
     1.0432   1.0437   1.0825   1.0826   1.0803   1.0803   1.0685   0.4711
     0.4710   0.3708   0.3672   0.1855   0.1855   0.0900   0.0001   0.0000
     0.0000   0.0000   0.0000   0.0000   0.0000   0.0000   0.0000   0.0000
     0.0000   0.0000   0.0000   0.0000   0.0000   0.0000   0.0000   0.0000
     0.0000   0.0000   0.0000   0.0000   0.0000   0.0000   0.0000   0.0000
     0.0000   0.0000   0.0000   0.0000   0.0000   0.0000   0.0000   0.0000
     0.0000   0.0000   0.0000   0.0000   0.0000   0.0000   0.0000   0.0000
     0.0000   0.0000   0.0000   0.0000   0.0000   0.0000   0.0000   0.0000
     0.0000   0.0000   0.0000   0.0000   0.0000   0.0000   0.0000   0.0000
     0.0000   0.0000   0.0000   0.0000   0.0000   0.0000   0.0000   0.0000
     0.0000   0.0000   0.0000   0.0000   0.0000   0.0000   0.0000   0.0000
     0.0000   0.0000   0.0000   0.0000   0.0000   0.0000   0.0000   0.0000
     0.0000   0.0000   0.0000   0.0000   0.0000   0.0000   0.0000   0.0000
     0.0000   0.0000   0.0000   0.0000   0.0000   0.0000   0.0000   0.0000
     0.0000   0.0000   0.0000   0.0000   0.0000   0.0000   0.0000   0.0000
     0.0000   0.0000   0.0000   0.0000   0.0000   0.0000   0.0000   0.0000
     0.0000   0.0000   0.0000   0.0000   0.0000   0.0000   0.0000   0.0000

          k = 0.0000 0.3628 0.1846 ( 46763 PWs)   bands (ev):

  -124.1220-124.1212-124.1207-124.1206-124.1205-124.1203-124.1202-124.1200
  -124.0810-124.0802-124.0797-124.0795-124.0794-124.0793-124.0792-124.0790
  -124.0191-124.0183-124.0178-124.0176-124.0174-124.0172-124.0170-124.0168
  -123.9753-123.9745-123.9741-123.9739-123.9735-123.9732-123.9730-123.9726
  -123.9471-123.9463-123.9457-123.9457-123.9456-123.9455-123.9455-123.9453
  -123.8509-123.8502-123.8497-123.8496-123.8494-123.8493-123.8489-123.8486
  -123.8210-123.8202-123.8196-123.8195-123.8194-123.8194-123.8194-123.8191
  -123.7376-123.7368-123.7363-123.7362-123.7360-123.7360-123.7358-123.7354
   -78.2249 -78.2240 -78.2151 -78.2145 -78.2140 -78.2129 -78.2116 -78.2112
   -78.2101 -78.2099 -78.2098 -78.2094 -78.2068 -78.2059 -78.2039 -78.2032
   -78.2026 -78.2023 -78.2021 -78.2001 -78.1998 -78.1991 -78.1983 -78.1945
   -78.1857 -78.1848 -78.1754 -78.1753 -78.1749 -78.1727 -78.1701 -78.1698
   -78.1688 -78.1685 -78.1684 -78.1684 -78.1660 -78.1652 -78.1639 -78.1634
   -78.1629 -78.1624 -78.1623 -78.1606 -78.1602 -78.1595 -78.1592 -78.1543
   -78.1212 -78.1201 -78.1119 -78.1112 -78.1104 -78.1095 -78.1079 -78.1075
   -78.1066 -78.1064 -78.1062 -78.1059 -78.1055 -78.1053 -78.1044 -78.1035
   -78.1028 -78.1027 -78.1018 -78.0996 -78.0970 -78.0961 -78.0952 -78.0916
   -78.0764 -78.0751 -78.0701 -78.0677 -78.0665 -78.0654 -78.0638 -78.0634
   -78.0623 -78.0618 -78.0614 -78.0607 -78.0601 -78.0599 -78.0598 -78.0596
   -78.0586 -78.0585 -78.0584 -78.0577 -78.0519 -78.0509 -78.0506 -78.0483
   -78.0473 -78.0466 -78.0465 -78.0462 -78.0460 -78.0455 -78.0452 -78.0448
   -78.0432 -78.0423 -78.0332 -78.0330 -78.0329 -78.0319 -78.0289 -78.0278
   -78.0277 -78.0271 -78.0259 -78.0240 -78.0190 -78.0188 -78.0175 -78.0139
   -77.9501 -77.9494 -77.9491 -77.9478 -77.9474 -77.9473 -77.9464 -77.9461
   -77.9457 -77.9452 -77.9399 -77.9393 -77.9388 -77.9377 -77.9351 -77.9343
   -77.9338 -77.9332 -77.9320 -77.9300 -77.9256 -77.9249 -77.9236 -77.9203
   -77.9201 -77.9197 -77.9196 -77.9196 -77.9195 -77.9187 -77.9185 -77.9179
   -77.9170 -77.9161 -77.9110 -77.9086 -77.9072 -77.9065 -77.9050 -77.9043
   -77.9038 -77.9037 -77.9021 -77.9007 -77.8925 -77.8923 -77.8911 -77.8870
   -77.8420 -77.8411 -77.8401 -77.8397 -77.8390 -77.8387 -77.8384 -77.8382
   -77.8311 -77.8301 -77.8268 -77.8245 -77.8226 -77.8207 -77.8206 -77.8204
   -77.8202 -77.8200 -77.8193 -77.8188 -77.8066 -77.8061 -77.8050 -77.8009
    -7.1197  -6.6375  -6.2220  -6.0659  -5.9650  -5.9600  -5.7008  -5.6857
    -5.6688  -5.6161  -5.6148  -5.6069  -5.6051  -5.6022  -5.5868  -5.5707
    -5.5704  -5.5696  -5.5574  -5.5462  -5.5337  -5.5333  -5.5285  -5.5246
    -5.5141  -5.4874  -5.4851  -5.4790  -5.4676  -5.4596  -5.4557  -5.4396
    -5.4396  -5.4376  -5.4362  -5.4342  -5.4325  -5.4325  -5.4265  -5.4159
    -5.3971  -5.3847  -5.3660  -5.3635  -5.3615  -5.3609  -5.3502  -5.3492
    -5.3288  -5.3258  -5.3228  -5.3209  -5.3044  -5.3042  -5.2947  -5.2917
    -5.2833  -5.2833  -5.2827  -5.2716  -5.2633  -5.2549  -5.2516  -5.2396
    -5.2366  -5.2364  -5.2360  -5.2348  -5.2315  -5.2155  -5.1958  -5.1942
    -5.1882  -5.1847  -5.1824  -5.1787  -5.1756  -5.1739  -5.1716  -5.1579
    -5.1530  -5.1491  -5.1453  -5.1377  -5.1365  -5.1329  -5.1324  -5.1277
    -5.1254  -5.1205  -5.1164  -5.1114  -5.1010  -5.0987  -5.0872  -5.0869
    -5.0806  -5.0548  -5.0547  -5.0529  -5.0499  -5.0465  -5.0448  -5.0375
    -5.0281  -5.0277  -5.0273  -5.0254  -5.0250  -5.0060  -5.0041  -5.0036
    -5.0033  -4.9897  -4.9869  -4.9817  -4.9799  -4.9768  -4.9759  -4.9705
    -4.9556  -4.9536  -4.9522  -4.9517  -4.9492  -4.9238  -4.9232  -4.9207
    -4.9141  -4.9129  -4.9075  -4.9058  -4.8893  -4.8802  -4.8766  -4.8757
    -4.8737  -4.8728  -4.8721  -4.8646  -4.8566  -4.8542  -4.8504  -4.8386
    -4.8373  -4.8371  -4.8302  -4.8286  -4.8272  -4.8215  -4.8204  -4.8200
    -4.8125  -4.8060  -4.7980  -4.7913  -4.7897  -4.7872  -4.7861  -4.7718
    -4.7714  -4.7663  -4.7585  -4.7549  -4.7492  -4.7481  -4.7417  -4.7366
    -4.7336  -4.7286  -4.7197  -4.7181  -4.7136  -4.7131  -4.7100  -4.7002
    -4.6979  -4.6947  -4.6936  -4.6887  -4.6862  -4.6831  -4.6803  -4.6789
    -4.6720  -4.6667  -4.6648  -4.6542  -4.6540  -4.6479  -4.6478  -4.6451
    -4.6430  -4.6427  -4.6388  -4.6270  -4.6236  -4.6232  -4.6210  -4.6164
    -4.6112  -4.6090  -4.6040  -4.6031  -4.6012  -4.5972  -4.5969  -4.5906
    -4.5815  -4.5808  -4.5792  -4.5788  -4.5743  -4.5685  -4.5626  -4.5601
    -4.5575  -4.5534  -4.5503  -4.5438  -4.5436  -4.5430  -4.5383  -4.5316
    -4.5276  -4.5219  -4.5200  -4.5136  -4.5116  -4.5057  -4.4955  -4.4945
    -4.4924  -4.4919  -4.4905  -4.4896  -4.4780  -4.4774  -4.4772  -4.4763
    -4.4678  -4.4656  -4.4622  -4.4599  -4.4570  -4.4489  -4.4486  -4.4473
    -4.4462  -4.4425  -4.4407  -4.4379  -4.4342  -4.4295  -4.4247  -4.4233
    -4.4184  -4.4166  -4.4146  -4.4095  -4.4084  -4.4074  -4.4054  -4.4023
    -4.4021  -4.3919  -4.3919  -4.3905  -4.3865  -4.3864  -4.3860  -4.3781
    -4.3777  -4.3734  -4.3712  -4.3667  -4.3642  -4.3642  -4.3494  -4.3481
    -4.3480  -4.3420  -4.3420  -4.3370  -4.3339  -4.3326  -4.3304  -4.3253
    -4.3250  -4.3235  -4.3186  -4.3174  -4.3113  -4.3101  -4.3061  -4.3050
    -4.3040  -4.3014  -4.3007  -4.2955  -4.2886  -4.2859  -4.2858  -4.2843
    -4.2799  -4.2734  -4.2711  -4.2702  -4.2646  -4.2635  -4.2563  -4.2562
    -4.2517  -4.2442  -4.2329  -4.2279  -4.2253  -4.2093  -4.2091  -4.2064
    -4.2057  -4.1862  -4.1825  -4.1817  -4.1636  -4.1196  -4.1073  -3.9271
    -3.8692  -3.8424  -3.6993  -3.6049  -3.5134  -3.2296  -2.9606  -2.8966
    -2.7511  -2.4606  -2.4544  -2.2677  -2.1914  -1.8842  -1.8021  -1.6580
    -1.5058  -1.4453  -1.4053  -1.1889  -0.9751  -0.8854  -0.7560  -0.7078
    -0.5017  -0.4632  -0.3777  -0.3584  -0.3457  -0.1526  -0.1089   0.3466
     0.4096   0.4635   0.4659   0.5573   0.7006   0.7037   0.7039   0.8885
     1.0507   1.3178   1.3618   1.3886   1.5066   1.5339   1.5681   1.6352
     1.6425   1.7824   1.8361   2.1706   2.3406   2.4331   2.5333   2.5884
     2.6719   2.8340   2.8704   2.9798   3.2373   3.3234   3.4975   3.5581
     3.6150   3.6726   3.7702   3.8741   3.8897   3.9778   4.1494   4.1918
     4.2654   4.5251   4.5944   4.6260   4.6903   4.7406   4.7911   4.8974
     4.9996   5.0262   5.0579   5.0655   5.2718   5.3102   5.3403   5.3761
     5.4612   5.5154   5.5428   5.7437   5.9028   5.9121   5.9378   5.9943
     6.0309   6.0940   6.1101   6.1672   6.2069   6.3132   6.3659   6.3740
     6.3877   6.5027   6.5298   6.6464   6.7733   6.7828   6.8141   6.8335
     6.9043   6.9447   6.9740   7.0536   7.1053   7.2160   7.2437   7.2728
     7.3511   7.3654   7.3944   7.4468   7.4927   7.5192   7.6095   7.7010
     7.7934   7.8160   7.8600   7.9376   8.0182   8.1691   8.2069   8.2101
     8.2335   8.2517   8.2748   8.3595   8.3875   8.4501   8.5083   8.5630
     8.6362   8.6432   8.6547   8.6915   8.7277   8.9265   8.9364   8.9946
     8.9974   9.0294   9.0650   9.1051   9.1620   9.1923   9.2073   9.2641
     9.2696   9.2710   9.3478   9.3811   9.5519   9.6062   9.6827   9.7107
     9.7664   9.8037   9.8249   9.8795   9.9380  10.0128  10.0642  10.0911
    10.1171  10.1652  10.1921  10.2045  10.2836  10.3027  10.3404  10.4113

     occupation numbers 
     1.0000   1.0000   1.0000   1.0000   1.0000   1.0000   1.0000   1.0000
     1.0000   1.0000   1.0000   1.0000   1.0000   1.0000   1.0000   1.0000
     1.0000   1.0000   1.0000   1.0000   1.0000   1.0000   1.0000   1.0000
     1.0000   1.0000   1.0000   1.0000   1.0000   1.0000   1.0000   1.0000
     1.0000   1.0000   1.0000   1.0000   1.0000   1.0000   1.0000   1.0000
     1.0000   1.0000   1.0000   1.0000   1.0000   1.0000   1.0000   1.0000
     1.0000   1.0000   1.0000   1.0000   1.0000   1.0000   1.0000   1.0000
     1.0000   1.0000   1.0000   1.0000   1.0000   1.0000   1.0000   1.0000
     1.0000   1.0000   1.0000   1.0000   1.0000   1.0000   1.0000   1.0000
     1.0000   1.0000   1.0000   1.0000   1.0000   1.0000   1.0000   1.0000
     1.0000   1.0000   1.0000   1.0000   1.0000   1.0000   1.0000   1.0000
     1.0000   1.0000   1.0000   1.0000   1.0000   1.0000   1.0000   1.0000
     1.0000   1.0000   1.0000   1.0000   1.0000   1.0000   1.0000   1.0000
     1.0000   1.0000   1.0000   1.0000   1.0000   1.0000   1.0000   1.0000
     1.0000   1.0000   1.0000   1.0000   1.0000   1.0000   1.0000   1.0000
     1.0000   1.0000   1.0000   1.0000   1.0000   1.0000   1.0000   1.0000
     1.0000   1.0000   1.0000   1.0000   1.0000   1.0000   1.0000   1.0000
     1.0000   1.0000   1.0000   1.0000   1.0000   1.0000   1.0000   1.0000
     1.0000   1.0000   1.0000   1.0000   1.0000   1.0000   1.0000   1.0000
     1.0000   1.0000   1.0000   1.0000   1.0000   1.0000   1.0000   1.0000
     1.0000   1.0000   1.0000   1.0000   1.0000   1.0000   1.0000   1.0000
     1.0000   1.0000   1.0000   1.0000   1.0000   1.0000   1.0000   1.0000
     1.0000   1.0000   1.0000   1.0000   1.0000   1.0000   1.0000   1.0000
     1.0000   1.0000   1.0000   1.0000   1.0000   1.0000   1.0000   1.0000
     1.0000   1.0000   1.0000   1.0000   1.0000   1.0000   1.0000   1.0000
     1.0000   1.0000   1.0000   1.0000   1.0000   1.0000   1.0000   1.0000
     1.0000   1.0000   1.0000   1.0000   1.0000   1.0000   1.0000   1.0000
     1.0000   1.0000   1.0000   1.0000   1.0000   1.0000   1.0000   1.0000
     1.0000   1.0000   1.0000   1.0000   1.0000   1.0000   1.0000   1.0000
     1.0000   1.0000   1.0000   1.0000   1.0000   1.0000   1.0000   1.0000
     1.0000   1.0000   1.0000   1.0000   1.0000   1.0000   1.0000   1.0000
     1.0000   1.0000   1.0000   1.0000   1.0000   1.0000   1.0000   1.0000
     1.0000   1.0000   1.0000   1.0000   1.0000   1.0000   1.0000   1.0000
     1.0000   1.0000   1.0000   1.0000   1.0000   1.0000   1.0000   1.0000
     1.0000   1.0000   1.0000   1.0000   1.0000   1.0000   1.0000   1.0000
     1.0000   1.0000   1.0000   1.0000   1.0000   1.0000   1.0000   1.0000
     1.0000   1.0000   1.0000   1.0000   1.0000   1.0000   1.0000   1.0000
     1.0000   1.0000   1.0000   1.0000   1.0000   1.0000   1.0000   1.0000
     1.0000   1.0000   1.0000   1.0000   1.0000   1.0000   1.0000   1.0000
     1.0000   1.0000   1.0000   1.0000   1.0000   1.0000   1.0000   1.0000
     1.0000   1.0000   1.0000   1.0000   1.0000   1.0000   1.0000   1.0000
     1.0000   1.0000   1.0000   1.0000   1.0000   1.0000   1.0000   1.0000
     1.0000   1.0000   1.0000   1.0000   1.0000   1.0000   1.0000   1.0000
     1.0000   1.0000   1.0000   1.0000   1.0000   1.0000   1.0000   1.0000
     1.0000   1.0000   1.0000   1.0000   1.0000   1.0000   1.0000   1.0000
     1.0000   1.0000   1.0000   1.0000   1.0000   1.0000   1.0000   1.0000
     1.0000   1.0000   1.0000   1.0000   1.0000   1.0000   1.0000   1.0000
     1.0000   1.0000   1.0000   1.0000   1.0000   1.0000   1.0000   1.0000
     1.0000   1.0000   1.0000   1.0000   1.0000   1.0000   1.0000   1.0000
     1.0000   1.0000   1.0000   1.0000   1.0000   1.0000   1.0000   1.0000
     1.0000   1.0000   1.0000   1.0000   1.0000   1.0000   1.0000   1.0000
     1.0000   1.0000   1.0000   1.0000   1.0000   1.0000   1.0000   1.0000
     1.0000   1.0000   1.0000   1.0000   1.0000   1.0000   1.0000   1.0000
     1.0000   1.0000   1.0000   1.0000   1.0000   1.0000   1.0000   1.0000
     1.0000   1.0000   1.0000   1.0000   1.0000   1.0000   1.0000   1.0000
     1.0000   1.0000   1.0000   1.0000   1.0000   1.0000   1.0000   1.0000
     1.0000   1.0000   1.0000   1.0000   1.0000   1.0000   1.0000   1.0000
     1.0000   1.0000   1.0000   1.0000   1.0000   1.0000   1.0000   1.0000
     1.0000   1.0000   1.0000   1.0000   1.0000   1.0000   1.0000   1.0000
     1.0000   1.0000   1.0000   1.0000   1.0000   1.0000   1.0000   1.0000
     1.0000   1.0000   1.0000   1.0000   1.0000   1.0000   1.0000   1.0000
     1.0000   1.0000   1.0000   1.0000   1.0000   1.0000   1.0000   1.0000
     1.0000   1.0000   1.0000   1.0000   1.0000   1.0000   1.0000   1.0000
     1.0000   1.0000   1.0000   1.0000   1.0000   1.0000   1.0000   1.0000
     1.0000   1.0000   1.0000   1.0000   1.0000   1.0000   1.0000   1.0000
     1.0000   1.0000   1.0000   1.0000   1.0000   1.0000   1.0000   1.0000
     1.0000   1.0000   1.0000   1.0000   1.0000   1.0000   1.0000   1.0000
     1.0000   1.0000   1.0000   1.0000   1.0000   1.0000   1.0000   1.0000
     1.0000   1.0000   1.0000   1.0000   1.0000   1.0000   1.0000   1.0000
     1.0000   1.0000   1.0000   1.0000   1.0000   1.0000   1.0000   1.0000
     1.0000   1.0000   1.0000   1.0000   1.0000   1.0000   1.0000   1.0000
     1.0000   1.0000   1.0000   1.0000   1.0000   1.0000   1.0000   1.0000
     1.0000   1.0000   1.0000   1.0000   1.0000   1.0000   1.0000   1.0000
     1.0000   1.0000   1.0000   1.0000   1.0000   1.0000   1.0000   1.0000
     1.0000   1.0000   1.0000   1.0000   1.0000   1.0000   1.0000   1.0000
     1.0000   1.0000   1.0000   1.0000   1.0000   1.0000   1.0000   1.0000
     1.0000   1.0000   1.0000   1.0000   1.0000   1.0000   1.0000   1.0000
     1.0000   1.0000   1.0000   1.0000   1.0000   1.0000   1.0000   1.0000
     1.0000   1.0000   1.0000   1.0000   1.0000   1.0000   1.0000   1.0001
     1.0001   1.0014   1.0033   1.0778   1.0120   0.8434   0.5800   0.4311
     0.2408   0.0477   0.0303   0.0063   0.0000   0.0000   0.0000   0.0000
     0.0000   0.0000   0.0000   0.0000   0.0000   0.0000   0.0000   0.0000
     0.0000   0.0000   0.0000   0.0000   0.0000   0.0000   0.0000   0.0000
     0.0000   0.0000   0.0000   0.0000   0.0000   0.0000   0.0000   0.0000
     0.0000   0.0000   0.0000   0.0000   0.0000   0.0000   0.0000   0.0000
     0.0000   0.0000   0.0000   0.0000   0.0000   0.0000   0.0000   0.0000
     0.0000   0.0000   0.0000   0.0000   0.0000   0.0000   0.0000   0.0000
     0.0000   0.0000   0.0000   0.0000   0.0000   0.0000   0.0000   0.0000
     0.0000   0.0000   0.0000   0.0000   0.0000   0.0000   0.0000   0.0000
     0.0000   0.0000   0.0000   0.0000   0.0000   0.0000   0.0000   0.0000
     0.0000   0.0000   0.0000   0.0000   0.0000   0.0000   0.0000   0.0000
     0.0000   0.0000   0.0000   0.0000   0.0000   0.0000   0.0000   0.0000
     0.0000   0.0000   0.0000   0.0000   0.0000   0.0000   0.0000   0.0000
     0.0000   0.0000   0.0000   0.0000   0.0000   0.0000   0.0000   0.0000
     0.0000   0.0000   0.0000   0.0000   0.0000   0.0000   0.0000   0.0000
     0.0000   0.0000   0.0000   0.0000   0.0000   0.0000   0.0000   0.0000

          k = 0.3333 0.0811 0.7384 ( 46775 PWs)   bands (ev):

  -124.1218-124.1209-124.1208-124.1208-124.1208-124.1204-124.1203-124.1201
  -124.0807-124.0798-124.0798-124.0797-124.0797-124.0794-124.0793-124.0791
  -124.0188-124.0180-124.0179-124.0178-124.0177-124.0173-124.0171-124.0169
  -123.9750-123.9743-123.9742-123.9741-123.9738-123.9733-123.9730-123.9728
  -123.9468-123.9461-123.9459-123.9458-123.9458-123.9457-123.9456-123.9453
  -123.8507-123.8499-123.8499-123.8497-123.8496-123.8494-123.8490-123.8487
  -123.8207-123.8199-123.8197-123.8197-123.8196-123.8196-123.8195-123.8192
  -123.7373-123.7366-123.7364-123.7364-123.7362-123.7361-123.7358-123.7355
   -78.2277 -78.2272 -78.2135 -78.2121 -78.2117 -78.2114 -78.2114 -78.2109
   -78.2104 -78.2099 -78.2082 -78.2071 -78.2065 -78.2063 -78.2044 -78.2036
   -78.2035 -78.2033 -78.2030 -78.2028 -78.2023 -78.2011 -78.1952 -78.1947
   -78.1885 -78.1881 -78.1734 -78.1709 -78.1706 -78.1704 -78.1700 -78.1699
   -78.1694 -78.1692 -78.1690 -78.1679 -78.1670 -78.1658 -78.1646 -78.1640
   -78.1638 -78.1632 -78.1631 -78.1628 -78.1627 -78.1611 -78.1556 -78.1552
   -78.1240 -78.1233 -78.1099 -78.1084 -78.1080 -78.1077 -78.1074 -78.1070
   -78.1068 -78.1062 -78.1061 -78.1051 -78.1051 -78.1046 -78.1044 -78.1038
   -78.1037 -78.1032 -78.1031 -78.1014 -78.1004 -78.0994 -78.0922 -78.0914
   -78.0793 -78.0783 -78.0679 -78.0651 -78.0647 -78.0641 -78.0639 -78.0634
   -78.0630 -78.0617 -78.0611 -78.0607 -78.0601 -78.0598 -78.0595 -78.0591
   -78.0590 -78.0589 -78.0586 -78.0579 -78.0567 -78.0543 -78.0477 -78.0474
   -78.0471 -78.0468 -78.0467 -78.0465 -78.0461 -78.0460 -78.0459 -78.0456
   -78.0455 -78.0455 -78.0320 -78.0295 -78.0289 -78.0287 -78.0283 -78.0283
   -78.0282 -78.0275 -78.0259 -78.0247 -78.0241 -78.0217 -78.0141 -78.0140
   -77.9529 -77.9523 -77.9483 -77.9480 -77.9477 -77.9473 -77.9470 -77.9467
   -77.9463 -77.9458 -77.9380 -77.9357 -77.9352 -77.9349 -77.9346 -77.9346
   -77.9339 -77.9337 -77.9322 -77.9307 -77.9305 -77.9282 -77.9205 -77.9204
   -77.9203 -77.9200 -77.9199 -77.9198 -77.9197 -77.9197 -77.9193 -77.9191
   -77.9185 -77.9184 -77.9089 -77.9061 -77.9057 -77.9054 -77.9050 -77.9050
   -77.9049 -77.9009 -77.9006 -77.8996 -77.8978 -77.8953 -77.8874 -77.8873
   -77.8415 -77.8405 -77.8401 -77.8400 -77.8398 -77.8396 -77.8390 -77.8387
   -77.8339 -77.8335 -77.8251 -77.8228 -77.8225 -77.8223 -77.8217 -77.8215
   -77.8210 -77.8186 -77.8148 -77.8136 -77.8119 -77.8092 -77.8013 -77.8009
    -7.1480  -6.7541  -6.1109  -6.0098  -5.8831  -5.8713  -5.8583  -5.7834
    -5.7561  -5.6676  -5.6663  -5.6528  -5.6520  -5.6518  -5.6384  -5.5895
    -5.5893  -5.5685  -5.5680  -5.5517  -5.5263  -5.5262  -5.4970  -5.4963
    -5.4927  -5.4699  -5.4616  -5.4501  -5.4457  -5.4408  -5.4178  -5.4124
    -5.4123  -5.4099  -5.4064  -5.3999  -5.3964  -5.3891  -5.3735  -5.3733
    -5.3691  -5.3643  -5.3478  -5.3456  -5.3388  -5.3385  -5.3351  -5.3290
    -5.3289  -5.3230  -5.3158  -5.3135  -5.2975  -5.2871  -5.2838  -5.2838
    -5.2837  -5.2828  -5.2811  -5.2717  -5.2604  -5.2518  -5.2481  -5.2480
    -5.2474  -5.2241  -5.2238  -5.2214  -5.2185  -5.2117  -5.2040  -5.1997
    -5.1868  -5.1867  -5.1785  -5.1778  -5.1672  -5.1582  -5.1582  -5.1542
    -5.1524  -5.1470  -5.1429  -5.1424  -5.1412  -5.1344  -5.1312  -5.1263
    -5.1183  -5.1096  -5.1018  -5.0953  -5.0948  -5.0856  -5.0844  -5.0702
    -5.0639  -5.0589  -5.0536  -5.0523  -5.0498  -5.0382  -5.0318  -5.0247
    -5.0245  -5.0240  -5.0233  -5.0169  -5.0166  -5.0146  -5.0011  -4.9941
    -4.9865  -4.9841  -4.9827  -4.9786  -4.9778  -4.9768  -4.9764  -4.9590
    -4.9495  -4.9393  -4.9245  -4.9207  -4.9185  -4.9146  -4.9143  -4.8917
    -4.8914  -4.8909  -4.8868  -4.8794  -4.8776  -4.8708  -4.8699  -4.8662
    -4.8538  -4.8515  -4.8514  -4.8474  -4.8463  -4.8314  -4.8300  -4.8256
    -4.8252  -4.8217  -4.8211  -4.8207  -4.8203  -4.8200  -4.8121  -4.8116
    -4.7990  -4.7973  -4.7933  -4.7868  -4.7854  -4.7832  -4.7820  -4.7717
    -4.7677  -4.7626  -4.7606  -4.7603  -4.7508  -4.7492  -4.7469  -4.7455
    -4.7455  -4.7402  -4.7396  -4.7395  -4.7393  -4.7329  -4.7308  -4.7288
    -4.7273  -4.7249  -4.7185  -4.7076  -4.7025  -4.7009  -4.6910  -4.6909
    -4.6761  -4.6702  -4.6657  -4.6556  -4.6555  -4.6520  -4.6501  -4.6468
    -4.6421  -4.6405  -4.6390  -4.6243  -4.6214  -4.6151  -4.6115  -4.6101
    -4.6099  -4.6079  -4.6071  -4.6054  -4.5977  -4.5956  -4.5947  -4.5886
    -4.5883  -4.5880  -4.5874  -4.5870  -4.5828  -4.5742  -4.5739  -4.5702
    -4.5692  -4.5664  -4.5615  -4.5609  -4.5541  -4.5519  -4.5507  -4.5467
    -4.5418  -4.5416  -4.5375  -4.5329  -4.5250  -4.5249  -4.5206  -4.5186
    -4.5118  -4.5108  -4.5067  -4.5066  -4.5063  -4.5062  -4.4944  -4.4923
    -4.4910  -4.4899  -4.4879  -4.4874  -4.4871  -4.4867  -4.4835  -4.4819
    -4.4642  -4.4612  -4.4580  -4.4576  -4.4502  -4.4500  -4.4422  -4.4362
    -4.4352  -4.4350  -4.4345  -4.4344  -4.4278  -4.4233  -4.4230  -4.4135
    -4.3974  -4.3967  -4.3965  -4.3964  -4.3921  -4.3882  -4.3809  -4.3770
    -4.3767  -4.3755  -4.3750  -4.3736  -4.3736  -4.3732  -4.3707  -4.3634
    -4.3633  -4.3590  -4.3496  -4.3427  -4.3425  -4.3403  -4.3371  -4.3247
    -4.3232  -4.3231  -4.3173  -4.3168  -4.3144  -4.3095  -4.3069  -4.2975
    -4.2973  -4.2969  -4.2959  -4.2947  -4.2943  -4.2943  -4.2899  -4.2881
    -4.2879  -4.2720  -4.2707  -4.2645  -4.2595  -4.2584  -4.2569  -4.2496
    -4.2495  -4.2316  -4.2315  -4.2079  -4.2064  -4.1913  -4.1852  -4.1705
    -4.1700  -4.1252  -4.1251  -4.1238  -4.1207  -4.0526  -4.0524  -3.9775
    -3.9361  -3.9038  -3.7528  -3.5565  -3.5385  -3.2816  -3.1623  -2.9294
    -2.8239  -2.7477  -2.5000  -2.4875  -2.0548  -1.8901  -1.7990  -1.7616
    -1.6789  -1.3000  -1.1012  -0.9796  -0.8918  -0.8917  -0.6840  -0.6498
    -0.4357  -0.3005  -0.1701  -0.1150  -0.1148   0.1758   0.1762   0.2239
     0.4291   0.5296   0.6499   0.6894   0.7102   0.7107   0.7653   0.9254
     0.9372   0.9378   1.0933   1.3523   1.3583   1.4259   1.5699   1.6679
     1.6682   1.8196   2.0547   2.1469   2.2369   2.2374   2.2495   2.7065
     2.8250   2.8575   2.9383   3.0565   3.1244   3.1254   3.2314   3.2590
     3.5330   3.5354   3.5971   3.7328   3.8423   3.8784   3.9157   3.9458
     4.0904   4.2228   4.2608   4.2630   4.3353   4.6696   4.6719   4.8335
     4.8343   4.8737   4.9419   5.0166   5.2227   5.3448   5.3568   5.3575
     5.5996   5.6010   5.6715   5.6958   5.9059   6.1615   6.1793   6.2152
     6.3083   6.3538   6.3617   6.3654   6.3967   6.4518   6.4836   6.5686
     6.5757   6.5767   6.5887   6.6512   6.7230   6.7504   6.8279   6.9760
     7.0705   7.0732   7.1072   7.1703   7.2175   7.3929   7.4606   7.5271
     7.6028   7.6031   7.6152   7.6195   7.6823   7.7610   7.8111   7.8318
     7.8358   7.8928   7.9570   8.0326   8.0840   8.1005   8.1746   8.3036
     8.3218   8.3351   8.4516   8.4745   8.5389   8.5688   8.5747   8.5762
     8.6907   8.6929   8.6975   8.7040   8.7308   8.8635   8.9203   8.9313
     8.9643   9.0628   9.1331   9.1361   9.1747   9.2980   9.3144   9.3411
     9.3424   9.3468   9.4340   9.4901   9.4919   9.4941   9.5416   9.5435
     9.6281   9.6602   9.6903   9.7097   9.7539   9.8131   9.8309   9.8686
     9.8980   9.9494  10.0607  10.0625  10.1062  10.1293  10.1315  10.2106

     occupation numbers 
     1.0000   1.0000   1.0000   1.0000   1.0000   1.0000   1.0000   1.0000
     1.0000   1.0000   1.0000   1.0000   1.0000   1.0000   1.0000   1.0000
     1.0000   1.0000   1.0000   1.0000   1.0000   1.0000   1.0000   1.0000
     1.0000   1.0000   1.0000   1.0000   1.0000   1.0000   1.0000   1.0000
     1.0000   1.0000   1.0000   1.0000   1.0000   1.0000   1.0000   1.0000
     1.0000   1.0000   1.0000   1.0000   1.0000   1.0000   1.0000   1.0000
     1.0000   1.0000   1.0000   1.0000   1.0000   1.0000   1.0000   1.0000
     1.0000   1.0000   1.0000   1.0000   1.0000   1.0000   1.0000   1.0000
     1.0000   1.0000   1.0000   1.0000   1.0000   1.0000   1.0000   1.0000
     1.0000   1.0000   1.0000   1.0000   1.0000   1.0000   1.0000   1.0000
     1.0000   1.0000   1.0000   1.0000   1.0000   1.0000   1.0000   1.0000
     1.0000   1.0000   1.0000   1.0000   1.0000   1.0000   1.0000   1.0000
     1.0000   1.0000   1.0000   1.0000   1.0000   1.0000   1.0000   1.0000
     1.0000   1.0000   1.0000   1.0000   1.0000   1.0000   1.0000   1.0000
     1.0000   1.0000   1.0000   1.0000   1.0000   1.0000   1.0000   1.0000
     1.0000   1.0000   1.0000   1.0000   1.0000   1.0000   1.0000   1.0000
     1.0000   1.0000   1.0000   1.0000   1.0000   1.0000   1.0000   1.0000
     1.0000   1.0000   1.0000   1.0000   1.0000   1.0000   1.0000   1.0000
     1.0000   1.0000   1.0000   1.0000   1.0000   1.0000   1.0000   1.0000
     1.0000   1.0000   1.0000   1.0000   1.0000   1.0000   1.0000   1.0000
     1.0000   1.0000   1.0000   1.0000   1.0000   1.0000   1.0000   1.0000
     1.0000   1.0000   1.0000   1.0000   1.0000   1.0000   1.0000   1.0000
     1.0000   1.0000   1.0000   1.0000   1.0000   1.0000   1.0000   1.0000
     1.0000   1.0000   1.0000   1.0000   1.0000   1.0000   1.0000   1.0000
     1.0000   1.0000   1.0000   1.0000   1.0000   1.0000   1.0000   1.0000
     1.0000   1.0000   1.0000   1.0000   1.0000   1.0000   1.0000   1.0000
     1.0000   1.0000   1.0000   1.0000   1.0000   1.0000   1.0000   1.0000
     1.0000   1.0000   1.0000   1.0000   1.0000   1.0000   1.0000   1.0000
     1.0000   1.0000   1.0000   1.0000   1.0000   1.0000   1.0000   1.0000
     1.0000   1.0000   1.0000   1.0000   1.0000   1.0000   1.0000   1.0000
     1.0000   1.0000   1.0000   1.0000   1.0000   1.0000   1.0000   1.0000
     1.0000   1.0000   1.0000   1.0000   1.0000   1.0000   1.0000   1.0000
     1.0000   1.0000   1.0000   1.0000   1.0000   1.0000   1.0000   1.0000
     1.0000   1.0000   1.0000   1.0000   1.0000   1.0000   1.0000   1.0000
     1.0000   1.0000   1.0000   1.0000   1.0000   1.0000   1.0000   1.0000
     1.0000   1.0000   1.0000   1.0000   1.0000   1.0000   1.0000   1.0000
     1.0000   1.0000   1.0000   1.0000   1.0000   1.0000   1.0000   1.0000
     1.0000   1.0000   1.0000   1.0000   1.0000   1.0000   1.0000   1.0000
     1.0000   1.0000   1.0000   1.0000   1.0000   1.0000   1.0000   1.0000
     1.0000   1.0000   1.0000   1.0000   1.0000   1.0000   1.0000   1.0000
     1.0000   1.0000   1.0000   1.0000   1.0000   1.0000   1.0000   1.0000
     1.0000   1.0000   1.0000   1.0000   1.0000   1.0000   1.0000   1.0000
     1.0000   1.0000   1.0000   1.0000   1.0000   1.0000   1.0000   1.0000
     1.0000   1.0000   1.0000   1.0000   1.0000   1.0000   1.0000   1.0000
     1.0000   1.0000   1.0000   1.0000   1.0000   1.0000   1.0000   1.0000
     1.0000   1.0000   1.0000   1.0000   1.0000   1.0000   1.0000   1.0000
     1.0000   1.0000   1.0000   1.0000   1.0000   1.0000   1.0000   1.0000
     1.0000   1.0000   1.0000   1.0000   1.0000   1.0000   1.0000   1.0000
     1.0000   1.0000   1.0000   1.0000   1.0000   1.0000   1.0000   1.0000
     1.0000   1.0000   1.0000   1.0000   1.0000   1.0000   1.0000   1.0000
     1.0000   1.0000   1.0000   1.0000   1.0000   1.0000   1.0000   1.0000
     1.0000   1.0000   1.0000   1.0000   1.0000   1.0000   1.0000   1.0000
     1.0000   1.0000   1.0000   1.0000   1.0000   1.0000   1.0000   1.0000
     1.0000   1.0000   1.0000   1.0000   1.0000   1.0000   1.0000   1.0000
     1.0000   1.0000   1.0000   1.0000   1.0000   1.0000   1.0000   1.0000
     1.0000   1.0000   1.0000   1.0000   1.0000   1.0000   1.0000   1.0000
     1.0000   1.0000   1.0000   1.0000   1.0000   1.0000   1.0000   1.0000
     1.0000   1.0000   1.0000   1.0000   1.0000   1.0000   1.0000   1.0000
     1.0000   1.0000   1.0000   1.0000   1.0000   1.0000   1.0000   1.0000
     1.0000   1.0000   1.0000   1.0000   1.0000   1.0000   1.0000   1.0000
     1.0000   1.0000   1.0000   1.0000   1.0000   1.0000   1.0000   1.0000
     1.0000   1.0000   1.0000   1.0000   1.0000   1.0000   1.0000   1.0000
     1.0000   1.0000   1.0000   1.0000   1.0000   1.0000   1.0000   1.0000
     1.0000   1.0000   1.0000   1.0000   1.0000   1.0000   1.0000   1.0000
     1.0000   1.0000   1.0000   1.0000   1.0000   1.0000   1.0000   1.0000
     1.0000   1.0000   1.0000   1.0000   1.0000   1.0000   1.0000   1.0000
     1.0000   1.0000   1.0000   1.0000   1.0000   1.0000   1.0000   1.0000
     1.0000   1.0000   1.0000   1.0000   1.0000   1.0000   1.0000   1.0000
     1.0000   1.0000   1.0000   1.0000   1.0000   1.0000   1.0000   1.0000
     1.0000   1.0000   1.0000   1.0000   1.0000   1.0000   1.0000   1.0000
     1.0000   1.0000   1.0000   1.0000   1.0000   1.0000   1.0000   1.0000
     1.0000   1.0000   1.0000   1.0000   1.0000   1.0000   1.0000   1.0000
     1.0000   1.0000   1.0000   1.0000   1.0000   1.0000   1.0000   1.0000
     1.0000   1.0000   1.0000   1.0000   1.0000   1.0000   1.0000   1.0000
     1.0000   1.0000   1.0000   1.0000   1.0000   1.0000   1.0000   1.0000
     1.0000   1.0000   1.0000   1.0000   1.0000   1.0000   1.0000   1.0000
     1.0000   1.0000   1.0000   1.0000   1.0000   1.0000   1.0000   1.0000
     1.0000   1.0000   1.0000   1.0000   1.0000   1.0000   1.0000   1.0000
     1.0000   1.0000   1.0000   1.0000   1.0000   1.0000   1.0000   1.0002
     1.0002   1.0026   1.0408   1.0715   1.0817   1.0816   1.0791   0.1800
     0.0532   0.0358   0.0119   0.0017   0.0005   0.0005   0.0001   0.0000
     0.0000   0.0000   0.0000   0.0000   0.0000   0.0000   0.0000   0.0000
     0.0000   0.0000   0.0000   0.0000   0.0000   0.0000   0.0000   0.0000
     0.0000   0.0000   0.0000   0.0000   0.0000   0.0000   0.0000   0.0000
     0.0000   0.0000   0.0000   0.0000   0.0000   0.0000   0.0000   0.0000
     0.0000   0.0000   0.0000   0.0000   0.0000   0.0000   0.0000   0.0000
     0.0000   0.0000   0.0000   0.0000   0.0000   0.0000   0.0000   0.0000
     0.0000   0.0000   0.0000   0.0000   0.0000   0.0000   0.0000   0.0000
     0.0000   0.0000   0.0000   0.0000   0.0000   0.0000   0.0000   0.0000
     0.0000   0.0000   0.0000   0.0000   0.0000   0.0000   0.0000   0.0000
     0.0000   0.0000   0.0000   0.0000   0.0000   0.0000   0.0000   0.0000
     0.0000   0.0000   0.0000   0.0000   0.0000   0.0000   0.0000   0.0000
     0.0000   0.0000   0.0000   0.0000   0.0000   0.0000   0.0000   0.0000
     0.0000   0.0000   0.0000   0.0000   0.0000   0.0000   0.0000   0.0000
     0.0000   0.0000   0.0000   0.0000   0.0000   0.0000   0.0000   0.0000
     0.0000   0.0000   0.0000   0.0000   0.0000   0.0000   0.0000   0.0000

          k = 0.3333 0.4439 0.9230 ( 46734 PWs)   bands (ev):

  -124.1213-124.1212-124.1208-124.1207-124.1205-124.1203-124.1202-124.1200
  -124.0803-124.0801-124.0797-124.0796-124.0795-124.0793-124.0792-124.0790
  -124.0184-124.0182-124.0179-124.0176-124.0175-124.0172-124.0170-124.0168
  -123.9747-123.9745-123.9742-123.9739-123.9736-123.9732-123.9730-123.9726
  -123.9464-123.9463-123.9459-123.9458-123.9456-123.9455-123.9455-123.9453
  -123.8503-123.8501-123.8498-123.8497-123.8494-123.8493-123.8489-123.8486
  -123.8202-123.8202-123.8197-123.8197-123.8194-123.8194-123.8193-123.8191
  -123.7370-123.7368-123.7364-123.7363-123.7361-123.7359-123.7358-123.7354
   -78.2248 -78.2223 -78.2145 -78.2140 -78.2129 -78.2124 -78.2111 -78.2104
   -78.2103 -78.2099 -78.2098 -78.2098 -78.2060 -78.2048 -78.2043 -78.2040
   -78.2028 -78.2026 -78.2023 -78.2016 -78.2000 -78.1996 -78.1958 -78.1950
   -78.1856 -78.1832 -78.1753 -78.1749 -78.1727 -78.1719 -78.1701 -78.1694
   -78.1692 -78.1688 -78.1685 -78.1685 -78.1653 -78.1642 -78.1640 -78.1640
   -78.1629 -78.1625 -78.1623 -78.1621 -78.1605 -78.1601 -78.1564 -78.1553
   -78.1211 -78.1186 -78.1111 -78.1104 -78.1096 -78.1085 -78.1074 -78.1067
   -78.1063 -78.1061 -78.1060 -78.1059 -78.1053 -78.1048 -78.1047 -78.1045
   -78.1032 -78.1028 -78.1026 -78.1016 -78.0970 -78.0963 -78.0928 -78.0919
   -78.0763 -78.0735 -78.0678 -78.0663 -78.0661 -78.0653 -78.0644 -78.0640
   -78.0626 -78.0622 -78.0618 -78.0606 -78.0599 -78.0598 -78.0598 -78.0595
   -78.0587 -78.0585 -78.0584 -78.0581 -78.0520 -78.0510 -78.0477 -78.0466
   -78.0466 -78.0464 -78.0462 -78.0460 -78.0458 -78.0456 -78.0452 -78.0452
   -78.0432 -78.0410 -78.0329 -78.0329 -78.0319 -78.0302 -78.0294 -78.0289
   -78.0278 -78.0271 -78.0270 -78.0259 -78.0190 -78.0188 -78.0148 -78.0143
   -77.9500 -77.9478 -77.9475 -77.9473 -77.9471 -77.9463 -77.9462 -77.9460
   -77.9457 -77.9455 -77.9399 -77.9392 -77.9378 -77.9360 -77.9356 -77.9351
   -77.9341 -77.9333 -77.9329 -77.9319 -77.9256 -77.9250 -77.9211 -77.9205
   -77.9197 -77.9196 -77.9193 -77.9189 -77.9189 -77.9187 -77.9185 -77.9178
   -77.9169 -77.9146 -77.9086 -77.9073 -77.9069 -77.9065 -77.9053 -77.9053
   -77.9042 -77.9037 -77.9036 -77.9020 -77.8926 -77.8923 -77.8883 -77.8876
   -77.8412 -77.8402 -77.8400 -77.8398 -77.8391 -77.8387 -77.8385 -77.8382
   -77.8311 -77.8285 -77.8246 -77.8237 -77.8225 -77.8216 -77.8208 -77.8206
   -77.8206 -77.8202 -77.8201 -77.8192 -77.8066 -77.8061 -77.8022 -77.8015
    -6.9149  -6.7191  -6.6375  -5.9600  -5.9193  -5.8059  -5.7467  -5.7157
    -5.6857  -5.6300  -5.6217  -5.6078  -5.6069  -5.6028  -5.5871  -5.5782
    -5.5696  -5.5696  -5.5631  -5.5575  -5.5442  -5.5411  -5.5337  -5.5332
    -5.5142  -5.5080  -5.4977  -5.4874  -5.4674  -5.4596  -5.4558  -5.4396
    -5.4395  -5.4325  -5.4266  -5.4211  -5.4205  -5.3854  -5.3847  -5.3831
    -5.3793  -5.3756  -5.3662  -5.3589  -5.3579  -5.3498  -5.3492  -5.3404
    -5.3289  -5.3279  -5.3208  -5.3044  -5.3043  -5.2979  -5.2917  -5.2835
    -5.2833  -5.2832  -5.2823  -5.2713  -5.2697  -5.2532  -5.2516  -5.2433
    -5.2362  -5.2357  -5.2349  -5.2346  -5.2343  -5.2180  -5.2155  -5.2095
    -5.2059  -5.1941  -5.1847  -5.1824  -5.1788  -5.1647  -5.1581  -5.1572
    -5.1571  -5.1552  -5.1529  -5.1493  -5.1453  -5.1381  -5.1364  -5.1340
    -5.1323  -5.1212  -5.1208  -5.1165  -5.1115  -5.1097  -5.0987  -5.0870
    -5.0809  -5.0693  -5.0528  -5.0506  -5.0500  -5.0447  -5.0350  -5.0275
    -5.0274  -5.0250  -5.0188  -5.0165  -5.0150  -5.0058  -5.0037  -5.0030
    -4.9991  -4.9980  -4.9910  -4.9819  -4.9768  -4.9703  -4.9648  -4.9583
    -4.9535  -4.9520  -4.9517  -4.9445  -4.9427  -4.9340  -4.9210  -4.9142
    -4.9131  -4.9130  -4.9055  -4.8892  -4.8889  -4.8804  -4.8782  -4.8732
    -4.8727  -4.8723  -4.8709  -4.8645  -4.8568  -4.8543  -4.8541  -4.8375
    -4.8303  -4.8288  -4.8217  -4.8215  -4.8206  -4.8201  -4.8092  -4.8055
    -4.8054  -4.8029  -4.8008  -4.7978  -4.7978  -4.7900  -4.7864  -4.7772
    -4.7657  -4.7612  -4.7584  -4.7582  -4.7550  -4.7545  -4.7494  -4.7417
    -4.7373  -4.7336  -4.7305  -4.7300  -4.7284  -4.7251  -4.7181  -4.7134
    -4.7128  -4.7068  -4.6986  -4.6981  -4.6946  -4.6886  -4.6863  -4.6838
    -4.6833  -4.6789  -4.6746  -4.6664  -4.6651  -4.6568  -4.6542  -4.6457
    -4.6439  -4.6426  -4.6424  -4.6321  -4.6270  -4.6210  -4.6204  -4.6183
    -4.6133  -4.6133  -4.6110  -4.6012  -4.6011  -4.6008  -4.5971  -4.5919
    -4.5790  -4.5789  -4.5784  -4.5686  -4.5631  -4.5605  -4.5595  -4.5575
    -4.5535  -4.5517  -4.5502  -4.5497  -4.5438  -4.5376  -4.5276  -4.5247
    -4.5219  -4.5219  -4.5200  -4.5117  -4.5088  -4.5060  -4.5031  -4.5009
    -4.4944  -4.4936  -4.4908  -4.4900  -4.4848  -4.4782  -4.4775  -4.4772
    -4.4764  -4.4695  -4.4641  -4.4621  -4.4569  -4.4518  -4.4462  -4.4456
    -4.4447  -4.4445  -4.4380  -4.4368  -4.4368  -4.4306  -4.4294  -4.4231
    -4.4168  -4.4147  -4.4095  -4.4073  -4.4058  -4.4055  -4.4024  -4.3918
    -4.3909  -4.3905  -4.3886  -4.3865  -4.3831  -4.3776  -4.3733  -4.3725
    -4.3708  -4.3704  -4.3700  -4.3687  -4.3667  -4.3642  -4.3453  -4.3421
    -4.3399  -4.3372  -4.3370  -4.3362  -4.3338  -4.3300  -4.3290  -4.3254
    -4.3235  -4.3188  -4.3185  -4.3175  -4.3100  -4.3078  -4.3061  -4.3059
    -4.3041  -4.3014  -4.2971  -4.2956  -4.2886  -4.2883  -4.2842  -4.2815
    -4.2797  -4.2725  -4.2711  -4.2682  -4.2681  -4.2647  -4.2563  -4.2563
    -4.2440  -4.2346  -4.2330  -4.2254  -4.2188  -4.2183  -4.2101  -4.2093
    -4.1990  -4.1866  -4.1726  -4.1677  -4.1634  -4.1257  -4.0805  -3.8691
    -3.8425  -3.6997  -3.5894  -3.5135  -3.0701  -2.9662  -2.9604  -2.8965
    -2.8904  -2.7511  -2.6450  -2.5130  -2.4545  -1.9320  -1.8844  -1.8020
    -1.6585  -1.6200  -1.4452  -1.2246  -0.9750  -0.8854  -0.7075  -0.6758
    -0.5324  -0.4632  -0.4595  -0.3777  -0.3585  -0.1091  -0.1086  -0.0888
     0.1111   0.3405   0.3465   0.7005   0.7036   1.1636   1.3179   1.3437
     1.3886   1.4291   1.5682   1.6427   1.7076   1.7398   1.7823   1.8089
     1.8340   1.9879   2.1703   2.3407   2.3457   2.3742   2.4959   2.5333
     2.5747   2.6332   2.6853   2.7491   2.9223   3.2372   3.3235   3.5581
[...]
     atom   29 type  1   force =     0.00000000    0.00000000    0.00000000
     atom   30 type  1   force =     0.00000000    0.00000000    0.00000000
     atom   31 type  1   force =     0.00000000    0.00000000    0.00000000
     atom   32 type  1   force =     0.00000000    0.00000000    0.00000000
     atom   33 type  1   force =     0.00000000    0.00000000    0.00000000
     atom   34 type  1   force =     0.00000000    0.00000000    0.00000000
     atom   35 type  1   force =     0.00000000    0.00000000    0.00000000
     atom   36 type  1   force =     0.00000000    0.00000000    0.00000000
     atom   37 type  1   force =     0.00000000    0.00000000    0.00000000
     atom   38 type  1   force =     0.00000000    0.00000000    0.00000000
     atom   39 type  1   force =     0.00000000    0.00000000    0.00000000
     atom   40 type  1   force =     0.00000000    0.00000000    0.00000000
     atom   41 type  1   force =     0.00000000    0.00000000    0.00000000
     atom   42 type  1   force =     0.00000000    0.00000000    0.00000000
     atom   43 type  1   force =     0.00000000    0.00000000    0.00000000
     atom   44 type  1   force =     0.00000000    0.00000000    0.00000000
     atom   45 type  1   force =     0.00000000    0.00000000    0.00000000
     atom   46 type  1   force =     0.00000000    0.00000000    0.00000000
     atom   47 type  1   force =     0.00000000    0.00000000    0.00000000
     atom   48 type  1   force =     0.00000000    0.00000000    0.00000000
     atom   49 type  1   force =     0.00000000    0.00000000    0.00000000
     atom   50 type  1   force =     0.00000000    0.00000000    0.00000000
     atom   51 type  1   force =     0.00000000    0.00000000    0.00000000
     atom   52 type  1   force =     0.00000000    0.00000000    0.00000000
     atom   53 type  1   force =     0.00000000    0.00000000    0.00000000
     atom   54 type  1   force =     0.00000000    0.00000000    0.00000000
     atom   55 type  1   force =     0.00000000    0.00000000    0.00000000
     atom   56 type  1   force =     0.00000000    0.00000000    0.00000000
     atom   57 type  1   force =     0.00000000    0.00000000    0.00000000
     atom   58 type  1   force =     0.00000000    0.00000000    0.00000000
     atom   59 type  1   force =     0.00000000    0.00000000    0.00000000
     atom   60 type  1   force =     0.00000000    0.00000000    0.00000000
     atom   61 type  1   force =     0.00000000    0.00000000    0.00000000
     atom   62 type  1   force =     0.00000000    0.00000000    0.00000000
     atom   63 type  1   force =     0.00000000    0.00000000    0.00000000
     atom   64 type  1   force =     0.00000000    0.00000000    0.00000000
     The Hubbard contrib.    to forces
     atom    1 type  1   force =     0.00000000    0.00000000    0.00000000
     atom    2 type  1   force =     0.00000000    0.00000000    0.00000000
     atom    3 type  1   force =     0.00000000    0.00000000    0.00000000
     atom    4 type  1   force =     0.00000000    0.00000000    0.00000000
     atom    5 type  1   force =     0.00000000    0.00000000    0.00000000
     atom    6 type  1   force =     0.00000000    0.00000000    0.00000000
     atom    7 type  1   force =     0.00000000    0.00000000    0.00000000
     atom    8 type  1   force =     0.00000000    0.00000000    0.00000000
     atom    9 type  1   force =     0.00000000    0.00000000    0.00000000
     atom   10 type  1   force =     0.00000000    0.00000000    0.00000000
     atom   11 type  1   force =     0.00000000    0.00000000    0.00000000
     atom   12 type  1   force =     0.00000000    0.00000000    0.00000000
     atom   13 type  1   force =     0.00000000    0.00000000    0.00000000
     atom   14 type  1   force =     0.00000000    0.00000000    0.00000000
     atom   15 type  1   force =     0.00000000    0.00000000    0.00000000
     atom   16 type  1   force =     0.00000000    0.00000000    0.00000000
     atom   17 type  1   force =     0.00000000    0.00000000    0.00000000
     atom   18 type  1   force =     0.00000000    0.00000000    0.00000000
     atom   19 type  1   force =     0.00000000    0.00000000    0.00000000
     atom   20 type  1   force =     0.00000000    0.00000000    0.00000000
     atom   21 type  1   force =     0.00000000    0.00000000    0.00000000
     atom   22 type  1   force =     0.00000000    0.00000000    0.00000000
     atom   23 type  1   force =     0.00000000    0.00000000    0.00000000
     atom   24 type  1   force =     0.00000000    0.00000000    0.00000000
     atom   25 type  1   force =     0.00000000    0.00000000    0.00000000
     atom   26 type  1   force =     0.00000000    0.00000000    0.00000000
     atom   27 type  1   force =     0.00000000    0.00000000    0.00000000
     atom   28 type  1   force =     0.00000000    0.00000000    0.00000000
     atom   29 type  1   force =     0.00000000    0.00000000    0.00000000
     atom   30 type  1   force =     0.00000000    0.00000000    0.00000000
     atom   31 type  1   force =     0.00000000    0.00000000    0.00000000
     atom   32 type  1   force =     0.00000000    0.00000000    0.00000000
     atom   33 type  1   force =     0.00000000    0.00000000    0.00000000
     atom   34 type  1   force =     0.00000000    0.00000000    0.00000000
     atom   35 type  1   force =     0.00000000    0.00000000    0.00000000
     atom   36 type  1   force =     0.00000000    0.00000000    0.00000000
     atom   37 type  1   force =     0.00000000    0.00000000    0.00000000
     atom   38 type  1   force =     0.00000000    0.00000000    0.00000000
     atom   39 type  1   force =     0.00000000    0.00000000    0.00000000
     atom   40 type  1   force =     0.00000000    0.00000000    0.00000000
     atom   41 type  1   force =     0.00000000    0.00000000    0.00000000
     atom   42 type  1   force =     0.00000000    0.00000000    0.00000000
     atom   43 type  1   force =     0.00000000    0.00000000    0.00000000
     atom   44 type  1   force =     0.00000000    0.00000000    0.00000000
     atom   45 type  1   force =     0.00000000    0.00000000    0.00000000
     atom   46 type  1   force =     0.00000000    0.00000000    0.00000000
     atom   47 type  1   force =     0.00000000    0.00000000    0.00000000
     atom   48 type  1   force =     0.00000000    0.00000000    0.00000000
     atom   49 type  1   force =     0.00000000    0.00000000    0.00000000
     atom   50 type  1   force =     0.00000000    0.00000000    0.00000000
     atom   51 type  1   force =     0.00000000    0.00000000    0.00000000
     atom   52 type  1   force =     0.00000000    0.00000000    0.00000000
     atom   53 type  1   force =     0.00000000    0.00000000    0.00000000
     atom   54 type  1   force =     0.00000000    0.00000000    0.00000000
     atom   55 type  1   force =     0.00000000    0.00000000    0.00000000
     atom   56 type  1   force =     0.00000000    0.00000000    0.00000000
     atom   57 type  1   force =     0.00000000    0.00000000    0.00000000
     atom   58 type  1   force =     0.00000000    0.00000000    0.00000000
     atom   59 type  1   force =     0.00000000    0.00000000    0.00000000
     atom   60 type  1   force =     0.00000000    0.00000000    0.00000000
     atom   61 type  1   force =     0.00000000    0.00000000    0.00000000
     atom   62 type  1   force =     0.00000000    0.00000000    0.00000000
     atom   63 type  1   force =     0.00000000    0.00000000    0.00000000
     atom   64 type  1   force =     0.00000000    0.00000000    0.00000000
     The SCF correction term to forces
     atom    1 type  1   force =    -0.00007540   -0.00001601    0.00009628
     atom    2 type  1   force =    -0.00007694   -0.00002101    0.00010122
     atom    3 type  1   force =     0.00009605    0.00001350    0.00003746
     atom    4 type  1   force =     0.00009396    0.00003271    0.00005436
     atom    5 type  1   force =    -0.00000484    0.00001548   -0.00002627
     atom    6 type  1   force =     0.00004323   -0.00000680   -0.00004575
     atom    7 type  1   force =     0.00003825   -0.00001961   -0.00005147
     atom    8 type  1   force =    -0.00000850    0.00002666   -0.00003701
     atom    9 type  1   force =    -0.00007032   -0.00000352    0.00009198
     atom   10 type  1   force =    -0.00008224   -0.00003332    0.00010575
     atom   11 type  1   force =     0.00007950    0.00004929    0.00005303
     atom   12 type  1   force =     0.00011044   -0.00000244    0.00003859
     atom   13 type  1   force =     0.00003901   -0.00000603   -0.00002482
     atom   14 type  1   force =    -0.00000118    0.00001509   -0.00004712
     atom   15 type  1   force =     0.00003036   -0.00001298   -0.00003461
     atom   16 type  1   force =    -0.00000045    0.00001964   -0.00005410
     atom   17 type  1   force =     0.00007480    0.00002176    0.00007738
     atom   18 type  1   force =     0.00007210    0.00001318    0.00008668
     atom   19 type  1   force =    -0.00002973   -0.00001650    0.00009603
     atom   20 type  1   force =    -0.00003007    0.00000214    0.00006284
     atom   21 type  1   force =     0.00004338   -0.00002320   -0.00010692
     atom   22 type  1   force =    -0.00000365    0.00003343   -0.00009604
     atom   23 type  1   force =    -0.00004810    0.00001274   -0.00005393
     atom   24 type  1   force =    -0.00000113   -0.00002394   -0.00006558
     atom   25 type  1   force =     0.00006676    0.00003954    0.00008779
     atom   26 type  1   force =     0.00008011   -0.00000427    0.00007618
     atom   27 type  1   force =    -0.00001394   -0.00000212    0.00007529
     atom   28 type  1   force =    -0.00004544   -0.00001201    0.00008380
     atom   29 type  1   force =     0.00000081    0.00002138   -0.00009974
     atom   30 type  1   force =     0.00003913   -0.00001202   -0.00010305
     atom   31 type  1   force =    -0.00004033    0.00000887   -0.00006265
     atom   32 type  1   force =    -0.00000865   -0.00002106   -0.00005660
     atom   33 type  1   force =    -0.00007672   -0.00001618    0.00010035
     atom   34 type  1   force =    -0.00006688   -0.00001834    0.00010379
     atom   35 type  1   force =     0.00001847   -0.00002375    0.00003684
     atom   36 type  1   force =     0.00000082    0.00002863    0.00003392
     atom   37 type  1   force =    -0.00008799   -0.00002359   -0.00000067
     atom   38 type  1   force =    -0.00007527   -0.00001571    0.00001828
     atom   39 type  1   force =     0.00006217    0.00003600   -0.00006196
     atom   40 type  1   force =     0.00011043    0.00000548   -0.00004895
     atom   41 type  1   force =    -0.00007319    0.00000397    0.00010237
     atom   42 type  1   force =    -0.00007005   -0.00003887    0.00010167
     atom   43 type  1   force =     0.00001367    0.00000790    0.00002374
     atom   44 type  1   force =     0.00000600   -0.00000267    0.00004758
     atom   45 type  1   force =    -0.00010652    0.00000310    0.00002242
     atom   46 type  1   force =    -0.00005640   -0.00004369   -0.00000461
     atom   47 type  1   force =     0.00010466    0.00000081   -0.00005794
     atom   48 type  1   force =     0.00006733    0.00004099   -0.00005283
     atom   49 type  1   force =     0.00007466    0.00000814    0.00009921
     atom   50 type  1   force =     0.00006778    0.00002595    0.00011628
     atom   51 type  1   force =    -0.00007084   -0.00002018    0.00015473
     atom   52 type  1   force =    -0.00005039   -0.00000951    0.00014601
     atom   53 type  1   force =     0.00002410   -0.00001540   -0.00010053
     atom   54 type  1   force =     0.00000971    0.00002365   -0.00011831
     atom   55 type  1   force =    -0.00004574   -0.00003848   -0.00001820
     atom   56 type  1   force =    -0.00009340    0.00000510   -0.00002073
     atom   57 type  1   force =     0.00007262    0.00003122    0.00010274
     atom   58 type  1   force =     0.00007002    0.00000346    0.00011263
     atom   59 type  1   force =    -0.00006602    0.00000354    0.00016760
     atom   60 type  1   force =    -0.00005591   -0.00003278    0.00013308
     atom   61 type  1   force =     0.00004136   -0.00001989   -0.00010890
     atom   62 type  1   force =    -0.00000801    0.00002812   -0.00010995
     atom   63 type  1   force =    -0.00008824   -0.00000121   -0.00001052
     atom   64 type  1   force =    -0.00005121   -0.00003222   -0.00002852

     Total force =     0.103208     Total SCF correction =     0.000829


     Computing stress (Cartesian axis) and pressure

          total   stress  (Ry/bohr**3)                   (kbar)     P=     -281.73
  -0.00198922  -0.00002330   0.00002702         -292.62       -3.43        3.97
  -0.00002330  -0.00192123   0.00000427           -3.43     -282.62        0.63
   0.00002702   0.00000427  -0.00183507            3.97        0.63     -269.95

     kinetic stress (kbar)  15082.56      6.25     -5.86
                                6.25  15053.69     -1.33
                               -5.86     -1.33  15108.22

     local   stress (kbar)**********   3424.25  -2315.86
                             3424.25**********   -559.00
                            -2315.86   -559.001207901.76

     nonloc. stress (kbar)  -1861.40     -6.81      4.48
                               -6.81  -1835.17      0.89
                                4.48      0.89  -1870.20

     hartree stress (kbar) 630437.55  -1471.35    970.73
                            -1471.35 636127.07    234.37
                              970.73    234.37-562370.92

     exc-cor stress (kbar)  -7542.39     -0.91      0.64
                               -0.91  -7538.92      0.16
                                0.64      0.16  -7545.64

     corecor stress (kbar)      0.00      0.00      0.00
                                0.00      0.00      0.00
                                0.00      0.00      0.00

     ewald   stress (kbar) 557232.83  -1954.86   1349.83
                            -1954.86 564795.07    325.54
                             1349.83    325.54-651493.18

     hubbard stress (kbar)      0.00      0.00      0.00
                                0.00      0.00      0.00
                                0.00      0.00      0.00

     DFT-D   stress (kbar)      0.00      0.00      0.00
                                0.00      0.00      0.00
                                0.00      0.00      0.00

     XDM     stress (kbar)      0.00      0.00      0.00
                                0.00      0.00      0.00
                                0.00      0.00      0.00

     dft-nl  stress (kbar)      0.00      0.00      0.00
                                0.00      0.00      0.00
                                0.00      0.00      0.00

     TS-vdW  stress (kbar)      0.00      0.00      0.00
                                0.00      0.00      0.00
                                0.00      0.00      0.00

     MDB     stress (kbar)      0.00      0.00      0.00
                                0.00      0.00      0.00
                                0.00      0.00      0.00

     3D-RISM stress (kbar)      0.00      0.00      0.00
                                0.00      0.00      0.00
                                0.00      0.00      0.00


     Writing all to output data dir ./tmp/Zn101_2x2x4_scf.save/ :
     XML data file, charge density, pseudopotentials, collected wavefunctions

     init_run     :     73.91s CPU     75.31s WALL (       1 calls)
     electrons    :   5080.14s CPU   5164.04s WALL (       1 calls)
     forces       :     60.69s CPU     61.01s WALL (       1 calls)
     stress       :    165.50s CPU    166.10s WALL (       1 calls)

     Called by init_run:
     wfcinit      :     73.44s CPU     74.80s WALL (       1 calls)
     wfcinit:atom :      0.03s CPU      0.05s WALL (       5 calls)
     wfcinit:wfcr :     72.90s CPU     74.18s WALL (       5 calls)
     potinit      :      0.04s CPU      0.05s WALL (       1 calls)
     hinit0       :      0.02s CPU      0.02s WALL (       1 calls)

     Called by electrons:
     c_bands      :   4719.93s CPU   4795.22s WALL (      19 calls)
     sum_band     :    353.02s CPU    361.52s WALL (      19 calls)
     v_of_rho     :      0.79s CPU      0.84s WALL (      19 calls)
     v_h          :      0.04s CPU      0.05s WALL (      19 calls)
     v_xc         :      0.75s CPU      0.79s WALL (      19 calls)
     newd         :      6.65s CPU      6.70s WALL (      19 calls)
     mix_rho      :      0.08s CPU      0.08s WALL (      19 calls)

     Called by c_bands:
     init_us_2    :      3.60s CPU      3.62s WALL (     205 calls)
     cegterg      :   4712.53s CPU   4787.74s WALL (      95 calls)

     Called by sum_band:
     sum_band:wei :      0.05s CPU      0.05s WALL (      19 calls)
     sum_band:loo :    347.06s CPU    355.52s WALL (      19 calls)
     sum_band:buf :      0.77s CPU      0.78s WALL (      95 calls)
     sum_band:ini :      1.67s CPU      1.67s WALL (      95 calls)
     sum_band:cal :    279.91s CPU    281.46s WALL (      95 calls)
     sum_band:bec :      3.57s CPU      3.58s WALL (      95 calls)
     addusdens    :      5.59s CPU      5.61s WALL (      19 calls)
                                        0.00s GPU  (      19 calls)
     addusd:skk   :      0.07s CPU      0.07s WALL (      19 calls)
                                        0.00s GPU  (      19 calls)

     Called by *egterg:
     cdiaghg      :    506.34s CPU    527.15s WALL (     513 calls)
     cegterg:over :    690.70s CPU    693.16s WALL (     423 calls)
     cegterg:upda :    298.64s CPU    300.64s WALL (     423 calls)
     cegterg:last :   1004.80s CPU   1012.53s WALL (     180 calls)
     cdiaghg:chol :     36.49s CPU     36.58s WALL (     513 calls)
     cdiaghg:inve :      5.45s CPU      5.46s WALL (     513 calls)
     cdiaghg:para :    159.00s CPU    161.34s WALL (    1026 calls)
     h_psi        :   1490.66s CPU   1530.55s WALL (     523 calls)
     s_psi        :    583.16s CPU    584.56s WALL (     523 calls)
     g_psi        :      0.43s CPU      0.43s WALL (     423 calls)

     Called by h_psi:
     h_psi:calbec :    633.92s CPU    637.32s WALL (     523 calls)
     vloc_psi     :    264.78s CPU    299.10s WALL (     523 calls)
     add_vuspsi   :    590.65s CPU    592.08s WALL (     523 calls)

     General routines
     calbec       :    987.96s CPU    993.27s WALL (     643 calls)
     fft          :      0.50s CPU      0.57s WALL (     218 calls)
     ffts         :      0.03s CPU      0.04s WALL (      19 calls)
     fftw         :    305.16s CPU    343.97s WALL (  403514 calls)

     Parallel routines

     PWSCF        :      1h29m CPU      1h31m WALL


   This run was terminated on:  19:28:16  24Mar2025            

=------------------------------------------------------------------------------=
   JOB DONE.
=------------------------------------------------------------------------------=
Note: The following floating-point exceptions are signalling: IEEE_DENORMAL
Note: The following floating-point exceptions are signalling: IEEE_DENORMAL
Note: The following floating-point exceptions are signalling: IEEE_DENORMAL
Note: The following floating-point exceptions are signalling: IEEE_DENORMAL
Note: The following floating-point exceptions are signalling: IEEE_DENORMAL
Note: The following floating-point exceptions are signalling: IEEE_DENORMAL
Note: The following floating-point exceptions are signalling: IEEE_DENORMAL
Note: The following floating-point exceptions are signalling: IEEE_DENORMAL
Note: The following floating-point exceptions are signalling: IEEE_DENORMAL
Note: The following floating-point exceptions are signalling: IEEE_DENORMAL
Note: The following floating-point exceptions are signalling: IEEE_DENORMAL
