
     Program PWSCF v.7.3.1 starts on 11Apr2025 at  0:25:39 

     This program is part of the open-source Quantum ESPRESSO suite
     for quantum simulation of materials; please cite
         "P. Giannozzi et al., J. Phys.:Condens. Matter 21 395502 (2009);
         "P. Giannozzi et al., J. Phys.:Condens. Matter 29 465901 (2017);
         "P. Giannozzi et al., J. Chem. Phys. 152 154105 (2020);
          URL http://www.quantum-espresso.org", 
     in publications or presentations arising from this work. More details at
     http://www.quantum-espresso.org/quote

     Parallel version (MPI), running on    33 processors

     MPI processes distributed on     1 nodes
     24941 MiB available memory on the printing compute node when the environment starts

     Waiting for input...
     Reading input from standard input
Warning: card &CELL ignored
Warning: card   CELL_DOFREE = 'ALL' ignored
Warning: card / ignored
Warning: card H       -9.9444126327      3.5529953096     10.6871894305 ignored
Warning: card H       -8.8517489851     -0.6246812893     13.1317552812 ignored
Warning: card H       -8.5953383709      2.1976910989     15.2284582810 ignored

     Current dimensions of program PWSCF are:
     Max number of different atomic species (ntypx) = 10
     Max number of k-points (npk) =  40000
     Max angular momentum in pseudopotentials (lmaxx) =  4
     file C.pbe-n-kjpaw_psl.1.0.0.UPF: wavefunction(s)  2S 2P renormalized

     R & G space division:  proc/nbgrp/npool/nimage =      33
     Subspace diagonalization in iterative solution of the eigenvalue problem:
     one sub-group per band group will be used
     custom distributed-memory algorithm (size of sub-group:  5*  5 procs)


     Parallelization info
     --------------------
     sticks:   dense  smooth     PW     G-vecs:    dense   smooth      PW
     Min         270     154     45                40385    17444    2719
     Max         271     155     45                40396    17453    2727
     Sum        8941    5109   1485              1332973   575857   89907

     Using Slab Decomposition



     bravais-lattice index     =            0
     lattice parameter (alat)  =      20.9009  a.u.
     unit-cell volume          =   16846.7507 (a.u.)^3
     number of atoms/cell      =           62
     number of atomic types    =            4
     number of electrons       =       999.00
     number of Kohn-Sham states=          600
     kinetic-energy cutoff     =      40.0000  Ry
     charge density cutoff     =     280.0000  Ry
     scf convergence threshold =      1.0E-06
     mixing beta               =       0.4000
     number of iterations used =            8  plain     mixing
     energy convergence thresh.=      5.0E-05
     force convergence thresh. =      1.0E-03
     Exchange-correlation= PBE
                           (   1   4   3   4   0   0   0)
     nstep                     =          300


     celldm(1)=  20.900943  celldm(2)=   0.000000  celldm(3)=   0.000000
     celldm(4)=   0.000000  celldm(5)=   0.000000  celldm(6)=   0.000000

     crystal axes: (cart. coord. in units of alat)
               a(1) = (   1.000000   0.000000   0.000000 )  
               a(2) = (  -0.223489   0.918700   0.000000 )  
               a(3) = (  -4.200249  -1.021781   2.008375 )  

     reciprocal axes: (cart. coord. in units 2 pi/alat)
               b(1) = (  1.000000  0.243267  2.215131 )  
               b(2) = ( -0.000000  1.088495  0.553783 )  
               b(3) = (  0.000000 -0.000000  0.497915 )  


     PseudoPot. # 1 for Zn read from file:
     /home/ys/qepseudo/SSSP_1.3.0_PBE_efficiency/Zn_pbe_v1.uspp.F.UPF
     MD5 check sum: df62231357ef9e81f77b2b3087fa5675
     Pseudo is Ultrasoft, Zval = 20.0
     Generated by new atomic code, or converted to UPF format
     Using radial grid of  943 points,  6 beta functions with: 
                l(1) =   0
                l(2) =   0
                l(3) =   1
                l(4) =   1
                l(5) =   2
                l(6) =   2
     Q(r) pseudized with  8 coefficients,  rinner =    1.100   1.100   1.100
                                                       1.100   1.100

     PseudoPot. # 2 for N  read from file:
     /home/ys/qepseudo/SSSP_1.3.0_PBE_efficiency/N.pbe-n-radius_5.UPF
     MD5 check sum: 16739722b17309cd8fe442a2ace49922
     Pseudo is Ultrasoft + core correction, Zval =  5.0
     Generated using "atomic" code by A. Dal Corso  v.5.1
     Using radial grid of 1085 points,  4 beta functions with: 
                l(1) =   0
                l(2) =   0
                l(3) =   1
                l(4) =   1
     Q(r) pseudized with 0 coefficients 


     PseudoPot. # 3 for C  read from file:
     /home/ys/qepseudo/SSSP_1.3.0_PBE_efficiency/C.pbe-n-kjpaw_psl.1.0.0.UPF
     MD5 check sum: 5d2aebdfa2cae82b50a7e79e9516da0f
     Pseudo is Projector augmented-wave + core cor, Zval =  4.0
     Generated using "atomic" code by A. Dal Corso  v.5.1
     Shape of augmentation charge: PSQ
     Using radial grid of 1073 points,  4 beta functions with: 
                l(1) =   0
                l(2) =   0
                l(3) =   1
                l(4) =   1
     Q(r) pseudized with 0 coefficients 


     PseudoPot. # 4 for H  read from file:
     /home/ys/qepseudo/SSSP_1.3.0_PBE_efficiency/H.pbe-rrkjus_psl.1.0.0.UPF
     MD5 check sum: f52b6d4d1c606e5624b1dc7b2218f220
     Pseudo is Ultrasoft, Zval =  1.0
     Generated using "atomic" code by A. Dal Corso  v.5.1
     Using radial grid of  929 points,  2 beta functions with: 
                l(1) =   0
                l(2) =   0
     Q(r) pseudized with 0 coefficients 


     atomic species   valence    mass     pseudopotential
     Zn               20.00    65.38000     Zn( 1.00)
     N                 5.00    14.00674     N ( 1.00)
     C                 4.00    12.01070     C ( 1.00)
     H                 1.00     1.00794     H ( 1.00)

     No symmetry found


                                    s                        frac. trans.

      isym =  1     identity                                     

 cryst.   s( 1) = (     1          0          0      )
                  (     0          1          0      )
                  (     0          0          1      )

 cart.    s( 1) = (  1.0000000  0.0000000  0.0000000 )
                  (  0.0000000  1.0000000  0.0000000 )
                  (  0.0000000  0.0000000  1.0000000 )


   Cartesian axes

     site n.     atom                  positions (alat units)
         1        Zn     tau(   1) = (  -0.0970639   0.0980210   0.1082940  )
         2        Zn     tau(   2) = (  -0.2088085   0.5573710   0.1082940  )
         3        Zn     tau(   3) = (  -0.4436296   0.0133021   0.3267644  )
         4        Zn     tau(   4) = (  -0.5553466   0.4727589   0.3266326  )
         5        Zn     tau(   5) = (  -0.8015675  -0.0738560   0.5204735  )
         6        Zn     tau(   6) = (  -0.9136705   0.3857182   0.5203452  )
         7        Zn     tau(   7) = (  -0.1529361   0.3276960   0.1082940  )
         8        Zn     tau(   8) = (  -0.2646808   0.7870460   0.1082940  )
         9        Zn     tau(   9) = (  -0.4994158   0.2431043   0.3267310  )
        10        Zn     tau(  10) = (  -0.6113085   0.7023487   0.3266788  )
        11        Zn     tau(  11) = (  -0.8577155   0.1559534   0.5203020  )
        12        Zn     tau(  12) = (  -0.9693047   0.6153537   0.5205194  )
        13        Zn     tau(  13) = (   0.4029362   0.0980210   0.1082940  )
        14        Zn     tau(  14) = (   0.2911915   0.5573710   0.1082940  )
        15        Zn     tau(  15) = (   0.0565086   0.0133360   0.3241562  )
        16        Zn     tau(  16) = (  -0.0552146   0.4727957   0.3239770  )
        17        Zn     tau(  17) = (  -0.2990019  -0.0732614   0.5203282  )
        18        Zn     tau(  18) = (  -0.4111263   0.3864037   0.5201985  )
        19        Zn     tau(  19) = (   0.3470638   0.3276960   0.1082940  )
        20        Zn     tau(  20) = (   0.2353192   0.7870460   0.1082940  )
        21        Zn     tau(  21) = (   0.0007168   0.2430908   0.3241551  )
        22        Zn     tau(  22) = (  -0.1111493   0.7024087   0.3239982  )
        23        Zn     tau(  23) = (  -0.3551819   0.1565713   0.5201829  )
        24        Zn     tau(  24) = (  -0.4667146   0.6159736   0.5203598  )
        25        Zn     tau(  25) = (   0.1529361   0.0372043   0.0773528  )
        26        Zn     tau(  26) = (   0.0411915   0.4965543   0.0773528  )
        27        Zn     tau(  27) = (  -0.2122732  -0.0516715   0.2654630  )
        28        Zn     tau(  28) = (  -0.3239465   0.4077318   0.2654478  )
        29        Zn     tau(  29) = (  -0.5765287  -0.1406552   0.4574179  )
        30        Zn     tau(  30) = (  -0.6884677   0.3189336   0.4575418  )
        31        Zn     tau(  31) = (   0.0970639   0.2668793   0.0773528  )
        32        Zn     tau(  32) = (  -0.0146808   0.7262293   0.0773528  )
        33        Zn     tau(  33) = (  -0.2680871   0.1780502   0.2653609  )
        34        Zn     tau(  34) = (  -0.3798692   0.6373411   0.2655337  )
        35        Zn     tau(  35) = (  -0.6325059   0.0891251   0.4575687  )
        36        Zn     tau(  36) = (  -0.7442124   0.5485014   0.4573723  )
        37        Zn     tau(  37) = (   0.6529362   0.0372043   0.0773528  )
        38        Zn     tau(  38) = (   0.5411915   0.4965543   0.0773528  )
        39        Zn     tau(  39) = (   0.2881095  -0.0515887   0.2651273  )
        40        Zn     tau(  40) = (   0.1764595   0.4078348   0.2650500  )
        41        Zn     tau(  41) = (  -0.0738569  -0.1399537   0.4576836  )
        42        Zn     tau(  42) = (  -0.1858471   0.3195453   0.4578116  )
        43        Zn     tau(  43) = (   0.5970639   0.2668793   0.0773528  )
        44        Zn     tau(  44) = (   0.4853193   0.7262293   0.0773528  )
        45        Zn     tau(  45) = (   0.2323041   0.1780975   0.2650220  )
        46        Zn     tau(  46) = (   0.1205228   0.6374688   0.2651506  )
        47        Zn     tau(  47) = (  -0.1298290   0.0898017   0.4578049  )
        48        Zn     tau(  48) = (  -0.2415973   0.5491238   0.4576724  )
        49        C      tau(  49) = (  -0.8441671   0.1337097   1.3423054  )
        50        C      tau(  50) = (  -0.8247103   0.0261957   1.0134476  )
        51        C      tau(  51) = (  -0.8743020   0.2370774   1.1402666  )
        52        C      tau(  52) = (  -0.8523924   0.1318728   0.9483826  )
        53        C      tau(  53) = (  -0.8467275   0.1321507   1.2060419  )
        54        C      tau(  54) = (  -0.8772261   0.2378379   1.0145172  )
        55        C      tau(  55) = (  -0.8221084   0.0272311   1.1395326  )
        56        N      tau(  56) = (  -0.8552922   0.1319789   0.8237021  )
        57        H      tau(  57) = (  -0.9323176   0.1601554   1.3802604  )
        58        H      tau(  58) = (  -0.8051411  -0.0573036   0.9644225  )
        59        H      tau(  59) = (  -0.8941166   0.3208171   1.1888597  )
        60        H      tau(  60) = (  -0.8211767   0.0444369   1.3791713  )
        61        H      tau(  61) = (  -0.8751288   0.2078144   0.7772206  )
        62        H      tau(  62) = (  -0.8374867   0.0562619   0.7761472  )

     --------------------------------------------
     DFT-D3 Dispersion Correction (3-body terms):
     --------------------------------------------
       Reference C6 values for interpolation: 

         atom   Coordination number   C6
         H          0.912             6.05
         H          0.000            15.18
         C          0.000            98.23
         C          0.987            86.49
         C          1.998            58.72
         C          2.999            51.56
         C          3.984            36.41
         N          0.000            50.54
         N          0.994            44.25
         N          2.014            39.35
         N          2.990            31.16
         Zn         0.000           681.04
         Zn         1.942           306.91

       Values used:

         atom   Coordination number  R0_AB[au]  C6      C8
         Zn         5.577            3.053    306.91  23930.67
         Zn         5.581            3.053    306.91  23930.67
         Zn         7.262            3.053    306.91  23930.67
         Zn         7.270            3.053    306.91  23930.67
         Zn         5.106            3.053    306.91  23930.67
         Zn         5.109            3.053    306.91  23930.67
         Zn         5.580            3.053    306.91  23930.67
         Zn         5.578            3.053    306.91  23930.67
         Zn         7.264            3.053    306.91  23930.67
         Zn         7.268            3.053    306.91  23930.67
         Zn         5.125            3.053    306.91  23930.67
         Zn         5.101            3.053    306.91  23930.67
         Zn         5.546            3.053    306.91  23930.67
         Zn         5.549            3.053    306.91  23930.67
         Zn         7.336            3.053    306.91  23930.67
         Zn         7.339            3.053    306.91  23930.67
         Zn         5.107            3.053    306.91  23930.67
         Zn         5.115            3.053    306.91  23930.67
         Zn         5.549            3.053    306.91  23930.67
         Zn         5.547            3.053    306.91  23930.67
         Zn         7.337            3.053    306.91  23930.67
         Zn         7.340            3.053    306.91  23930.67
         Zn         5.111            3.053    306.91  23930.67
         Zn         5.110            3.053    306.91  23930.67
         Zn         5.382            3.053    306.91  23930.67
         Zn         5.384            3.053    306.91  23930.67
         Zn         8.153            3.053    306.91  23930.67
         Zn         8.160            3.053    306.91  23930.67
         Zn         6.503            3.053    306.91  23930.67
         Zn         6.493            3.053    306.91  23930.67
         Zn         5.382            3.053    306.91  23930.67
         Zn         5.383            3.053    306.91  23930.67
         Zn         8.153            3.053    306.91  23930.67
         Zn         8.159            3.053    306.91  23930.67
         Zn         6.492            3.053    306.91  23930.67
         Zn         6.503            3.053    306.91  23930.67
         Zn         5.342            3.053    306.91  23930.67
         Zn         5.343            3.053    306.91  23930.67
         Zn         8.196            3.053    306.91  23930.67
         Zn         8.199            3.053    306.91  23930.67
         Zn         6.508            3.053    306.91  23930.67
         Zn         6.500            3.053    306.91  23930.67
         Zn         5.343            3.053    306.91  23930.67
         Zn         5.341            3.053    306.91  23930.67
         Zn         8.193            3.053    306.91  23930.67
         Zn         8.201            3.053    306.91  23930.67
         Zn         6.499            3.053    306.91  23930.67
         Zn         6.508            3.053    306.91  23930.67
         C          3.046            2.750     51.16   1479.68
         C          3.159            2.750     50.46   1459.39
         C          3.161            2.750     50.44   1458.92
         C          3.134            2.750     50.65   1465.02
         C          3.120            2.750     50.76   1468.04
         C          2.171            2.750     58.31   1686.53
         C          2.171            2.750     58.32   1686.61
         N          3.091            2.478     31.24    689.17
         H          0.997            2.062      6.18     74.75
         H          1.003            2.062      6.18     74.69
         H          1.003            2.062      6.18     74.69
         H          0.998            2.062      6.18     74.74
         H          1.010            2.062      6.17     74.61
         H          1.010            2.062      6.17     74.62

         Molecular C6 ( Ry / a.u.^6 ) =    830271.84


   Crystallographic axes

     site n.     atom                  positions (cryst. coord.)
         1        Zn     tau(   1) = (  0.1666667  0.1666667  0.0539212  )
         2        Zn     tau(   2) = (  0.1666668  0.6666667  0.0539212  )
         3        Zn     tau(   3) = (  0.2834325  0.1954358  0.1627009  )
         4        Zn     tau(   4) = (  0.2831942  0.6954790  0.1626353  )
         5        Zn     tau(   5) = (  0.3333829  0.2078374  0.2591516  )
         6        Zn     tau(   6) = (  0.3327949  0.7080104  0.2590877  )
         7        Zn     tau(   7) = (  0.1666668  0.4166667  0.0539212  )
         8        Zn     tau(   8) = (  0.1666667  0.9166667  0.0539212  )
         9        Zn     tau(   9) = (  0.2834754  0.4455557  0.1626843  )
        10        Zn     tau(  10) = (  0.2831861  0.9454119  0.1626583  )
        11        Zn     tau(  11) = (  0.3327602  0.4578888  0.2590662  )
        12        Zn     tau(  12) = (  0.3334092  0.9580638  0.2591744  )
        13        Zn     tau(  13) = (  0.6666668  0.1666667  0.0539212  )
        14        Zn     tau(  14) = (  0.6666667  0.6666667  0.0539212  )
        15        Zn     tau(  15) = (  0.7778014  0.1940282  0.1614022  )
        16        Zn     tau(  16) = (  0.7774525  0.6940484  0.1613130  )
        17        Zn     tau(  17) = (  0.8357713  0.2084042  0.2590792  )
        18        Zn     tau(  18) = (  0.8351810  0.7086753  0.2590146  )
        19        Zn     tau(  19) = (  0.6666668  0.4166667  0.0539212  )
        20        Zn     tau(  20) = (  0.6666668  0.9166667  0.0539212  )
        21        Zn     tau(  21) = (  0.7778988  0.4441146  0.1614017  )
        22        Zn     tau(  22) = (  0.7774220  0.9439927  0.1613236  )
        23        Zn     tau(  23) = (  0.8351802  0.4584954  0.2590069  )
        24        Zn     tau(  24) = (  0.8357966  0.9586503  0.2590949  )
        25        Zn     tau(  25) = (  0.3333333  0.0833333  0.0385151  )
        26        Zn     tau(  26) = (  0.3333333  0.5833333  0.0385151  )
        27        Zn     tau(  27) = (  0.3631923  0.0907647  0.1321780  )
        28        Zn     tau(  28) = (  0.3632429  0.5908143  0.1321704  )
        29        Zn     tau(  29) = (  0.4024953  0.1002077  0.2277552  )
        30        Zn     tau(  30) = (  0.4026334  0.6005363  0.2278169  )
        31        Zn     tau(  31) = (  0.3333333  0.3333333  0.0385151  )
        32        Zn     tau(  32) = (  0.3333333  0.8333333  0.0385151  )
        33        Zn     tau(  33) = (  0.3630358  0.3407590  0.1321272  )
        34        Zn     tau(  34) = (  0.3633667  0.8407904  0.1322132  )
        35        Zn     tau(  35) = (  0.4027500  0.3504058  0.2278303  )
        36        Zn     tau(  36) = (  0.4023595  0.8503257  0.2277325  )
        37        Zn     tau(  37) = (  0.8333333  0.0833333  0.0385151  )
        38        Zn     tau(  38) = (  0.8333333  0.5833333  0.0385151  )
        39        Zn     tau(  39) = (  0.8628514  0.0906689  0.1320109  )
        40        Zn     tau(  40) = (  0.8627927  0.5907061  0.1319724  )
        41        Zn     tau(  41) = (  0.9059264  0.1011185  0.2278875  )
        42        Zn     tau(  42) = (  0.9060006  0.6013515  0.2279513  )
        43        Zn     tau(  43) = (  0.8333333  0.3333333  0.0385151  )
        44        Zn     tau(  44) = (  0.8333333  0.8333333  0.0385151  )
        45        Zn     tau(  45) = (  0.8626880  0.3406228  0.1319584  )
        46        Zn     tau(  46) = (  0.8629413  0.8407172  0.1320225  )
        47        Zn     tau(  47) = (  0.9061147  0.3512731  0.2279479  )
        48        Zn     tau(  48) = (  0.9057908  0.8511694  0.2278820  )
        49        C      tau(  49) = (  2.1617429  0.8888880  0.6683540  )
        50        C      tau(  50) = (  1.4265817  0.5897437  0.5046107  )
        51        C      tau(  51) = (  1.7092112  0.8895175  0.5677558  )
        52        C      tau(  52) = (  1.2804800  0.6687408  0.4722139  )
        53        C      tau(  53) = (  1.8569615  0.8117306  0.6005063  )
        54        C      tau(  54) = (  1.4279209  0.8207075  0.5051433  )
        55        C      tau(  55) = (  1.7087303  0.6606945  0.5673904  )
        56        N      tau(  56) = (  1.0014223  0.5998104  0.4101336  )
        57        H      tau(  57) = (  2.1641010  0.9386927  0.6872523  )
        58        H      tau(  58) = (  1.3172413  0.4717059  0.4802004  )
        59        H      tau(  59) = (  1.8174079  1.0075777  0.5919511  )
        60        H      tau(  60) = (  2.2446788  0.8121307  0.6867100  )
        61        H      tau(  61) = (  0.8970713  0.6566163  0.3869898  )
        62        H      tau(  62) = (  0.8954681  0.4910578  0.3864554  )

     number of k points=     4  Marzari-Vanderbilt smearing, width (Ry)=  0.0200
                       cart. coord. in units 2pi/alat
        k(    1) = (   0.0000000   0.0000000   0.0000000), wk =   0.5000000
        k(    2) = (   0.0000000  -0.5442473  -0.2768914), wk =   0.5000000
        k(    3) = (  -0.5000000  -0.1216334  -1.1075657), wk =   0.5000000
        k(    4) = (  -0.5000000  -0.6658807  -1.3844571), wk =   0.5000000

                       cryst. coord.
        k(    1) = (   0.0000000   0.0000000   0.0000000), wk =   0.5000000
        k(    2) = (   0.0000000  -0.5000000   0.0000000), wk =   0.5000000
        k(    3) = (  -0.5000000   0.0000000   0.0000000), wk =   0.5000000
        k(    4) = (  -0.5000000  -0.5000000   0.0000000), wk =   0.5000000

     Dense  grid:  1332973 G-vectors     FFT dimensions: ( 120, 108, 540)

     Smooth grid:   575857 G-vectors     FFT dimensions: (  90,  80, 405)

     Dynamical RAM for                 wfc:      19.96 MB

     Dynamical RAM for     wfc (w. buffer):      99.79 MB

     Dynamical RAM for           str. fact:       2.47 MB

     Dynamical RAM for           local pot:       0.00 MB

     Dynamical RAM for          nlocal pot:      31.27 MB

     Dynamical RAM for                qrad:       5.37 MB

     Dynamical RAM for          rho,v,vnew:       6.89 MB

     Dynamical RAM for               rhoin:       2.30 MB

     Dynamical RAM for            rho*nmix:       9.86 MB

     Dynamical RAM for           G-vectors:       2.44 MB

     Dynamical RAM for          h,s,v(r/c):       2.64 MB

     Dynamical RAM for          <psi|beta>:       8.61 MB

     Dynamical RAM for                 psi:      39.92 MB

     Dynamical RAM for                hpsi:      39.92 MB

     Dynamical RAM for                spsi:      39.92 MB

     Dynamical RAM for      wfcinit/wfcrot:      54.08 MB

     Dynamical RAM for           addusdens:     144.24 MB

     Dynamical RAM for          addusforce:     202.67 MB

     Dynamical RAM for         addusstress:     123.90 MB

     Estimated static dynamical RAM per process >     162.02 MB

     Estimated max dynamical RAM per process >     374.56 MB

     Estimated total dynamical RAM >      12.07 GB

     Initial potential from superposition of free atoms

     starting charge     998.9929, renormalised to     999.0000

     negative rho (up, down):  1.742E-03 0.000E+00
     Starting wfcs are  662 randomized atomic wfcs
     Checking if some PAW data can be deallocated... 
       PAW data deallocated on   29 nodes for type:  3

     total cpu time spent up to now is      169.6 secs

     Self-consistent Calculation

     iteration #  1     ecut=    40.00 Ry     beta= 0.40
     Davidson diagonalization with overlap

---- Real-time Memory Report at c_bands before calling an iterative solver
           242 MiB given to the printing process from OS
             0 MiB allocation reported by mallinfo(arena+hblkhd)
         18901 MiB available memory on the node where the printing process lives
------------------
     ethr =  1.00E-02,  avg # of iterations =  7.5

     negative rho (up, down):  2.199E-03 0.000E+00

     total cpu time spent up to now is      836.5 secs

     total energy              =  -22303.09160864 Ry
     estimated scf accuracy    <      14.90031050 Ry

     iteration #  2     ecut=    40.00 Ry     beta= 0.40
     Davidson diagonalization with overlap

---- Real-time Memory Report at c_bands before calling an iterative solver
           344 MiB given to the printing process from OS
             0 MiB allocation reported by mallinfo(arena+hblkhd)
         17589 MiB available memory on the node where the printing process lives
------------------
     ethr =  1.49E-03,  avg # of iterations = 10.0

     negative rho (up, down):  3.629E-03 0.000E+00

     total cpu time spent up to now is     1520.6 secs

     total energy              =  -22287.97980315 Ry
     estimated scf accuracy    <     375.72075926 Ry

     iteration #  3     ecut=    40.00 Ry     beta= 0.40
     Davidson diagonalization with overlap

---- Real-time Memory Report at c_bands before calling an iterative solver
           361 MiB given to the printing process from OS
             0 MiB allocation reported by mallinfo(arena+hblkhd)
         17563 MiB available memory on the node where the printing process lives
------------------
     ethr =  1.49E-03,  avg # of iterations =  8.8

     negative rho (up, down):  3.165E-03 0.000E+00

     total cpu time spent up to now is     2440.5 secs

     total energy              =  -22309.63996716 Ry
     estimated scf accuracy    <       9.51689857 Ry

     iteration #  4     ecut=    40.00 Ry     beta= 0.40
     Davidson diagonalization with overlap

---- Real-time Memory Report at c_bands before calling an iterative solver
           362 MiB given to the printing process from OS
             0 MiB allocation reported by mallinfo(arena+hblkhd)
         17539 MiB available memory on the node where the printing process lives
------------------
     ethr =  9.53E-04,  avg # of iterations =  3.2

     negative rho (up, down):  3.082E-03 0.000E+00

     total cpu time spent up to now is     3005.5 secs

     total energy              =  -22309.86588733 Ry
     estimated scf accuracy    <       6.87471258 Ry

     iteration #  5     ecut=    40.00 Ry     beta= 0.40
     Davidson diagonalization with overlap

---- Real-time Memory Report at c_bands before calling an iterative solver
           363 MiB given to the printing process from OS
             0 MiB allocation reported by mallinfo(arena+hblkhd)
         17513 MiB available memory on the node where the printing process lives
------------------
     ethr =  6.88E-04,  avg # of iterations =  2.0

     negative rho (up, down):  3.281E-03 0.000E+00

     total cpu time spent up to now is     3549.1 secs

     total energy              =  -22310.29379574 Ry
     estimated scf accuracy    <       1.45757533 Ry

     iteration #  6     ecut=    40.00 Ry     beta= 0.40
     Davidson diagonalization with overlap

---- Real-time Memory Report at c_bands before calling an iterative solver
           363 MiB given to the printing process from OS
             0 MiB allocation reported by mallinfo(arena+hblkhd)
         17489 MiB available memory on the node where the printing process lives
------------------
     ethr =  1.46E-04,  avg # of iterations =  5.2

     negative rho (up, down):  3.330E-03 0.000E+00

     total cpu time spent up to now is     4101.6 secs

     total energy              =  -22310.27738856 Ry
     estimated scf accuracy    <       0.39999543 Ry

     iteration #  7     ecut=    40.00 Ry     beta= 0.40
     Davidson diagonalization with overlap

---- Real-time Memory Report at c_bands before calling an iterative solver
           364 MiB given to the printing process from OS
             0 MiB allocation reported by mallinfo(arena+hblkhd)
         17467 MiB available memory on the node where the printing process lives
------------------
     ethr =  4.00E-05,  avg # of iterations = 10.8

     negative rho (up, down):  3.278E-03 0.000E+00

     total cpu time spent up to now is     4674.7 secs

     total energy              =  -22310.26312094 Ry
     estimated scf accuracy    <       0.93739592 Ry

     iteration #  8     ecut=    40.00 Ry     beta= 0.40
     Davidson diagonalization with overlap

---- Real-time Memory Report at c_bands before calling an iterative solver
           365 MiB given to the printing process from OS
             0 MiB allocation reported by mallinfo(arena+hblkhd)
         17442 MiB available memory on the node where the printing process lives
------------------
     ethr =  4.00E-05,  avg # of iterations =  3.0

     negative rho (up, down):  3.227E-03 0.000E+00

     total cpu time spent up to now is     5226.0 secs

     total energy              =  -22310.26435434 Ry
     estimated scf accuracy    <       0.18208796 Ry

     iteration #  9     ecut=    40.00 Ry     beta= 0.40
     Davidson diagonalization with overlap

---- Real-time Memory Report at c_bands before calling an iterative solver
           366 MiB given to the printing process from OS
             0 MiB allocation reported by mallinfo(arena+hblkhd)
         17417 MiB available memory on the node where the printing process lives
------------------
     ethr =  1.82E-05,  avg # of iterations =  4.0

     negative rho (up, down):  3.222E-03 0.000E+00

     total cpu time spent up to now is     5781.3 secs

     total energy              =  -22310.27905006 Ry
     estimated scf accuracy    <       0.07408420 Ry

     iteration # 10     ecut=    40.00 Ry     beta= 0.40
     Davidson diagonalization with overlap

---- Real-time Memory Report at c_bands before calling an iterative solver
           366 MiB given to the printing process from OS
             0 MiB allocation reported by mallinfo(arena+hblkhd)
         17394 MiB available memory on the node where the printing process lives
------------------
     c_bands:  1 eigenvalues not converged
     ethr =  7.42E-06,  avg # of iterations = 11.8

     negative rho (up, down):  3.210E-03 0.000E+00

     total cpu time spent up to now is     6354.4 secs

     total energy              =  -22310.28455387 Ry
     estimated scf accuracy    <       0.00962584 Ry

     iteration # 11     ecut=    40.00 Ry     beta= 0.40
     Davidson diagonalization with overlap

---- Real-time Memory Report at c_bands before calling an iterative solver
           367 MiB given to the printing process from OS
             0 MiB allocation reported by mallinfo(arena+hblkhd)
         17398 MiB available memory on the node where the printing process lives
------------------
     ethr =  9.64E-07,  avg # of iterations =  8.8

     negative rho (up, down):  3.206E-03 0.000E+00

     total cpu time spent up to now is     6922.8 secs

     total energy              =  -22310.28551743 Ry
     estimated scf accuracy    <       0.00275326 Ry

     iteration # 12     ecut=    40.00 Ry     beta= 0.40
     Davidson diagonalization with overlap

---- Real-time Memory Report at c_bands before calling an iterative solver
           367 MiB given to the printing process from OS
             0 MiB allocation reported by mallinfo(arena+hblkhd)
         17398 MiB available memory on the node where the printing process lives
------------------
     ethr =  2.76E-07,  avg # of iterations =  2.0

     negative rho (up, down):  3.211E-03 0.000E+00

     total cpu time spent up to now is     7467.8 secs

     total energy              =  -22310.28558470 Ry
     estimated scf accuracy    <       0.00109489 Ry

     iteration # 13     ecut=    40.00 Ry     beta= 0.40
     Davidson diagonalization with overlap

---- Real-time Memory Report at c_bands before calling an iterative solver
           367 MiB given to the printing process from OS
             0 MiB allocation reported by mallinfo(arena+hblkhd)
         17398 MiB available memory on the node where the printing process lives
------------------
     ethr =  1.10E-07,  avg # of iterations =  2.0

     negative rho (up, down):  3.212E-03 0.000E+00

     total cpu time spent up to now is     8010.4 secs

     total energy              =  -22310.28566286 Ry
     estimated scf accuracy    <       0.00016436 Ry

     iteration # 14     ecut=    40.00 Ry     beta= 0.40
     Davidson diagonalization with overlap

---- Real-time Memory Report at c_bands before calling an iterative solver
           367 MiB given to the printing process from OS
             0 MiB allocation reported by mallinfo(arena+hblkhd)
         17395 MiB available memory on the node where the printing process lives
------------------
     ethr =  1.65E-08,  avg # of iterations =  2.0

     negative rho (up, down):  3.213E-03 0.000E+00

     total cpu time spent up to now is     8557.6 secs

     total energy              =  -22310.28565819 Ry
     estimated scf accuracy    <       0.00042857 Ry

     iteration # 15     ecut=    40.00 Ry     beta= 0.40
     Davidson diagonalization with overlap

---- Real-time Memory Report at c_bands before calling an iterative solver
           367 MiB given to the printing process from OS
             0 MiB allocation reported by mallinfo(arena+hblkhd)
         17392 MiB available memory on the node where the printing process lives
------------------
     ethr =  1.65E-08,  avg # of iterations =  2.0

     negative rho (up, down):  3.214E-03 0.000E+00

     total cpu time spent up to now is     9098.9 secs

     total energy              =  -22310.28568348 Ry
     estimated scf accuracy    <       0.00019501 Ry

     iteration # 16     ecut=    40.00 Ry     beta= 0.40
     Davidson diagonalization with overlap

---- Real-time Memory Report at c_bands before calling an iterative solver
           367 MiB given to the printing process from OS
             0 MiB allocation reported by mallinfo(arena+hblkhd)
         17393 MiB available memory on the node where the printing process lives
------------------
     ethr =  1.65E-08,  avg # of iterations =  1.0

     negative rho (up, down):  3.215E-03 0.000E+00

     total cpu time spent up to now is     9544.1 secs

     total energy              =  -22310.28569288 Ry
     estimated scf accuracy    <       0.00004272 Ry

     iteration # 17     ecut=    40.00 Ry     beta= 0.40
     Davidson diagonalization with overlap

---- Real-time Memory Report at c_bands before calling an iterative solver
           367 MiB given to the printing process from OS
             0 MiB allocation reported by mallinfo(arena+hblkhd)
         17389 MiB available memory on the node where the printing process lives
------------------
     ethr =  4.28E-09,  avg # of iterations =  2.0

     negative rho (up, down):  3.215E-03 0.000E+00

     total cpu time spent up to now is    10085.1 secs

     total energy              =  -22310.28569450 Ry
     estimated scf accuracy    <       0.00001284 Ry

     iteration # 18     ecut=    40.00 Ry     beta= 0.40
     Davidson diagonalization with overlap

---- Real-time Memory Report at c_bands before calling an iterative solver
           367 MiB given to the printing process from OS
             0 MiB allocation reported by mallinfo(arena+hblkhd)
         17390 MiB available memory on the node where the printing process lives
------------------
     ethr =  1.29E-09,  avg # of iterations =  2.0

     negative rho (up, down):  3.215E-03 0.000E+00

     total cpu time spent up to now is    10626.8 secs

     total energy              =  -22310.28569531 Ry
     estimated scf accuracy    <       0.00000334 Ry

     iteration # 19     ecut=    40.00 Ry     beta= 0.40
     Davidson diagonalization with overlap

---- Real-time Memory Report at c_bands before calling an iterative solver
           367 MiB given to the printing process from OS
             0 MiB allocation reported by mallinfo(arena+hblkhd)
         17387 MiB available memory on the node where the printing process lives
------------------
     ethr =  3.35E-10,  avg # of iterations =  2.0

     negative rho (up, down):  3.215E-03 0.000E+00

     total cpu time spent up to now is    11168.8 secs

     total energy              =  -22310.28569542 Ry
     estimated scf accuracy    <       0.00000392 Ry

     iteration # 20     ecut=    40.00 Ry     beta= 0.40
     Davidson diagonalization with overlap

---- Real-time Memory Report at c_bands before calling an iterative solver
           367 MiB given to the printing process from OS
             0 MiB allocation reported by mallinfo(arena+hblkhd)
         17386 MiB available memory on the node where the printing process lives
------------------
     ethr =  3.35E-10,  avg # of iterations =  1.0

     negative rho (up, down):  3.216E-03 0.000E+00

     total cpu time spent up to now is    11615.2 secs

     End of self-consistent calculation

          k = 0.0000 0.0000 0.0000 ( 71933 PWs)   bands (ev):

  -125.4328-125.4321-125.4317-125.4309-125.4283-125.4268-125.4267-125.4252
  -125.3415-125.3406-125.3395-125.3386-125.3362-125.3353-125.3353-125.3345
  -125.2315-125.2314-125.2305-125.2303-125.2298-125.2290-125.2284-125.2275
  -125.1456-125.1443-125.1441-125.1430-125.1428-125.1419-125.1415-125.1406
  -125.0586-125.0577-125.0551-125.0540-125.0535-125.0526-125.0505-125.0487
  -124.9808-124.9631-124.9613-124.9604-124.9599-124.9589-124.9583-124.9551
   -79.5988 -79.5937 -79.5867 -79.5863 -79.5840 -79.5830 -79.5826 -79.5816
   -79.5812 -79.5812 -79.5805 -79.5799 -79.5795 -79.5791 -79.5783 -79.5783
   -79.5782 -79.5766 -79.5758 -79.5742 -79.5740 -79.5739 -79.5723 -79.5686
   -79.5085 -79.5040 -79.4963 -79.4960 -79.4954 -79.4943 -79.4932 -79.4922
   -79.4918 -79.4917 -79.4896 -79.4885 -79.4885 -79.4875 -79.4856 -79.4846
   -79.4837 -79.4836 -79.4827 -79.4807 -79.4797 -79.4797 -79.4793 -79.4787
   -79.3953 -79.3952 -79.3867 -79.3862 -79.3856 -79.3853 -79.3850 -79.3844
   -79.3833 -79.3830 -79.3829 -79.3827 -79.3827 -79.3823 -79.3800 -79.3799
   -79.3790 -79.3788 -79.3785 -79.3776 -79.3769 -79.3760 -79.3705 -79.3704
   -79.3094 -79.3068 -79.3034 -79.3020 -79.3018 -79.3007 -79.3006 -79.2997
   -79.2992 -79.2982 -79.2972 -79.2970 -79.2965 -79.2951 -79.2949 -79.2945
   -79.2945 -79.2938 -79.2937 -79.2927 -79.2925 -79.2915 -79.2847 -79.2822
   -79.2260 -79.2251 -79.2232 -79.2221 -79.2204 -79.2194 -79.2184 -79.2166
   -79.2166 -79.2124 -79.2064 -79.2054 -79.2043 -79.2034 -79.2028 -79.2017
   -79.2014 -79.2004 -79.2001 -79.1991 -79.1983 -79.1965 -79.1911 -79.1868
   -79.1566 -79.1364 -79.1354 -79.1344 -79.1340 -79.1330 -79.1316 -79.1299
   -79.1285 -79.1203 -79.1135 -79.1123 -79.1113 -79.1109 -79.1107 -79.1098
   -79.1093 -79.1064 -79.1026 -79.0984 -79.0982 -79.0980 -79.0860 -79.0858
   -18.2295 -15.7198 -13.5303 -12.5655 -11.1213  -9.7255  -8.9427  -8.4305
    -7.9103  -7.5712  -7.2995  -7.1564  -7.1560  -7.1425  -7.0861  -7.0422
    -6.9986  -6.9871  -6.9701  -6.9634  -6.9481  -6.9446  -6.9085  -6.9080
    -6.9014  -6.8827  -6.8813  -6.8286  -6.8155  -6.7690  -6.7683  -6.7660
    -6.7612  -6.7610  -6.7509  -6.7505  -6.7478  -6.7476  -6.7426  -6.7106
    -6.7105  -6.7076  -6.7074  -6.6919  -6.6911  -6.6872  -6.6871  -6.6728
    -6.6727  -6.6393  -6.6392  -6.6371  -6.6357  -6.6355  -6.6125  -6.6097
    -6.6095  -6.5812  -6.5811  -6.5690  -6.5678  -6.5656  -6.5574  -6.5573
    -6.5442  -6.5441  -6.5046  -6.5007  -6.4876  -6.4671  -6.4607  -6.4604
    -6.4571  -6.4295  -6.4295  -6.4088  -6.4059  -6.4031  -6.3995  -6.3940
    -6.3937  -6.3869  -6.3849  -6.3836  -6.3758  -6.3757  -6.3513  -6.3513
    -6.3500  -6.3499  -6.3449  -6.3087  -6.3086  -6.3045  -6.2982  -6.2982
    -6.2799  -6.2783  -6.2660  -6.2655  -6.2579  -6.2553  -6.2446  -6.2401
    -6.2399  -6.2389  -6.2380  -6.2326  -6.2142  -6.2141  -6.2112  -6.2109
    -6.1930  -6.1880  -6.1744  -6.1741  -6.1739  -6.1653  -6.1651  -6.1645
    -6.1560  -6.1514  -6.1360  -6.1314  -6.1313  -6.1183  -6.1180  -6.1096
    -6.1095  -6.0996  -6.0993  -6.0986  -6.0983  -6.0798  -6.0732  -6.0716
    -6.0715  -6.0590  -6.0588  -6.0566  -6.0515  -6.0424  -6.0402  -6.0303
    -6.0299  -6.0292  -6.0291  -6.0059  -6.0018  -5.9850  -5.9849  -5.9832
    -5.9829  -5.9743  -5.9663  -5.9661  -5.9654  -5.9649  -5.9457  -5.9384
    -5.9381  -5.9375  -5.9321  -5.9313  -5.9253  -5.9251  -5.9090  -5.9084
    -5.9040  -5.9012  -5.9008  -5.8925  -5.8916  -5.8909  -5.8907  -5.8742
    -5.8735  -5.8676  -5.8607  -5.8588  -5.8571  -5.8567  -5.8481  -5.8458
    -5.8397  -5.8372  -5.8348  -5.8340  -5.8299  -5.8217  -5.8097  -5.8086
    -5.8082  -5.8077  -5.8026  -5.8021  -5.7986  -5.7861  -5.7857  -5.7852
    -5.7808  -5.7803  -5.7767  -5.7703  -5.7700  -5.7688  -5.7673  -5.7656
    -5.7642  -5.7580  -5.7559  -5.7522  -5.7495  -5.7415  -5.7391  -5.7321
    -5.7305  -5.7279  -5.7276  -5.7225  -5.7223  -5.7155  -5.7144  -5.7022
    -5.7006  -5.7001  -5.6983  -5.6915  -5.6901  -5.6771  -5.6770  -5.6591
    -5.6501  -5.6487  -5.6467  -5.6457  -5.6359  -5.6350  -5.6349  -5.6253
    -5.6174  -5.6008  -5.5998  -5.5971  -5.5786  -5.5775  -5.5569  -5.5483
    -5.5442  -5.5078  -5.4907  -5.4865  -5.4776  -5.4641  -5.4622  -5.4042
    -5.4024  -5.3797  -5.3795  -4.9961  -4.8103  -4.5000  -4.4437  -4.4432
    -4.2142  -4.1935  -4.1933  -3.9843  -3.8006  -3.8004  -3.3352  -2.9194
    -2.6184  -2.5675  -2.4101  -2.4098  -2.2885  -2.2366  -2.2364  -1.9535
    -1.8766  -1.8761  -1.6864  -1.6830  -1.6067  -1.6045  -1.1126  -0.8926
    -0.8903  -0.7772  -0.6614  -0.4726  -0.4500  -0.3344  -0.3260  -0.2774
    -0.2768   0.1325   0.1355   0.3569   0.3603   0.3858   0.3860   0.4489
     0.5148   0.7553   0.7562   1.0514   1.1205   1.1976   1.4333   1.4447
     1.7312   1.7398   2.0601   2.0990   2.2859   2.3020   2.3036   2.3062
     2.4313   2.4321   2.8567   2.8592   2.9478   2.9938   3.0104   3.0806
     3.0903   3.3396   3.3838   3.6124   3.6876   3.7347   3.7387   4.1492
     4.1571   4.2015   4.3021   4.6476   4.8050   4.8537   4.8849   4.9318
     5.0708   5.2052   5.2067   5.2935   5.3668   5.3979   5.4009   5.4168
     5.4509   5.4803   5.6359   5.7421   5.7452   5.7583   5.7765   5.8667
     5.8701   5.9792   5.9864   6.0027   6.0411   6.0509   6.1507   6.1790
     6.1898   6.2115   6.2392   6.3202   6.3732   6.4341   6.4359   6.4832
     6.5885   6.6188   6.6591   6.7128   6.7756   6.8692   6.9349   6.9407
     7.0318   7.0844   7.1087   7.1225   7.1872   7.2444   7.2641   7.2674
     7.3795   7.4384   7.4499   7.5201   7.5694   7.6435   7.7184   7.7355
     7.7762   7.7817   7.8180   7.8188   7.8840   7.9381   7.9803   8.1341

     occupation numbers 
     1.0000   1.0000   1.0000   1.0000   1.0000   1.0000   1.0000   1.0000
     1.0000   1.0000   1.0000   1.0000   1.0000   1.0000   1.0000   1.0000
     1.0000   1.0000   1.0000   1.0000   1.0000   1.0000   1.0000   1.0000
     1.0000   1.0000   1.0000   1.0000   1.0000   1.0000   1.0000   1.0000
     1.0000   1.0000   1.0000   1.0000   1.0000   1.0000   1.0000   1.0000
     1.0000   1.0000   1.0000   1.0000   1.0000   1.0000   1.0000   1.0000
     1.0000   1.0000   1.0000   1.0000   1.0000   1.0000   1.0000   1.0000
     1.0000   1.0000   1.0000   1.0000   1.0000   1.0000   1.0000   1.0000
     1.0000   1.0000   1.0000   1.0000   1.0000   1.0000   1.0000   1.0000
     1.0000   1.0000   1.0000   1.0000   1.0000   1.0000   1.0000   1.0000
     1.0000   1.0000   1.0000   1.0000   1.0000   1.0000   1.0000   1.0000
     1.0000   1.0000   1.0000   1.0000   1.0000   1.0000   1.0000   1.0000
     1.0000   1.0000   1.0000   1.0000   1.0000   1.0000   1.0000   1.0000
     1.0000   1.0000   1.0000   1.0000   1.0000   1.0000   1.0000   1.0000
     1.0000   1.0000   1.0000   1.0000   1.0000   1.0000   1.0000   1.0000
     1.0000   1.0000   1.0000   1.0000   1.0000   1.0000   1.0000   1.0000
     1.0000   1.0000   1.0000   1.0000   1.0000   1.0000   1.0000   1.0000
     1.0000   1.0000   1.0000   1.0000   1.0000   1.0000   1.0000   1.0000
     1.0000   1.0000   1.0000   1.0000   1.0000   1.0000   1.0000   1.0000
     1.0000   1.0000   1.0000   1.0000   1.0000   1.0000   1.0000   1.0000
     1.0000   1.0000   1.0000   1.0000   1.0000   1.0000   1.0000   1.0000
     1.0000   1.0000   1.0000   1.0000   1.0000   1.0000   1.0000   1.0000
     1.0000   1.0000   1.0000   1.0000   1.0000   1.0000   1.0000   1.0000
     1.0000   1.0000   1.0000   1.0000   1.0000   1.0000   1.0000   1.0000
     1.0000   1.0000   1.0000   1.0000   1.0000   1.0000   1.0000   1.0000
     1.0000   1.0000   1.0000   1.0000   1.0000   1.0000   1.0000   1.0000
     1.0000   1.0000   1.0000   1.0000   1.0000   1.0000   1.0000   1.0000
     1.0000   1.0000   1.0000   1.0000   1.0000   1.0000   1.0000   1.0000
     1.0000   1.0000   1.0000   1.0000   1.0000   1.0000   1.0000   1.0000
     1.0000   1.0000   1.0000   1.0000   1.0000   1.0000   1.0000   1.0000
     1.0000   1.0000   1.0000   1.0000   1.0000   1.0000   1.0000   1.0000
     1.0000   1.0000   1.0000   1.0000   1.0000   1.0000   1.0000   1.0000
     1.0000   1.0000   1.0000   1.0000   1.0000   1.0000   1.0000   1.0000
     1.0000   1.0000   1.0000   1.0000   1.0000   1.0000   1.0000   1.0000
     1.0000   1.0000   1.0000   1.0000   1.0000   1.0000   1.0000   1.0000
     1.0000   1.0000   1.0000   1.0000   1.0000   1.0000   1.0000   1.0000
     1.0000   1.0000   1.0000   1.0000   1.0000   1.0000   1.0000   1.0000
     1.0000   1.0000   1.0000   1.0000   1.0000   1.0000   1.0000   1.0000
     1.0000   1.0000   1.0000   1.0000   1.0000   1.0000   1.0000   1.0000
     1.0000   1.0000   1.0000   1.0000   1.0000   1.0000   1.0000   1.0000
     1.0000   1.0000   1.0000   1.0000   1.0000   1.0000   1.0000   1.0000
     1.0000   1.0000   1.0000   1.0000   1.0000   1.0000   1.0000   1.0000
     1.0000   1.0000   1.0000   1.0000   1.0000   1.0000   1.0000   1.0000
     1.0000   1.0000   1.0000   1.0000   1.0000   1.0000   1.0000   1.0000
     1.0000   1.0000   1.0000   1.0000   1.0000   1.0000   1.0000   1.0000
     1.0000   1.0000   1.0000   1.0000   1.0000   1.0000   1.0000   1.0000
     1.0000   1.0000   1.0000   1.0000   1.0000   1.0000   1.0000   1.0000
     1.0000   1.0000   1.0000   1.0000   1.0000   1.0000   1.0000   1.0000
     1.0000   1.0000   1.0000   1.0000   1.0000   1.0000   1.0000   1.0000
     1.0000   1.0000   1.0000   1.0000   1.0000   1.0000   1.0000   1.0000
     1.0000   1.0000   1.0000   1.0000   1.0000   1.0000   1.0000   1.0000
     1.0000   1.0000   1.0000   1.0000   1.0000   1.0000   1.0000   1.0000
     1.0000   1.0000   1.0000   1.0000   1.0000   1.0000   1.0000   1.0000
     1.0000   1.0000   1.0000   1.0000   1.0000   1.0000   1.0000   1.0000
     1.0000   1.0000   1.0000   1.0000   1.0000   1.0000   1.0000   1.0000
     1.0000   1.0000   1.0000   1.0000   1.0000   1.0000   1.0000   1.0000
     1.0000   1.0000   1.0000   1.0000   1.0000   1.0000   1.0000   1.0000
     1.0000   1.0000   1.0000   1.0000   1.0000   1.0000   1.0000   1.0000
     1.0000   1.0000   1.0000   1.0000   1.0000   1.0000   1.0000   1.0000
     1.0000   1.0000   1.0000   1.0000   1.0000   1.0000   1.0000   1.0000
     1.0000   1.0000   1.0000   1.0000   1.0000   1.0000   1.0000   1.0000
     1.0000   1.0003   1.0003   1.0090   1.0094   1.0128   1.0128   1.0252
     1.0445   1.0481   1.0473   0.3950   0.2411   0.1213   0.0058   0.0049
     0.0000   0.0000   0.0000   0.0000   0.0000   0.0000   0.0000   0.0000
     0.0000   0.0000   0.0000   0.0000   0.0000   0.0000   0.0000   0.0000
     0.0000   0.0000   0.0000   0.0000   0.0000   0.0000   0.0000   0.0000
     0.0000   0.0000   0.0000   0.0000   0.0000   0.0000   0.0000   0.0000
     0.0000   0.0000   0.0000   0.0000   0.0000   0.0000   0.0000   0.0000
     0.0000   0.0000   0.0000   0.0000   0.0000   0.0000   0.0000   0.0000
     0.0000   0.0000   0.0000   0.0000   0.0000   0.0000   0.0000   0.0000
     0.0000   0.0000   0.0000   0.0000   0.0000   0.0000   0.0000   0.0000
     0.0000   0.0000   0.0000   0.0000   0.0000   0.0000   0.0000   0.0000
     0.0000   0.0000   0.0000   0.0000   0.0000   0.0000   0.0000   0.0000
     0.0000   0.0000   0.0000   0.0000   0.0000   0.0000   0.0000   0.0000
     0.0000   0.0000   0.0000   0.0000   0.0000   0.0000   0.0000   0.0000

          k = 0.0000-0.5442-0.2769 ( 71974 PWs)   bands (ev):

  -125.4326-125.4324-125.4313-125.4311-125.4283-125.4270-125.4265-125.4252
  -125.3415-125.3406-125.3394-125.3387-125.3360-125.3359-125.3348-125.3347
  -125.2315-125.2313-125.2305-125.2305-125.2297-125.2290-125.2284-125.2276
  -125.1456-125.1445-125.1439-125.1430-125.1427-125.1421-125.1413-125.1407
  -125.0586-125.0577-125.0551-125.0540-125.0535-125.0526-125.0505-125.0487
  -124.9808-124.9631-124.9613-124.9606-124.9598-124.9590-124.9583-124.9551
   -79.5953 -79.5952 -79.5906 -79.5894 -79.5839 -79.5834 -79.5823 -79.5817
   -79.5803 -79.5802 -79.5798 -79.5786 -79.5785 -79.5785 -79.5779 -79.5775
   -79.5774 -79.5767 -79.5758 -79.5745 -79.5738 -79.5729 -79.5724 -79.5716
   -79.5055 -79.5041 -79.5005 -79.5003 -79.4954 -79.4945 -79.4932 -79.4923
   -79.4893 -79.4892 -79.4879 -79.4879 -79.4878 -79.4867 -79.4855 -79.4847
   -79.4836 -79.4830 -79.4829 -79.4828 -79.4804 -79.4803 -79.4790 -79.4790
   -79.3926 -79.3921 -79.3910 -79.3905 -79.3866 -79.3862 -79.3859 -79.3851
   -79.3850 -79.3844 -79.3832 -79.3823 -79.3800 -79.3799 -79.3790 -79.3790
   -79.3782 -79.3777 -79.3768 -79.3760 -79.3750 -79.3746 -79.3736 -79.3731
   -79.3063 -79.3053 -79.3035 -79.3034 -79.3029 -79.3023 -79.3016 -79.3007
   -79.3006 -79.2999 -79.2989 -79.2983 -79.2964 -79.2954 -79.2946 -79.2938
   -79.2937 -79.2931 -79.2922 -79.2916 -79.2888 -79.2879 -79.2861 -79.2855
   -79.2260 -79.2251 -79.2232 -79.2221 -79.2204 -79.2194 -79.2184 -79.2166
   -79.2144 -79.2111 -79.2102 -79.2068 -79.2064 -79.2054 -79.2028 -79.2017
   -79.2014 -79.2005 -79.1983 -79.1966 -79.1965 -79.1934 -79.1924 -79.1890
   -79.1566 -79.1364 -79.1353 -79.1347 -79.1338 -79.1330 -79.1316 -79.1299
   -79.1285 -79.1199 -79.1135 -79.1122 -79.1116 -79.1107 -79.1099 -79.1093
   -79.1076 -79.1065 -79.1064 -79.1052 -79.0948 -79.0900 -79.0892 -79.0867
   -18.2295 -15.7198 -13.5303 -12.5655 -11.1213  -9.7255  -8.9426  -8.0621
    -8.0602  -7.9098  -7.3522  -7.3504  -7.0276  -7.0255  -7.0005  -6.9614
    -6.9599  -6.9354  -6.9335  -6.9167  -6.9162  -6.9094  -6.9092  -6.8841
    -6.8824  -6.8823  -6.8817  -6.8770  -6.8769  -6.8329  -6.8327  -6.8254
    -6.8246  -6.8219  -6.8216  -6.7889  -6.7886  -6.7333  -6.7323  -6.7283
    -6.7275  -6.7139  -6.7138  -6.7132  -6.7128  -6.7058  -6.7053  -6.7039
    -6.7037  -6.6538  -6.6532  -6.6397  -6.6392  -6.6326  -6.6320  -6.6299
    -6.6295  -6.5683  -6.5680  -6.5492  -6.5488  -6.5276  -6.5273  -6.5238
    -6.5236  -6.5005  -6.5002  -6.4812  -6.4807  -6.4772  -6.4765  -6.4701
    -6.4700  -6.4374  -6.4369  -6.4289  -6.4286  -6.4212  -6.4209  -6.4089
    -6.4077  -6.3976  -6.3973  -6.3936  -6.3934  -6.3637  -6.3634  -6.3558
    -6.3555  -6.3381  -6.3377  -6.3335  -6.3334  -6.3284  -6.3281  -6.3196
    -6.3193  -6.2808  -6.2804  -6.2673  -6.2664  -6.2608  -6.2603  -6.2448
    -6.2440  -6.2357  -6.2355  -6.2311  -6.2299  -6.2265  -6.2255  -6.2071
    -6.2063  -6.2059  -6.2057  -6.1997  -6.1994  -6.1929  -6.1920  -6.1739
    -6.1735  -6.1628  -6.1625  -6.1568  -6.1563  -6.1388  -6.1383  -6.1125
    -6.1124  -6.1092  -6.1074  -6.0997  -6.0994  -6.0929  -6.0925  -6.0903
    -6.0896  -6.0600  -6.0595  -6.0515  -6.0514  -6.0462  -6.0458  -6.0390
    -6.0383  -6.0034  -6.0030  -5.9833  -5.9832  -5.9829  -5.9824  -5.9802
    -5.9793  -5.9543  -5.9541  -5.9394  -5.9393  -5.9327  -5.9323  -5.9298
    -5.9297  -5.9159  -5.9156  -5.9076  -5.9072  -5.9049  -5.9044  -5.8972
    -5.8967  -5.8909  -5.8902  -5.8856  -5.8851  -5.8773  -5.8770  -5.8426
    -5.8424  -5.8418  -5.8412  -5.8327  -5.8325  -5.8300  -5.8294  -5.8291
    -5.8287  -5.8256  -5.8240  -5.8211  -5.8200  -5.8133  -5.8122  -5.8046
    -5.8042  -5.7901  -5.7895  -5.7873  -5.7862  -5.7824  -5.7810  -5.7745
    -5.7736  -5.7545  -5.7505  -5.7498  -5.7477  -5.7476  -5.7459  -5.7405
    -5.7393  -5.7277  -5.7239  -5.7232  -5.7230  -5.7225  -5.7216  -5.7166
    -5.7162  -5.7094  -5.7091  -5.7056  -5.7049  -5.7005  -5.6995  -5.6794
    -5.6746  -5.6736  -5.6732  -5.6717  -5.6707  -5.6657  -5.6638  -5.6623
    -5.6606  -5.6538  -5.6446  -5.6442  -5.6431  -5.6417  -5.6250  -5.6194
    -5.5999  -5.5996  -5.5958  -5.5927  -5.5897  -5.5861  -5.5821  -5.5817
    -5.5455  -5.5429  -5.5362  -5.5305  -5.5148  -5.5097  -5.4902  -5.2999
    -5.2998  -5.2717  -5.2701  -4.9954  -4.5415  -4.5405  -4.4993  -4.4051
    -4.4050  -4.1221  -4.1216  -3.9846  -3.7278  -3.7269  -3.3350  -2.7232
    -2.7206  -2.6556  -2.6552  -2.6178  -2.5515  -2.5466  -2.3341  -2.3329
    -2.1179  -2.1176  -1.7148  -1.7067  -1.3750  -1.3747  -1.1415  -1.1411
    -0.7813  -0.7556  -0.7531  -0.6128  -0.6072  -0.4455  -0.3690  -0.3677
     0.0074   0.0106   0.2895   0.3008   0.5111   0.5910   0.5933   0.9017
     0.9046   0.9863   0.9988   1.1009   1.1914   1.3552   1.3588   1.3726
     1.3935   1.5486   1.5515   2.1334   2.1394   2.5998   2.6061   2.8007
     2.8029   2.9359   2.9399   3.2980   3.3058   3.4568   3.4611   3.5644
     3.5739   3.6147   3.6157   3.7921   3.7986   3.9141   3.9170   3.9357
     3.9602   4.0064   4.0504   4.0685   4.0721   4.2954   4.5005   4.5474
     4.7562   4.7578   4.8597   4.8687   4.8730   5.0486   5.0523   5.1487
     5.1652   5.1704   5.1894   5.3564   5.3974   5.5218   5.5361   5.7698
     5.8523   5.8565   5.9013   5.9223   5.9563   6.0065   6.1043   6.1887
     6.2066   6.2757   6.2982   6.3740   6.3847   6.4110   6.4237   6.5033
     6.5196   6.5553   6.6268   6.6395   6.7621   6.8521   6.8565   6.9331
     6.9455   7.0217   7.0678   7.1653   7.2169   7.2346   7.2402   7.2660
     7.3027   7.3283   7.5128   7.5807   7.6187   7.7007   7.7503   7.8257
     7.8352   7.8513   7.8695   7.9260   8.0085   8.0632   8.1798   8.2343

     occupation numbers 
     1.0000   1.0000   1.0000   1.0000   1.0000   1.0000   1.0000   1.0000
     1.0000   1.0000   1.0000   1.0000   1.0000   1.0000   1.0000   1.0000
     1.0000   1.0000   1.0000   1.0000   1.0000   1.0000   1.0000   1.0000
     1.0000   1.0000   1.0000   1.0000   1.0000   1.0000   1.0000   1.0000
     1.0000   1.0000   1.0000   1.0000   1.0000   1.0000   1.0000   1.0000
     1.0000   1.0000   1.0000   1.0000   1.0000   1.0000   1.0000   1.0000
     1.0000   1.0000   1.0000   1.0000   1.0000   1.0000   1.0000   1.0000
     1.0000   1.0000   1.0000   1.0000   1.0000   1.0000   1.0000   1.0000
     1.0000   1.0000   1.0000   1.0000   1.0000   1.0000   1.0000   1.0000
     1.0000   1.0000   1.0000   1.0000   1.0000   1.0000   1.0000   1.0000
     1.0000   1.0000   1.0000   1.0000   1.0000   1.0000   1.0000   1.0000
     1.0000   1.0000   1.0000   1.0000   1.0000   1.0000   1.0000   1.0000
     1.0000   1.0000   1.0000   1.0000   1.0000   1.0000   1.0000   1.0000
     1.0000   1.0000   1.0000   1.0000   1.0000   1.0000   1.0000   1.0000
     1.0000   1.0000   1.0000   1.0000   1.0000   1.0000   1.0000   1.0000
     1.0000   1.0000   1.0000   1.0000   1.0000   1.0000   1.0000   1.0000
     1.0000   1.0000   1.0000   1.0000   1.0000   1.0000   1.0000   1.0000
     1.0000   1.0000   1.0000   1.0000   1.0000   1.0000   1.0000   1.0000
     1.0000   1.0000   1.0000   1.0000   1.0000   1.0000   1.0000   1.0000
     1.0000   1.0000   1.0000   1.0000   1.0000   1.0000   1.0000   1.0000
     1.0000   1.0000   1.0000   1.0000   1.0000   1.0000   1.0000   1.0000
     1.0000   1.0000   1.0000   1.0000   1.0000   1.0000   1.0000   1.0000
     1.0000   1.0000   1.0000   1.0000   1.0000   1.0000   1.0000   1.0000
     1.0000   1.0000   1.0000   1.0000   1.0000   1.0000   1.0000   1.0000
     1.0000   1.0000   1.0000   1.0000   1.0000   1.0000   1.0000   1.0000
     1.0000   1.0000   1.0000   1.0000   1.0000   1.0000   1.0000   1.0000
     1.0000   1.0000   1.0000   1.0000   1.0000   1.0000   1.0000   1.0000
     1.0000   1.0000   1.0000   1.0000   1.0000   1.0000   1.0000   1.0000
     1.0000   1.0000   1.0000   1.0000   1.0000   1.0000   1.0000   1.0000
     1.0000   1.0000   1.0000   1.0000   1.0000   1.0000   1.0000   1.0000
     1.0000   1.0000   1.0000   1.0000   1.0000   1.0000   1.0000   1.0000
     1.0000   1.0000   1.0000   1.0000   1.0000   1.0000   1.0000   1.0000
     1.0000   1.0000   1.0000   1.0000   1.0000   1.0000   1.0000   1.0000
     1.0000   1.0000   1.0000   1.0000   1.0000   1.0000   1.0000   1.0000
     1.0000   1.0000   1.0000   1.0000   1.0000   1.0000   1.0000   1.0000
     1.0000   1.0000   1.0000   1.0000   1.0000   1.0000   1.0000   1.0000
     1.0000   1.0000   1.0000   1.0000   1.0000   1.0000   1.0000   1.0000
     1.0000   1.0000   1.0000   1.0000   1.0000   1.0000   1.0000   1.0000
     1.0000   1.0000   1.0000   1.0000   1.0000   1.0000   1.0000   1.0000
     1.0000   1.0000   1.0000   1.0000   1.0000   1.0000   1.0000   1.0000
     1.0000   1.0000   1.0000   1.0000   1.0000   1.0000   1.0000   1.0000
     1.0000   1.0000   1.0000   1.0000   1.0000   1.0000   1.0000   1.0000
     1.0000   1.0000   1.0000   1.0000   1.0000   1.0000   1.0000   1.0000
     1.0000   1.0000   1.0000   1.0000   1.0000   1.0000   1.0000   1.0000
     1.0000   1.0000   1.0000   1.0000   1.0000   1.0000   1.0000   1.0000
     1.0000   1.0000   1.0000   1.0000   1.0000   1.0000   1.0000   1.0000
     1.0000   1.0000   1.0000   1.0000   1.0000   1.0000   1.0000   1.0000
     1.0000   1.0000   1.0000   1.0000   1.0000   1.0000   1.0000   1.0000
     1.0000   1.0000   1.0000   1.0000   1.0000   1.0000   1.0000   1.0000
     1.0000   1.0000   1.0000   1.0000   1.0000   1.0000   1.0000   1.0000
     1.0000   1.0000   1.0000   1.0000   1.0000   1.0000   1.0000   1.0000
     1.0000   1.0000   1.0000   1.0000   1.0000   1.0000   1.0000   1.0000
     1.0000   1.0000   1.0000   1.0000   1.0000   1.0000   1.0000   1.0000
     1.0000   1.0000   1.0000   1.0000   1.0000   1.0000   1.0000   1.0000
     1.0000   1.0000   1.0000   1.0000   1.0000   1.0000   1.0000   1.0000
     1.0000   1.0000   1.0000   1.0000   1.0000   1.0000   1.0000   1.0000
     1.0000   1.0000   1.0000   1.0000   1.0000   1.0000   1.0000   1.0000
     1.0000   1.0000   1.0000   1.0000   1.0000   1.0000   1.0000   1.0000
     1.0000   1.0000   1.0000   1.0000   1.0000   1.0000   1.0000   1.0000
     1.0000   1.0000   1.0000   1.0000   1.0000   1.0000   1.0000   1.0000
     1.0000   1.0000   1.0000   1.0000   1.0000   1.0000   1.0000   1.0000
     1.0000   1.0000   1.0036   1.0042   1.0432   1.0701   1.0708   0.7957
     0.7885   0.5682   0.5339   0.2805   0.1288   0.0187   0.0178   0.0146
     0.0108   0.0008   0.0007   0.0000   0.0000   0.0000   0.0000   0.0000
     0.0000   0.0000   0.0000   0.0000   0.0000   0.0000   0.0000   0.0000
     0.0000   0.0000   0.0000   0.0000   0.0000   0.0000   0.0000   0.0000
     0.0000   0.0000   0.0000   0.0000   0.0000   0.0000   0.0000   0.0000
     0.0000   0.0000   0.0000   0.0000   0.0000   0.0000   0.0000   0.0000
     0.0000   0.0000   0.0000   0.0000   0.0000   0.0000   0.0000   0.0000
     0.0000   0.0000   0.0000   0.0000   0.0000   0.0000   0.0000   0.0000
     0.0000   0.0000   0.0000   0.0000   0.0000   0.0000   0.0000   0.0000
     0.0000   0.0000   0.0000   0.0000   0.0000   0.0000   0.0000   0.0000
     0.0000   0.0000   0.0000   0.0000   0.0000   0.0000   0.0000   0.0000
     0.0000   0.0000   0.0000   0.0000   0.0000   0.0000   0.0000   0.0000
     0.0000   0.0000   0.0000   0.0000   0.0000   0.0000   0.0000   0.0000

          k =-0.5000-0.1216-1.1076 ( 71976 PWs)   bands (ev):

  -125.4328-125.4321-125.4317-125.4309-125.4283-125.4268-125.4267-125.4252
  -125.3415-125.3406-125.3395-125.3386-125.3362-125.3353-125.3353-125.3345
  -125.2315-125.2314-125.2305-125.2303-125.2298-125.2290-125.2284-125.2275
  -125.1456-125.1443-125.1441-125.1430-125.1428-125.1419-125.1415-125.1406
  -125.0586-125.0577-125.0551-125.0540-125.0535-125.0526-125.0505-125.0487
  -124.9808-124.9631-124.9613-124.9604-124.9599-124.9589-124.9583-124.9551
   -79.5988 -79.5937 -79.5867 -79.5863 -79.5840 -79.5830 -79.5826 -79.5816
   -79.5812 -79.5812 -79.5805 -79.5799 -79.5795 -79.5791 -79.5783 -79.5783
   -79.5782 -79.5766 -79.5758 -79.5742 -79.5740 -79.5739 -79.5723 -79.5686
   -79.5085 -79.5040 -79.4963 -79.4960 -79.4954 -79.4943 -79.4932 -79.4922
   -79.4918 -79.4917 -79.4896 -79.4885 -79.4885 -79.4875 -79.4856 -79.4846
   -79.4837 -79.4836 -79.4827 -79.4807 -79.4797 -79.4797 -79.4793 -79.4787
   -79.3953 -79.3952 -79.3867 -79.3862 -79.3856 -79.3853 -79.3850 -79.3844
   -79.3833 -79.3830 -79.3829 -79.3827 -79.3827 -79.3823 -79.3800 -79.3799
   -79.3790 -79.3788 -79.3785 -79.3776 -79.3769 -79.3760 -79.3705 -79.3704
   -79.3094 -79.3068 -79.3034 -79.3020 -79.3018 -79.3007 -79.3006 -79.2997
   -79.2992 -79.2982 -79.2972 -79.2970 -79.2965 -79.2951 -79.2949 -79.2945
   -79.2945 -79.2938 -79.2938 -79.2927 -79.2925 -79.2915 -79.2847 -79.2822
   -79.2260 -79.2251 -79.2232 -79.2221 -79.2204 -79.2194 -79.2184 -79.2166
   -79.2166 -79.2124 -79.2064 -79.2054 -79.2043 -79.2034 -79.2028 -79.2017
   -79.2014 -79.2004 -79.2001 -79.1991 -79.1983 -79.1965 -79.1911 -79.1868
   -79.1566 -79.1364 -79.1354 -79.1344 -79.1340 -79.1330 -79.1316 -79.1299
   -79.1285 -79.1203 -79.1135 -79.1123 -79.1113 -79.1109 -79.1107 -79.1098
   -79.1093 -79.1064 -79.1026 -79.0984 -79.0982 -79.0980 -79.0860 -79.0858
   -18.2295 -15.7197 -13.5303 -12.5655 -11.1213  -9.7255  -8.9427  -8.1461
    -8.1288  -7.9101  -7.1562  -7.1557  -7.1551  -7.1471  -7.0641  -7.0632
    -6.9990  -6.9854  -6.9815  -6.9404  -6.9328  -6.9202  -6.9196  -6.9093
    -6.9089  -6.8587  -6.8567  -6.8372  -6.8326  -6.7979  -6.7918  -6.7640
    -6.7609  -6.7608  -6.7590  -6.7479  -6.7477  -6.7363  -6.7337  -6.7106
    -6.7104  -6.7076  -6.7075  -6.6870  -6.6869  -6.6730  -6.6728  -6.6567
    -6.6564  -6.6421  -6.6393  -6.6392  -6.6386  -6.6357  -6.6355  -6.6099
    -6.6097  -6.5812  -6.5811  -6.5742  -6.5708  -6.5574  -6.5574  -6.5441
    -6.5439  -6.5281  -6.5202  -6.5102  -6.5045  -6.4603  -6.4602  -6.4410
    -6.4390  -6.4294  -6.4293  -6.4128  -6.4116  -6.4100  -6.4058  -6.3941
    -6.3937  -6.3798  -6.3767  -6.3758  -6.3756  -6.3513  -6.3512  -6.3500
    -6.3500  -6.3381  -6.3366  -6.3195  -6.3143  -6.3092  -6.3090  -6.2985
    -6.2984  -6.2908  -6.2890  -6.2664  -6.2658  -6.2509  -6.2506  -6.2396
    -6.2395  -6.2257  -6.2197  -6.2153  -6.2144  -6.2142  -6.2132  -6.2111
    -6.2108  -6.2093  -6.2070  -6.1744  -6.1740  -6.1729  -6.1654  -6.1650
    -6.1647  -6.1314  -6.1313  -6.1184  -6.1182  -6.1169  -6.1133  -6.1095
    -6.1094  -6.0995  -6.0992  -6.0896  -6.0890  -6.0716  -6.0716  -6.0655
    -6.0624  -6.0589  -6.0587  -6.0499  -6.0440  -6.0303  -6.0299  -6.0292
    -6.0291  -6.0145  -6.0136  -6.0045  -6.0028  -5.9849  -5.9849  -5.9831
    -5.9828  -5.9739  -5.9736  -5.9664  -5.9661  -5.9656  -5.9651  -5.9624
    -5.9611  -5.9520  -5.9506  -5.9380  -5.9379  -5.9252  -5.9251  -5.9242
    -5.9239  -5.9010  -5.9007  -5.8912  -5.8911  -5.8762  -5.8750  -5.8741
    -5.8734  -5.8699  -5.8692  -5.8607  -5.8588  -5.8571  -5.8568  -5.8489
    -5.8463  -5.8366  -5.8345  -5.8337  -5.8326  -5.8193  -5.8163  -5.8154
    -5.8141  -5.8085  -5.8081  -5.8028  -5.8022  -5.7930  -5.7908  -5.7805
    -5.7803  -5.7773  -5.7754  -5.7667  -5.7657  -5.7591  -5.7582  -5.7577
    -5.7561  -5.7448  -5.7429  -5.7353  -5.7325  -5.7310  -5.7304  -5.7282
    -5.7274  -5.7225  -5.7222  -5.7118  -5.7103  -5.7027  -5.7010  -5.7005
    -5.6990  -5.6971  -5.6951  -5.6917  -5.6898  -5.6779  -5.6769  -5.6755
    -5.6717  -5.6531  -5.6505  -5.6488  -5.6362  -5.6352  -5.6296  -5.6269
    -5.6025  -5.6022  -5.5811  -5.5796  -5.5794  -5.5762  -5.5479  -5.5441
    -5.4913  -5.4831  -5.4812  -5.4546  -5.4531  -5.3994  -5.3976  -5.3795
    -5.3792  -5.3589  -5.3439  -4.9954  -4.6806  -4.6688  -4.4998  -4.4435
    -4.4435  -4.1939  -4.1936  -3.9847  -3.8005  -3.8001  -3.3359  -3.0149
    -3.0137  -2.6189  -2.4104  -2.4101  -2.3969  -2.3554  -2.2365  -2.2363
    -2.0798  -2.0777  -1.6066  -1.6049  -1.0653  -1.0650  -0.8923  -0.8901
    -0.7777  -0.6920  -0.6912  -0.4552  -0.3892  -0.3803  -0.2776  -0.2768
    -0.1373  -0.1226   0.3843   0.3858   0.3923   0.4282   0.5150   0.7504
     0.7558   0.7600   0.7605   0.8609   0.8951   1.0991   1.1979   1.2226
     1.2289   1.7312   1.7397   2.2924   2.3022   2.4311   2.4322   2.6182
     2.6259   2.6424   2.6547   2.8570   2.8593   3.3377   3.3617   3.3745
     3.4112   3.4124   3.4449   3.5519   3.5561   3.7344   3.7385   3.8968
     3.9264   4.1534   4.1552   4.3047   4.5780   4.5990   4.7039   4.7142
     4.8133   4.8357   4.8864   5.1369   5.2055   5.2076   5.2461   5.3882
     5.4121   5.4402   5.4591   5.4828   5.5196   5.5876   5.7058   5.7140
     5.7222   5.7441   5.7470   5.8696   5.8724   5.9822   5.9883   6.1611
     6.1836   6.3347   6.3805   6.3938   6.4137   6.5044   6.5471   6.7129
     6.8151   6.8719   6.9328   6.9391   6.9656   7.0609   7.0973   7.1211
     7.1324   7.1617   7.2348   7.2615   7.2638   7.3839   7.4637   7.5554
     7.6194   7.6328   7.6390   7.6794   7.7053   7.7152   7.7510   7.7662
     7.7954   7.8169   7.8366   7.8505   7.9270   8.0202   8.0448   8.1249

     occupation numbers 
     1.0000   1.0000   1.0000   1.0000   1.0000   1.0000   1.0000   1.0000
     1.0000   1.0000   1.0000   1.0000   1.0000   1.0000   1.0000   1.0000
     1.0000   1.0000   1.0000   1.0000   1.0000   1.0000   1.0000   1.0000
     1.0000   1.0000   1.0000   1.0000   1.0000   1.0000   1.0000   1.0000
     1.0000   1.0000   1.0000   1.0000   1.0000   1.0000   1.0000   1.0000
     1.0000   1.0000   1.0000   1.0000   1.0000   1.0000   1.0000   1.0000
     1.0000   1.0000   1.0000   1.0000   1.0000   1.0000   1.0000   1.0000
     1.0000   1.0000   1.0000   1.0000   1.0000   1.0000   1.0000   1.0000
     1.0000   1.0000   1.0000   1.0000   1.0000   1.0000   1.0000   1.0000
     1.0000   1.0000   1.0000   1.0000   1.0000   1.0000   1.0000   1.0000
     1.0000   1.0000   1.0000   1.0000   1.0000   1.0000   1.0000   1.0000
     1.0000   1.0000   1.0000   1.0000   1.0000   1.0000   1.0000   1.0000
     1.0000   1.0000   1.0000   1.0000   1.0000   1.0000   1.0000   1.0000
     1.0000   1.0000   1.0000   1.0000   1.0000   1.0000   1.0000   1.0000
     1.0000   1.0000   1.0000   1.0000   1.0000   1.0000   1.0000   1.0000
     1.0000   1.0000   1.0000   1.0000   1.0000   1.0000   1.0000   1.0000
     1.0000   1.0000   1.0000   1.0000   1.0000   1.0000   1.0000   1.0000
     1.0000   1.0000   1.0000   1.0000   1.0000   1.0000   1.0000   1.0000
     1.0000   1.0000   1.0000   1.0000   1.0000   1.0000   1.0000   1.0000
     1.0000   1.0000   1.0000   1.0000   1.0000   1.0000   1.0000   1.0000
     1.0000   1.0000   1.0000   1.0000   1.0000   1.0000   1.0000   1.0000
     1.0000   1.0000   1.0000   1.0000   1.0000   1.0000   1.0000   1.0000
     1.0000   1.0000   1.0000   1.0000   1.0000   1.0000   1.0000   1.0000
     1.0000   1.0000   1.0000   1.0000   1.0000   1.0000   1.0000   1.0000
     1.0000   1.0000   1.0000   1.0000   1.0000   1.0000   1.0000   1.0000
     1.0000   1.0000   1.0000   1.0000   1.0000   1.0000   1.0000   1.0000
     1.0000   1.0000   1.0000   1.0000   1.0000   1.0000   1.0000   1.0000
     1.0000   1.0000   1.0000   1.0000   1.0000   1.0000   1.0000   1.0000
     1.0000   1.0000   1.0000   1.0000   1.0000   1.0000   1.0000   1.0000
     1.0000   1.0000   1.0000   1.0000   1.0000   1.0000   1.0000   1.0000
     1.0000   1.0000   1.0000   1.0000   1.0000   1.0000   1.0000   1.0000
     1.0000   1.0000   1.0000   1.0000   1.0000   1.0000   1.0000   1.0000
     1.0000   1.0000   1.0000   1.0000   1.0000   1.0000   1.0000   1.0000
     1.0000   1.0000   1.0000   1.0000   1.0000   1.0000   1.0000   1.0000
     1.0000   1.0000   1.0000   1.0000   1.0000   1.0000   1.0000   1.0000
     1.0000   1.0000   1.0000   1.0000   1.0000   1.0000   1.0000   1.0000
     1.0000   1.0000   1.0000   1.0000   1.0000   1.0000   1.0000   1.0000
     1.0000   1.0000   1.0000   1.0000   1.0000   1.0000   1.0000   1.0000
     1.0000   1.0000   1.0000   1.0000   1.0000   1.0000   1.0000   1.0000
     1.0000   1.0000   1.0000   1.0000   1.0000   1.0000   1.0000   1.0000
     1.0000   1.0000   1.0000   1.0000   1.0000   1.0000   1.0000   1.0000
     1.0000   1.0000   1.0000   1.0000   1.0000   1.0000   1.0000   1.0000
     1.0000   1.0000   1.0000   1.0000   1.0000   1.0000   1.0000   1.0000
     1.0000   1.0000   1.0000   1.0000   1.0000   1.0000   1.0000   1.0000
     1.0000   1.0000   1.0000   1.0000   1.0000   1.0000   1.0000   1.0000
     1.0000   1.0000   1.0000   1.0000   1.0000   1.0000   1.0000   1.0000
     1.0000   1.0000   1.0000   1.0000   1.0000   1.0000   1.0000   1.0000
     1.0000   1.0000   1.0000   1.0000   1.0000   1.0000   1.0000   1.0000
     1.0000   1.0000   1.0000   1.0000   1.0000   1.0000   1.0000   1.0000
     1.0000   1.0000   1.0000   1.0000   1.0000   1.0000   1.0000   1.0000
     1.0000   1.0000   1.0000   1.0000   1.0000   1.0000   1.0000   1.0000
     1.0000   1.0000   1.0000   1.0000   1.0000   1.0000   1.0000   1.0000
     1.0000   1.0000   1.0000   1.0000   1.0000   1.0000   1.0000   1.0000
     1.0000   1.0000   1.0000   1.0000   1.0000   1.0000   1.0000   1.0000
     1.0000   1.0000   1.0000   1.0000   1.0000   1.0000   1.0000   1.0000
     1.0000   1.0000   1.0000   1.0000   1.0000   1.0000   1.0000   1.0000
     1.0000   1.0000   1.0000   1.0000   1.0000   1.0000   1.0000   1.0000
     1.0000   1.0000   1.0000   1.0000   1.0000   1.0000   1.0000   1.0000
     1.0000   1.0000   1.0000   1.0000   1.0000   1.0000   1.0000   1.0000
     1.0000   1.0000   1.0000   1.0000   1.0000   1.0000   1.0000   1.0000
     1.0000   1.0000   1.0000   1.0000   1.0000   1.0000   1.0000   1.0000
     1.0000   1.0000   1.0125   1.0128   1.0138   1.0204   1.0445   1.0522
     1.0477   1.0440   1.0435   0.8903   0.8119   0.2843   0.1209   0.0940
     0.0879   0.0000   0.0000   0.0000   0.0000   0.0000   0.0000   0.0000
     0.0000   0.0000   0.0000   0.0000   0.0000   0.0000   0.0000   0.0000
     0.0000   0.0000   0.0000   0.0000   0.0000   0.0000   0.0000   0.0000
     0.0000   0.0000   0.0000   0.0000   0.0000   0.0000   0.0000   0.0000
     0.0000   0.0000   0.0000   0.0000   0.0000   0.0000   0.0000   0.0000
     0.0000   0.0000   0.0000   0.0000   0.0000   0.0000   0.0000   0.0000
     0.0000   0.0000   0.0000   0.0000   0.0000   0.0000   0.0000   0.0000
     0.0000   0.0000   0.0000   0.0000   0.0000   0.0000   0.0000   0.0000
     0.0000   0.0000   0.0000   0.0000   0.0000   0.0000   0.0000   0.0000
     0.0000   0.0000   0.0000   0.0000   0.0000   0.0000   0.0000   0.0000
     0.0000   0.0000   0.0000   0.0000   0.0000   0.0000   0.0000   0.0000
     0.0000   0.0000   0.0000   0.0000   0.0000   0.0000   0.0000   0.0000

          k =-0.5000-0.6659-1.3845 ( 72036 PWs)   bands (ev):

  -125.4326-125.4324-125.4313-125.4311-125.4283-125.4270-125.4265-125.4252
  -125.3415-125.3406-125.3394-125.3387-125.3360-125.3359-125.3348-125.3347
  -125.2315-125.2313-125.2305-125.2305-125.2297-125.2290-125.2284-125.2276
  -125.1456-125.1445-125.1439-125.1430-125.1427-125.1421-125.1413-125.1407
  -125.0586-125.0577-125.0551-125.0540-125.0535-125.0526-125.0505-125.0487
  -124.9808-124.9631-124.9613-124.9606-124.9598-124.9590-124.9583-124.9551
   -79.5953 -79.5952 -79.5906 -79.5894 -79.5839 -79.5834 -79.5823 -79.5817
   -79.5803 -79.5802 -79.5798 -79.5786 -79.5785 -79.5785 -79.5779 -79.5775
   -79.5774 -79.5767 -79.5758 -79.5745 -79.5738 -79.5729 -79.5724 -79.5716
   -79.5055 -79.5041 -79.5005 -79.5003 -79.4954 -79.4945 -79.4932 -79.4923
   -79.4893 -79.4892 -79.4879 -79.4879 -79.4878 -79.4867 -79.4855 -79.4847
   -79.4836 -79.4830 -79.4829 -79.4828 -79.4804 -79.4803 -79.4790 -79.4790
   -79.3926 -79.3921 -79.3910 -79.3905 -79.3866 -79.3862 -79.3859 -79.3851
   -79.3850 -79.3844 -79.3832 -79.3823 -79.3800 -79.3799 -79.3790 -79.3790
   -79.3782 -79.3777 -79.3768 -79.3760 -79.3750 -79.3746 -79.3736 -79.3731
   -79.3063 -79.3053 -79.3035 -79.3034 -79.3029 -79.3023 -79.3016 -79.3007
   -79.3006 -79.2999 -79.2989 -79.2983 -79.2964 -79.2954 -79.2946 -79.2938
   -79.2937 -79.2931 -79.2922 -79.2916 -79.2888 -79.2879 -79.2861 -79.2855
   -79.2260 -79.2251 -79.2232 -79.2221 -79.2204 -79.2194 -79.2184 -79.2166
   -79.2144 -79.2111 -79.2102 -79.2068 -79.2064 -79.2054 -79.2028 -79.2017
   -79.2014 -79.2005 -79.1983 -79.1966 -79.1965 -79.1934 -79.1924 -79.1890
   -79.1566 -79.1364 -79.1353 -79.1347 -79.1338 -79.1330 -79.1316 -79.1299
   -79.1285 -79.1199 -79.1135 -79.1122 -79.1116 -79.1107 -79.1099 -79.1093
   -79.1076 -79.1065 -79.1064 -79.1052 -79.0948 -79.0900 -79.0892 -79.0867
   -18.2295 -15.7198 -13.5303 -12.5655 -11.1213  -9.7255  -8.9426  -7.9230
    -7.9172  -7.9051  -7.6530  -7.6524  -7.0009  -6.9821  -6.9799  -6.9648
    -6.9640  -6.9356  -6.9352  -6.9183  -6.9178  -6.9160  -6.9159  -6.9050
    -6.9046  -6.8786  -6.8782  -6.8612  -6.8604  -6.8308  -6.8305  -6.7951
    -6.7948  -6.7887  -6.7878  -6.7845  -6.7840  -6.7433  -6.7428  -6.7345
    -6.7336  -6.7263  -6.7258  -6.7220  -6.7215  -6.7185  -6.7179  -6.7013
    -6.7012  -6.6441  -6.6438  -6.6345  -6.6336  -6.6145  -6.6139  -6.6103
    -6.6098  -6.5509  -6.5504  -6.5501  -6.5493  -6.5409  -6.5398  -6.4980
    -6.4973  -6.4970  -6.4965  -6.4908  -6.4906  -6.4857  -6.4857  -6.4627
    -6.4622  -6.4388  -6.4384  -6.4362  -6.4357  -6.4146  -6.4144  -6.4082
    -6.4072  -6.3983  -6.3973  -6.3954  -6.3946  -6.3520  -6.3516  -6.3513
    -6.3505  -6.3485  -6.3477  -6.3434  -6.3427  -6.3258  -6.3242  -6.3181
    -6.3170  -6.2965  -6.2956  -6.2829  -6.2820  -6.2721  -6.2713  -6.2686
    -6.2671  -6.2324  -6.2309  -6.2170  -6.2155  -6.2139  -6.2126  -6.2099
    -6.2089  -6.2086  -6.2080  -6.1971  -6.1959  -6.1738  -6.1728  -6.1659
    -6.1652  -6.1467  -6.1457  -6.1450  -6.1440  -6.1273  -6.1269  -6.1137
    -6.1132  -6.1110  -6.1105  -6.1018  -6.1008  -6.0968  -6.0962  -6.0862
    -6.0854  -6.0656  -6.0649  -6.0640  -6.0638  -6.0496  -6.0485  -6.0273
    -6.0266  -6.0139  -6.0134  -5.9952  -5.9945  -5.9923  -5.9917  -5.9787
    -5.9776  -5.9680  -5.9671  -5.9425  -5.9419  -5.9381  -5.9375  -5.9332
    -5.9326  -5.9159  -5.9150  -5.9122  -5.9116  -5.9092  -5.9089  -5.8969
    -5.8966  -5.8945  -5.8937  -5.8867  -5.8866  -5.8740  -5.8734  -5.8622
    -5.8611  -5.8517  -5.8510  -5.8487  -5.8474  -5.8467  -5.8459  -5.8300
    -5.8261  -5.8213  -5.8197  -5.8031  -5.8023  -5.8014  -5.8004  -5.7970
    -5.7964  -5.7954  -5.7933  -5.7785  -5.7757  -5.7751  -5.7741  -5.7623
    -5.7609  -5.7566  -5.7542  -5.7531  -5.7519  -5.7500  -5.7484  -5.7465
    -5.7455  -5.7409  -5.7397  -5.7360  -5.7337  -5.7331  -5.7326  -5.7198
    -5.7189  -5.7111  -5.7098  -5.7052  -5.7031  -5.6924  -5.6919  -5.6898
    -5.6842  -5.6836  -5.6823  -5.6742  -5.6726  -5.6598  -5.6573  -5.6567
    -5.6562  -5.6521  -5.6449  -5.6445  -5.6327  -5.6305  -5.6259  -5.6202
    -5.6154  -5.6134  -5.5965  -5.5949  -5.5774  -5.5746  -5.5672  -5.5650
    -5.5581  -5.5561  -5.5466  -5.5423  -5.4988  -5.4942  -5.4896  -5.1632
    -5.1609  -4.9966  -4.9181  -4.9176  -4.7101  -4.7096  -4.5350  -4.5346
    -4.4996  -3.9847  -3.8156  -3.8151  -3.6839  -3.6833  -3.3360  -3.0253
    -3.0239  -2.9279  -2.9274  -2.8220  -2.8207  -2.6179  -2.5334  -2.5262
    -2.0003  -1.9935  -1.8638  -1.8623  -1.7885  -1.7862  -1.0732  -1.0721
    -0.7779  -0.4543  -0.0857  -0.0816  -0.0215  -0.0178   0.0177   0.0205
     0.0264   0.0275   0.5094   0.7194   0.7362   0.8231   0.8287   0.9345
     0.9485   1.1001   1.1098   1.1168   1.1297   1.1326   1.1833   1.1855
     1.2117   1.7724   1.7757   1.9166   1.9199   2.2734   2.2739   2.2885
     2.2897   2.4764   2.4771   3.0948   3.0969   3.1489   3.1524   3.3102
     3.3240   3.4213   3.4288   3.8484   3.8875   3.8989   3.9098   3.9240
     3.9343   4.1511   4.1675   4.2507   4.2700   4.2968   4.3302   4.3578
     4.4329   4.4454   4.6843   4.6896   4.8748   5.0917   5.1068   5.1366
     5.1519   5.3496   5.4092   5.5425   5.5504   5.6332   5.8087   5.8539
     5.8626   5.9392   5.9648   5.9681   5.9910   5.9935   6.0085   6.1193
     6.1446   6.3065   6.3069   6.3240   6.3665   6.4950   6.5444   6.6423
     6.6563   6.7468   6.7620   6.9080   6.9919   7.0382   7.0596   7.0673
     7.1028   7.1902   7.2911   7.3233   7.3416   7.3441   7.4590   7.5397
     7.6154   7.6458   7.6624   7.7042   7.8144   7.8334   7.8429   7.8894
     7.8995   7.9334   8.0454   8.0823   8.1037   8.1472   8.1508   8.1641

     occupation numbers 
     1.0000   1.0000   1.0000   1.0000   1.0000   1.0000   1.0000   1.0000
     1.0000   1.0000   1.0000   1.0000   1.0000   1.0000   1.0000   1.0000
     1.0000   1.0000   1.0000   1.0000   1.0000   1.0000   1.0000   1.0000
     1.0000   1.0000   1.0000   1.0000   1.0000   1.0000   1.0000   1.0000
     1.0000   1.0000   1.0000   1.0000   1.0000   1.0000   1.0000   1.0000
     1.0000   1.0000   1.0000   1.0000   1.0000   1.0000   1.0000   1.0000
     1.0000   1.0000   1.0000   1.0000   1.0000   1.0000   1.0000   1.0000
     1.0000   1.0000   1.0000   1.0000   1.0000   1.0000   1.0000   1.0000
     1.0000   1.0000   1.0000   1.0000   1.0000   1.0000   1.0000   1.0000
     1.0000   1.0000   1.0000   1.0000   1.0000   1.0000   1.0000   1.0000
     1.0000   1.0000   1.0000   1.0000   1.0000   1.0000   1.0000   1.0000
     1.0000   1.0000   1.0000   1.0000   1.0000   1.0000   1.0000   1.0000
     1.0000   1.0000   1.0000   1.0000   1.0000   1.0000   1.0000   1.0000
     1.0000   1.0000   1.0000   1.0000   1.0000   1.0000   1.0000   1.0000
     1.0000   1.0000   1.0000   1.0000   1.0000   1.0000   1.0000   1.0000
     1.0000   1.0000   1.0000   1.0000   1.0000   1.0000   1.0000   1.0000
     1.0000   1.0000   1.0000   1.0000   1.0000   1.0000   1.0000   1.0000
     1.0000   1.0000   1.0000   1.0000   1.0000   1.0000   1.0000   1.0000
     1.0000   1.0000   1.0000   1.0000   1.0000   1.0000   1.0000   1.0000
     1.0000   1.0000   1.0000   1.0000   1.0000   1.0000   1.0000   1.0000
     1.0000   1.0000   1.0000   1.0000   1.0000   1.0000   1.0000   1.0000
     1.0000   1.0000   1.0000   1.0000   1.0000   1.0000   1.0000   1.0000
     1.0000   1.0000   1.0000   1.0000   1.0000   1.0000   1.0000   1.0000
     1.0000   1.0000   1.0000   1.0000   1.0000   1.0000   1.0000   1.0000
     1.0000   1.0000   1.0000   1.0000   1.0000   1.0000   1.0000   1.0000
     1.0000   1.0000   1.0000   1.0000   1.0000   1.0000   1.0000   1.0000
     1.0000   1.0000   1.0000   1.0000   1.0000   1.0000   1.0000   1.0000
     1.0000   1.0000   1.0000   1.0000   1.0000   1.0000   1.0000   1.0000
     1.0000   1.0000   1.0000   1.0000   1.0000   1.0000   1.0000   1.0000
     1.0000   1.0000   1.0000   1.0000   1.0000   1.0000   1.0000   1.0000
     1.0000   1.0000   1.0000   1.0000   1.0000   1.0000   1.0000   1.0000
     1.0000   1.0000   1.0000   1.0000   1.0000   1.0000   1.0000   1.0000
     1.0000   1.0000   1.0000   1.0000   1.0000   1.0000   1.0000   1.0000
     1.0000   1.0000   1.0000   1.0000   1.0000   1.0000   1.0000   1.0000
     1.0000   1.0000   1.0000   1.0000   1.0000   1.0000   1.0000   1.0000
     1.0000   1.0000   1.0000   1.0000   1.0000   1.0000   1.0000   1.0000
     1.0000   1.0000   1.0000   1.0000   1.0000   1.0000   1.0000   1.0000
     1.0000   1.0000   1.0000   1.0000   1.0000   1.0000   1.0000   1.0000
     1.0000   1.0000   1.0000   1.0000   1.0000   1.0000   1.0000   1.0000
     1.0000   1.0000   1.0000   1.0000   1.0000   1.0000   1.0000   1.0000
     1.0000   1.0000   1.0000   1.0000   1.0000   1.0000   1.0000   1.0000
     1.0000   1.0000   1.0000   1.0000   1.0000   1.0000   1.0000   1.0000
     1.0000   1.0000   1.0000   1.0000   1.0000   1.0000   1.0000   1.0000
     1.0000   1.0000   1.0000   1.0000   1.0000   1.0000   1.0000   1.0000
     1.0000   1.0000   1.0000   1.0000   1.0000   1.0000   1.0000   1.0000
[...]
     atom   49 type  3   force =     0.00000000    0.00000000    0.00000000
     atom   50 type  3   force =     0.00000000    0.00000000    0.00000000
     atom   51 type  3   force =     0.00000000    0.00000000    0.00000000
     atom   52 type  3   force =     0.00000000    0.00000000    0.00000000
     atom   53 type  3   force =     0.00000000    0.00000000    0.00000000
     atom   54 type  3   force =     0.00000000    0.00000000    0.00000000
     atom   55 type  3   force =     0.00000000    0.00000000    0.00000000
     atom   56 type  2   force =     0.00000000    0.00000000    0.00000000
     atom   57 type  4   force =     0.00000000    0.00000000    0.00000000
     atom   58 type  4   force =     0.00000000    0.00000000    0.00000000
     atom   59 type  4   force =     0.00000000    0.00000000    0.00000000
     atom   60 type  4   force =     0.00000000    0.00000000    0.00000000
     atom   61 type  4   force =     0.00000000    0.00000000    0.00000000
     atom   62 type  4   force =     0.00000000    0.00000000    0.00000000
     The SCF correction term to forces
     atom    1 type  1   force =    -0.00000000    0.00000000    0.00000000
     atom    2 type  1   force =    -0.00000000   -0.00000000    0.00000000
     atom    3 type  1   force =     0.00010965    0.00036527   -0.00014929
     atom    4 type  1   force =     0.00010499   -0.00030624   -0.00012894
     atom    5 type  1   force =     0.00002808    0.00014944    0.00001518
     atom    6 type  1   force =     0.00002017   -0.00013727   -0.00017051
     atom    7 type  1   force =    -0.00000000   -0.00000000    0.00000000
     atom    8 type  1   force =    -0.00000000    0.00000000   -0.00000000
     atom    9 type  1   force =     0.00012040    0.00013444   -0.00017114
     atom   10 type  1   force =     0.00009144   -0.00009012   -0.00010279
     atom   11 type  1   force =     0.00001961    0.00022704   -0.00011647
     atom   12 type  1   force =     0.00003369   -0.00021267   -0.00002986
     atom   13 type  1   force =     0.00000000    0.00000000    0.00000000
     atom   14 type  1   force =     0.00000000   -0.00000000    0.00000000
     atom   15 type  1   force =    -0.00014280    0.00029245   -0.00016330
     atom   16 type  1   force =    -0.00013516   -0.00037198   -0.00015206
     atom   17 type  1   force =    -0.00000876    0.00014757   -0.00011364
     atom   18 type  1   force =    -0.00000232   -0.00014391   -0.00028765
     atom   19 type  1   force =     0.00000000   -0.00000000    0.00000000
     atom   20 type  1   force =     0.00000000    0.00000000   -0.00000000
     atom   21 type  1   force =    -0.00011926    0.00010087   -0.00018260
     atom   22 type  1   force =    -0.00013998   -0.00015431   -0.00013363
     atom   23 type  1   force =    -0.00000767    0.00020690   -0.00027007
     atom   24 type  1   force =    -0.00000360   -0.00021569   -0.00013556
     atom   25 type  1   force =    -0.00000000    0.00000000   -0.00000000
     atom   26 type  1   force =    -0.00000000   -0.00000000    0.00000000
     atom   27 type  1   force =    -0.00007078    0.00024640   -0.00010760
     atom   28 type  1   force =    -0.00006669   -0.00027710   -0.00003865
     atom   29 type  1   force =     0.00018509    0.00007895   -0.00006103
     atom   30 type  1   force =     0.00016998    0.00000635   -0.00023027
     atom   31 type  1   force =    -0.00000000    0.00000000    0.00000000
     atom   32 type  1   force =    -0.00000000   -0.00000000   -0.00000000
     atom   33 type  1   force =    -0.00007907    0.00022422   -0.00007568
     atom   34 type  1   force =    -0.00006152   -0.00026699   -0.00007023
     atom   35 type  1   force =     0.00019317    0.00033254   -0.00016286
     atom   36 type  1   force =     0.00017729   -0.00024334   -0.00012881
     atom   37 type  1   force =     0.00000000    0.00000000    0.00000000
     atom   38 type  1   force =     0.00000000   -0.00000000    0.00000000
     atom   39 type  1   force =     0.00013213    0.00027156   -0.00013196
     atom   40 type  1   force =     0.00010069   -0.00023228   -0.00006505
     atom   41 type  1   force =    -0.00016098    0.00000060   -0.00008599
     atom   42 type  1   force =    -0.00017467   -0.00007816   -0.00026018
     atom   43 type  1   force =     0.00000000    0.00000000    0.00000000
     atom   44 type  1   force =     0.00000000   -0.00000000   -0.00000000
     atom   45 type  1   force =     0.00011002    0.00028494   -0.00009719
     atom   46 type  1   force =     0.00012043   -0.00021162   -0.00009929
     atom   47 type  1   force =    -0.00017696    0.00025236   -0.00019109
     atom   48 type  1   force =    -0.00017139   -0.00033853   -0.00016046
     atom   49 type  3   force =    -0.00000093   -0.00001376    0.00001900
     atom   50 type  3   force =    -0.00003159    0.00001453   -0.00000905
     atom   51 type  3   force =     0.00002017    0.00001655   -0.00001512
     atom   52 type  3   force =    -0.00000832    0.00000938   -0.00000689
     atom   53 type  3   force =     0.00000342    0.00001190   -0.00002511
     atom   54 type  3   force =     0.00001909    0.00001761    0.00000591
     atom   55 type  3   force =    -0.00001878    0.00002508    0.00000059
     atom   56 type  2   force =    -0.00000217    0.00002083    0.00000033
     atom   57 type  4   force =     0.00000328    0.00001018    0.00000799
     atom   58 type  4   force =    -0.00000368   -0.00000130   -0.00000307
     atom   59 type  4   force =     0.00000202    0.00000234   -0.00000111
     atom   60 type  4   force =    -0.00000546   -0.00000937    0.00000448
     atom   61 type  4   force =     0.00000053    0.00000102    0.00000187
     atom   62 type  4   force =    -0.00000104    0.00000523    0.00000346

     DFT-D3 dispersion contribution to forces:
     atom    1 type  1   force =    -0.00121139   -0.00029076    0.00223720
     atom    2 type  1   force =    -0.00122855   -0.00029380    0.00219743
     atom    3 type  1   force =     0.00108203    0.00029066    0.00053189
     atom    4 type  1   force =     0.00108569    0.00026888    0.00052062
     atom    5 type  1   force =     0.00025295    0.00058304   -0.00104166
     atom    6 type  1   force =     0.00051529   -0.00040173   -0.00124248
     atom    7 type  1   force =    -0.00121984   -0.00029919    0.00221213
     atom    8 type  1   force =    -0.00122060   -0.00028620    0.00222192
     atom    9 type  1   force =     0.00108846    0.00027598    0.00051655
     atom   10 type  1   force =     0.00109539    0.00028402    0.00053172
     atom   11 type  1   force =     0.00035918   -0.00003871   -0.00065998
     atom   12 type  1   force =     0.00040265    0.00014148   -0.00186820
     atom   13 type  1   force =    -0.00128251   -0.00030544    0.00211018
     atom   14 type  1   force =    -0.00128298   -0.00030643    0.00211621
     atom   15 type  1   force =     0.00104355    0.00029960    0.00046600
     atom   16 type  1   force =     0.00101122    0.00024313    0.00040552
     atom   17 type  1   force =     0.00065711    0.00015974   -0.00206307
     atom   18 type  1   force =     0.00061294    0.00012216   -0.00206407
     atom   19 type  1   force =    -0.00128304   -0.00030531    0.00211387
     atom   20 type  1   force =    -0.00128143   -0.00031065    0.00211090
     atom   21 type  1   force =     0.00104100    0.00023600    0.00044633
     atom   22 type  1   force =     0.00102010    0.00029233    0.00040555
     atom   23 type  1   force =     0.00063016    0.00013018   -0.00205094
     atom   24 type  1   force =     0.00063774    0.00014564   -0.00207739
     atom   25 type  1   force =     0.00055812    0.00014258    0.00260393
     atom   26 type  1   force =     0.00056344    0.00014621    0.00258916
     atom   27 type  1   force =    -0.00082065   -0.00022929   -0.00009496
     atom   28 type  1   force =    -0.00083775   -0.00021464   -0.00010372
     atom   29 type  1   force =    -0.00024505    0.00002603   -0.00301132
     atom   30 type  1   force =    -0.00034382   -0.00019457   -0.00273373
     atom   31 type  1   force =     0.00055978    0.00014260    0.00260345
     atom   32 type  1   force =     0.00056292    0.00013607    0.00259386
     atom   33 type  1   force =    -0.00082009   -0.00022785   -0.00009304
     atom   34 type  1   force =    -0.00084246   -0.00021980   -0.00010619
     atom   35 type  1   force =    -0.00043930   -0.00000109   -0.00266166
     atom   36 type  1   force =    -0.00020896   -0.00008149   -0.00303437
     atom   37 type  1   force =     0.00059320    0.00014832    0.00254563
     atom   38 type  1   force =     0.00059123    0.00014932    0.00255088
     atom   39 type  1   force =    -0.00079931   -0.00021875   -0.00001512
     atom   40 type  1   force =    -0.00078449   -0.00021165   -0.00007569
     atom   41 type  1   force =     0.00011583    0.00010735   -0.00285752
     atom   42 type  1   force =     0.00009688   -0.00002173   -0.00290581
     atom   43 type  1   force =     0.00058986    0.00014941    0.00254818
     atom   44 type  1   force =     0.00059249    0.00014811    0.00255018
     atom   45 type  1   force =    -0.00082410   -0.00023504    0.00009355
     atom   46 type  1   force =    -0.00078504   -0.00020317   -0.00006921
     atom   47 type  1   force =     0.00023743    0.00005252   -0.00268090
     atom   48 type  1   force =     0.00002434    0.00002128   -0.00297562
     atom   49 type  3   force =     0.00002705   -0.00010878   -0.00015843
     atom   50 type  3   force =     0.00012258   -0.00033953    0.00014816
     atom   51 type  3   force =    -0.00008181    0.00028956   -0.00032458
     atom   52 type  3   force =    -0.00006884    0.00021652   -0.00069287
     atom   53 type  3   force =     0.00006905   -0.00024268    0.00007531
     atom   54 type  3   force =    -0.00011317    0.00028028   -0.00010541
     atom   55 type  3   force =     0.00008726   -0.00021122   -0.00019764
     atom   56 type  2   force =     0.00000489    0.00011719   -0.00132195
     atom   57 type  4   force =    -0.00002968    0.00003561    0.00003911
     atom   58 type  4   force =     0.00001451   -0.00009526   -0.00004482
     atom   59 type  4   force =     0.00000184    0.00006933   -0.00006915
     atom   60 type  4   force =     0.00000651   -0.00000404    0.00006211
     atom   61 type  4   force =     0.00006921   -0.00003324   -0.00133983
     atom   62 type  4   force =     0.00003099    0.00008091   -0.00140615

     Total force =     0.050221     Total SCF correction =     0.001678

     DFT-D3 dispersion Force =     0.014932


     Computing stress (Cartesian axis) and pressure


     negative rho (up, down):  3.265E-03 0.000E+00
          total   stress  (Ry/bohr**3)                   (kbar)     P=      -13.73
  -0.00011224   0.00002142   0.00000147          -16.51        3.15        0.22
   0.00002142  -0.00018140  -0.00000004            3.15      -26.68       -0.01
   0.00000147  -0.00000004   0.00001357            0.22       -0.01        2.00

     kinetic stress (kbar)  11667.52     20.97      9.16
                               20.97  11593.66     -5.88
                                9.16     -5.88  11651.67

     local   stress (kbar)-838803.29   3214.92   2918.85
                             3214.92-850680.65    648.53
                             2918.85    648.53 846668.28

     nonloc. stress (kbar)  -1121.01     -4.79     -2.43
                               -4.79  -1102.06      0.58
                               -2.43      0.58  -1133.06

     hartree stress (kbar) 444421.12  -1380.60  -1264.30
                            -1380.60 449539.12   -292.27
                            -1264.30   -292.27-392009.33

     exc-cor stress (kbar)  -5688.18     -1.54     -0.69
                               -1.54  -5683.20      0.11
                               -0.69      0.11  -5689.04

     corecor stress (kbar)    -70.92      0.36      0.04
                                0.36    -71.79     -0.10
                                0.04     -0.10    -72.44

     ewald   stress (kbar) 389584.63  -1846.60  -1660.81
                            -1846.60 396386.31   -351.06
                            -1660.81   -351.06-459410.81

     hubbard stress (kbar)      0.00      0.00      0.00
                                0.00      0.00      0.00
                                0.00      0.00      0.00

     DFT-D   stress (kbar)     -6.39      0.43      0.40
                                0.43     -8.07      0.08
                                0.40      0.08     -3.27

     XDM     stress (kbar)      0.00      0.00      0.00
                                0.00      0.00      0.00
                                0.00      0.00      0.00

     dft-nl  stress (kbar)      0.00      0.00      0.00
                                0.00      0.00      0.00
                                0.00      0.00      0.00

     TS-vdW  stress (kbar)      0.00      0.00      0.00
                                0.00      0.00      0.00
                                0.00      0.00      0.00

     MDB     stress (kbar)      0.00      0.00      0.00
                                0.00      0.00      0.00
                                0.00      0.00      0.00

     3D-RISM stress (kbar)      0.00      0.00      0.00
                                0.00      0.00      0.00
                                0.00      0.00      0.00

     Energy error            =      2.8E-03 Ry
     Gradient error          =      2.1E-02 Ry/Bohr

     number of scf cycles    =  11
     number of bfgs steps    =  10

     energy             old  =  -22310.3940380369 Ry
     energy             new  =  -22310.3967961246 Ry

     CASE: energy            _new < energy            _old

     new trust radius        =       0.0739395394 bohr
     new conv_thr            =       0.0000002119 Ry


ATOMIC_POSITIONS (angstrom)
Zn              -1.0735560000        1.0841420000        1.1977640000    0   0   0
Zn              -2.3094850000        6.1646920000        1.1977640000    0   0   0
Zn              -4.9120238577        0.1516636200        3.6171939599
Zn              -6.1475429248        5.2311135134        3.6164890485
Zn              -8.8927452501       -0.8163233681        5.7674889540
Zn             -10.1217550621        4.2508811453        5.7777689467
Zn              -1.6915200000        3.6244170000        1.1977640000    0   0   0
Zn              -2.9274500000        8.7049670000        1.1977640000    0   0   0
Zn              -5.5280863273        2.6913253307        3.6149156323
Zn              -6.7657346631        7.7719016223        3.6180045236
Zn              -9.5128556161        1.7157792738        5.7150605611
Zn             -10.7385626496        6.8018273465        5.7588231680
Zn               4.4565960000        1.0841420000        1.1977640000    0   0   0
Zn               3.2206660000        6.1646920000        1.1977640000    0   0   0
Zn               0.6125681340        0.1497302829        3.5724252238
Zn              -0.6197793391        5.2291241959        3.5864200591
Zn              -3.3124006822       -0.8089122552        5.7479682632
Zn              -4.5496020364        4.2690449602        5.7480010349
Zn               3.8386310000        3.6244170000        1.1977640000    0   0   0
Zn               2.6027020000        8.7049670000        1.1977640000    0   0   0
Zn              -0.0062813854        2.6906452748        3.5735633476
Zn              -1.2375996557        7.7728138914        3.5832599148
Zn              -3.9308604452        1.7288581079        5.7484001176
Zn              -5.1668158478        6.8112713261        5.7476340404
Zn               1.6915200000        0.4114910000        0.8555450000    0   0   0
Zn               0.4555910000        5.4920410000        0.8555450000    0   0   0
Zn              -2.3503955497       -0.5765110542        2.9445242987
Zn              -3.5869822591        4.5059729383        2.9426342463
Zn              -6.3757698394       -1.5489635693        5.1372396799
Zn              -7.6057112802        3.5294562932        5.1421104356
Zn               1.0735560000        2.9517660000        0.8555450000    0   0   0
Zn              -0.1623740000        8.0323160000        0.8555450000    0   0   0
Zn              -2.9679564949        1.9641524539        2.9444758236
Zn              -4.2058010461        7.0456879403        2.9423316169
Zn              -6.9889471646        0.9905381736        5.1416789713
Zn              -8.2300811780        6.0675974703        5.1395849060
Zn               7.2216720000        0.4114910000        0.8555450000    0   0   0
Zn               5.9857420000        5.4920410000        0.8555450000    0   0   0
Zn               3.1827557495       -0.5745781488        2.9506766286
Zn               1.9484076823        4.5054626066        2.9442308458
Zn              -0.8008506729       -1.5390543196        5.1532925272
Zn              -2.0385382798        3.5381679362        5.1524547816
Zn               6.6037070000        2.9517660000        0.8555450000    0   0   0
Zn               5.3677780000        8.0323160000        0.8555450000    0   0   0
Zn               2.5643205293        1.9643404448        2.9531881407
Zn               1.3311842640        7.0469610206        2.9393750198
Zn              -1.4168282416        0.9999825481        5.1582938046
Zn              -2.6584702273        6.0796572792        5.1474881330
C               -9.5452600298        1.3211821810       14.6643016314
C               -9.0316577773        0.2560638949       11.2277420950
C               -9.7488367876        2.6304961798       12.5733641293
C               -9.4494518834        1.4902816370       10.5312652402
C               -9.3895946267        1.3691105050       13.3172349078
C               -9.7750076580        2.6688548018       11.2395118413
C               -8.8994635147        0.2693842989       12.5572030134
N               -9.4715444271        1.4569880609        9.2049672479
H              -10.0119532659        2.1286501262       15.2321878822
H               -8.8886354444       -0.6338219398       10.6022024710
H               -9.9439369376        3.5096891521       13.1985003331
H               -9.2226078599        0.4241392175       15.1807640804
H               -9.6559869617        2.3096578671        8.6804933631
H               -9.2690149065        0.6063947799        8.6880333041



     Writing config-only to output data dir ./tmp/Zn101_3layer_ptoluidine_relax.save/ :
     XML data file
     NEW-OLD atomic charge density approx. for the potential

     negative rho (up, down):  3.291E-03 0.000E+00

     total cpu time spent up to now is    89193.4 secs

     Self-consistent Calculation

     iteration #  1     ecut=    40.00 Ry     beta= 0.40
     Davidson diagonalization with overlap

---- Real-time Memory Report at c_bands before calling an iterative solver
           463 MiB given to the printing process from OS
             0 MiB allocation reported by mallinfo(arena+hblkhd)
         17519 MiB available memory on the node where the printing process lives
------------------
     ethr =  1.00E-06,  avg # of iterations =  5.0

     negative rho (up, down):  3.279E-03 0.000E+00

     total cpu time spent up to now is    90240.5 secs

     total energy              =  -22310.39705264 Ry
     estimated scf accuracy    <       0.00362707 Ry

     iteration #  2     ecut=    40.00 Ry     beta= 0.40
     Davidson diagonalization with overlap

---- Real-time Memory Report at c_bands before calling an iterative solver
           463 MiB given to the printing process from OS
             0 MiB allocation reported by mallinfo(arena+hblkhd)
         17424 MiB available memory on the node where the printing process lives
------------------
     c_bands:  1 eigenvalues not converged
