--------------------------------------------------------------------------
By default, for Open MPI 4.0 and later, infiniband ports on a device
are not used by default.  The intent is to use UCX for these devices.
You can override this policy by setting the btl_openib_allow_ib MCA parameter
to true.

  Local host:              psid03
  Local adapter:           mlx5_0
  Local port:              1

--------------------------------------------------------------------------
--------------------------------------------------------------------------
WARNING: There was an error initializing an OpenFabrics device.

  Local host:   psid03
  Local device: mlx5_0
--------------------------------------------------------------------------

     Program PWSCF v.7.3.1 starts on 15Mar2025 at  3: 7:25 

     This program is part of the open-source Quantum ESPRESSO suite
     for quantum simulation of materials; please cite
         "P. Giannozzi et al., J. Phys.:Condens. Matter 21 395502 (2009);
         "P. Giannozzi et al., J. Phys.:Condens. Matter 29 465901 (2017);
         "P. Giannozzi et al., J. Chem. Phys. 152 154105 (2020);
          URL http://www.quantum-espresso.org", 
     in publications or presentations arising from this work. More details at
     http://www.quantum-espresso.org/quote

     Parallel version (MPI), running on    30 processors

     MPI processes distributed on     1 nodes
     122877 MiB available memory on the printing compute node when the environment starts

     Waiting for input...
     Reading input from standard input
Warning: card &CELL ignored
Warning: card   CELL_DOFREE = 'ALL' ignored
Warning: card / ignored

     Current dimensions of program PWSCF are:
     Max number of different atomic species (ntypx) = 10
     Max number of k-points (npk) =  40000
     Max angular momentum in pseudopotentials (lmaxx) =  4
     Found identity + ( -0.0000 -0.5000  0.0000) symmetry
     This is a supercell, fractional translations are disabled

     R & G space division:  proc/nbgrp/npool/nimage =      30
     Subspace diagonalization in iterative solution of the eigenvalue problem:
     one sub-group per band group will be used
     custom distributed-memory algorithm (size of sub-group:  4*  4 procs)


     Parallelization info
     --------------------
     sticks:   dense  smooth     PW     G-vecs:    dense   smooth      PW
     Min          63      63     18                 6221     6221     969
     Max          64      64     19                 6239     6239     982
     Sum        1919    1919    563               187003   187003   29267

     Using Slab Decomposition



     bravais-lattice index     =            0
     lattice parameter (alat)  =      20.9009  a.u.
     unit-cell volume          =    8423.3755 (a.u.)^3
     number of atoms/cell      =           32
     number of atomic types    =            1
     number of electrons       =       640.00
     number of Kohn-Sham states=          384
     kinetic-energy cutoff     =      30.0000  Ry
     charge density cutoff     =     120.0000  Ry
     scf convergence threshold =      7.3E-07
     mixing beta               =       0.7000
     number of iterations used =            8  plain     mixing
     energy convergence thresh.=      1.0E-05
     force convergence thresh. =      5.0E-04
     Exchange-correlation= SLA  PW   PBE  PBE
                           (   1   4   3   4   0   0   0)
     nstep                     =          100


     celldm(1)=  20.900943  celldm(2)=   0.000000  celldm(3)=   0.000000
     celldm(4)=   0.000000  celldm(5)=   0.000000  celldm(6)=   0.000000

     crystal axes: (cart. coord. in units of alat)
               a(1) = (   1.000000   0.000000   0.000000 )  
               a(2) = (  -0.111745   0.459350   0.000000 )  
               a(3) = (  -4.200249  -1.021781   2.008375 )  

     reciprocal axes: (cart. coord. in units 2 pi/alat)
               b(1) = (  1.000000  0.243267  2.215131 )  
               b(2) = ( -0.000000  2.176989  1.107566 )  
               b(3) = (  0.000000 -0.000000  0.497915 )  


     PseudoPot. # 1 for Zn read from file:
     /home/ys/qepseudo/SSSP_1.3.0_PBE_efficiency/Zn_pbe_v1.uspp.F.UPF
     MD5 check sum: df62231357ef9e81f77b2b3087fa5675
     Pseudo is Ultrasoft, Zval = 20.0
     Generated by new atomic code, or converted to UPF format
     Using radial grid of  943 points,  6 beta functions with: 
                l(1) =   0
                l(2) =   0
                l(3) =   1
                l(4) =   1
                l(5) =   2
                l(6) =   2
     Q(r) pseudized with  8 coefficients,  rinner =    1.100   1.100   1.100
                                                       1.100   1.100

     atomic species   valence    mass     pseudopotential
     Zn               20.00    65.38000     Zn( 1.00)

     No symmetry found


                                    s                        frac. trans.

      isym =  1     identity                                     

 cryst.   s( 1) = (     1          0          0      )
                  (     0          1          0      )
                  (     0          0          1      )

 cart.    s( 1) = (  1.0000000  0.0000000  0.0000000 )
                  (  0.0000000  1.0000000  0.0000000 )
                  (  0.0000000  0.0000000  1.0000000 )


   Cartesian axes

     site n.     atom                  positions (alat units)
         1        Zn     tau(   1) = (  -0.0970639   0.0980210   0.1082939  )
         2        Zn     tau(   2) = (  -0.4853192   0.0035714   0.2939406  )
         3        Zn     tau(   3) = (  -0.8735746  -0.0908783   0.4795873  )
         4        Zn     tau(   4) = (  -1.2618300  -0.1853280   0.6652341  )
         5        Zn     tau(   5) = (  -0.1529362   0.3276960   0.1082939  )
         6        Zn     tau(   6) = (  -0.5411916   0.2332464   0.2939406  )
         7        Zn     tau(   7) = (  -0.9294469   0.1387967   0.4795873  )
         8        Zn     tau(   8) = (  -1.3177023   0.0443470   0.6652341  )
         9        Zn     tau(   9) = (   0.4029361   0.0980210   0.1082939  )
        10        Zn     tau(  10) = (   0.0146808   0.0035714   0.2939406  )
        11        Zn     tau(  11) = (  -0.3735746  -0.0908783   0.4795873  )
        12        Zn     tau(  12) = (  -0.7618300  -0.1853280   0.6652341  )
        13        Zn     tau(  13) = (   0.3470638   0.3276960   0.1082939  )
        14        Zn     tau(  14) = (  -0.0411916   0.2332464   0.2939406  )
        15        Zn     tau(  15) = (  -0.4294469   0.1387967   0.4795873  )
        16        Zn     tau(  16) = (  -0.8177023   0.0443470   0.6652341  )
        17        Zn     tau(  17) = (   0.1529362   0.0372043   0.0773528  )
        18        Zn     tau(  18) = (  -0.2353192  -0.0572454   0.2629995  )
        19        Zn     tau(  19) = (  -0.6235746  -0.1516950   0.4486462  )
        20        Zn     tau(  20) = (  -1.0118300  -0.2461447   0.6342929  )
        21        Zn     tau(  21) = (   0.0970639   0.2668793   0.0773528  )
        22        Zn     tau(  22) = (  -0.2911915   0.1724296   0.2629995  )
        23        Zn     tau(  23) = (  -0.6794469   0.0779800   0.4486462  )
        24        Zn     tau(  24) = (  -1.0677023  -0.0164697   0.6342929  )
        25        Zn     tau(  25) = (   0.6529362   0.0372043   0.0773528  )
        26        Zn     tau(  26) = (   0.2646808  -0.0572454   0.2629995  )
        27        Zn     tau(  27) = (  -0.1235746  -0.1516950   0.4486462  )
        28        Zn     tau(  28) = (  -0.5118300  -0.2461447   0.6342929  )
        29        Zn     tau(  29) = (   0.5970639   0.2668793   0.0773528  )
        30        Zn     tau(  30) = (   0.2088085   0.1724296   0.2629995  )
        31        Zn     tau(  31) = (  -0.1794469   0.0779800   0.4486462  )
        32        Zn     tau(  32) = (  -0.5677023  -0.0164697   0.6342929  )

   Crystallographic axes

     site n.     atom                  positions (cryst. coord.)
         1        Zn     tau(   1) = (  0.1666667  0.3333333  0.0539212  )
         2        Zn     tau(   2) = (  0.1666667  0.3333333  0.1463574  )
         3        Zn     tau(   3) = (  0.1666667  0.3333333  0.2387937  )
         4        Zn     tau(   4) = (  0.1666667  0.3333333  0.3312300  )
         5        Zn     tau(   5) = (  0.1666667  0.8333333  0.0539212  )
         6        Zn     tau(   6) = (  0.1666667  0.8333333  0.1463574  )
         7        Zn     tau(   7) = (  0.1666667  0.8333333  0.2387937  )
         8        Zn     tau(   8) = (  0.1666667  0.8333333  0.3312300  )
         9        Zn     tau(   9) = (  0.6666667  0.3333333  0.0539212  )
        10        Zn     tau(  10) = (  0.6666667  0.3333333  0.1463574  )
        11        Zn     tau(  11) = (  0.6666667  0.3333333  0.2387937  )
        12        Zn     tau(  12) = (  0.6666667  0.3333333  0.3312300  )
        13        Zn     tau(  13) = (  0.6666667  0.8333333  0.0539212  )
        14        Zn     tau(  14) = (  0.6666667  0.8333333  0.1463574  )
        15        Zn     tau(  15) = (  0.6666667  0.8333333  0.2387937  )
        16        Zn     tau(  16) = (  0.6666667  0.8333333  0.3312300  )
        17        Zn     tau(  17) = (  0.3333333  0.1666667  0.0385151  )
        18        Zn     tau(  18) = (  0.3333333  0.1666667  0.1309514  )
        19        Zn     tau(  19) = (  0.3333333  0.1666667  0.2233877  )
        20        Zn     tau(  20) = (  0.3333333  0.1666667  0.3158240  )
        21        Zn     tau(  21) = (  0.3333333  0.6666667  0.0385151  )
        22        Zn     tau(  22) = (  0.3333333  0.6666667  0.1309514  )
        23        Zn     tau(  23) = (  0.3333333  0.6666667  0.2233877  )
        24        Zn     tau(  24) = (  0.3333333  0.6666667  0.3158240  )
        25        Zn     tau(  25) = (  0.8333333  0.1666667  0.0385151  )
        26        Zn     tau(  26) = (  0.8333333  0.1666667  0.1309514  )
        27        Zn     tau(  27) = (  0.8333333  0.1666667  0.2233877  )
        28        Zn     tau(  28) = (  0.8333333  0.1666667  0.3158240  )
        29        Zn     tau(  29) = (  0.8333333  0.6666667  0.0385151  )
        30        Zn     tau(  30) = (  0.8333333  0.6666667  0.1309514  )
        31        Zn     tau(  31) = (  0.8333333  0.6666667  0.2233877  )
        32        Zn     tau(  32) = (  0.8333333  0.6666667  0.3158240  )

     number of k points=     5  Marzari-Vanderbilt smearing, width (Ry)=  0.0200
                       cart. coord. in units 2pi/alat
        k(    1) = (   0.0000000   0.0000000   0.0000000), wk =   0.2222222
        k(    2) = (   0.0000000   0.7256631   0.3691885), wk =   0.4444444
        k(    3) = (   0.3333333   0.0810890   0.7383771), wk =   0.4444444
        k(    4) = (   0.3333333   0.8067520   1.1075656), wk =   0.4444444
        k(    5) = (   0.3333333  -0.6445741   0.3691886), wk =   0.4444444

                       cryst. coord.
        k(    1) = (   0.0000000   0.0000000   0.0000000), wk =   0.2222222
        k(    2) = (   0.0000000   0.3333333  -0.0000000), wk =   0.4444444
        k(    3) = (   0.3333333   0.0000000   0.0000000), wk =   0.4444444
        k(    4) = (   0.3333333   0.3333333   0.0000000), wk =   0.4444444
        k(    5) = (   0.3333333  -0.3333333   0.0000000), wk =   0.4444444

     Dense  grid:   187003 G-vectors     FFT dimensions: (  75,  36, 360)

     Dynamical RAM for                 wfc:       4.56 MB

     Dynamical RAM for     wfc (w. buffer):      27.39 MB

     Dynamical RAM for           str. fact:       0.10 MB

     Dynamical RAM for           local pot:       0.00 MB

     Dynamical RAM for          nlocal pot:       6.85 MB

     Dynamical RAM for                qrad:       0.88 MB

     Dynamical RAM for          rho,v,vnew:       1.03 MB

     Dynamical RAM for               rhoin:       0.34 MB

     Dynamical RAM for            rho*nmix:       1.52 MB

     Dynamical RAM for           G-vectors:       0.40 MB

     Dynamical RAM for          h,s,v(r/c):       1.69 MB

     Dynamical RAM for          <psi|beta>:       3.38 MB

     Dynamical RAM for                 psi:       9.13 MB

     Dynamical RAM for                hpsi:       9.13 MB

     Dynamical RAM for                spsi:       9.13 MB

     Dynamical RAM for      wfcinit/wfcrot:      13.85 MB

     Dynamical RAM for           addusdens:      20.74 MB

     Dynamical RAM for          addusforce:      26.81 MB

     Dynamical RAM for         addusstress:      19.12 MB

     Estimated static dynamical RAM per process >      38.41 MB

     Estimated max dynamical RAM per process >      72.38 MB

     Estimated total dynamical RAM >       2.12 GB

     Initial potential from superposition of free atoms

     starting charge     639.9955, renormalised to     640.0000

     negative rho (up, down):  9.016E-04 0.000E+00
     Starting wfcs are  416 randomized atomic wfcs
[psid03:136367] 29 more processes have sent help message help-mpi-btl-openib.txt / ib port not selected
[psid03:136367] Set MCA parameter "orte_base_help_aggregate" to 0 to see all help / error messages
[psid03:136367] 29 more processes have sent help message help-mpi-btl-openib.txt / error in device init

     total cpu time spent up to now is       10.0 secs

     Self-consistent Calculation

     iteration #  1     ecut=    30.00 Ry     beta= 0.70
     Davidson diagonalization with overlap

---- Real-time Memory Report at c_bands before calling an iterative solver
            80 MiB given to the printing process from OS
             0 MiB allocation reported by mallinfo(arena+hblkhd)
        121038 MiB available memory on the node where the printing process lives
------------------
     ethr =  1.00E-02,  avg # of iterations =  8.0

     Threshold (ethr) on eigenvalues was too large:
     Diagonalizing with lowered threshold

     Davidson diagonalization with overlap

---- Real-time Memory Report at c_bands before calling an iterative solver
           103 MiB given to the printing process from OS
             0 MiB allocation reported by mallinfo(arena+hblkhd)
        120656 MiB available memory on the node where the printing process lives
------------------
     ethr =  1.93E-04,  avg # of iterations =  6.4

     negative rho (up, down):  3.160E-03 0.000E+00

     total cpu time spent up to now is       82.3 secs

     total energy              =  -14766.74441352 Ry
     estimated scf accuracy    <       1.33083180 Ry

     iteration #  2     ecut=    30.00 Ry     beta= 0.70
     Davidson diagonalization with overlap

---- Real-time Memory Report at c_bands before calling an iterative solver
           103 MiB given to the printing process from OS
             0 MiB allocation reported by mallinfo(arena+hblkhd)
        120631 MiB available memory on the node where the printing process lives
------------------
     ethr =  2.08E-04,  avg # of iterations =  3.0

     negative rho (up, down):  3.909E-03 0.000E+00

     total cpu time spent up to now is      126.4 secs

     total energy              =  -14767.05111386 Ry
     estimated scf accuracy    <       2.23638374 Ry

     iteration #  3     ecut=    30.00 Ry     beta= 0.70
     Davidson diagonalization with overlap

---- Real-time Memory Report at c_bands before calling an iterative solver
           107 MiB given to the printing process from OS
             0 MiB allocation reported by mallinfo(arena+hblkhd)
        120687 MiB available memory on the node where the printing process lives
------------------
     ethr =  2.08E-04,  avg # of iterations =  3.0

     negative rho (up, down):  4.156E-03 0.000E+00

     total cpu time spent up to now is      164.5 secs

     total energy              =  -14767.40915334 Ry
     estimated scf accuracy    <       0.19805502 Ry

     iteration #  4     ecut=    30.00 Ry     beta= 0.70
     Davidson diagonalization with overlap

---- Real-time Memory Report at c_bands before calling an iterative solver
           107 MiB given to the printing process from OS
             0 MiB allocation reported by mallinfo(arena+hblkhd)
        120685 MiB available memory on the node where the printing process lives
------------------
     ethr =  3.09E-05,  avg # of iterations =  5.8

     negative rho (up, down):  5.108E-03 0.000E+00

     total cpu time spent up to now is      199.7 secs

     total energy              =  -14767.44513200 Ry
     estimated scf accuracy    <       0.14395967 Ry

     iteration #  5     ecut=    30.00 Ry     beta= 0.70
     Davidson diagonalization with overlap

---- Real-time Memory Report at c_bands before calling an iterative solver
           107 MiB given to the printing process from OS
             0 MiB allocation reported by mallinfo(arena+hblkhd)
        120688 MiB available memory on the node where the printing process lives
------------------
     ethr =  2.25E-05,  avg # of iterations =  3.2

     negative rho (up, down):  5.274E-03 0.000E+00

     total cpu time spent up to now is      232.2 secs

     total energy              =  -14767.45942881 Ry
     estimated scf accuracy    <       0.00313052 Ry

     iteration #  6     ecut=    30.00 Ry     beta= 0.70
     Davidson diagonalization with overlap

---- Real-time Memory Report at c_bands before calling an iterative solver
           107 MiB given to the printing process from OS
             0 MiB allocation reported by mallinfo(arena+hblkhd)
        120685 MiB available memory on the node where the printing process lives
------------------
     ethr =  4.89E-07,  avg # of iterations = 10.4

     negative rho (up, down):  5.290E-03 0.000E+00

     total cpu time spent up to now is      284.1 secs

     total energy              =  -14767.45905361 Ry
     estimated scf accuracy    <       0.01875897 Ry

     iteration #  7     ecut=    30.00 Ry     beta= 0.70
     Davidson diagonalization with overlap

---- Real-time Memory Report at c_bands before calling an iterative solver
           107 MiB given to the printing process from OS
             0 MiB allocation reported by mallinfo(arena+hblkhd)
        120676 MiB available memory on the node where the printing process lives
------------------
     ethr =  4.89E-07,  avg # of iterations =  2.6

     negative rho (up, down):  5.332E-03 0.000E+00

     total cpu time spent up to now is      316.2 secs

     total energy              =  -14767.46000620 Ry
     estimated scf accuracy    <       0.00104212 Ry

     iteration #  8     ecut=    30.00 Ry     beta= 0.70
     Davidson diagonalization with overlap

---- Real-time Memory Report at c_bands before calling an iterative solver
           107 MiB given to the printing process from OS
             0 MiB allocation reported by mallinfo(arena+hblkhd)
        120674 MiB available memory on the node where the printing process lives
------------------
     ethr =  1.63E-07,  avg # of iterations =  2.0

     negative rho (up, down):  5.354E-03 0.000E+00

     total cpu time spent up to now is      347.0 secs

     total energy              =  -14767.46007264 Ry
     estimated scf accuracy    <       0.00004196 Ry

     iteration #  9     ecut=    30.00 Ry     beta= 0.70
     Davidson diagonalization with overlap

---- Real-time Memory Report at c_bands before calling an iterative solver
           107 MiB given to the printing process from OS
             0 MiB allocation reported by mallinfo(arena+hblkhd)
        120671 MiB available memory on the node where the printing process lives
------------------
     ethr =  6.56E-09,  avg # of iterations =  2.0

     negative rho (up, down):  5.356E-03 0.000E+00

     total cpu time spent up to now is      382.9 secs

     total energy              =  -14767.46007605 Ry
     estimated scf accuracy    <       0.00009014 Ry

     iteration # 10     ecut=    30.00 Ry     beta= 0.70
     Davidson diagonalization with overlap

---- Real-time Memory Report at c_bands before calling an iterative solver
           107 MiB given to the printing process from OS
             0 MiB allocation reported by mallinfo(arena+hblkhd)
        120666 MiB available memory on the node where the printing process lives
------------------
     ethr =  6.56E-09,  avg # of iterations =  1.8

     negative rho (up, down):  5.356E-03 0.000E+00

     total cpu time spent up to now is      411.7 secs

     total energy              =  -14767.46008437 Ry
     estimated scf accuracy    <       0.00000222 Ry

     iteration # 11     ecut=    30.00 Ry     beta= 0.70
     Davidson diagonalization with overlap

---- Real-time Memory Report at c_bands before calling an iterative solver
           107 MiB given to the printing process from OS
             0 MiB allocation reported by mallinfo(arena+hblkhd)
        120670 MiB available memory on the node where the printing process lives
------------------
     ethr =  3.46E-10,  avg # of iterations =  2.0

     negative rho (up, down):  5.356E-03 0.000E+00

     total cpu time spent up to now is      445.7 secs

     total energy              =  -14767.46008458 Ry
     estimated scf accuracy    <       0.00000085 Ry

     iteration # 12     ecut=    30.00 Ry     beta= 0.70
     Davidson diagonalization with overlap

---- Real-time Memory Report at c_bands before calling an iterative solver
           107 MiB given to the printing process from OS
             0 MiB allocation reported by mallinfo(arena+hblkhd)
        120669 MiB available memory on the node where the printing process lives
------------------
     ethr =  1.33E-10,  avg # of iterations =  2.0

     negative rho (up, down):  5.355E-03 0.000E+00

     total cpu time spent up to now is      475.4 secs

     End of self-consistent calculation

          k = 0.0000 0.0000 0.0000 ( 23429 PWs)   bands (ev):

  -124.2896-124.2894-124.2884-124.2873-124.2869-124.2868-124.2866-124.2864
  -124.2862-124.2854-124.2853-124.2852-124.2845-124.2845-124.2840-124.2833
  -123.9867-123.9865-123.9860-123.9857-123.9857-123.9855-123.9852-123.9850
  -123.8325-123.8322-123.8315-123.8314-123.8310-123.8308-123.8302-123.8300
   -78.4043 -78.4042 -78.4026 -78.4025 -78.3971 -78.3971 -78.3960 -78.3960
   -78.3870 -78.3852 -78.3848 -78.3827 -78.3786 -78.3778 -78.3727 -78.3722
   -78.3722 -78.3712 -78.3711 -78.3706 -78.3701 -78.3699 -78.3696 -78.3695
   -78.3694 -78.3692 -78.3691 -78.3675 -78.3668 -78.3663 -78.3663 -78.3658
   -78.3657 -78.3655 -78.3653 -78.3649 -78.3637 -78.3637 -78.3637 -78.3634
   -78.3627 -78.3621 -78.3620 -78.3615 -78.3586 -78.3558 -78.3541 -78.3535
   -78.0880 -78.0878 -78.0874 -78.0873 -78.0872 -78.0868 -78.0861 -78.0858
   -78.0857 -78.0855 -78.0842 -78.0841 -78.0728 -78.0708 -78.0670 -78.0668
   -78.0662 -78.0662 -78.0661 -78.0651 -78.0570 -78.0565 -78.0541 -78.0536
   -77.9364 -77.9360 -77.9351 -77.9350 -77.9335 -77.9319 -77.9313 -77.9311
   -77.9258 -77.9246 -77.9244 -77.9232 -77.9231 -77.9231 -77.9195 -77.9194
   -77.9177 -77.9174 -77.9173 -77.9154 -77.8930 -77.8928 -77.8907 -77.8902
    -7.7417  -6.6565  -6.6368  -6.4296  -6.0726  -6.0119  -6.0032  -5.9516
    -5.9002  -5.9002  -5.8909  -5.8909  -5.8832  -5.8831  -5.8737  -5.8180
    -5.8180  -5.7905  -5.7395  -5.7395  -5.7305  -5.7025  -5.6728  -5.6515
    -5.6515  -5.6441  -5.6296  -5.6296  -5.6241  -5.5969  -5.5454  -5.5005
    -5.4719  -5.4623  -5.4622  -5.4265  -5.4094  -5.4094  -5.3864  -5.3817
    -5.3816  -5.3582  -5.3581  -5.3490  -5.3489  -5.3280  -5.3222  -5.3082
    -5.2552  -5.2552  -5.2336  -5.2275  -5.2060  -5.2059  -5.2015  -5.2015
    -5.1864  -5.1569  -5.1541  -5.1376  -5.1314  -5.1305  -5.1186  -5.0951
    -5.0944  -5.0572  -5.0548  -5.0525  -5.0525  -5.0377  -5.0365  -4.9991
    -4.9983  -4.9983  -4.9899  -4.9899  -4.9567  -4.9562  -4.9562  -4.9464
    -4.9106  -4.9021  -4.8587  -4.8458  -4.8278  -4.8277  -4.8198  -4.8197
    -4.8141  -4.8060  -4.7883  -4.7882  -4.7860  -4.7807  -4.7803  -4.7791
    -4.7719  -4.7712  -4.7601  -4.7600  -4.7203  -4.7202  -4.7069  -4.7060
    -4.6870  -4.6870  -4.6842  -4.6829  -4.6661  -4.6464  -4.6464  -4.6405
    -4.6389  -4.6292  -4.6292  -4.6136  -4.6135  -4.5755  -4.5755  -4.5727
    -4.5649  -4.5649  -4.5392  -4.5301  -4.5287  -4.5188  -4.5157  -4.5117
    -4.4964  -4.4964  -4.4941  -4.4808  -4.4799  -4.4663  -4.4662  -4.4472
    -4.4471  -4.4430  -4.4261  -4.4261  -4.4168  -4.4106  -4.4091  -4.4090
    -4.4059  -4.4012  -4.4009  -4.4009  -4.3263  -4.3261  -4.3074  -4.3036
    -4.3034  -4.3030  -4.2820  -4.2759  -4.2601  -4.2573  -4.2480  -4.2397
    -4.1618  -4.1617  -4.1562  -4.1549  -4.1547  -4.0126  -3.4969  -2.3496
    -1.9935  -1.6771  -1.5035  -1.0566  -1.0565  -0.9528  -0.9527  -0.6386
    -0.2862  -0.2767   0.2301   0.2302   0.3099   0.3099   0.5474   0.7474
     0.9976   0.9977   1.4186   1.7632   1.7929   1.7929   2.1498   2.1498
     2.2327   2.5504   2.5504   2.8000   3.2681   3.2682   3.3094   3.5812
     3.5813   4.0361   4.7242   4.7242   5.0679   5.0679   5.1155   5.1175
     5.1824   5.2104   5.2104   5.3697   5.8165   5.8166   6.0419   6.1898
     6.2117   6.3302   6.3302   6.7922   6.7942   6.9843   7.1745   7.3470
     7.6112   7.6112   7.6346   7.6346   7.7480   7.7603   7.7751   7.7751
     7.7837   7.8137   7.8138   7.9988   8.1912   8.4587   8.4588   8.5496
     8.6143   8.6143   9.0794   9.2338   9.2610   9.3679   9.3679   9.4192
     9.6227   9.6259   9.7853  10.0153  10.0153  10.2023  10.6131  10.6131

     occupation numbers 
     1.0000   1.0000   1.0000   1.0000   1.0000   1.0000   1.0000   1.0000
     1.0000   1.0000   1.0000   1.0000   1.0000   1.0000   1.0000   1.0000
     1.0000   1.0000   1.0000   1.0000   1.0000   1.0000   1.0000   1.0000
     1.0000   1.0000   1.0000   1.0000   1.0000   1.0000   1.0000   1.0000
     1.0000   1.0000   1.0000   1.0000   1.0000   1.0000   1.0000   1.0000
     1.0000   1.0000   1.0000   1.0000   1.0000   1.0000   1.0000   1.0000
     1.0000   1.0000   1.0000   1.0000   1.0000   1.0000   1.0000   1.0000
     1.0000   1.0000   1.0000   1.0000   1.0000   1.0000   1.0000   1.0000
     1.0000   1.0000   1.0000   1.0000   1.0000   1.0000   1.0000   1.0000
     1.0000   1.0000   1.0000   1.0000   1.0000   1.0000   1.0000   1.0000
     1.0000   1.0000   1.0000   1.0000   1.0000   1.0000   1.0000   1.0000
     1.0000   1.0000   1.0000   1.0000   1.0000   1.0000   1.0000   1.0000
     1.0000   1.0000   1.0000   1.0000   1.0000   1.0000   1.0000   1.0000
     1.0000   1.0000   1.0000   1.0000   1.0000   1.0000   1.0000   1.0000
     1.0000   1.0000   1.0000   1.0000   1.0000   1.0000   1.0000   1.0000
     1.0000   1.0000   1.0000   1.0000   1.0000   1.0000   1.0000   1.0000
     1.0000   1.0000   1.0000   1.0000   1.0000   1.0000   1.0000   1.0000
     1.0000   1.0000   1.0000   1.0000   1.0000   1.0000   1.0000   1.0000
     1.0000   1.0000   1.0000   1.0000   1.0000   1.0000   1.0000   1.0000
     1.0000   1.0000   1.0000   1.0000   1.0000   1.0000   1.0000   1.0000
     1.0000   1.0000   1.0000   1.0000   1.0000   1.0000   1.0000   1.0000
     1.0000   1.0000   1.0000   1.0000   1.0000   1.0000   1.0000   1.0000
     1.0000   1.0000   1.0000   1.0000   1.0000   1.0000   1.0000   1.0000
     1.0000   1.0000   1.0000   1.0000   1.0000   1.0000   1.0000   1.0000
     1.0000   1.0000   1.0000   1.0000   1.0000   1.0000   1.0000   1.0000
     1.0000   1.0000   1.0000   1.0000   1.0000   1.0000   1.0000   1.0000
     1.0000   1.0000   1.0000   1.0000   1.0000   1.0000   1.0000   1.0000
     1.0000   1.0000   1.0000   1.0000   1.0000   1.0000   1.0000   1.0000
     1.0000   1.0000   1.0000   1.0000   1.0000   1.0000   1.0000   1.0000
     1.0000   1.0000   1.0000   1.0000   1.0000   1.0000   1.0000   1.0000
     1.0000   1.0000   1.0000   1.0000   1.0000   1.0000   1.0000   1.0000
     1.0000   1.0000   1.0000   1.0000   1.0000   1.0000   1.0000   1.0000
     1.0000   1.0000   1.0000   1.0000   1.0000   1.0000   1.0000   1.0000
     1.0000   1.0000   1.0000   1.0000   1.0000   1.0000   1.0000   1.0000
     1.0000   1.0000   1.0000   1.0000   1.0000   1.0000   1.0000   1.0000
     1.0000   1.0000   1.0000   1.0000   1.0000   1.0000   1.0000   1.0000
     1.0000   1.0000   1.0000   1.0000   1.0000   1.0000   1.0000   1.0000
     1.0000   1.0000   1.0000   1.0000   1.0000   1.0000   1.0000   1.0000
     1.0000   1.0000   1.0000   1.0000   1.0000   1.0000   1.0000   1.0000
     1.0000   1.0000   1.0000   1.0046   1.0069   1.0069   1.0802   1.0802
     1.0271   0.2945   0.2944   0.0218   0.0000   0.0000   0.0000   0.0000
     0.0000   0.0000   0.0000   0.0000   0.0000   0.0000   0.0000   0.0000
     0.0000   0.0000   0.0000   0.0000   0.0000   0.0000   0.0000   0.0000
     0.0000   0.0000   0.0000   0.0000   0.0000   0.0000   0.0000   0.0000
     0.0000   0.0000   0.0000   0.0000   0.0000   0.0000   0.0000   0.0000
     0.0000   0.0000   0.0000   0.0000   0.0000   0.0000   0.0000   0.0000
     0.0000   0.0000   0.0000   0.0000   0.0000   0.0000   0.0000   0.0000
     0.0000   0.0000   0.0000   0.0000   0.0000   0.0000   0.0000   0.0000

          k = 0.0000 0.7257 0.3692 ( 23354 PWs)   bands (ev):

  -124.2877-124.2876-124.2872-124.2871-124.2868-124.2863-124.2862-124.2860
  -124.2859-124.2852-124.2850-124.2849-124.2846-124.2842-124.2839-124.2837
  -123.9863-123.9858-123.9855-123.9853-123.9851-123.9850-123.9848-123.9846
  -123.8318-123.8316-123.8312-123.8310-123.8304-123.8301-123.8299-123.8297
   -78.3928 -78.3917 -78.3910 -78.3904 -78.3864 -78.3864 -78.3852 -78.3846
   -78.3842 -78.3837 -78.3835 -78.3819 -78.3788 -78.3783 -78.3753 -78.3753
   -78.3747 -78.3742 -78.3739 -78.3738 -78.3735 -78.3733 -78.3689 -78.3687
   -78.3682 -78.3681 -78.3678 -78.3672 -78.3670 -78.3670 -78.3668 -78.3660
   -78.3658 -78.3646 -78.3634 -78.3634 -78.3633 -78.3622 -78.3620 -78.3620
   -78.3615 -78.3613 -78.3606 -78.3603 -78.3602 -78.3598 -78.3594 -78.3529
   -78.0872 -78.0865 -78.0857 -78.0855 -78.0851 -78.0846 -78.0841 -78.0831
   -78.0758 -78.0753 -78.0742 -78.0738 -78.0708 -78.0701 -78.0685 -78.0666
   -78.0662 -78.0661 -78.0647 -78.0635 -78.0621 -78.0613 -78.0593 -78.0589
   -77.9351 -77.9344 -77.9333 -77.9330 -77.9321 -77.9317 -77.9314 -77.9311
   -77.9237 -77.9217 -77.9206 -77.9194 -77.9182 -77.9173 -77.9166 -77.9158
   -77.9122 -77.9116 -77.9106 -77.9100 -77.8985 -77.8977 -77.8966 -77.8956
    -7.0933  -6.3899  -5.9788  -5.9441  -5.9012  -5.8537  -5.8381  -5.8110
    -5.7881  -5.7792  -5.7595  -5.7590  -5.7529  -5.7435  -5.7192  -5.7183
    -5.6783  -5.6381  -5.6336  -5.6213  -5.5883  -5.5881  -5.5785  -5.5772
    -5.5754  -5.5654  -5.5533  -5.5181  -5.4857  -5.4856  -5.4492  -5.4458
    -5.4398  -5.4271  -5.4047  -5.4026  -5.3993  -5.3779  -5.3763  -5.3551
    -5.3541  -5.3519  -5.3370  -5.3354  -5.3341  -5.3322  -5.2962  -5.2821
    -5.2802  -5.2558  -5.2532  -5.2278  -5.2227  -5.2211  -5.2145  -5.2063
    -5.1966  -5.1896  -5.1655  -5.1643  -5.1419  -5.1123  -5.1099  -5.1035
    -5.0988  -5.0702  -5.0585  -5.0223  -5.0196  -5.0168  -5.0105  -4.9995
    -4.9955  -4.9905  -4.9878  -4.9694  -4.9691  -4.9534  -4.9412  -4.9305
    -4.9170  -4.9112  -4.9097  -4.9091  -4.8946  -4.8897  -4.8771  -4.8702
    -4.8546  -4.8535  -4.8524  -4.8520  -4.8493  -4.8422  -4.8329  -4.8159
    -4.8109  -4.8103  -4.7966  -4.7894  -4.7882  -4.7751  -4.7410  -4.7397
    -4.7320  -4.7295  -4.7258  -4.6983  -4.6942  -4.6896  -4.6680  -4.6678
    -4.6657  -4.6569  -4.6541  -4.6530  -4.6368  -4.6310  -4.6274  -4.6224
    -4.6222  -4.6027  -4.5966  -4.5824  -4.5651  -4.5615  -4.5511  -4.5477
    -4.5442  -4.5307  -4.5268  -4.5244  -4.5168  -4.5097  -4.5021  -4.4992
    -4.4852  -4.4834  -4.4818  -4.4648  -4.4635  -4.4622  -4.4465  -4.4330
    -4.4327  -4.4320  -4.4263  -4.4233  -4.4223  -4.4163  -4.4045  -4.3976
    -4.3949  -4.3925  -4.3804  -4.3779  -4.3710  -4.3536  -4.3531  -4.3487
    -4.3461  -4.3328  -4.2925  -4.0732  -4.0629  -3.8224  -3.7918  -3.0788
    -3.0253  -2.8096  -2.5810  -2.1612  -1.9576  -1.7938  -1.0358  -0.9287
    -0.8313  -0.7917  -0.4890  -0.4642  -0.0698   0.0799   0.5474   0.8560
     1.1903   1.2852   1.7320   1.8115   1.8384   2.2702   2.2976   2.3660
     3.0752   3.2674   3.3021   3.4941   3.6236   4.0063   4.1326   4.2656
     4.4142   4.6025   4.6786   4.6972   5.0649   5.2391   5.2997   5.3557
     5.6676   5.8605   5.8787   6.2750   6.3140   6.3857   6.5402   6.8018
     6.8311   6.9003   7.0003   7.0257   7.1078   7.1488   7.2975   7.4752
     7.6355   7.7758   7.8720   7.9027   7.9624   8.2777   8.2978   8.3289
     8.3654   8.6172   8.6193   8.7171   8.8317   8.8497   9.0680   9.1046
     9.1449   9.1583   9.2284   9.2855   9.4256   9.4656   9.4850   9.6817
     9.8545   9.9142  10.0312  10.0953  10.1267  10.1717  10.1896  10.2291

     occupation numbers 
     1.0000   1.0000   1.0000   1.0000   1.0000   1.0000   1.0000   1.0000
     1.0000   1.0000   1.0000   1.0000   1.0000   1.0000   1.0000   1.0000
     1.0000   1.0000   1.0000   1.0000   1.0000   1.0000   1.0000   1.0000
     1.0000   1.0000   1.0000   1.0000   1.0000   1.0000   1.0000   1.0000
     1.0000   1.0000   1.0000   1.0000   1.0000   1.0000   1.0000   1.0000
     1.0000   1.0000   1.0000   1.0000   1.0000   1.0000   1.0000   1.0000
     1.0000   1.0000   1.0000   1.0000   1.0000   1.0000   1.0000   1.0000
     1.0000   1.0000   1.0000   1.0000   1.0000   1.0000   1.0000   1.0000
     1.0000   1.0000   1.0000   1.0000   1.0000   1.0000   1.0000   1.0000
     1.0000   1.0000   1.0000   1.0000   1.0000   1.0000   1.0000   1.0000
     1.0000   1.0000   1.0000   1.0000   1.0000   1.0000   1.0000   1.0000
     1.0000   1.0000   1.0000   1.0000   1.0000   1.0000   1.0000   1.0000
     1.0000   1.0000   1.0000   1.0000   1.0000   1.0000   1.0000   1.0000
     1.0000   1.0000   1.0000   1.0000   1.0000   1.0000   1.0000   1.0000
     1.0000   1.0000   1.0000   1.0000   1.0000   1.0000   1.0000   1.0000
     1.0000   1.0000   1.0000   1.0000   1.0000   1.0000   1.0000   1.0000
     1.0000   1.0000   1.0000   1.0000   1.0000   1.0000   1.0000   1.0000
     1.0000   1.0000   1.0000   1.0000   1.0000   1.0000   1.0000   1.0000
     1.0000   1.0000   1.0000   1.0000   1.0000   1.0000   1.0000   1.0000
     1.0000   1.0000   1.0000   1.0000   1.0000   1.0000   1.0000   1.0000
     1.0000   1.0000   1.0000   1.0000   1.0000   1.0000   1.0000   1.0000
     1.0000   1.0000   1.0000   1.0000   1.0000   1.0000   1.0000   1.0000
     1.0000   1.0000   1.0000   1.0000   1.0000   1.0000   1.0000   1.0000
     1.0000   1.0000   1.0000   1.0000   1.0000   1.0000   1.0000   1.0000
     1.0000   1.0000   1.0000   1.0000   1.0000   1.0000   1.0000   1.0000
     1.0000   1.0000   1.0000   1.0000   1.0000   1.0000   1.0000   1.0000
     1.0000   1.0000   1.0000   1.0000   1.0000   1.0000   1.0000   1.0000
     1.0000   1.0000   1.0000   1.0000   1.0000   1.0000   1.0000   1.0000
     1.0000   1.0000   1.0000   1.0000   1.0000   1.0000   1.0000   1.0000
     1.0000   1.0000   1.0000   1.0000   1.0000   1.0000   1.0000   1.0000
     1.0000   1.0000   1.0000   1.0000   1.0000   1.0000   1.0000   1.0000
     1.0000   1.0000   1.0000   1.0000   1.0000   1.0000   1.0000   1.0000
     1.0000   1.0000   1.0000   1.0000   1.0000   1.0000   1.0000   1.0000
     1.0000   1.0000   1.0000   1.0000   1.0000   1.0000   1.0000   1.0000
     1.0000   1.0000   1.0000   1.0000   1.0000   1.0000   1.0000   1.0000
     1.0000   1.0000   1.0000   1.0000   1.0000   1.0000   1.0000   1.0000
     1.0000   1.0000   1.0000   1.0000   1.0000   1.0000   1.0000   1.0000
     1.0000   1.0000   1.0000   1.0000   1.0000   1.0000   1.0000   1.0000
     1.0000   1.0000   1.0000   1.0000   1.0000   1.0000   1.0000   1.0000
     1.0000   1.0000   1.0029   1.0088   1.0123   0.9767   0.9290   0.7749
     0.0002   0.0000   0.0000   0.0000   0.0000   0.0000   0.0000   0.0000
     0.0000   0.0000   0.0000   0.0000   0.0000   0.0000   0.0000   0.0000
     0.0000   0.0000   0.0000   0.0000   0.0000   0.0000   0.0000   0.0000
     0.0000   0.0000   0.0000   0.0000   0.0000   0.0000   0.0000   0.0000
     0.0000   0.0000   0.0000   0.0000   0.0000   0.0000   0.0000   0.0000
     0.0000   0.0000   0.0000   0.0000   0.0000   0.0000   0.0000   0.0000
     0.0000   0.0000   0.0000   0.0000   0.0000   0.0000   0.0000   0.0000
     0.0000   0.0000   0.0000   0.0000   0.0000   0.0000   0.0000   0.0000

          k = 0.3333 0.0811 0.7384 ( 23413 PWs)   bands (ev):

  -124.2900-124.2889-124.2873-124.2872-124.2871-124.2870-124.2865-124.2864
  -124.2863-124.2858-124.2853-124.2853-124.2845-124.2845-124.2841-124.2828
  -123.9868-123.9862-123.9859-123.9857-123.9855-123.9854-123.9852-123.9850
  -123.8324-123.8320-123.8315-123.8314-123.8311-123.8304-123.8302-123.8301
   -78.4055 -78.4054 -78.4016 -78.4015 -78.3976 -78.3976 -78.3964 -78.3964
   -78.3874 -78.3866 -78.3836 -78.3835 -78.3765 -78.3735 -78.3721 -78.3717
   -78.3716 -78.3716 -78.3705 -78.3705 -78.3702 -78.3701 -78.3692 -78.3687
   -78.3683 -78.3678 -78.3677 -78.3676 -78.3671 -78.3666 -78.3663 -78.3660
   -78.3659 -78.3659 -78.3654 -78.3654 -78.3645 -78.3645 -78.3634 -78.3632
   -78.3631 -78.3630 -78.3625 -78.3593 -78.3590 -78.3568 -78.3541 -78.3475
   -78.0883 -78.0881 -78.0877 -78.0876 -78.0873 -78.0866 -78.0864 -78.0854
   -78.0851 -78.0849 -78.0844 -78.0842 -78.0718 -78.0690 -78.0672 -78.0669
   -78.0664 -78.0662 -78.0644 -78.0624 -78.0575 -78.0565 -78.0549 -78.0538
   -77.9369 -77.9344 -77.9336 -77.9333 -77.9332 -77.9316 -77.9309 -77.9307
   -77.9252 -77.9251 -77.9241 -77.9239 -77.9237 -77.9221 -77.9203 -77.9202
   -77.9178 -77.9176 -77.9163 -77.9133 -77.8931 -77.8923 -77.8919 -77.8909
    -7.6022  -7.2037  -6.3328  -6.2249  -6.1259  -6.0899  -5.9779  -5.9619
    -5.9049  -5.9049  -5.8903  -5.8903  -5.8797  -5.8796  -5.8671  -5.8665
    -5.8665  -5.8247  -5.6989  -5.6832  -5.6832  -5.6792  -5.6606  -5.6524
    -5.6428  -5.6427  -5.6083  -5.6083  -5.6058  -5.5976  -5.5387  -5.4827
    -5.4710  -5.4611  -5.4611  -5.4456  -5.4223  -5.4154  -5.4154  -5.3901
    -5.3901  -5.3803  -5.3657  -5.3656  -5.3593  -5.3593  -5.3444  -5.3254
    -5.2966  -5.2965  -5.2199  -5.2198  -5.2054  -5.2024  -5.1769  -5.1671
    -5.1671  -5.1541  -5.1387  -5.1348  -5.1310  -5.1309  -5.1186  -5.1136
    -5.1010  -5.0778  -5.0469  -5.0469  -5.0195  -5.0144  -5.0064  -4.9934
    -4.9933  -4.9908  -4.9712  -4.9600  -4.9580  -4.9579  -4.9579  -4.9276
    -4.9276  -4.8988  -4.8978  -4.8978  -4.8589  -4.8538  -4.8423  -4.8422
    -4.8268  -4.8178  -4.8046  -4.7841  -4.7835  -4.7835  -4.7755  -4.7714
    -4.7512  -4.7459  -4.7399  -4.7399  -4.7310  -4.7310  -4.7117  -4.7049
    -4.6871  -4.6771  -4.6771  -4.6653  -4.6653  -4.6625  -4.6544  -4.6492
    -4.6321  -4.6155  -4.6155  -4.5985  -4.5985  -4.5943  -4.5941  -4.5940
    -4.5801  -4.5612  -4.5612  -4.5253  -4.5181  -4.5133  -4.5018  -4.5003
    -4.5003  -4.4901  -4.4891  -4.4723  -4.4617  -4.4617  -4.4494  -4.4493
    -4.4342  -4.4219  -4.4218  -4.4150  -4.4139  -4.4139  -4.4090  -4.4085
    -4.4063  -4.4052  -4.3953  -4.3953  -4.3269  -4.3267  -4.3049  -4.3048
    -4.2966  -4.2927  -4.2877  -4.2806  -4.2591  -4.2542  -4.2524  -4.2446
    -4.1912  -4.1531  -4.1529  -4.1482  -4.1480  -3.3536  -3.2555  -3.1465
    -2.8761  -1.9209  -1.2641  -1.2640  -1.1503  -0.4946  -0.4945  -0.4650
    -0.0355   0.0002   0.0002   0.0623   0.3517   0.3517   0.4220   0.7842
     0.7842   1.5029   1.5030   1.5317   1.5334   1.9270   2.2230   2.2231
     2.3092   2.5499   2.9497   3.0268   3.0268   3.3047   3.3047   3.8143
     3.8370   4.1231   4.1231   4.4725   4.4790   4.4791   4.9337   4.9337
     5.1041   5.1042   5.3898   5.6659   5.6659   5.7626   5.8152   6.1564
     6.3928   6.3928   6.5357   6.6446   6.6500   6.6500   6.7589   6.8001
     7.0335   7.0335   7.4069   7.7224   7.7252   7.7252   7.8447   7.9817
     8.1720   8.4398   8.5403   8.5403   8.5511   8.8143   8.8143   8.8999
     8.9714   9.1997   9.1998   9.3775   9.4661   9.4998   9.5376   9.5376
     9.7088   9.9182  10.0001  10.0001  10.0401  10.2066  10.2192  10.5550

     occupation numbers 
     1.0000   1.0000   1.0000   1.0000   1.0000   1.0000   1.0000   1.0000
     1.0000   1.0000   1.0000   1.0000   1.0000   1.0000   1.0000   1.0000
     1.0000   1.0000   1.0000   1.0000   1.0000   1.0000   1.0000   1.0000
     1.0000   1.0000   1.0000   1.0000   1.0000   1.0000   1.0000   1.0000
     1.0000   1.0000   1.0000   1.0000   1.0000   1.0000   1.0000   1.0000
     1.0000   1.0000   1.0000   1.0000   1.0000   1.0000   1.0000   1.0000
     1.0000   1.0000   1.0000   1.0000   1.0000   1.0000   1.0000   1.0000
     1.0000   1.0000   1.0000   1.0000   1.0000   1.0000   1.0000   1.0000
     1.0000   1.0000   1.0000   1.0000   1.0000   1.0000   1.0000   1.0000
     1.0000   1.0000   1.0000   1.0000   1.0000   1.0000   1.0000   1.0000
     1.0000   1.0000   1.0000   1.0000   1.0000   1.0000   1.0000   1.0000
     1.0000   1.0000   1.0000   1.0000   1.0000   1.0000   1.0000   1.0000
     1.0000   1.0000   1.0000   1.0000   1.0000   1.0000   1.0000   1.0000
     1.0000   1.0000   1.0000   1.0000   1.0000   1.0000   1.0000   1.0000
     1.0000   1.0000   1.0000   1.0000   1.0000   1.0000   1.0000   1.0000
     1.0000   1.0000   1.0000   1.0000   1.0000   1.0000   1.0000   1.0000
     1.0000   1.0000   1.0000   1.0000   1.0000   1.0000   1.0000   1.0000
     1.0000   1.0000   1.0000   1.0000   1.0000   1.0000   1.0000   1.0000
     1.0000   1.0000   1.0000   1.0000   1.0000   1.0000   1.0000   1.0000
     1.0000   1.0000   1.0000   1.0000   1.0000   1.0000   1.0000   1.0000
     1.0000   1.0000   1.0000   1.0000   1.0000   1.0000   1.0000   1.0000
     1.0000   1.0000   1.0000   1.0000   1.0000   1.0000   1.0000   1.0000
     1.0000   1.0000   1.0000   1.0000   1.0000   1.0000   1.0000   1.0000
     1.0000   1.0000   1.0000   1.0000   1.0000   1.0000   1.0000   1.0000
     1.0000   1.0000   1.0000   1.0000   1.0000   1.0000   1.0000   1.0000
     1.0000   1.0000   1.0000   1.0000   1.0000   1.0000   1.0000   1.0000
     1.0000   1.0000   1.0000   1.0000   1.0000   1.0000   1.0000   1.0000
     1.0000   1.0000   1.0000   1.0000   1.0000   1.0000   1.0000   1.0000
     1.0000   1.0000   1.0000   1.0000   1.0000   1.0000   1.0000   1.0000
     1.0000   1.0000   1.0000   1.0000   1.0000   1.0000   1.0000   1.0000
     1.0000   1.0000   1.0000   1.0000   1.0000   1.0000   1.0000   1.0000
     1.0000   1.0000   1.0000   1.0000   1.0000   1.0000   1.0000   1.0000
     1.0000   1.0000   1.0000   1.0000   1.0000   1.0000   1.0000   1.0000
     1.0000   1.0000   1.0000   1.0000   1.0000   1.0000   1.0000   1.0000
     1.0000   1.0000   1.0000   1.0000   1.0000   1.0000   1.0000   1.0000
     1.0000   1.0000   1.0000   1.0000   1.0000   1.0000   1.0000   1.0000
     1.0000   1.0000   1.0000   1.0000   1.0000   1.0000   1.0000   1.0000
     1.0000   1.0000   1.0000   1.0000   1.0000   1.0000   1.0000   1.0000
     1.0000   1.0000   1.0000   1.0000   1.0000   1.0000   1.0000   1.0000
     1.0000   1.0000   1.0000   1.0001   1.0001   1.0310   1.0373   1.0373
     0.9061   0.2954   0.0021   0.0005   0.0005   0.0000   0.0000   0.0000
     0.0000   0.0000   0.0000   0.0000   0.0000   0.0000   0.0000   0.0000
     0.0000   0.0000   0.0000   0.0000   0.0000   0.0000   0.0000   0.0000
     0.0000   0.0000   0.0000   0.0000   0.0000   0.0000   0.0000   0.0000
     0.0000   0.0000   0.0000   0.0000   0.0000   0.0000   0.0000   0.0000
     0.0000   0.0000   0.0000   0.0000   0.0000   0.0000   0.0000   0.0000
     0.0000   0.0000   0.0000   0.0000   0.0000   0.0000   0.0000   0.0000
     0.0000   0.0000   0.0000   0.0000   0.0000   0.0000   0.0000   0.0000

          k = 0.3333 0.8068 1.1076 ( 23328 PWs)   bands (ev):

  -124.2880-124.2878-124.2869-124.2868-124.2865-124.2864-124.2863-124.2858
  -124.2855-124.2850-124.2849-124.2845-124.2845-124.2840-124.2838-124.2837
  -123.9859-123.9857-123.9855-123.9854-123.9852-123.9850-123.9845-123.9843
  -123.8316-123.8315-123.8311-123.8310-123.8303-123.8302-123.8298-123.8295
   -78.3929 -78.3923 -78.3903 -78.3893 -78.3866 -78.3849 -78.3845 -78.3843
   -78.3839 -78.3829 -78.3827 -78.3826 -78.3777 -78.3775 -78.3737 -78.3734
   -78.3732 -78.3726 -78.3726 -78.3722 -78.3719 -78.3716 -78.3700 -78.3698
   -78.3690 -78.3685 -78.3684 -78.3673 -78.3671 -78.3664 -78.3664 -78.3649
   -78.3648 -78.3646 -78.3640 -78.3639 -78.3637 -78.3637 -78.3634 -78.3620
   -78.3618 -78.3604 -78.3602 -78.3594 -78.3590 -78.3582 -78.3553 -78.3553
   -78.0863 -78.0863 -78.0860 -78.0859 -78.0836 -78.0833 -78.0832 -78.0822
   -78.0770 -78.0737 -78.0733 -78.0721 -78.0699 -78.0686 -78.0684 -78.0672
   -78.0671 -78.0669 -78.0658 -78.0641 -78.0602 -78.0598 -78.0592 -78.0589
   -77.9343 -77.9337 -77.9336 -77.9335 -77.9323 -77.9322 -77.9317 -77.9309
   -77.9203 -77.9195 -77.9192 -77.9191 -77.9187 -77.9179 -77.9178 -77.9171
   -77.9120 -77.9116 -77.9096 -77.9085 -77.8972 -77.8970 -77.8955 -77.8952
    -6.8366  -6.8363  -5.9300  -5.8481  -5.8479  -5.8423  -5.8272  -5.8271
    -5.8205  -5.8008  -5.7734  -5.7588  -5.7538  -5.7443  -5.7306  -5.7304
    -5.6672  -5.6669  -5.6125  -5.6031  -5.5544  -5.5514  -5.5513  -5.5497
    -5.5455  -5.5269  -5.5269  -5.4964  -5.4955  -5.4954  -5.4860  -5.4631
    -5.4631  -5.4488  -5.4292  -5.3951  -5.3831  -5.3824  -5.3823  -5.3719
    -5.3718  -5.3552  -5.3536  -5.3526  -5.3336  -5.3334  -5.3075  -5.2875
    -5.2817  -5.2668  -5.2332  -5.2332  -5.2184  -5.2183  -5.2042  -5.1979
    -5.1966  -5.1786  -5.1786  -5.1639  -5.1639  -5.1516  -5.1122  -5.1121
    -5.0856  -5.0654  -5.0499  -5.0398  -5.0398  -5.0184  -5.0182  -5.0135
    -4.9929  -4.9854  -4.9854  -4.9550  -4.9550  -4.9491  -4.9451  -4.9337
    -4.9336  -4.9054  -4.8965  -4.8964  -4.8787  -4.8755  -4.8678  -4.8619
    -4.8616  -4.8429  -4.8425  -4.8425  -4.8335  -4.8328  -4.8194  -4.8190
    -4.8180  -4.8029  -4.7965  -4.7964  -4.7729  -4.7676  -4.7538  -4.7410
    -4.7357  -4.7330  -4.7310  -4.7308  -4.7000  -4.7000  -4.6774  -4.6736
    -4.6704  -4.6598  -4.6597  -4.6561  -4.6539  -4.6374  -4.6373  -4.6215
    -4.6207  -4.6206  -4.6095  -4.5876  -4.5603  -4.5585  -4.5583  -4.5466
    -4.5339  -4.5323  -4.5232  -4.5230  -4.5185  -4.5172  -4.5098  -4.4935
    -4.4744  -4.4741  -4.4674  -4.4673  -4.4605  -4.4538  -4.4519  -4.4433
    -4.4429  -4.4339  -4.4286  -4.4286  -4.4246  -4.4086  -4.3968  -4.3954
    -4.3953  -4.3879  -4.3874  -4.3631  -4.3618  -4.3617  -4.3614  -4.3470
    -4.3231  -4.3185  -4.1867  -4.1867  -4.1273  -3.1894  -3.1894  -3.1721
    -3.1665  -3.1557  -2.5343  -2.5341  -1.9295  -1.9293  -1.8599  -1.7979
    -1.0686   0.0669   0.0670   0.1552   0.3552   0.3553   0.3830   0.7263
     0.7764   1.6693   1.9782   2.0805   2.0805   2.5024   2.5027   2.5431
     2.7549   2.9941   3.0257   3.0260   3.4551   3.4902   3.4902   3.8803
     4.2856   4.6419   4.6779   4.7917   4.9080   5.2267   5.2268   5.5337
     5.8148   6.0111   6.0584   6.0586   6.1541   6.1544   6.1659   6.6486
     6.7579   7.2274   7.2275   7.2362   7.2814   7.2922   7.6907   7.6981
     7.6986   8.1487   8.1487   8.1836   8.1951   8.2750   8.5296   8.5298
     8.5588   8.6623   8.7336   8.8598   8.8944   8.8945   9.0335   9.0630
     9.0633   9.2408   9.3520   9.5066   9.5894   9.7609   9.7646   9.7652
     9.8916   9.8921   9.9072   9.9414   9.9419  10.0745  10.2004  10.2735

     occupation numbers 
     1.0000   1.0000   1.0000   1.0000   1.0000   1.0000   1.0000   1.0000
     1.0000   1.0000   1.0000   1.0000   1.0000   1.0000   1.0000   1.0000
     1.0000   1.0000   1.0000   1.0000   1.0000   1.0000   1.0000   1.0000
     1.0000   1.0000   1.0000   1.0000   1.0000   1.0000   1.0000   1.0000
     1.0000   1.0000   1.0000   1.0000   1.0000   1.0000   1.0000   1.0000
     1.0000   1.0000   1.0000   1.0000   1.0000   1.0000   1.0000   1.0000
     1.0000   1.0000   1.0000   1.0000   1.0000   1.0000   1.0000   1.0000
     1.0000   1.0000   1.0000   1.0000   1.0000   1.0000   1.0000   1.0000
     1.0000   1.0000   1.0000   1.0000   1.0000   1.0000   1.0000   1.0000
     1.0000   1.0000   1.0000   1.0000   1.0000   1.0000   1.0000   1.0000
     1.0000   1.0000   1.0000   1.0000   1.0000   1.0000   1.0000   1.0000
     1.0000   1.0000   1.0000   1.0000   1.0000   1.0000   1.0000   1.0000
     1.0000   1.0000   1.0000   1.0000   1.0000   1.0000   1.0000   1.0000
     1.0000   1.0000   1.0000   1.0000   1.0000   1.0000   1.0000   1.0000
     1.0000   1.0000   1.0000   1.0000   1.0000   1.0000   1.0000   1.0000
     1.0000   1.0000   1.0000   1.0000   1.0000   1.0000   1.0000   1.0000
     1.0000   1.0000   1.0000   1.0000   1.0000   1.0000   1.0000   1.0000
     1.0000   1.0000   1.0000   1.0000   1.0000   1.0000   1.0000   1.0000
     1.0000   1.0000   1.0000   1.0000   1.0000   1.0000   1.0000   1.0000
     1.0000   1.0000   1.0000   1.0000   1.0000   1.0000   1.0000   1.0000
     1.0000   1.0000   1.0000   1.0000   1.0000   1.0000   1.0000   1.0000
     1.0000   1.0000   1.0000   1.0000   1.0000   1.0000   1.0000   1.0000
     1.0000   1.0000   1.0000   1.0000   1.0000   1.0000   1.0000   1.0000
     1.0000   1.0000   1.0000   1.0000   1.0000   1.0000   1.0000   1.0000
     1.0000   1.0000   1.0000   1.0000   1.0000   1.0000   1.0000   1.0000
     1.0000   1.0000   1.0000   1.0000   1.0000   1.0000   1.0000   1.0000
     1.0000   1.0000   1.0000   1.0000   1.0000   1.0000   1.0000   1.0000
     1.0000   1.0000   1.0000   1.0000   1.0000   1.0000   1.0000   1.0000
     1.0000   1.0000   1.0000   1.0000   1.0000   1.0000   1.0000   1.0000
     1.0000   1.0000   1.0000   1.0000   1.0000   1.0000   1.0000   1.0000
     1.0000   1.0000   1.0000   1.0000   1.0000   1.0000   1.0000   1.0000
     1.0000   1.0000   1.0000   1.0000   1.0000   1.0000   1.0000   1.0000
     1.0000   1.0000   1.0000   1.0000   1.0000   1.0000   1.0000   1.0000
     1.0000   1.0000   1.0000   1.0000   1.0000   1.0000   1.0000   1.0000
     1.0000   1.0000   1.0000   1.0000   1.0000   1.0000   1.0000   1.0000
     1.0000   1.0000   1.0000   1.0000   1.0000   1.0000   1.0000   1.0000
     1.0000   1.0000   1.0000   1.0000   1.0000   1.0000   1.0000   1.0000
     1.0000   1.0000   1.0000   1.0000   1.0000   1.0000   1.0000   1.0000
     1.0000   1.0000   1.0000   1.0000   1.0000   1.0000   1.0000   1.0000
     1.0000   1.0011   1.0470   1.0788   1.0789   0.4076   0.4068   0.3103
     0.0392   0.0010   0.0005   0.0005   0.0000   0.0000   0.0000   0.0000
     0.0000   0.0000   0.0000   0.0000   0.0000   0.0000   0.0000   0.0000
     0.0000   0.0000   0.0000   0.0000   0.0000   0.0000   0.0000   0.0000
     0.0000   0.0000   0.0000   0.0000   0.0000   0.0000   0.0000   0.0000
     0.0000   0.0000   0.0000   0.0000   0.0000   0.0000   0.0000   0.0000
     0.0000   0.0000   0.0000   0.0000   0.0000   0.0000   0.0000   0.0000
     0.0000   0.0000   0.0000   0.0000   0.0000   0.0000   0.0000   0.0000
     0.0000   0.0000   0.0000   0.0000   0.0000   0.0000   0.0000   0.0000

          k = 0.3333-0.6446 0.3692 ( 23354 PWs)   bands (ev):

  -124.2877-124.2876-124.2872-124.2871-124.2868-124.2863-124.2862-124.2860
  -124.2859-124.2852-124.2850-124.2849-124.2846-124.2842-124.2839-124.2837
  -123.9863-123.9858-123.9855-123.9853-123.9851-123.9850-123.9848-123.9846
  -123.8318-123.8316-123.8312-123.8310-123.8304-123.8301-123.8299-123.8297
   -78.3928 -78.3917 -78.3910 -78.3904 -78.3864 -78.3864 -78.3852 -78.3846
   -78.3842 -78.3837 -78.3835 -78.3819 -78.3788 -78.3783 -78.3753 -78.3753
   -78.3747 -78.3742 -78.3739 -78.3738 -78.3735 -78.3733 -78.3689 -78.3687
   -78.3682 -78.3681 -78.3678 -78.3672 -78.3670 -78.3670 -78.3668 -78.3660
   -78.3658 -78.3646 -78.3634 -78.3634 -78.3633 -78.3622 -78.3620 -78.3620
   -78.3615 -78.3613 -78.3606 -78.3603 -78.3602 -78.3598 -78.3594 -78.3529
   -78.0872 -78.0865 -78.0857 -78.0855 -78.0851 -78.0846 -78.0841 -78.0831
   -78.0758 -78.0753 -78.0742 -78.0738 -78.0708 -78.0701 -78.0685 -78.0666
   -78.0662 -78.0661 -78.0647 -78.0635 -78.0621 -78.0613 -78.0593 -78.0589
   -77.9351 -77.9344 -77.9333 -77.9330 -77.9321 -77.9317 -77.9314 -77.9311
   -77.9237 -77.9217 -77.9206 -77.9194 -77.9182 -77.9173 -77.9166 -77.9158
   -77.9122 -77.9116 -77.9106 -77.9100 -77.8985 -77.8977 -77.8966 -77.8956
    -7.0933  -6.3899  -5.9788  -5.9441  -5.9012  -5.8537  -5.8381  -5.8110
    -5.7881  -5.7792  -5.7595  -5.7590  -5.7529  -5.7435  -5.7192  -5.7183
    -5.6783  -5.6381  -5.6336  -5.6213  -5.5883  -5.5881  -5.5785  -5.5772
    -5.5754  -5.5654  -5.5533  -5.5181  -5.4857  -5.4856  -5.4492  -5.4458
    -5.4398  -5.4271  -5.4047  -5.4026  -5.3993  -5.3778  -5.3763  -5.3551
    -5.3541  -5.3519  -5.3370  -5.3354  -5.3341  -5.3322  -5.2962  -5.2821
    -5.2802  -5.2558  -5.2532  -5.2278  -5.2227  -5.2211  -5.2145  -5.2063
    -5.1966  -5.1896  -5.1655  -5.1643  -5.1419  -5.1123  -5.1099  -5.1035
    -5.0988  -5.0702  -5.0585  -5.0223  -5.0196  -5.0168  -5.0105  -4.9995
    -4.9955  -4.9905  -4.9878  -4.9694  -4.9691  -4.9534  -4.9412  -4.9305
    -4.9170  -4.9112  -4.9097  -4.9091  -4.8946  -4.8897  -4.8771  -4.8702
    -4.8546  -4.8535  -4.8524  -4.8519  -4.8493  -4.8422  -4.8329  -4.8159
    -4.8109  -4.8103  -4.7966  -4.7894  -4.7882  -4.7751  -4.7410  -4.7397
    -4.7320  -4.7295  -4.7258  -4.6983  -4.6942  -4.6896  -4.6680  -4.6678
    -4.6657  -4.6569  -4.6541  -4.6530  -4.6368  -4.6310  -4.6274  -4.6224
    -4.6222  -4.6027  -4.5966  -4.5824  -4.5651  -4.5615  -4.5511  -4.5477
    -4.5442  -4.5307  -4.5268  -4.5244  -4.5168  -4.5097  -4.5021  -4.4992
    -4.4853  -4.4834  -4.4818  -4.4648  -4.4635  -4.4622  -4.4465  -4.4330
    -4.4327  -4.4320  -4.4263  -4.4233  -4.4222  -4.4163  -4.4045  -4.3976
    -4.3949  -4.3925  -4.3804  -4.3779  -4.3710  -4.3536  -4.3531  -4.3487
    -4.3461  -4.3328  -4.2925  -4.0732  -4.0629  -3.8224  -3.7918  -3.0788
    -3.0253  -2.8096  -2.5810  -2.1612  -1.9576  -1.7938  -1.0358  -0.9287
    -0.8313  -0.7917  -0.4890  -0.4642  -0.0698   0.0799   0.5474   0.8560
     1.1903   1.2852   1.7320   1.8115   1.8384   2.2702   2.2976   2.3660
     3.0752   3.2674   3.3021   3.4941   3.6236   4.0063   4.1326   4.2656
     4.4142   4.6025   4.6786   4.6972   5.0649   5.2391   5.2997   5.3557
     5.6676   5.8605   5.8787   6.2750   6.3140   6.3857   6.5402   6.8018
     6.8311   6.9003   7.0003   7.0257   7.1078   7.1488   7.2975   7.4752
     7.6355   7.7758   7.8720   7.9027   7.9624   8.2777   8.2978   8.3289
     8.3654   8.6172   8.6193   8.7171   8.8317   8.8497   9.0680   9.1046
     9.1449   9.1583   9.2284   9.2855   9.4256   9.4656   9.4850   9.6817
     9.8545   9.9142  10.0311  10.0953  10.1267  10.1717  10.1896  10.2290

     occupation numbers 
     1.0000   1.0000   1.0000   1.0000   1.0000   1.0000   1.0000   1.0000
     1.0000   1.0000   1.0000   1.0000   1.0000   1.0000   1.0000   1.0000
     1.0000   1.0000   1.0000   1.0000   1.0000   1.0000   1.0000   1.0000
     1.0000   1.0000   1.0000   1.0000   1.0000   1.0000   1.0000   1.0000
     1.0000   1.0000   1.0000   1.0000   1.0000   1.0000   1.0000   1.0000
     1.0000   1.0000   1.0000   1.0000   1.0000   1.0000   1.0000   1.0000
     1.0000   1.0000   1.0000   1.0000   1.0000   1.0000   1.0000   1.0000
     1.0000   1.0000   1.0000   1.0000   1.0000   1.0000   1.0000   1.0000
     1.0000   1.0000   1.0000   1.0000   1.0000   1.0000   1.0000   1.0000
     1.0000   1.0000   1.0000   1.0000   1.0000   1.0000   1.0000   1.0000
     1.0000   1.0000   1.0000   1.0000   1.0000   1.0000   1.0000   1.0000
     1.0000   1.0000   1.0000   1.0000   1.0000   1.0000   1.0000   1.0000
     1.0000   1.0000   1.0000   1.0000   1.0000   1.0000   1.0000   1.0000
     1.0000   1.0000   1.0000   1.0000   1.0000   1.0000   1.0000   1.0000
     1.0000   1.0000   1.0000   1.0000   1.0000   1.0000   1.0000   1.0000
     1.0000   1.0000   1.0000   1.0000   1.0000   1.0000   1.0000   1.0000
     1.0000   1.0000   1.0000   1.0000   1.0000   1.0000   1.0000   1.0000
     1.0000   1.0000   1.0000   1.0000   1.0000   1.0000   1.0000   1.0000
     1.0000   1.0000   1.0000   1.0000   1.0000   1.0000   1.0000   1.0000
     1.0000   1.0000   1.0000   1.0000   1.0000   1.0000   1.0000   1.0000
     1.0000   1.0000   1.0000   1.0000   1.0000   1.0000   1.0000   1.0000
     1.0000   1.0000   1.0000   1.0000   1.0000   1.0000   1.0000   1.0000
     1.0000   1.0000   1.0000   1.0000   1.0000   1.0000   1.0000   1.0000
     1.0000   1.0000   1.0000   1.0000   1.0000   1.0000   1.0000   1.0000
     1.0000   1.0000   1.0000   1.0000   1.0000   1.0000   1.0000   1.0000
     1.0000   1.0000   1.0000   1.0000   1.0000   1.0000   1.0000   1.0000
     1.0000   1.0000   1.0000   1.0000   1.0000   1.0000   1.0000   1.0000
     1.0000   1.0000   1.0000   1.0000   1.0000   1.0000   1.0000   1.0000
     1.0000   1.0000   1.0000   1.0000   1.0000   1.0000   1.0000   1.0000
     1.0000   1.0000   1.0000   1.0000   1.0000   1.0000   1.0000   1.0000
     1.0000   1.0000   1.0000   1.0000   1.0000   1.0000   1.0000   1.0000
     1.0000   1.0000   1.0000   1.0000   1.0000   1.0000   1.0000   1.0000
     1.0000   1.0000   1.0000   1.0000   1.0000   1.0000   1.0000   1.0000
     1.0000   1.0000   1.0000   1.0000   1.0000   1.0000   1.0000   1.0000
     1.0000   1.0000   1.0000   1.0000   1.0000   1.0000   1.0000   1.0000
     1.0000   1.0000   1.0000   1.0000   1.0000   1.0000   1.0000   1.0000
     1.0000   1.0000   1.0000   1.0000   1.0000   1.0000   1.0000   1.0000
     1.0000   1.0000   1.0000   1.0000   1.0000   1.0000   1.0000   1.0000
     1.0000   1.0000   1.0000   1.0000   1.0000   1.0000   1.0000   1.0000
     1.0000   1.0000   1.0029   1.0088   1.0123   0.9767   0.9290   0.7749
     0.0002   0.0000   0.0000   0.0000   0.0000   0.0000   0.0000   0.0000
     0.0000   0.0000   0.0000   0.0000   0.0000   0.0000   0.0000   0.0000
     0.0000   0.0000   0.0000   0.0000   0.0000   0.0000   0.0000   0.0000
     0.0000   0.0000   0.0000   0.0000   0.0000   0.0000   0.0000   0.0000
     0.0000   0.0000   0.0000   0.0000   0.0000   0.0000   0.0000   0.0000
     0.0000   0.0000   0.0000   0.0000   0.0000   0.0000   0.0000   0.0000
     0.0000   0.0000   0.0000   0.0000   0.0000   0.0000   0.0000   0.0000
     0.0000   0.0000   0.0000   0.0000   0.0000   0.0000   0.0000   0.0000

     the Fermi energy is     2.5051 ev

!    total energy              =  -14767.46008442 Ry
     estimated scf accuracy    <       0.00000042 Ry
     smearing contrib. (-TS)   =       0.00223029 Ry
     internal energy E=F+TS    =  -14767.46231471 Ry

     The total energy is F=E-TS. E is the sum of the following terms:
     one-electron contribution =  -84536.50609027 Ry
     hartree contribution      =   42244.81062603 Ry
     xc contribution           =   -1348.48852537 Ry
     ewald contribution        =   28872.72167490 Ry

     convergence has been achieved in  12 iterations

     Forces acting on atoms (cartesian axes, Ry/au):

     atom    1 type  1   force =     0.00353774    0.00086043   -0.01904476
     atom    2 type  1   force =     0.00380702    0.00092556    0.00788423
     atom    3 type  1   force =    -0.00182527   -0.00044444    0.00615834
     atom    4 type  1   force =     0.01247794    0.00303487    0.01670465
     atom    5 type  1   force =     0.00353724    0.00086033   -0.01904455
     atom    6 type  1   force =     0.00380694    0.00092546    0.00788453
     atom    7 type  1   force =    -0.00182552   -0.00044370    0.00615938
     atom    8 type  1   force =     0.01247770    0.00303624    0.01670454
     atom    9 type  1   force =     0.00239024    0.00058025   -0.01928024
     atom   10 type  1   force =     0.00330590    0.00080351    0.00728958
     atom   11 type  1   force =    -0.00040756   -0.00009860    0.00730418
     atom   12 type  1   force =     0.01202683    0.00292574    0.01674169
     atom   13 type  1   force =     0.00238961    0.00058073   -0.01927964
     atom   14 type  1   force =     0.00330559    0.00080385    0.00729026
     atom   15 type  1   force =    -0.00040694   -0.00009804    0.00730428
     atom   16 type  1   force =     0.01202688    0.00292578    0.01674224
     atom   17 type  1   force =    -0.01274574   -0.00310006   -0.01676936
     atom   18 type  1   force =     0.00179378    0.00043536   -0.00623442
     atom   19 type  1   force =    -0.00346214   -0.00084075   -0.00776042
     atom   20 type  1   force =    -0.00379617   -0.00092239    0.01903109
     atom   21 type  1   force =    -0.01274608   -0.00310079   -0.01676929
     atom   22 type  1   force =     0.00179382    0.00043508   -0.00623403
     atom   23 type  1   force =    -0.00346164   -0.00084238   -0.00776000
     atom   24 type  1   force =    -0.00379557   -0.00092211    0.01903141
     atom   25 type  1   force =    -0.01177579   -0.00286318   -0.01667303
     atom   26 type  1   force =     0.00047508    0.00011444   -0.00721305
     atom   27 type  1   force =    -0.00368679   -0.00089728   -0.00744974
     atom   28 type  1   force =    -0.00211492   -0.00051427    0.01930935
     atom   29 type  1   force =    -0.01177479   -0.00286500   -0.01667324
     atom   30 type  1   force =     0.00047424    0.00011600   -0.00721331
     atom   31 type  1   force =    -0.00368624   -0.00089577   -0.00744951
     atom   32 type  1   force =    -0.00211539   -0.00051487    0.01930883
     The non-local contrib.  to forces
     atom    1 type  1   force =    -0.11975099   -0.02913230   -0.09587302
     atom    2 type  1   force =     0.00573029    0.00139424    0.03004991
     atom    3 type  1   force =    -0.01034756   -0.00251749    0.03465837
     atom    4 type  1   force =    -0.02747996   -0.00668470    0.09975291
     atom    5 type  1   force =    -0.11975093   -0.02913263   -0.09587301
     atom    6 type  1   force =     0.00573050    0.00139412    0.03004991
     atom    7 type  1   force =    -0.01034784   -0.00251679    0.03465841
     atom    8 type  1   force =    -0.02748014   -0.00668415    0.09975299
     atom    9 type  1   force =    -0.12064084   -0.02934860   -0.09604319
     atom   10 type  1   force =     0.00535021    0.00130190    0.02959203
     atom   11 type  1   force =    -0.00918533   -0.00223459    0.03555866
     atom   12 type  1   force =    -0.02793169   -0.00679378    0.09972822
     atom   13 type  1   force =    -0.12064108   -0.02934828   -0.09604297
     atom   14 type  1   force =     0.00535026    0.00130172    0.02959213
     atom   15 type  1   force =    -0.00918498   -0.00223454    0.03555850
     atom   16 type  1   force =    -0.02793171   -0.00679370    0.09972821
     atom   17 type  1   force =     0.02729748    0.00663958   -0.09977831
     atom   18 type  1   force =     0.01032228    0.00251133   -0.03470248
     atom   19 type  1   force =    -0.00551450   -0.00134155   -0.02993062
     atom   20 type  1   force =     0.11955378    0.02908381    0.09586153
     atom   21 type  1   force =     0.02729762    0.00663923   -0.09977801
     atom   22 type  1   force =     0.01032219    0.00251130   -0.03470258
     atom   23 type  1   force =    -0.00551408   -0.00134226   -0.02993056
     atom   24 type  1   force =     0.11955376    0.02908374    0.09586171
     atom   25 type  1   force =     0.02810555    0.00683671   -0.09967523
     atom   26 type  1   force =     0.00922199    0.00224312   -0.03548589
     atom   27 type  1   force =    -0.00557800   -0.00135753   -0.02970958
     atom   28 type  1   force =     0.12084170    0.02939774    0.09608493
     atom   29 type  1   force =     0.02810595    0.00683591   -0.09967522
     atom   30 type  1   force =     0.00922162    0.00224351   -0.03548610
     atom   31 type  1   force =    -0.00557818   -0.00135661   -0.02970976
     atom   32 type  1   force =     0.12084159    0.02939760    0.09608467
     The ionic contribution  to forces
     atom    1 type  1   force =    -5.53631646   -1.34680179 -359.09563291
     atom    2 type  1   force =    -0.56098516   -0.13646897 -104.92424614
     atom    3 type  1   force =    -0.92363292   -0.22468914  147.61275435
     atom    4 type  1   force =    -1.84369409   -0.44850999  387.67495327
     atom    5 type  1   force =    -5.53631644   -1.34680179 -359.09563290
     atom    6 type  1   force =    -0.56098517   -0.13646898 -104.92424615
     atom    7 type  1   force =    -0.92363291   -0.22468915  147.61275435
     atom    8 type  1   force =    -1.84369409   -0.44851000  387.67495327
     atom    9 type  1   force =    -5.53631647   -1.34680179 -359.09563290
     atom   10 type  1   force =    -0.56098514   -0.13646897 -104.92424613
     atom   11 type  1   force =    -0.92363292   -0.22468914  147.61275437
     atom   12 type  1   force =    -1.84369408   -0.44850999  387.67495327
     atom   13 type  1   force =    -5.53631650   -1.34680180 -359.09563290
     atom   14 type  1   force =    -0.56098515   -0.13646897 -104.92424614
     atom   15 type  1   force =    -0.92363291   -0.22468915  147.61275436
     atom   16 type  1   force =    -1.84369408   -0.44851000  387.67495327
     atom   17 type  1   force =     1.84369409    0.44851000 -387.67495327
     atom   18 type  1   force =     0.92363291    0.22468915 -147.61275435
     atom   19 type  1   force =     0.56098515    0.13646898  104.92424613
     atom   20 type  1   force =     5.53631646    1.34680179  359.09563290
     atom   21 type  1   force =     1.84369411    0.44850999 -387.67495327
     atom   22 type  1   force =     0.92363290    0.22468914 -147.61275435
     atom   23 type  1   force =     0.56098515    0.13646897  104.92424613
     atom   24 type  1   force =     5.53631647    1.34680178  359.09563290
     atom   25 type  1   force =     1.84369407    0.44850999 -387.67495327
     atom   26 type  1   force =     0.92363293    0.22468914 -147.61275436
     atom   27 type  1   force =     0.56098516    0.13646898  104.92424615
     atom   28 type  1   force =     5.53631647    1.34680180  359.09563291
     atom   29 type  1   force =     1.84369406    0.44850998 -387.67495328
     atom   30 type  1   force =     0.92363291    0.22468915 -147.61275437
     atom   31 type  1   force =     0.56098516    0.13646897  104.92424615
     atom   32 type  1   force =     5.53631648    1.34680179  359.09563291
     The local contribution  to forces
     atom    1 type  1   force =     5.65842462    1.37650727  359.17210988
     atom    2 type  1   force =     0.55843179    0.13584656  104.90154551
     atom    3 type  1   force =     0.93340823    0.22706786 -147.64010392
     atom    4 type  1   force =     1.88315218    0.45810949 -387.75776420
     atom    5 type  1   force =     5.65842488    1.37650818  359.17210975
     atom    6 type  1   force =     0.55843145    0.13584707  104.90154536
     atom    7 type  1   force =     0.93340924    0.22706630 -147.64010379
     atom    8 type  1   force =     1.88315279    0.45810775 -387.75776431
     atom    9 type  1   force =     5.66045366    1.37700076  359.17255615
     atom   10 type  1   force =     0.55928665    0.13605533  104.90256808
     atom   11 type  1   force =     0.93078831    0.22643072 -147.64208213
     atom   12 type  1   force =     1.88417421    0.45835614 -387.75784930
     atom   13 type  1   force =     5.66045427    1.37700000  359.17255562
     atom   14 type  1   force =     0.55928682    0.13605549  104.90256762
     atom   15 type  1   force =     0.93078816    0.22643055 -147.64208240
     atom   16 type  1   force =     1.88417412    0.45835607 -387.75784962
     atom   17 type  1   force =    -1.88276945   -0.45801454  387.75786932
     atom   18 type  1   force =    -0.93332998   -0.22704925  147.64020187
     atom   19 type  1   force =    -0.55893736   -0.13597094 -104.90180056
     atom   20 type  1   force =    -5.65800883   -1.37640459 -359.17209602
     atom   21 type  1   force =    -1.88276969   -0.45801361  387.75786887
     atom   22 type  1   force =    -0.93333002   -0.22704914  147.64020195
     atom   23 type  1   force =    -0.55893828   -0.13596881 -104.90180090
     atom   24 type  1   force =    -5.65800924   -1.37640476 -359.17209660
     atom   25 type  1   force =    -1.88453515   -0.45844564  387.75770962
     atom   26 type  1   force =    -0.93091358   -0.22645945  147.64192663
     atom   27 type  1   force =    -0.55874320   -0.13592124 -104.90230731
     atom   28 type  1   force =    -5.66088757   -1.37710648 -359.17263128
     atom   29 type  1   force =    -1.88453628   -0.45844327  387.75770966
     atom   30 type  1   force =    -0.93091227   -0.22646093  147.64192750
     atom   31 type  1   force =    -0.55874327   -0.13592382 -104.90230716
     atom   32 type  1   force =    -5.66088733   -1.37710599 -359.17263083
     The core correction contribution to forces
     atom    1 type  1   force =     0.00000000    0.00000000    0.00000000
     atom    2 type  1   force =     0.00000000    0.00000000    0.00000000
     atom    3 type  1   force =     0.00000000    0.00000000    0.00000000
     atom    4 type  1   force =     0.00000000    0.00000000    0.00000000
     atom    5 type  1   force =     0.00000000    0.00000000    0.00000000
     atom    6 type  1   force =     0.00000000    0.00000000    0.00000000
     atom    7 type  1   force =     0.00000000    0.00000000    0.00000000
     atom    8 type  1   force =     0.00000000    0.00000000    0.00000000
     atom    9 type  1   force =     0.00000000    0.00000000    0.00000000
     atom   10 type  1   force =     0.00000000    0.00000000    0.00000000
     atom   11 type  1   force =     0.00000000    0.00000000    0.00000000
     atom   12 type  1   force =     0.00000000    0.00000000    0.00000000
     atom   13 type  1   force =     0.00000000    0.00000000    0.00000000
     atom   14 type  1   force =     0.00000000    0.00000000    0.00000000
     atom   15 type  1   force =     0.00000000    0.00000000    0.00000000
     atom   16 type  1   force =     0.00000000    0.00000000    0.00000000
     atom   17 type  1   force =     0.00000000    0.00000000    0.00000000
     atom   18 type  1   force =     0.00000000    0.00000000    0.00000000
     atom   19 type  1   force =     0.00000000    0.00000000    0.00000000
     atom   20 type  1   force =     0.00000000    0.00000000    0.00000000
     atom   21 type  1   force =     0.00000000    0.00000000    0.00000000
     atom   22 type  1   force =     0.00000000    0.00000000    0.00000000
     atom   23 type  1   force =     0.00000000    0.00000000    0.00000000
     atom   24 type  1   force =     0.00000000    0.00000000    0.00000000
     atom   25 type  1   force =     0.00000000    0.00000000    0.00000000
     atom   26 type  1   force =     0.00000000    0.00000000    0.00000000
     atom   27 type  1   force =     0.00000000    0.00000000    0.00000000
     atom   28 type  1   force =     0.00000000    0.00000000    0.00000000
     atom   29 type  1   force =     0.00000000    0.00000000    0.00000000
     atom   30 type  1   force =     0.00000000    0.00000000    0.00000000
     atom   31 type  1   force =     0.00000000    0.00000000    0.00000000
     atom   32 type  1   force =     0.00000000    0.00000000    0.00000000
     The Hubbard contrib.    to forces
     atom    1 type  1   force =     0.00000000    0.00000000    0.00000000
     atom    2 type  1   force =     0.00000000    0.00000000    0.00000000
     atom    3 type  1   force =     0.00000000    0.00000000    0.00000000
     atom    4 type  1   force =     0.00000000    0.00000000    0.00000000
     atom    5 type  1   force =     0.00000000    0.00000000    0.00000000
     atom    6 type  1   force =     0.00000000    0.00000000    0.00000000
     atom    7 type  1   force =     0.00000000    0.00000000    0.00000000
     atom    8 type  1   force =     0.00000000    0.00000000    0.00000000
     atom    9 type  1   force =     0.00000000    0.00000000    0.00000000
     atom   10 type  1   force =     0.00000000    0.00000000    0.00000000
     atom   11 type  1   force =     0.00000000    0.00000000    0.00000000
     atom   12 type  1   force =     0.00000000    0.00000000    0.00000000
     atom   13 type  1   force =     0.00000000    0.00000000    0.00000000
     atom   14 type  1   force =     0.00000000    0.00000000    0.00000000
     atom   15 type  1   force =     0.00000000    0.00000000    0.00000000
     atom   16 type  1   force =     0.00000000    0.00000000    0.00000000
     atom   17 type  1   force =     0.00000000    0.00000000    0.00000000
     atom   18 type  1   force =     0.00000000    0.00000000    0.00000000
     atom   19 type  1   force =     0.00000000    0.00000000    0.00000000
     atom   20 type  1   force =     0.00000000    0.00000000    0.00000000
     atom   21 type  1   force =     0.00000000    0.00000000    0.00000000
     atom   22 type  1   force =     0.00000000    0.00000000    0.00000000
     atom   23 type  1   force =     0.00000000    0.00000000    0.00000000
     atom   24 type  1   force =     0.00000000    0.00000000    0.00000000
     atom   25 type  1   force =     0.00000000    0.00000000    0.00000000
     atom   26 type  1   force =     0.00000000    0.00000000    0.00000000
     atom   27 type  1   force =     0.00000000    0.00000000    0.00000000
     atom   28 type  1   force =     0.00000000    0.00000000    0.00000000
     atom   29 type  1   force =     0.00000000    0.00000000    0.00000000
     atom   30 type  1   force =     0.00000000    0.00000000    0.00000000
     atom   31 type  1   force =     0.00000000    0.00000000    0.00000000
     atom   32 type  1   force =     0.00000000    0.00000000    0.00000000
     The SCF correction term to forces
     atom    1 type  1   force =     0.00000000    0.00000000    0.00000000
     atom    2 type  1   force =     0.00000000    0.00000000    0.00000000
     atom    3 type  1   force =    -0.00125231   -0.00030550   -0.00114678
     atom    4 type  1   force =     0.00050052    0.00012025   -0.00023364
     atom    5 type  1   force =     0.00000000    0.00000000    0.00000000
     atom    6 type  1   force =     0.00000000    0.00000000    0.00000000
     atom    7 type  1   force =    -0.00125330   -0.00030387   -0.00114591
     atom    8 type  1   force =     0.00049984    0.00012281   -0.00023373
     atom    9 type  1   force =    -0.00000000   -0.00000000   -0.00000000
     atom   10 type  1   force =    -0.00000000   -0.00000000   -0.00000000
     atom   11 type  1   force =     0.00162309    0.00039458    0.00107697
     atom   12 type  1   force =    -0.00052089   -0.00012645   -0.00008681
     atom   13 type  1   force =    -0.00000000   -0.00000000   -0.00000000
     atom   14 type  1   force =    -0.00000000   -0.00000000   -0.00000000
     atom   15 type  1   force =     0.00162349    0.00039528    0.00107750
     atom   16 type  1   force =    -0.00052075   -0.00012642   -0.00008594
     atom   17 type  1   force =    -0.00000000   -0.00000000    0.00000000
     atom   18 type  1   force =     0.00000000    0.00000000    0.00000000
     atom   19 type  1   force =     0.00000529    0.00000294   -0.00027168
     atom   20 type  1   force =    -0.00165687   -0.00040323   -0.00036364
     atom   21 type  1   force =    -0.00000000   -0.00000000    0.00000000
     atom   22 type  1   force =     0.00000000    0.00000000    0.00000000
     atom   23 type  1   force =     0.00000627   -0.00000011   -0.00027099
     atom   24 type  1   force =    -0.00165585   -0.00040271   -0.00036291
     atom   25 type  1   force =     0.00000000    0.00000000    0.00000000
     atom   26 type  1   force =    -0.00000000   -0.00000000   -0.00000000
     atom   27 type  1   force =    -0.00035004   -0.00008732    0.00032469
     atom   28 type  1   force =     0.00161518    0.00039285    0.00022648
     atom   29 type  1   force =     0.00000000    0.00000000    0.00000000
     atom   30 type  1   force =    -0.00000000   -0.00000000   -0.00000000
     atom   31 type  1   force =    -0.00034923   -0.00008415    0.00032495
     atom   32 type  1   force =     0.00161458    0.00039191    0.00022578

     Total force =     0.061160     Total SCF correction =     0.005235


     Computing stress (Cartesian axis) and pressure

          total   stress  (Ry/bohr**3)                   (kbar)     P=     -271.53
  -0.00189509   0.00001460   0.00004931         -278.78        2.15        7.25
   0.00001460  -0.00195158   0.00001199            2.15     -287.09        1.76
   0.00004931   0.00001199  -0.00169080            7.25        1.76     -248.73

     kinetic stress (kbar)  15101.09     12.96     -9.32
                               12.96  15050.95     -2.27
                               -9.32     -2.27  15120.16

     local   stress (kbar)**********   3405.28  -4314.70
                             3405.28**********  -1049.62
                            -4314.70  -1049.621276802.06

     nonloc. stress (kbar)  -1850.03     -5.84      6.73
                               -5.84  -1827.43      1.64
                                6.73      1.64  -1855.86

     hartree stress (kbar) 664386.25  -1456.97   1819.48
                            -1456.97 670021.01    442.62
                             1819.48    442.62-596647.65

     exc-cor stress (kbar)  -7544.49     -0.87      1.13
                               -0.87  -7541.13      0.28
                                1.13      0.28  -7546.91

     corecor stress (kbar)      0.00      0.00      0.00
                                0.00      0.00      0.00
                                0.00      0.00      0.00

     ewald   stress (kbar) 591400.15  -1952.41   2503.93
                            -1952.41 598951.00    609.12
                             2503.93    609.12-686120.52

     hubbard stress (kbar)      0.00      0.00      0.00
                                0.00      0.00      0.00
                                0.00      0.00      0.00

     DFT-D   stress (kbar)      0.00      0.00      0.00
                                0.00      0.00      0.00
                                0.00      0.00      0.00

     XDM     stress (kbar)      0.00      0.00      0.00
                                0.00      0.00      0.00
                                0.00      0.00      0.00

     dft-nl  stress (kbar)      0.00      0.00      0.00
                                0.00      0.00      0.00
                                0.00      0.00      0.00

     TS-vdW  stress (kbar)      0.00      0.00      0.00
                                0.00      0.00      0.00
                                0.00      0.00      0.00

     MDB     stress (kbar)      0.00      0.00      0.00
                                0.00      0.00      0.00
                                0.00      0.00      0.00

     3D-RISM stress (kbar)      0.00      0.00      0.00
                                0.00      0.00      0.00
                                0.00      0.00      0.00


     BFGS Geometry Optimization
     Energy error            =      0.0E+00 Ry
     Gradient error          =      1.9E-02 Ry/Bohr

     number of scf cycles    =   1
     number of bfgs steps    =   0

     energy             new  =  -14767.4600844184 Ry

     new trust radius        =       0.0210702370 bohr
     new conv_thr            =       0.0000007350 Ry


ATOMIC_POSITIONS (angstrom)
Zn              -1.0735556570        1.0841422360        1.1977635690    0   0   0
Zn              -5.3677776710        0.0395003420        3.2510724040    0   0   0
Zn              -9.6629655763       -1.0053767388        5.3076400914
Zn             -13.9496186568       -2.0481774608        7.3665297972
Zn              -1.6915203730        3.6244172340        1.1977635690    0   0   0
Zn              -5.9857423860        2.5797753400        3.2510724040    0   0   0
Zn             -10.2809304249        1.5348986510        5.3076406443
Zn             -14.5675835015        0.4920982594        7.3665297364
[...]
     atom    2 type  1   force =    -1.55943060   -0.37950807   94.62197924
     atom    3 type  1   force =     3.04032520    0.73997220 -149.61271431
     atom    4 type  1   force =    10.65132657    2.59071654 -372.38191722
     atom    5 type  1   force =     5.52244718    1.34342946  347.95994461
     atom    6 type  1   force =    -1.55942684   -0.37952218   94.62197963
     atom    7 type  1   force =     3.04033029    0.73999309 -149.61262575
     atom    8 type  1   force =    10.65132884    2.59071774 -372.38187614
     atom    9 type  1   force =     5.50856505    1.34005127  347.99449001
     atom   10 type  1   force =    -1.46758273   -0.35719014   94.57578136
     atom   11 type  1   force =     2.93793299    0.71490910 -149.62973475
     atom   12 type  1   force =    10.62447827    2.58406646 -372.33327007
     atom   13 type  1   force =     5.50856530    1.34005106  347.99448826
     atom   14 type  1   force =    -1.46757667   -0.35722939   94.57578810
     atom   15 type  1   force =     2.93791522    0.71491049 -149.62971392
     atom   16 type  1   force =    10.62447068    2.58410330 -372.33320535
     atom   17 type  1   force =    -1.77870051   -0.43269993  376.51124600
     atom   18 type  1   force =    -0.23451621   -0.05724510  138.44661110
     atom   19 type  1   force =    -3.61899276   -0.88020340  -94.97218982
     atom   20 type  1   force =   -12.02015736   -2.92388627 -340.58537932
     atom   21 type  1   force =    -1.77870060   -0.43270145  376.51124561
     atom   22 type  1   force =    -0.23451081   -0.05725686  138.44661800
     atom   23 type  1   force =    -3.61899015   -0.88018205  -94.97214703
     atom   24 type  1   force =   -12.02017523   -2.92387736 -340.58537505
     atom   25 type  1   force =    -1.80672632   -0.43951825  376.50331854
     atom   26 type  1   force =    -0.15654863   -0.03824526  138.50730818
     atom   27 type  1   force =    -3.71339687   -0.90307034  -95.12631602
     atom   28 type  1   force =   -11.96905732   -2.91137380 -340.44532384
     atom   29 type  1   force =    -1.80672667   -0.43951898  376.50331806
     atom   30 type  1   force =    -0.15655300   -0.03825703  138.50731916
     atom   31 type  1   force =    -3.71338156   -0.90303428  -95.12623404
     atom   32 type  1   force =   -11.96902912   -2.91134859 -340.44529691
     The core correction contribution to forces
     atom    1 type  1   force =     0.00000000    0.00000000    0.00000000
     atom    2 type  1   force =     0.00000000    0.00000000    0.00000000
     atom    3 type  1   force =     0.00000000    0.00000000    0.00000000
     atom    4 type  1   force =     0.00000000    0.00000000    0.00000000
     atom    5 type  1   force =     0.00000000    0.00000000    0.00000000
     atom    6 type  1   force =     0.00000000    0.00000000    0.00000000
     atom    7 type  1   force =     0.00000000    0.00000000    0.00000000
     atom    8 type  1   force =     0.00000000    0.00000000    0.00000000
     atom    9 type  1   force =     0.00000000    0.00000000    0.00000000
     atom   10 type  1   force =     0.00000000    0.00000000    0.00000000
     atom   11 type  1   force =     0.00000000    0.00000000    0.00000000
     atom   12 type  1   force =     0.00000000    0.00000000    0.00000000
     atom   13 type  1   force =     0.00000000    0.00000000    0.00000000
     atom   14 type  1   force =     0.00000000    0.00000000    0.00000000
     atom   15 type  1   force =     0.00000000    0.00000000    0.00000000
     atom   16 type  1   force =     0.00000000    0.00000000    0.00000000
     atom   17 type  1   force =     0.00000000    0.00000000    0.00000000
     atom   18 type  1   force =     0.00000000    0.00000000    0.00000000
     atom   19 type  1   force =     0.00000000    0.00000000    0.00000000
     atom   20 type  1   force =     0.00000000    0.00000000    0.00000000
     atom   21 type  1   force =     0.00000000    0.00000000    0.00000000
     atom   22 type  1   force =     0.00000000    0.00000000    0.00000000
     atom   23 type  1   force =     0.00000000    0.00000000    0.00000000
     atom   24 type  1   force =     0.00000000    0.00000000    0.00000000
     atom   25 type  1   force =     0.00000000    0.00000000    0.00000000
     atom   26 type  1   force =     0.00000000    0.00000000    0.00000000
     atom   27 type  1   force =     0.00000000    0.00000000    0.00000000
     atom   28 type  1   force =     0.00000000    0.00000000    0.00000000
     atom   29 type  1   force =     0.00000000    0.00000000    0.00000000
     atom   30 type  1   force =     0.00000000    0.00000000    0.00000000
     atom   31 type  1   force =     0.00000000    0.00000000    0.00000000
     atom   32 type  1   force =     0.00000000    0.00000000    0.00000000
     The Hubbard contrib.    to forces
     atom    1 type  1   force =     0.00000000    0.00000000    0.00000000
     atom    2 type  1   force =     0.00000000    0.00000000    0.00000000
     atom    3 type  1   force =     0.00000000    0.00000000    0.00000000
     atom    4 type  1   force =     0.00000000    0.00000000    0.00000000
     atom    5 type  1   force =     0.00000000    0.00000000    0.00000000
     atom    6 type  1   force =     0.00000000    0.00000000    0.00000000
     atom    7 type  1   force =     0.00000000    0.00000000    0.00000000
     atom    8 type  1   force =     0.00000000    0.00000000    0.00000000
     atom    9 type  1   force =     0.00000000    0.00000000    0.00000000
     atom   10 type  1   force =     0.00000000    0.00000000    0.00000000
     atom   11 type  1   force =     0.00000000    0.00000000    0.00000000
     atom   12 type  1   force =     0.00000000    0.00000000    0.00000000
     atom   13 type  1   force =     0.00000000    0.00000000    0.00000000
     atom   14 type  1   force =     0.00000000    0.00000000    0.00000000
     atom   15 type  1   force =     0.00000000    0.00000000    0.00000000
     atom   16 type  1   force =     0.00000000    0.00000000    0.00000000
     atom   17 type  1   force =     0.00000000    0.00000000    0.00000000
     atom   18 type  1   force =     0.00000000    0.00000000    0.00000000
     atom   19 type  1   force =     0.00000000    0.00000000    0.00000000
     atom   20 type  1   force =     0.00000000    0.00000000    0.00000000
     atom   21 type  1   force =     0.00000000    0.00000000    0.00000000
     atom   22 type  1   force =     0.00000000    0.00000000    0.00000000
     atom   23 type  1   force =     0.00000000    0.00000000    0.00000000
     atom   24 type  1   force =     0.00000000    0.00000000    0.00000000
     atom   25 type  1   force =     0.00000000    0.00000000    0.00000000
     atom   26 type  1   force =     0.00000000    0.00000000    0.00000000
     atom   27 type  1   force =     0.00000000    0.00000000    0.00000000
     atom   28 type  1   force =     0.00000000    0.00000000    0.00000000
     atom   29 type  1   force =     0.00000000    0.00000000    0.00000000
     atom   30 type  1   force =     0.00000000    0.00000000    0.00000000
     atom   31 type  1   force =     0.00000000    0.00000000    0.00000000
     atom   32 type  1   force =     0.00000000    0.00000000    0.00000000
     The SCF correction term to forces
     atom    1 type  1   force =    -0.00000000   -0.00000000   -0.00000000
     atom    2 type  1   force =    -0.00000000   -0.00000000   -0.00000000
     atom    3 type  1   force =     0.00000016    0.00000006    0.00001693
     atom    4 type  1   force =    -0.00005243   -0.00001276    0.00005250
     atom    5 type  1   force =    -0.00000000   -0.00000000   -0.00000000
     atom    6 type  1   force =    -0.00000000   -0.00000000   -0.00000000
     atom    7 type  1   force =     0.00000016    0.00000002    0.00001692
     atom    8 type  1   force =    -0.00005243   -0.00001276    0.00005250
     atom    9 type  1   force =     0.00000000    0.00000000    0.00000000
     atom   10 type  1   force =    -0.00000000   -0.00000000   -0.00000000
     atom   11 type  1   force =    -0.00003721   -0.00000906    0.00001592
     atom   12 type  1   force =     0.00000895    0.00000220    0.00006053
     atom   13 type  1   force =     0.00000000    0.00000000    0.00000000
     atom   14 type  1   force =    -0.00000000   -0.00000000   -0.00000000
     atom   15 type  1   force =    -0.00003722   -0.00000905    0.00001592
     atom   16 type  1   force =     0.00000894    0.00000216    0.00006053
     atom   17 type  1   force =     0.00000000    0.00000000    0.00000000
     atom   18 type  1   force =    -0.00000000   -0.00000000   -0.00000000
     atom   19 type  1   force =     0.00006288    0.00001531   -0.00003072
     atom   20 type  1   force =    -0.00000210   -0.00000050    0.00004427
     atom   21 type  1   force =     0.00000000    0.00000000    0.00000000
     atom   22 type  1   force =    -0.00000000   -0.00000000   -0.00000000
     atom   23 type  1   force =     0.00006288    0.00001528   -0.00003072
     atom   24 type  1   force =    -0.00000209   -0.00000052    0.00004426
     atom   25 type  1   force =    -0.00000000   -0.00000000    0.00000000
     atom   26 type  1   force =     0.00000000    0.00000000   -0.00000000
     atom   27 type  1   force =    -0.00002176   -0.00000528   -0.00001856
     atom   28 type  1   force =     0.00004954    0.00001207    0.00002641
     atom   29 type  1   force =    -0.00000000   -0.00000000    0.00000000
     atom   30 type  1   force =     0.00000000    0.00000000   -0.00000000
     atom   31 type  1   force =    -0.00002175   -0.00000531   -0.00001857
     atom   32 type  1   force =     0.00004953    0.00001204    0.00002641

     Total force =     0.001717     Total SCF correction =     0.000213
     SCF correction compared to forces is large: reduce conv_thr to get better values


     Computing stress (Cartesian axis) and pressure

          total   stress  (Ry/bohr**3)                   (kbar)     P=     -284.42
  -0.00200099  -0.00000588   0.00002141         -294.36       -0.87        3.15
  -0.00000588  -0.00197826   0.00000520           -0.87     -291.01        0.77
   0.00002141   0.00000520  -0.00182100            3.15        0.77     -267.88

     kinetic stress (kbar)  15079.54      9.02     -4.15
                                9.02  15044.66     -1.01
                               -4.15     -1.01  15115.07

     local   stress (kbar)**********   3539.32  -1789.24
                             3539.32**********   -435.19
                            -1789.24   -435.191184761.70

     nonloc. stress (kbar)  -1864.03     -6.21      3.92
                               -6.21  -1840.02      0.95
                                3.92      0.95  -1870.31

     hartree stress (kbar) 618974.22  -1524.74    745.29
                            -1524.74 624870.82    181.27
                              745.29    181.27-550830.06

     exc-cor stress (kbar)  -7541.83     -0.90      0.55
                               -0.90  -7538.33      0.13
                                0.55      0.13  -7545.13

     corecor stress (kbar)      0.00      0.00      0.00
                                0.00      0.00      0.00
                                0.00      0.00      0.00

     ewald   stress (kbar) 545737.26  -2017.35   1046.78
                            -2017.35 553538.90    254.61
                             1046.78    254.61-639899.14

     hubbard stress (kbar)      0.00      0.00      0.00
                                0.00      0.00      0.00
                                0.00      0.00      0.00

     DFT-D   stress (kbar)      0.00      0.00      0.00
                                0.00      0.00      0.00
                                0.00      0.00      0.00

     XDM     stress (kbar)      0.00      0.00      0.00
                                0.00      0.00      0.00
                                0.00      0.00      0.00

     dft-nl  stress (kbar)      0.00      0.00      0.00
                                0.00      0.00      0.00
                                0.00      0.00      0.00

     TS-vdW  stress (kbar)      0.00      0.00      0.00
                                0.00      0.00      0.00
                                0.00      0.00      0.00

     MDB     stress (kbar)      0.00      0.00      0.00
                                0.00      0.00      0.00
                                0.00      0.00      0.00

     3D-RISM stress (kbar)      0.00      0.00      0.00
                                0.00      0.00      0.00
                                0.00      0.00      0.00

     Energy error            =      3.5E-06 Ry
     Gradient error          =      4.6E-04 Ry/Bohr

     bfgs converged in  26 scf cycles and  25 bfgs steps
     (criteria: energy <  1.0E-05 Ry, force <  5.0E-04 Ry/Bohr)

     End of BFGS Geometry Optimization

     Final energy             =  -14767.5221721186 Ry

     File ./tmp/Zn002_2x2x4_relax_ecutrho250_ecutwfc25.bfgs deleted, as requested
Begin final coordinates

ATOMIC_POSITIONS (angstrom)
Zn              -1.0735556570        1.0841422360        1.1977635690    0   0   0
Zn              -5.3677776710        0.0395003420        3.2510724040    0   0   0
Zn              -9.6997933970       -1.0142840196        5.6513536463
Zn             -13.7072340587       -1.9892449478        7.7599039545
Zn              -1.6915203730        3.6244172340        1.1977635690    0   0   0
Zn              -5.9857423860        2.5797753400        3.2510724040    0   0   0
Zn             -10.3177574621        1.5259913542        5.6513525286
Zn             -14.3251982172        0.5510303851        7.7599035579
Zn               4.4565957100        1.0841422360        1.1977635690    0   0   0
Zn               0.1623736960        0.0395003420        3.2510724040    0   0   0
Zn              -4.1693980069       -1.0142366875        5.6517554437
Zn              -8.1765603972       -1.9891311354        7.7583865129
Zn               3.8386309950        3.6244172340        1.1977635690    0   0   0
Zn              -0.4555910190        2.5797753400        3.2510724040    0   0   0
Zn              -4.7873633254        1.5260381297        5.6517551910
Zn              -8.7945254544        0.5511440112        7.7583855680
Zn               1.6915202950        0.4114908680        0.8555452660    0   0   0
Zn              -2.6027017190       -0.6331510260        2.9088541010    0   0   0
Zn              -6.9771372861       -1.6972539748        5.1015389240
Zn             -11.1372612207       -2.7092745210        7.3681532079
Zn               1.0735555790        2.9517658660        0.8555452660    0   0   0
Zn              -3.2206664340        1.9071239720        2.9088541010    0   0   0
Zn              -7.5951019832        0.8430210325        5.1015384393
Zn             -11.7552265846       -0.1689994377        7.3681532979
Zn               7.2216716620        0.4114908680        0.8555452660    0   0   0
Zn               2.9274496480       -0.6331510260        2.9088541010    0   0   0
Zn              -1.4476190976       -1.6974004079        5.1035951865
Zn              -5.6073907655       -2.7093458332        7.3647087659
Zn               6.6037069470        2.9517658660        0.8555452660    0   0   0
Zn               2.3094849330        1.9071239720        2.9088541010    0   0   0
Zn              -2.0655825929        0.8428752633        5.1035941222
Zn              -6.2253546955       -0.1690704385        7.3647083007
End final coordinates



     Writing all to output data dir ./tmp/Zn002_2x2x4_relax_ecutrho250_ecutwfc25.save/ :
     XML data file, charge density, pseudopotentials, collected wavefunctions

     init_run     :      9.85s CPU      9.95s WALL (       1 calls)
     electrons    :   9419.86s CPU   9501.99s WALL (      26 calls)
     update_pot   :      0.65s CPU      0.70s WALL (      25 calls)
     forces       :    203.78s CPU    205.51s WALL (      26 calls)
     stress       :    603.15s CPU    604.98s WALL (      26 calls)

     Called by init_run:
     wfcinit      :      9.69s CPU      9.77s WALL (       1 calls)
     wfcinit:atom :      0.01s CPU      0.01s WALL (       5 calls)
     wfcinit:wfcr :      9.53s CPU      9.61s WALL (       5 calls)
     potinit      :      0.02s CPU      0.03s WALL (       1 calls)
     hinit0       :      0.01s CPU      0.02s WALL (       1 calls)

     Called by electrons:
     c_bands      :   8609.25s CPU   8683.58s WALL (     277 calls)
     sum_band     :    777.83s CPU    784.66s WALL (     277 calls)
     v_of_rho     :      5.88s CPU      6.27s WALL (     281 calls)
     v_h          :      0.26s CPU      0.31s WALL (     281 calls)
     v_xc         :      5.62s CPU      5.96s WALL (     281 calls)
     newd         :     29.37s CPU     29.56s WALL (     281 calls)
     mix_rho      :      0.41s CPU      0.44s WALL (     277 calls)

     Called by c_bands:
     init_us_2    :     13.17s CPU     13.23s WALL (    3035 calls)
     cegterg      :   8580.80s CPU   8654.71s WALL (    1385 calls)

     Called by sum_band:
     sum_band:wei :      0.53s CPU      0.53s WALL (     277 calls)
     sum_band:loo :    760.74s CPU    767.25s WALL (     277 calls)
     sum_band:buf :      2.64s CPU      2.65s WALL (    1385 calls)
     sum_band:ini :      6.01s CPU      6.03s WALL (    1385 calls)
     sum_band:cal :    504.78s CPU    509.29s WALL (    1385 calls)
     sum_band:bec :     12.10s CPU     12.14s WALL (    1385 calls)
     addusdens    :     14.33s CPU     14.43s WALL (     277 calls)
                                        0.00s GPU  (     277 calls)
     addusd:skk   :      0.21s CPU      0.21s WALL (     277 calls)
                                        0.00s GPU  (     277 calls)

     Called by *egterg:
     cdiaghg      :   1140.16s CPU   1166.88s WALL (    4828 calls)
     cegterg:over :   1166.63s CPU   1173.95s WALL (    3678 calls)
     cegterg:upda :    441.52s CPU    444.18s WALL (    3678 calls)
     cegterg:last :   1491.95s CPU   1503.50s WALL (    2924 calls)
     cdiaghg:chol :     80.64s CPU     80.86s WALL (    4828 calls)
     cdiaghg:inve :     16.75s CPU     16.80s WALL (    4828 calls)
     cdiaghg:para :    307.93s CPU    315.71s WALL (    9656 calls)
     h_psi        :   3115.64s CPU   3136.59s WALL (    5068 calls)
     s_psi        :    810.92s CPU    812.89s WALL (    5068 calls)
     g_psi        :      2.25s CPU      2.26s WALL (    3678 calls)

     Called by h_psi:
     h_psi:calbec :   1163.95s CPU   1174.58s WALL (    5068 calls)
     vloc_psi     :   1080.51s CPU   1088.52s WALL (    5068 calls)
     add_vuspsi   :    865.49s CPU    867.67s WALL (    5068 calls)

     General routines
     calbec       :   1919.19s CPU   1936.50s WALL (    7103 calls)
     fft          :      4.30s CPU      4.95s WALL (    3346 calls)
     ffts         :      0.25s CPU      0.28s WALL (     277 calls)
     fftw         :   1243.44s CPU   1253.01s WALL ( 2983716 calls)

     Parallel routines

     PWSCF        :      2h50m CPU      2h52m WALL


   This run was terminated on:   5:59:33  15Mar2025            

=------------------------------------------------------------------------------=
   JOB DONE.
=------------------------------------------------------------------------------=
Note: The following floating-point exceptions are signalling: IEEE_DENORMAL
Note: The following floating-point exceptions are signalling: IEEE_DENORMAL
Note: The following floating-point exceptions are signalling: IEEE_DENORMAL
Note: The following floating-point exceptions are signalling: IEEE_DENORMAL
Note: The following floating-point exceptions are signalling: IEEE_DENORMAL
Note: The following floating-point exceptions are signalling: IEEE_DENORMAL
Note: The following floating-point exceptions are signalling: IEEE_DENORMAL
