--------------------------------------------------------------------------
By default, for Open MPI 4.0 and later, infiniband ports on a device
are not used by default.  The intent is to use UCX for these devices.
You can override this policy by setting the btl_openib_allow_ib MCA parameter
to true.

  Local host:              psid06
  Local adapter:           mlx4_0
  Local port:              1

--------------------------------------------------------------------------
--------------------------------------------------------------------------
WARNING: There was an error initializing an OpenFabrics device.

  Local host:   psid06
  Local device: mlx4_0
--------------------------------------------------------------------------

     Program PWSCF v.7.3.1 starts on 14Apr2025 at  4:11: 9 

     This program is part of the open-source Quantum ESPRESSO suite
     for quantum simulation of materials; please cite
         "P. Giannozzi et al., J. Phys.:Condens. Matter 21 395502 (2009);
         "P. Giannozzi et al., J. Phys.:Condens. Matter 29 465901 (2017);
         "P. Giannozzi et al., J. Chem. Phys. 152 154105 (2020);
          URL http://www.quantum-espresso.org", 
     in publications or presentations arising from this work. More details at
     http://www.quantum-espresso.org/quote

     Parallel version (MPI), running on    34 processors

     MPI processes distributed on     1 nodes
     59614 MiB available memory on the printing compute node when the environment starts

     Waiting for input...
     Reading input from standard input
Warning: card &CELL ignored
Warning: card   CELL_DOFREE = 'ALL' ignored
Warning: card / ignored

     Current dimensions of program PWSCF are:
     Max number of different atomic species (ntypx) = 10
     Max number of k-points (npk) =  40000
     Max angular momentum in pseudopotentials (lmaxx) =  4
     file C.pbe-n-kjpaw_psl.1.0.0.UPF: wavefunction(s)  2S 2P renormalized

     R & G space division:  proc/nbgrp/npool/nimage =      34
     Subspace diagonalization in iterative solution of the eigenvalue problem:
     one sub-group per band group will be used
     custom distributed-memory algorithm (size of sub-group:  5*  5 procs)


     Parallelization info
     --------------------
     sticks:   dense  smooth     PW     G-vecs:    dense   smooth      PW
     Min         262     150     41                39198    16934    2456
     Max         263     151     42                39207    16941    2461
     Sum        8941    5109   1411              1332973   575857   83601

     Using Slab Decomposition



     bravais-lattice index     =            0
     lattice parameter (alat)  =      20.9009  a.u.
     unit-cell volume          =   16846.7507 (a.u.)^3
     number of atoms/cell      =           62
     number of atomic types    =            4
     number of electrons       =       996.00
     number of Kohn-Sham states=          598
     kinetic-energy cutoff     =      40.0000  Ry
     charge density cutoff     =     280.0000  Ry
     scf convergence threshold =      1.0E-06
     mixing beta               =       0.4000
     number of iterations used =            8  plain     mixing
     energy convergence thresh.=      5.0E-05
     force convergence thresh. =      1.0E-03
     Exchange-correlation= PBE
                           (   1   4   3   4   0   0   0)
     nstep                     =          300


     celldm(1)=  20.900943  celldm(2)=   0.000000  celldm(3)=   0.000000
     celldm(4)=   0.000000  celldm(5)=   0.000000  celldm(6)=   0.000000

     crystal axes: (cart. coord. in units of alat)
               a(1) = (   1.000000   0.000000   0.000000 )  
               a(2) = (  -0.223489   0.918700   0.000000 )  
               a(3) = (  -4.200249  -1.021781   2.008375 )  

     reciprocal axes: (cart. coord. in units 2 pi/alat)
               b(1) = (  1.000000  0.243267  2.215131 )  
               b(2) = ( -0.000000  1.088495  0.553783 )  
               b(3) = (  0.000000 -0.000000  0.497915 )  


     PseudoPot. # 1 for Zn read from file:
     /home/ys/qepseudo/SSSP_1.3.0_PBE_efficiency/Zn_pbe_v1.uspp.F.UPF
     MD5 check sum: df62231357ef9e81f77b2b3087fa5675
     Pseudo is Ultrasoft, Zval = 20.0
     Generated by new atomic code, or converted to UPF format
     Using radial grid of  943 points,  6 beta functions with: 
                l(1) =   0
                l(2) =   0
                l(3) =   1
                l(4) =   1
                l(5) =   2
                l(6) =   2
     Q(r) pseudized with  8 coefficients,  rinner =    1.100   1.100   1.100
                                                       1.100   1.100

     PseudoPot. # 2 for N  read from file:
     /home/ys/qepseudo/SSSP_1.3.0_PBE_efficiency/N.pbe-n-radius_5.UPF
     MD5 check sum: 16739722b17309cd8fe442a2ace49922
     Pseudo is Ultrasoft + core correction, Zval =  5.0
     Generated using "atomic" code by A. Dal Corso  v.5.1
     Using radial grid of 1085 points,  4 beta functions with: 
                l(1) =   0
                l(2) =   0
                l(3) =   1
                l(4) =   1
     Q(r) pseudized with 0 coefficients 


     PseudoPot. # 3 for C  read from file:
     /home/ys/qepseudo/SSSP_1.3.0_PBE_efficiency/C.pbe-n-kjpaw_psl.1.0.0.UPF
     MD5 check sum: 5d2aebdfa2cae82b50a7e79e9516da0f
     Pseudo is Projector augmented-wave + core cor, Zval =  4.0
     Generated using "atomic" code by A. Dal Corso  v.5.1
     Shape of augmentation charge: PSQ
     Using radial grid of 1073 points,  4 beta functions with: 
                l(1) =   0
                l(2) =   0
                l(3) =   1
                l(4) =   1
     Q(r) pseudized with 0 coefficients 


     PseudoPot. # 4 for H  read from file:
     /home/ys/qepseudo/SSSP_1.3.0_PBE_efficiency/H.pbe-rrkjus_psl.1.0.0.UPF
     MD5 check sum: f52b6d4d1c606e5624b1dc7b2218f220
     Pseudo is Ultrasoft, Zval =  1.0
     Generated using "atomic" code by A. Dal Corso  v.5.1
     Using radial grid of  929 points,  2 beta functions with: 
                l(1) =   0
                l(2) =   0
     Q(r) pseudized with 0 coefficients 


     atomic species   valence    mass     pseudopotential
     Zn               20.00    65.38000     Zn( 1.00)
     N                 5.00    14.00674     N ( 1.00)
     C                 4.00    12.01070     C ( 1.00)
     H                 1.00     1.00794     H ( 1.00)

     No symmetry found


                                    s                        frac. trans.

      isym =  1     identity                                     

 cryst.   s( 1) = (     1          0          0      )
                  (     0          1          0      )
                  (     0          0          1      )

 cart.    s( 1) = (  1.0000000  0.0000000  0.0000000 )
                  (  0.0000000  1.0000000  0.0000000 )
                  (  0.0000000  0.0000000  1.0000000 )


   Cartesian axes

     site n.     atom                  positions (alat units)
         1        Zn     tau(   1) = (  -0.0970639   0.0980210   0.1082940  )
         2        Zn     tau(   2) = (  -0.2088085   0.5573710   0.1082940  )
         3        Zn     tau(   3) = (  -0.4436296   0.0133021   0.3267644  )
         4        Zn     tau(   4) = (  -0.5553466   0.4727589   0.3266326  )
         5        Zn     tau(   5) = (  -0.8015675  -0.0738560   0.5204735  )
         6        Zn     tau(   6) = (  -0.9136705   0.3857182   0.5203452  )
         7        Zn     tau(   7) = (  -0.1529361   0.3276960   0.1082940  )
         8        Zn     tau(   8) = (  -0.2646808   0.7870460   0.1082940  )
         9        Zn     tau(   9) = (  -0.4994158   0.2431043   0.3267310  )
        10        Zn     tau(  10) = (  -0.6113085   0.7023487   0.3266788  )
        11        Zn     tau(  11) = (  -0.8577155   0.1559534   0.5203020  )
        12        Zn     tau(  12) = (  -0.9693047   0.6153537   0.5205194  )
        13        Zn     tau(  13) = (   0.4029362   0.0980210   0.1082940  )
        14        Zn     tau(  14) = (   0.2911915   0.5573710   0.1082940  )
        15        Zn     tau(  15) = (   0.0565086   0.0133360   0.3241562  )
        16        Zn     tau(  16) = (  -0.0552146   0.4727957   0.3239770  )
        17        Zn     tau(  17) = (  -0.2990019  -0.0732614   0.5203282  )
        18        Zn     tau(  18) = (  -0.4111263   0.3864037   0.5201985  )
        19        Zn     tau(  19) = (   0.3470638   0.3276960   0.1082940  )
        20        Zn     tau(  20) = (   0.2353192   0.7870460   0.1082940  )
        21        Zn     tau(  21) = (   0.0007168   0.2430908   0.3241551  )
        22        Zn     tau(  22) = (  -0.1111493   0.7024087   0.3239982  )
        23        Zn     tau(  23) = (  -0.3551819   0.1565713   0.5201829  )
        24        Zn     tau(  24) = (  -0.4667146   0.6159736   0.5203598  )
        25        Zn     tau(  25) = (   0.1529361   0.0372043   0.0773528  )
        26        Zn     tau(  26) = (   0.0411915   0.4965543   0.0773528  )
        27        Zn     tau(  27) = (  -0.2122732  -0.0516715   0.2654630  )
        28        Zn     tau(  28) = (  -0.3239465   0.4077318   0.2654478  )
        29        Zn     tau(  29) = (  -0.5765287  -0.1406552   0.4574179  )
        30        Zn     tau(  30) = (  -0.6884677   0.3189336   0.4575418  )
        31        Zn     tau(  31) = (   0.0970639   0.2668793   0.0773528  )
        32        Zn     tau(  32) = (  -0.0146808   0.7262293   0.0773528  )
        33        Zn     tau(  33) = (  -0.2680871   0.1780502   0.2653609  )
        34        Zn     tau(  34) = (  -0.3798692   0.6373411   0.2655337  )
        35        Zn     tau(  35) = (  -0.6325059   0.0891251   0.4575687  )
        36        Zn     tau(  36) = (  -0.7442124   0.5485014   0.4573723  )
        37        Zn     tau(  37) = (   0.6529362   0.0372043   0.0773528  )
        38        Zn     tau(  38) = (   0.5411915   0.4965543   0.0773528  )
        39        Zn     tau(  39) = (   0.2881095  -0.0515887   0.2651273  )
        40        Zn     tau(  40) = (   0.1764595   0.4078348   0.2650500  )
        41        Zn     tau(  41) = (  -0.0738569  -0.1399537   0.4576836  )
        42        Zn     tau(  42) = (  -0.1858471   0.3195453   0.4578116  )
        43        Zn     tau(  43) = (   0.5970639   0.2668793   0.0773528  )
        44        Zn     tau(  44) = (   0.4853193   0.7262293   0.0773528  )
        45        Zn     tau(  45) = (   0.2323041   0.1780975   0.2650220  )
        46        Zn     tau(  46) = (   0.1205228   0.6374688   0.2651506  )
        47        Zn     tau(  47) = (  -0.1298290   0.0898017   0.4578049  )
        48        Zn     tau(  48) = (  -0.2415973   0.5491238   0.4576724  )
        49        C      tau(  49) = (  -0.9133404   0.2555067   1.0328992  )
        50        C      tau(  50) = (  -0.9285011   0.2492734   1.1577819  )
        51        C      tau(  51) = (  -0.8814154   0.1516684   0.9663476  )
        52        C      tau(  52) = (  -0.9123633   0.1403794   1.2198752  )
        53        C      tau(  53) = (  -0.8652414   0.0420681   1.0292699  )
        54        C      tau(  54) = (  -0.8806830   0.0371618   1.1541719  )
        55        N      tau(  55) = (  -0.8662938   0.1571613   0.8427948  )
        56        H      tau(  56) = (  -0.9263089   0.3413668   0.9857650  )
        57        H      tau(  57) = (  -0.8777872   0.2354825   0.7975208  )
        58        H      tau(  58) = (  -0.9532997   0.3310346   1.2071616  )
        59        H      tau(  59) = (  -0.8433284   0.0830305   0.7949459  )
        60        H      tau(  60) = (  -0.9243453   0.1360204   1.3175714  )
        61        H      tau(  61) = (  -0.8404112  -0.0394713   0.9793048  )
        62        H      tau(  62) = (  -0.8676366  -0.0488828   1.2007033  )

     --------------------------------------------
     DFT-D3 Dispersion Correction (3-body terms):
     --------------------------------------------
       Reference C6 values for interpolation: 

         atom   Coordination number   C6
         H          0.912             6.05
         H          0.000            15.18
         C          0.000            98.23
         C          0.987            86.49
         C          1.998            58.72
         C          2.999            51.56
         C          3.984            36.41
         N          0.000            50.54
         N          0.994            44.25
         N          2.014            39.35
         N          2.990            31.16
         Zn         0.000           681.04
         Zn         1.942           306.91

       Values used:

         atom   Coordination number  R0_AB[au]  C6      C8
         Zn         5.577            3.053    306.91  23930.67
         Zn         5.581            3.053    306.91  23930.67
         Zn         7.262            3.053    306.91  23930.67
         Zn         7.270            3.053    306.91  23930.67
         Zn         5.104            3.053    306.91  23930.67
         Zn         5.109            3.053    306.91  23930.67
         Zn         5.580            3.053    306.91  23930.67
         Zn         5.578            3.053    306.91  23930.67
         Zn         7.264            3.053    306.91  23930.67
         Zn         7.268            3.053    306.91  23930.67
         Zn         5.117            3.053    306.91  23930.67
         Zn         5.101            3.053    306.91  23930.67
         Zn         5.546            3.053    306.91  23930.67
         Zn         5.549            3.053    306.91  23930.67
         Zn         7.336            3.053    306.91  23930.67
         Zn         7.339            3.053    306.91  23930.67
         Zn         5.107            3.053    306.91  23930.67
         Zn         5.115            3.053    306.91  23930.67
         Zn         5.549            3.053    306.91  23930.67
         Zn         5.547            3.053    306.91  23930.67
         Zn         7.336            3.053    306.91  23930.67
         Zn         7.340            3.053    306.91  23930.67
         Zn         5.111            3.053    306.91  23930.67
         Zn         5.110            3.053    306.91  23930.67
         Zn         5.382            3.053    306.91  23930.67
         Zn         5.384            3.053    306.91  23930.67
         Zn         8.153            3.053    306.91  23930.67
         Zn         8.160            3.053    306.91  23930.67
         Zn         6.503            3.053    306.91  23930.67
         Zn         6.493            3.053    306.91  23930.67
         Zn         5.382            3.053    306.91  23930.67
         Zn         5.383            3.053    306.91  23930.67
         Zn         8.153            3.053    306.91  23930.67
         Zn         8.159            3.053    306.91  23930.67
         Zn         6.492            3.053    306.91  23930.67
         Zn         6.503            3.053    306.91  23930.67
         Zn         5.342            3.053    306.91  23930.67
         Zn         5.343            3.053    306.91  23930.67
         Zn         8.196            3.053    306.91  23930.67
         Zn         8.199            3.053    306.91  23930.67
         Zn         6.508            3.053    306.91  23930.67
         Zn         6.500            3.053    306.91  23930.67
         Zn         5.343            3.053    306.91  23930.67
         Zn         5.341            3.053    306.91  23930.67
         Zn         8.193            3.053    306.91  23930.67
         Zn         8.201            3.053    306.91  23930.67
         Zn         6.499            3.053    306.91  23930.67
         Zn         6.508            3.053    306.91  23930.67
         C          3.165            2.750     50.41   1457.94
         C          3.131            2.750     50.68   1465.83
         C          3.139            2.750     50.62   1464.03
         C          3.123            2.750     50.74   1467.42
         C          3.165            2.750     50.41   1457.93
         C          3.131            2.750     50.68   1465.83
         N          3.087            2.478     31.24    689.23
         H          1.003            2.062      6.18     74.69
         H          1.008            2.062      6.17     74.63
         H          1.003            2.062      6.18     74.69
         H          1.008            2.062      6.17     74.63
         H          1.002            2.062      6.18     74.69
         H          1.003            2.062      6.18     74.69
         H          1.003            2.062      6.18     74.69

         Molecular C6 ( Ry / a.u.^6 ) =    819960.12


   Crystallographic axes

     site n.     atom                  positions (cryst. coord.)
         1        Zn     tau(   1) = (  0.1666667  0.1666667  0.0539212  )
         2        Zn     tau(   2) = (  0.1666668  0.6666667  0.0539212  )
         3        Zn     tau(   3) = (  0.2834325  0.1954358  0.1627009  )
         4        Zn     tau(   4) = (  0.2831942  0.6954790  0.1626353  )
         5        Zn     tau(   5) = (  0.3333829  0.2078374  0.2591516  )
         6        Zn     tau(   6) = (  0.3327949  0.7080104  0.2590877  )
         7        Zn     tau(   7) = (  0.1666668  0.4166667  0.0539212  )
         8        Zn     tau(   8) = (  0.1666667  0.9166667  0.0539212  )
         9        Zn     tau(   9) = (  0.2834754  0.4455557  0.1626843  )
        10        Zn     tau(  10) = (  0.2831861  0.9454119  0.1626583  )
        11        Zn     tau(  11) = (  0.3327602  0.4578888  0.2590662  )
        12        Zn     tau(  12) = (  0.3334092  0.9580638  0.2591744  )
        13        Zn     tau(  13) = (  0.6666668  0.1666667  0.0539212  )
        14        Zn     tau(  14) = (  0.6666667  0.6666667  0.0539212  )
        15        Zn     tau(  15) = (  0.7778014  0.1940282  0.1614022  )
        16        Zn     tau(  16) = (  0.7774525  0.6940484  0.1613130  )
        17        Zn     tau(  17) = (  0.8357713  0.2084042  0.2590792  )
        18        Zn     tau(  18) = (  0.8351810  0.7086753  0.2590146  )
        19        Zn     tau(  19) = (  0.6666668  0.4166667  0.0539212  )
        20        Zn     tau(  20) = (  0.6666668  0.9166667  0.0539212  )
        21        Zn     tau(  21) = (  0.7778988  0.4441146  0.1614017  )
        22        Zn     tau(  22) = (  0.7774220  0.9439927  0.1613236  )
        23        Zn     tau(  23) = (  0.8351802  0.4584954  0.2590069  )
        24        Zn     tau(  24) = (  0.8357966  0.9586503  0.2590949  )
        25        Zn     tau(  25) = (  0.3333333  0.0833333  0.0385151  )
        26        Zn     tau(  26) = (  0.3333333  0.5833333  0.0385151  )
        27        Zn     tau(  27) = (  0.3631923  0.0907647  0.1321780  )
        28        Zn     tau(  28) = (  0.3632429  0.5908143  0.1321704  )
        29        Zn     tau(  29) = (  0.4024953  0.1002077  0.2277552  )
        30        Zn     tau(  30) = (  0.4026334  0.6005363  0.2278169  )
        31        Zn     tau(  31) = (  0.3333333  0.3333333  0.0385151  )
        32        Zn     tau(  32) = (  0.3333333  0.8333333  0.0385151  )
        33        Zn     tau(  33) = (  0.3630358  0.3407590  0.1321272  )
        34        Zn     tau(  34) = (  0.3633667  0.8407904  0.1322132  )
        35        Zn     tau(  35) = (  0.4027500  0.3504058  0.2278303  )
        36        Zn     tau(  36) = (  0.4023595  0.8503257  0.2277325  )
        37        Zn     tau(  37) = (  0.8333333  0.0833333  0.0385151  )
        38        Zn     tau(  38) = (  0.8333333  0.5833333  0.0385151  )
        39        Zn     tau(  39) = (  0.8628514  0.0906689  0.1320109  )
        40        Zn     tau(  40) = (  0.8627927  0.5907061  0.1319724  )
        41        Zn     tau(  41) = (  0.9059264  0.1011185  0.2278875  )
        42        Zn     tau(  42) = (  0.9060006  0.6013515  0.2279513  )
        43        Zn     tau(  43) = (  0.8333333  0.3333333  0.0385151  )
        44        Zn     tau(  44) = (  0.8333333  0.8333333  0.0385151  )
        45        Zn     tau(  45) = (  0.8626880  0.3406228  0.1319584  )
        46        Zn     tau(  46) = (  0.8629413  0.8407172  0.1320225  )
        47        Zn     tau(  47) = (  0.9061147  0.3512731  0.2279479  )
        48        Zn     tau(  48) = (  0.9057908  0.8511694  0.2278820  )
        49        C      tau(  49) = (  1.4368234  0.8501195  0.5142960  )
        50        C      tau(  50) = (  1.6967779  0.9124925  0.5764770  )
        51        C      tau(  51) = (  1.2960674  0.7002369  0.4811590  )
        52        C      tau(  52) = (  1.8239701  0.8283481  0.6073941  )
        53        C      tau(  53) = (  1.4249604  0.6157828  0.5124889  )
        54        C      tau(  54) = (  1.6849995  0.6796110  0.5746795  )
        55        N      tau(  55) = (  1.0388395  0.6377945  0.4196402  )
        56        H      tau(  56) = (  1.3403333  0.9174756  0.4908272  )
        57        H      tau(  57) = (  0.9461112  0.6979747  0.3970976  )
        58        H      tau(  58) = (  1.8012516  1.0288347  0.6010639  )
        59        H      tau(  59) = (  0.9377798  0.5306056  0.3958155  )
        60        H      tau(  60) = (  2.0273377  0.8777058  0.6560386  )
        61        H      tau(  61) = (  1.3192755  0.4993578  0.4876106  )
        62        H      tau(  62) = (  1.7801873  0.6117201  0.5978482  )

     number of k points=     5  Marzari-Vanderbilt smearing, width (Ry)=  0.0200
                       cart. coord. in units 2pi/alat
        k(    1) = (   0.0000000   0.0000000   0.0000000), wk =   0.2222222
        k(    2) = (   0.0000000   0.3628315   0.1845943), wk =   0.4444444
        k(    3) = (   0.3333333   0.0810890   0.7383771), wk =   0.4444444
        k(    4) = (   0.3333333   0.4439205   0.9229714), wk =   0.4444444
        k(    5) = (   0.3333333  -0.2817426   0.5537829), wk =   0.4444444

                       cryst. coord.
        k(    1) = (   0.0000000   0.0000000   0.0000000), wk =   0.2222222
        k(    2) = (   0.0000000   0.3333333   0.0000000), wk =   0.4444444
        k(    3) = (   0.3333333   0.0000000   0.0000000), wk =   0.4444444
        k(    4) = (   0.3333333   0.3333333   0.0000000), wk =   0.4444444
        k(    5) = (   0.3333333  -0.3333333   0.0000000), wk =   0.4444444

     Dense  grid:  1332973 G-vectors     FFT dimensions: ( 120, 108, 540)

     Smooth grid:   575857 G-vectors     FFT dimensions: (  90,  80, 405)

     Dynamical RAM for                 wfc:      19.31 MB

     Dynamical RAM for     wfc (w. buffer):     115.85 MB

     Dynamical RAM for           str. fact:       2.39 MB

     Dynamical RAM for           local pot:       0.00 MB

     Dynamical RAM for          nlocal pot:      30.16 MB

     Dynamical RAM for                qrad:       5.37 MB

     Dynamical RAM for          rho,v,vnew:       6.54 MB

     Dynamical RAM for               rhoin:       2.18 MB

     Dynamical RAM for            rho*nmix:       9.57 MB

     Dynamical RAM for           G-vectors:       2.37 MB

     Dynamical RAM for          h,s,v(r/c):       2.61 MB

     Dynamical RAM for          <psi|beta>:       8.52 MB

     Dynamical RAM for                 psi:      38.62 MB

     Dynamical RAM for                hpsi:      38.62 MB

     Dynamical RAM for                spsi:      38.62 MB

     Dynamical RAM for      wfcinit/wfcrot:      52.50 MB

     Dynamical RAM for           addusdens:     139.98 MB

     Dynamical RAM for          addusforce:     196.70 MB

     Dynamical RAM for         addusstress:     120.24 MB

     Estimated static dynamical RAM per process >     175.77 MB

     Estimated max dynamical RAM per process >     382.04 MB

     Estimated total dynamical RAM >      12.68 GB

     Initial potential from superposition of free atoms

     starting charge     995.9929, renormalised to     996.0000

     negative rho (up, down):  1.956E-03 0.000E+00
     Starting wfcs are  659 randomized atomic wfcs
[psid06:128375] 33 more processes have sent help message help-mpi-btl-openib.txt / ib port not selected
[psid06:128375] Set MCA parameter "orte_base_help_aggregate" to 0 to see all help / error messages
[psid06:128375] 33 more processes have sent help message help-mpi-btl-openib.txt / error in device init
     Checking if some PAW data can be deallocated... 
       PAW data deallocated on   31 nodes for type:  3

     total cpu time spent up to now is       77.4 secs

     Self-consistent Calculation

     iteration #  1     ecut=    40.00 Ry     beta= 0.40
     Davidson diagonalization with overlap

---- Real-time Memory Report at c_bands before calling an iterative solver
           256 MiB given to the printing process from OS
             0 MiB allocation reported by mallinfo(arena+hblkhd)
         52957 MiB available memory on the node where the printing process lives
------------------
     ethr =  1.00E-02,  avg # of iterations =  7.4

     negative rho (up, down):  2.431E-03 0.000E+00

     total cpu time spent up to now is      371.2 secs

     total energy              =  -22288.09548508 Ry
     estimated scf accuracy    <      11.38959160 Ry

     iteration #  2     ecut=    40.00 Ry     beta= 0.40
     Davidson diagonalization with overlap

---- Real-time Memory Report at c_bands before calling an iterative solver
           355 MiB given to the printing process from OS
             0 MiB allocation reported by mallinfo(arena+hblkhd)
         51620 MiB available memory on the node where the printing process lives
------------------
     ethr =  1.14E-03,  avg # of iterations =  9.6

     negative rho (up, down):  3.594E-03 0.000E+00

     total cpu time spent up to now is      666.5 secs

     total energy              =  -22276.65256426 Ry
     estimated scf accuracy    <     239.21159478 Ry

     iteration #  3     ecut=    40.00 Ry     beta= 0.40
     Davidson diagonalization with overlap

---- Real-time Memory Report at c_bands before calling an iterative solver
           370 MiB given to the printing process from OS
             0 MiB allocation reported by mallinfo(arena+hblkhd)
         51591 MiB available memory on the node where the printing process lives
------------------
     ethr =  1.14E-03,  avg # of iterations =  8.2

     negative rho (up, down):  3.460E-03 0.000E+00

     total cpu time spent up to now is     1028.1 secs

     total energy              =  -22292.92815659 Ry
     estimated scf accuracy    <       6.17970758 Ry

     iteration #  4     ecut=    40.00 Ry     beta= 0.40
     Davidson diagonalization with overlap

---- Real-time Memory Report at c_bands before calling an iterative solver
           371 MiB given to the printing process from OS
             0 MiB allocation reported by mallinfo(arena+hblkhd)
         51560 MiB available memory on the node where the printing process lives
------------------
     ethr =  6.20E-04,  avg # of iterations =  3.0

     negative rho (up, down):  3.373E-03 0.000E+00

     total cpu time spent up to now is     1274.0 secs

     total energy              =  -22293.32813489 Ry
     estimated scf accuracy    <       4.84726225 Ry

     iteration #  5     ecut=    40.00 Ry     beta= 0.40
     Davidson diagonalization with overlap

---- Real-time Memory Report at c_bands before calling an iterative solver
           372 MiB given to the printing process from OS
             0 MiB allocation reported by mallinfo(arena+hblkhd)
         51534 MiB available memory on the node where the printing process lives
------------------
     ethr =  4.87E-04,  avg # of iterations =  2.0

     negative rho (up, down):  3.369E-03 0.000E+00

     total cpu time spent up to now is     1509.6 secs

     total energy              =  -22293.61937109 Ry
     estimated scf accuracy    <       0.33468775 Ry

     iteration #  6     ecut=    40.00 Ry     beta= 0.40
     Davidson diagonalization with overlap

---- Real-time Memory Report at c_bands before calling an iterative solver
           373 MiB given to the printing process from OS
             0 MiB allocation reported by mallinfo(arena+hblkhd)
         51511 MiB available memory on the node where the printing process lives
------------------
     ethr =  3.36E-05,  avg # of iterations = 12.4

     negative rho (up, down):  3.467E-03 0.000E+00

     total cpu time spent up to now is     1777.6 secs

     total energy              =  -22293.61675381 Ry
     estimated scf accuracy    <       0.14305182 Ry

     iteration #  7     ecut=    40.00 Ry     beta= 0.40
     Davidson diagonalization with overlap

---- Real-time Memory Report at c_bands before calling an iterative solver
           373 MiB given to the printing process from OS
             0 MiB allocation reported by mallinfo(arena+hblkhd)
         51486 MiB available memory on the node where the printing process lives
------------------
     ethr =  1.44E-05,  avg # of iterations = 12.8

     negative rho (up, down):  3.531E-03 0.000E+00

     total cpu time spent up to now is     2043.9 secs

     total energy              =  -22293.61144787 Ry
     estimated scf accuracy    <       0.11200039 Ry

     iteration #  8     ecut=    40.00 Ry     beta= 0.40
     Davidson diagonalization with overlap

---- Real-time Memory Report at c_bands before calling an iterative solver
           374 MiB given to the printing process from OS
             0 MiB allocation reported by mallinfo(arena+hblkhd)
         51461 MiB available memory on the node where the printing process lives
------------------
     ethr =  1.12E-05,  avg # of iterations =  3.0

     negative rho (up, down):  3.575E-03 0.000E+00

     total cpu time spent up to now is     2283.2 secs

     total energy              =  -22293.61521293 Ry
     estimated scf accuracy    <       0.04680280 Ry

     iteration #  9     ecut=    40.00 Ry     beta= 0.40
     Davidson diagonalization with overlap

---- Real-time Memory Report at c_bands before calling an iterative solver
           375 MiB given to the printing process from OS
             0 MiB allocation reported by mallinfo(arena+hblkhd)
         51436 MiB available memory on the node where the printing process lives
------------------
     ethr =  4.70E-06,  avg # of iterations = 16.8

     negative rho (up, down):  3.597E-03 0.000E+00

     total cpu time spent up to now is     2550.4 secs

     total energy              =  -22293.61340172 Ry
     estimated scf accuracy    <       0.03143536 Ry

     iteration # 10     ecut=    40.00 Ry     beta= 0.40
     Davidson diagonalization with overlap

---- Real-time Memory Report at c_bands before calling an iterative solver
           375 MiB given to the printing process from OS
             0 MiB allocation reported by mallinfo(arena+hblkhd)
         51415 MiB available memory on the node where the printing process lives
------------------
     ethr =  3.16E-06,  avg # of iterations =  5.2

     negative rho (up, down):  3.630E-03 0.000E+00

     total cpu time spent up to now is     2790.9 secs

     total energy              =  -22293.60849510 Ry
     estimated scf accuracy    <       0.02679735 Ry

     iteration # 11     ecut=    40.00 Ry     beta= 0.40
     Davidson diagonalization with overlap

---- Real-time Memory Report at c_bands before calling an iterative solver
           376 MiB given to the printing process from OS
             0 MiB allocation reported by mallinfo(arena+hblkhd)
         51409 MiB available memory on the node where the printing process lives
------------------
     c_bands:  2 eigenvalues not converged
     c_bands:  1 eigenvalues not converged
     ethr =  2.69E-06,  avg # of iterations = 16.0

     negative rho (up, down):  3.746E-03 0.000E+00

     total cpu time spent up to now is     3063.5 secs

     total energy              =  -22293.59504408 Ry
     estimated scf accuracy    <       0.01794064 Ry

     iteration # 12     ecut=    40.00 Ry     beta= 0.40
     Davidson diagonalization with overlap

---- Real-time Memory Report at c_bands before calling an iterative solver
           376 MiB given to the printing process from OS
             0 MiB allocation reported by mallinfo(arena+hblkhd)
         51410 MiB available memory on the node where the printing process lives
------------------
     ethr =  1.80E-06,  avg # of iterations = 17.6

     negative rho (up, down):  3.729E-03 0.000E+00

     total cpu time spent up to now is     3391.5 secs

     total energy              =  -22293.59472763 Ry
     estimated scf accuracy    <       0.00112054 Ry

     iteration # 13     ecut=    40.00 Ry     beta= 0.40
     Davidson diagonalization with overlap

---- Real-time Memory Report at c_bands before calling an iterative solver
           376 MiB given to the printing process from OS
             0 MiB allocation reported by mallinfo(arena+hblkhd)
         51405 MiB available memory on the node where the printing process lives
------------------
     ethr =  1.13E-07,  avg # of iterations =  3.0

     negative rho (up, down):  3.702E-03 0.000E+00

     total cpu time spent up to now is     3633.7 secs

     total energy              =  -22293.59061658 Ry
     estimated scf accuracy    <       0.02936335 Ry

     iteration # 14     ecut=    40.00 Ry     beta= 0.40
     Davidson diagonalization with overlap

---- Real-time Memory Report at c_bands before calling an iterative solver
           376 MiB given to the printing process from OS
             0 MiB allocation reported by mallinfo(arena+hblkhd)
         51403 MiB available memory on the node where the printing process lives
------------------
     ethr =  1.13E-07,  avg # of iterations = 11.4

     negative rho (up, down):  3.697E-03 0.000E+00

     total cpu time spent up to now is     3894.1 secs

     total energy              =  -22293.59528921 Ry
     estimated scf accuracy    <       0.01206521 Ry

     iteration # 15     ecut=    40.00 Ry     beta= 0.40
     Davidson diagonalization with overlap

---- Real-time Memory Report at c_bands before calling an iterative solver
           376 MiB given to the printing process from OS
             0 MiB allocation reported by mallinfo(arena+hblkhd)
         51401 MiB available memory on the node where the printing process lives
------------------
     ethr =  1.13E-07,  avg # of iterations =  2.4

     negative rho (up, down):  3.697E-03 0.000E+00

     total cpu time spent up to now is     4127.6 secs

     total energy              =  -22293.59489893 Ry
     estimated scf accuracy    <       0.00575706 Ry

     iteration # 16     ecut=    40.00 Ry     beta= 0.40
     Davidson diagonalization with overlap

---- Real-time Memory Report at c_bands before calling an iterative solver
           376 MiB given to the printing process from OS
             0 MiB allocation reported by mallinfo(arena+hblkhd)
         51400 MiB available memory on the node where the printing process lives
------------------
     ethr =  1.13E-07,  avg # of iterations =  5.6

     negative rho (up, down):  3.692E-03 0.000E+00

     total cpu time spent up to now is     4365.4 secs

     total energy              =  -22293.59504209 Ry
     estimated scf accuracy    <       0.00081494 Ry

     iteration # 17     ecut=    40.00 Ry     beta= 0.40
     Davidson diagonalization with overlap

---- Real-time Memory Report at c_bands before calling an iterative solver
           376 MiB given to the printing process from OS
             0 MiB allocation reported by mallinfo(arena+hblkhd)
         51399 MiB available memory on the node where the printing process lives
------------------
     ethr =  8.18E-08,  avg # of iterations =  1.2

     negative rho (up, down):  3.691E-03 0.000E+00

     total cpu time spent up to now is     4566.9 secs

     total energy              =  -22293.59506349 Ry
     estimated scf accuracy    <       0.00005302 Ry

     iteration # 18     ecut=    40.00 Ry     beta= 0.40
     Davidson diagonalization with overlap

---- Real-time Memory Report at c_bands before calling an iterative solver
           376 MiB given to the printing process from OS
             0 MiB allocation reported by mallinfo(arena+hblkhd)
         51398 MiB available memory on the node where the printing process lives
------------------
     ethr =  5.32E-09,  avg # of iterations =  2.0

     negative rho (up, down):  3.689E-03 0.000E+00

     total cpu time spent up to now is     4800.9 secs

     total energy              =  -22293.59507491 Ry
     estimated scf accuracy    <       0.00007169 Ry

     iteration # 19     ecut=    40.00 Ry     beta= 0.40
     Davidson diagonalization with overlap

---- Real-time Memory Report at c_bands before calling an iterative solver
           376 MiB given to the printing process from OS
             0 MiB allocation reported by mallinfo(arena+hblkhd)
         51397 MiB available memory on the node where the printing process lives
------------------
     ethr =  5.32E-09,  avg # of iterations =  1.2

     negative rho (up, down):  3.688E-03 0.000E+00

     total cpu time spent up to now is     5002.6 secs

     total energy              =  -22293.59507179 Ry
     estimated scf accuracy    <       0.00006657 Ry

     iteration # 20     ecut=    40.00 Ry     beta= 0.40
     Davidson diagonalization with overlap

---- Real-time Memory Report at c_bands before calling an iterative solver
           376 MiB given to the printing process from OS
             0 MiB allocation reported by mallinfo(arena+hblkhd)
         51396 MiB available memory on the node where the printing process lives
------------------
     ethr =  5.32E-09,  avg # of iterations =  1.0

     negative rho (up, down):  3.688E-03 0.000E+00

     total cpu time spent up to now is     5196.8 secs

     total energy              =  -22293.59507133 Ry
     estimated scf accuracy    <       0.00001139 Ry

     iteration # 21     ecut=    40.00 Ry     beta= 0.40
     Davidson diagonalization with overlap

---- Real-time Memory Report at c_bands before calling an iterative solver
           376 MiB given to the printing process from OS
             0 MiB allocation reported by mallinfo(arena+hblkhd)
         51394 MiB available memory on the node where the printing process lives
------------------
     ethr =  1.14E-09,  avg # of iterations =  2.0

     negative rho (up, down):  3.688E-03 0.000E+00

     total cpu time spent up to now is     5429.2 secs

     total energy              =  -22293.59507251 Ry
     estimated scf accuracy    <       0.00001064 Ry

     iteration # 22     ecut=    40.00 Ry     beta= 0.40
     Davidson diagonalization with overlap

---- Real-time Memory Report at c_bands before calling an iterative solver
           376 MiB given to the printing process from OS
             0 MiB allocation reported by mallinfo(arena+hblkhd)
         51392 MiB available memory on the node where the printing process lives
------------------
     ethr =  1.07E-09,  avg # of iterations =  1.0

     negative rho (up, down):  3.687E-03 0.000E+00

     total cpu time spent up to now is     5623.4 secs

     End of self-consistent calculation

          k = 0.0000 0.0000 0.0000 ( 71933 PWs)   bands (ev):

  -125.4489-125.4481-125.4478-125.4469-125.4424-125.4414-125.4412-125.4404
  -125.3767-125.3757-125.3756-125.3746-125.3708-125.3699-125.3696-125.3688
  -125.3015-125.3007-125.3000-125.2993-125.2991-125.2983-125.2968-125.2958
  -125.2086-125.2083-125.2076-125.2076-125.2074-125.2073-125.2066-125.2064
  -125.1244-125.1232-125.1228-125.1228-125.1219-125.1217-125.1215-125.1206
  -125.0488-125.0401-125.0393-125.0353-125.0319-125.0310-125.0309-125.0300
   -79.6090 -79.6035 -79.6025 -79.6025 -79.6022 -79.6012 -79.5990 -79.5982
   -79.5978 -79.5972 -79.5966 -79.5965 -79.5961 -79.5961 -79.5959 -79.5949
   -79.5926 -79.5916 -79.5914 -79.5902 -79.5898 -79.5897 -79.5841 -79.5775
   -79.5368 -79.5329 -79.5319 -79.5316 -79.5312 -79.5305 -79.5272 -79.5266
   -79.5262 -79.5259 -79.5255 -79.5254 -79.5249 -79.5244 -79.5244 -79.5242
   -79.5206 -79.5196 -79.5194 -79.5188 -79.5187 -79.5183 -79.5120 -79.5064
   -79.4615 -79.4610 -79.4601 -79.4596 -79.4594 -79.4586 -79.4583 -79.4573
   -79.4559 -79.4549 -79.4497 -79.4494 -79.4492 -79.4487 -79.4483 -79.4475
   -79.4475 -79.4471 -79.4468 -79.4464 -79.4449 -79.4441 -79.4369 -79.4346
   -79.3700 -79.3699 -79.3695 -79.3695 -79.3690 -79.3688 -79.3685 -79.3685
   -79.3678 -79.3674 -79.3593 -79.3591 -79.3585 -79.3584 -79.3583 -79.3582
   -79.3574 -79.3573 -79.3573 -79.3570 -79.3570 -79.3569 -79.3452 -79.3448
   -79.2891 -79.2878 -79.2873 -79.2871 -79.2864 -79.2860 -79.2857 -79.2847
   -79.2842 -79.2827 -79.2748 -79.2737 -79.2735 -79.2733 -79.2724 -79.2724
   -79.2723 -79.2719 -79.2715 -79.2712 -79.2704 -79.2703 -79.2595 -79.2581
   -79.2208 -79.2112 -79.2104 -79.2062 -79.2031 -79.2022 -79.2020 -79.2014
   -79.2011 -79.1932 -79.1929 -79.1923 -79.1886 -79.1854 -79.1844 -79.1843
   -79.1834 -79.1821 -79.1800 -79.1780 -79.1699 -79.1698 -79.1656 -79.1576
   -17.3472 -14.9994 -12.6033 -12.1878  -9.3554  -9.1115  -8.4746  -7.6092
    -7.3424  -7.3243  -7.2018  -7.2010  -7.1781  -7.1244  -7.1141  -7.0914
    -7.0303  -6.9997  -6.9936  -6.9790  -6.9757  -6.9521  -6.9520  -6.9489
    -6.9182  -6.9175  -6.8820  -6.8706  -6.8244  -6.8242  -6.8205  -6.8065
    -6.7984  -6.7984  -6.7918  -6.7855  -6.7854  -6.7827  -6.7481  -6.7480
    -6.7438  -6.7437  -6.7388  -6.7377  -6.7223  -6.7222  -6.7093  -6.7092
    -6.6835  -6.6798  -6.6797  -6.6731  -6.6729  -6.6694  -6.6526  -6.6524
    -6.6238  -6.6210  -6.6193  -6.6192  -6.6142  -6.5893  -6.5891  -6.5818
    -6.5817  -6.5617  -6.5576  -6.5381  -6.5125  -6.5124  -6.5100  -6.5074
    -6.4819  -6.4819  -6.4711  -6.4700  -6.4616  -6.4529  -6.4480  -6.4455
    -6.4452  -6.4451  -6.4399  -6.4254  -6.4253  -6.4018  -6.4017  -6.3979
    -6.3967  -6.3966  -6.3732  -6.3546  -6.3546  -6.3519  -6.3519  -6.3382
    -6.3355  -6.3236  -6.3234  -6.3151  -6.3146  -6.2967  -6.2927  -6.2908
    -6.2908  -6.2901  -6.2751  -6.2711  -6.2710  -6.2686  -6.2684  -6.2562
    -6.2367  -6.2366  -6.2282  -6.2282  -6.2213  -6.2179  -6.2045  -6.2030
    -6.1954  -6.1924  -6.1916  -6.1915  -6.1799  -6.1798  -6.1643  -6.1642
    -6.1589  -6.1589  -6.1536  -6.1535  -6.1334  -6.1285  -6.1254  -6.1254
    -6.1162  -6.1162  -6.1010  -6.0950  -6.0938  -6.0926  -6.0925  -6.0922
    -6.0883  -6.0881  -6.0713  -6.0599  -6.0420  -6.0420  -6.0392  -6.0391
    -6.0303  -6.0301  -6.0223  -6.0217  -6.0127  -6.0009  -5.9994  -5.9980
    -5.9977  -5.9974  -5.9943  -5.9895  -5.9874  -5.9862  -5.9686  -5.9678
    -5.9630  -5.9626  -5.9592  -5.9542  -5.9539  -5.9511  -5.9490  -5.9365
    -5.9361  -5.9326  -5.9288  -5.9282  -5.9235  -5.9232  -5.9093  -5.9092
    -5.9001  -5.8971  -5.8966  -5.8963  -5.8906  -5.8901  -5.8747  -5.8745
    -5.8691  -5.8690  -5.8635  -5.8516  -5.8504  -5.8462  -5.8462  -5.8444
    -5.8439  -5.8411  -5.8331  -5.8312  -5.8270  -5.8254  -5.8251  -5.8239
    -5.8234  -5.8169  -5.8160  -5.8158  -5.8150  -5.8077  -5.8034  -5.7966
    -5.7957  -5.7913  -5.7911  -5.7867  -5.7867  -5.7754  -5.7719  -5.7652
    -5.7645  -5.7561  -5.7561  -5.7542  -5.7522  -5.7388  -5.7386  -5.7144
    -5.7115  -5.7112  -5.7091  -5.6977  -5.6975  -5.6969  -5.6850  -5.6846
    -5.6580  -5.6507  -5.6502  -5.6384  -5.6378  -5.6250  -5.6206  -5.6109
    -5.5689  -5.5600  -5.5499  -5.5301  -5.5289  -5.4779  -5.4705  -5.4384
    -5.4378  -4.8733  -4.7365  -4.7333  -4.5032  -4.5026  -4.3498  -4.2740
    -4.2432  -4.2431  -3.8620  -3.8614  -3.7359  -2.9821  -2.8313  -2.6176
    -2.4714  -2.4703  -2.3705  -2.3336  -2.2844  -2.2844  -2.0077  -1.9204
    -1.9191  -1.8850  -1.7340  -1.7314  -1.6623  -1.6601  -1.1764  -0.9488
    -0.9468  -0.7221  -0.5282  -0.4681  -0.3960  -0.3885  -0.3401  -0.3397
     0.0860   0.0899   0.2920   0.2946   0.3404   0.3408   0.3894   0.6877
     0.6940   0.8192   1.0331   1.3820   1.3930   1.6792   1.6864   2.0010
     2.0458   2.2382   2.2497   2.2501   2.2550   2.3691   2.3696   2.7927
     2.7948   2.8889   2.9371   2.9464   3.0273   3.0375   3.2795   3.3207
     3.5643   3.6388   3.6880   3.6913   4.1027   4.1065   4.1606   4.5960
     4.6044   4.7819   4.8197   4.9147   4.9513   5.0137   5.1585   5.1603
     5.2729   5.3209   5.3439   5.3485   5.3610   5.4036   5.4338   5.6295
     5.6794   5.6820   5.7020   5.7179   5.8217   5.8226   5.9256   5.9393
     5.9438   5.9803   5.9952   6.0810   6.1105   6.1475   6.1915   6.2049
     6.2441   6.2676   6.3825   6.3863   6.4254   6.5305   6.5988   6.6445
     6.7121   6.7939   6.8597   6.8931   6.9281   6.9412   7.0419   7.0457
     7.0848   7.1158   7.2130   7.2199   7.2629   7.3740   7.3926   7.4075
     7.4378   7.5611   7.5905   7.6620   7.6862   7.7174   7.7231   7.7562
     7.7572   7.8756   7.8824   7.9700   8.0387   8.1699

     occupation numbers 
     1.0000   1.0000   1.0000   1.0000   1.0000   1.0000   1.0000   1.0000
     1.0000   1.0000   1.0000   1.0000   1.0000   1.0000   1.0000   1.0000
     1.0000   1.0000   1.0000   1.0000   1.0000   1.0000   1.0000   1.0000
     1.0000   1.0000   1.0000   1.0000   1.0000   1.0000   1.0000   1.0000
     1.0000   1.0000   1.0000   1.0000   1.0000   1.0000   1.0000   1.0000
     1.0000   1.0000   1.0000   1.0000   1.0000   1.0000   1.0000   1.0000
     1.0000   1.0000   1.0000   1.0000   1.0000   1.0000   1.0000   1.0000
     1.0000   1.0000   1.0000   1.0000   1.0000   1.0000   1.0000   1.0000
     1.0000   1.0000   1.0000   1.0000   1.0000   1.0000   1.0000   1.0000
     1.0000   1.0000   1.0000   1.0000   1.0000   1.0000   1.0000   1.0000
     1.0000   1.0000   1.0000   1.0000   1.0000   1.0000   1.0000   1.0000
     1.0000   1.0000   1.0000   1.0000   1.0000   1.0000   1.0000   1.0000
     1.0000   1.0000   1.0000   1.0000   1.0000   1.0000   1.0000   1.0000
     1.0000   1.0000   1.0000   1.0000   1.0000   1.0000   1.0000   1.0000
     1.0000   1.0000   1.0000   1.0000   1.0000   1.0000   1.0000   1.0000
     1.0000   1.0000   1.0000   1.0000   1.0000   1.0000   1.0000   1.0000
     1.0000   1.0000   1.0000   1.0000   1.0000   1.0000   1.0000   1.0000
     1.0000   1.0000   1.0000   1.0000   1.0000   1.0000   1.0000   1.0000
     1.0000   1.0000   1.0000   1.0000   1.0000   1.0000   1.0000   1.0000
     1.0000   1.0000   1.0000   1.0000   1.0000   1.0000   1.0000   1.0000
     1.0000   1.0000   1.0000   1.0000   1.0000   1.0000   1.0000   1.0000
     1.0000   1.0000   1.0000   1.0000   1.0000   1.0000   1.0000   1.0000
     1.0000   1.0000   1.0000   1.0000   1.0000   1.0000   1.0000   1.0000
     1.0000   1.0000   1.0000   1.0000   1.0000   1.0000   1.0000   1.0000
     1.0000   1.0000   1.0000   1.0000   1.0000   1.0000   1.0000   1.0000
     1.0000   1.0000   1.0000   1.0000   1.0000   1.0000   1.0000   1.0000
     1.0000   1.0000   1.0000   1.0000   1.0000   1.0000   1.0000   1.0000
     1.0000   1.0000   1.0000   1.0000   1.0000   1.0000   1.0000   1.0000
     1.0000   1.0000   1.0000   1.0000   1.0000   1.0000   1.0000   1.0000
     1.0000   1.0000   1.0000   1.0000   1.0000   1.0000   1.0000   1.0000
     1.0000   1.0000   1.0000   1.0000   1.0000   1.0000   1.0000   1.0000
     1.0000   1.0000   1.0000   1.0000   1.0000   1.0000   1.0000   1.0000
     1.0000   1.0000   1.0000   1.0000   1.0000   1.0000   1.0000   1.0000
     1.0000   1.0000   1.0000   1.0000   1.0000   1.0000   1.0000   1.0000
     1.0000   1.0000   1.0000   1.0000   1.0000   1.0000   1.0000   1.0000
     1.0000   1.0000   1.0000   1.0000   1.0000   1.0000   1.0000   1.0000
     1.0000   1.0000   1.0000   1.0000   1.0000   1.0000   1.0000   1.0000
     1.0000   1.0000   1.0000   1.0000   1.0000   1.0000   1.0000   1.0000
     1.0000   1.0000   1.0000   1.0000   1.0000   1.0000   1.0000   1.0000
     1.0000   1.0000   1.0000   1.0000   1.0000   1.0000   1.0000   1.0000
     1.0000   1.0000   1.0000   1.0000   1.0000   1.0000   1.0000   1.0000
     1.0000   1.0000   1.0000   1.0000   1.0000   1.0000   1.0000   1.0000
     1.0000   1.0000   1.0000   1.0000   1.0000   1.0000   1.0000   1.0000
     1.0000   1.0000   1.0000   1.0000   1.0000   1.0000   1.0000   1.0000
     1.0000   1.0000   1.0000   1.0000   1.0000   1.0000   1.0000   1.0000
     1.0000   1.0000   1.0000   1.0000   1.0000   1.0000   1.0000   1.0000
     1.0000   1.0000   1.0000   1.0000   1.0000   1.0000   1.0000   1.0000
     1.0000   1.0000   1.0000   1.0000   1.0000   1.0000   1.0000   1.0000
     1.0000   1.0000   1.0000   1.0000   1.0000   1.0000   1.0000   1.0000
     1.0000   1.0000   1.0000   1.0000   1.0000   1.0000   1.0000   1.0000
     1.0000   1.0000   1.0000   1.0000   1.0000   1.0000   1.0000   1.0000
     1.0000   1.0000   1.0000   1.0000   1.0000   1.0000   1.0000   1.0000
     1.0000   1.0000   1.0000   1.0000   1.0000   1.0000   1.0000   1.0000
     1.0000   1.0000   1.0000   1.0000   1.0000   1.0000   1.0000   1.0000
     1.0000   1.0000   1.0000   1.0000   1.0000   1.0000   1.0000   1.0000
     1.0000   1.0000   1.0000   1.0000   1.0000   1.0000   1.0000   1.0000
     1.0000   1.0000   1.0000   1.0000   1.0000   1.0000   1.0000   1.0000
     1.0000   1.0000   1.0000   1.0000   1.0000   1.0000   1.0000   1.0000
     1.0000   1.0000   1.0000   1.0000   1.0000   1.0000   1.0000   1.0000
     1.0000   1.0000   1.0000   1.0000   1.0000   1.0000   1.0000   1.0000
     1.0000   1.0000   1.0000   1.0000   1.0000   1.0000   1.0000   1.0000
     1.0001   1.0001   1.0026   1.0027   1.0053   1.0053   1.0101   1.0833
     1.0832   1.0033   0.5034   0.0178   0.0152   0.0001   0.0001   0.0000
     0.0000   0.0000   0.0000   0.0000   0.0000   0.0000   0.0000   0.0000
     0.0000   0.0000   0.0000   0.0000   0.0000   0.0000   0.0000   0.0000
     0.0000   0.0000   0.0000   0.0000   0.0000   0.0000   0.0000   0.0000
     0.0000   0.0000   0.0000   0.0000   0.0000   0.0000   0.0000   0.0000
     0.0000   0.0000   0.0000   0.0000   0.0000   0.0000   0.0000   0.0000
     0.0000   0.0000   0.0000   0.0000   0.0000   0.0000   0.0000   0.0000
     0.0000   0.0000   0.0000   0.0000   0.0000   0.0000   0.0000   0.0000
     0.0000   0.0000   0.0000   0.0000   0.0000   0.0000   0.0000   0.0000
     0.0000   0.0000   0.0000   0.0000   0.0000   0.0000   0.0000   0.0000
     0.0000   0.0000   0.0000   0.0000   0.0000   0.0000   0.0000   0.0000
     0.0000   0.0000   0.0000   0.0000   0.0000   0.0000   0.0000   0.0000
     0.0000   0.0000   0.0000   0.0000   0.0000   0.0000

          k = 0.0000 0.3628 0.1846 ( 71963 PWs)   bands (ev):

  -125.4488-125.4483-125.4475-125.4470-125.4423-125.4417-125.4410-125.4404
  -125.3766-125.3760-125.3753-125.3746-125.3707-125.3702-125.3694-125.3688
  -125.3015-125.3008-125.2999-125.2992-125.2991-125.2984-125.2968-125.2958
  -125.2085-125.2083-125.2080-125.2078-125.2073-125.2070-125.2066-125.2065
  -125.1244-125.1233-125.1227-125.1226-125.1220-125.1220-125.1213-125.1206
  -125.0488-125.0401-125.0393-125.0353-125.0319-125.0313-125.0306-125.0301
   -79.6074 -79.6034 -79.6028 -79.6028 -79.6019 -79.6013 -79.6008 -79.5989
   -79.5984 -79.5972 -79.5971 -79.5967 -79.5964 -79.5963 -79.5955 -79.5950
   -79.5925 -79.5918 -79.5908 -79.5903 -79.5902 -79.5857 -79.5838 -79.5792
   -79.5351 -79.5328 -79.5322 -79.5315 -79.5307 -79.5302 -79.5296 -79.5271
   -79.5265 -79.5264 -79.5259 -79.5258 -79.5251 -79.5251 -79.5246 -79.5244
   -79.5205 -79.5199 -79.5190 -79.5184 -79.5182 -79.5136 -79.5126 -79.5081
   -79.4610 -79.4603 -79.4599 -79.4594 -79.4586 -79.4583 -79.4579 -79.4573
   -79.4559 -79.4552 -79.4550 -79.4529 -79.4496 -79.4490 -79.4482 -79.4476
   -79.4474 -79.4466 -79.4450 -79.4441 -79.4430 -79.4409 -79.4385 -79.4361
   -79.3699 -79.3694 -79.3693 -79.3689 -79.3686 -79.3683 -79.3682 -79.3679
   -79.3677 -79.3674 -79.3637 -79.3633 -79.3592 -79.3591 -79.3587 -79.3585
   -79.3578 -79.3577 -79.3573 -79.3570 -79.3513 -79.3510 -79.3468 -79.3465
   -79.2890 -79.2879 -79.2872 -79.2870 -79.2865 -79.2862 -79.2855 -79.2847
   -79.2825 -79.2811 -79.2780 -79.2766 -79.2748 -79.2738 -79.2734 -79.2730
   -79.2727 -79.2724 -79.2719 -79.2712 -79.2657 -79.2643 -79.2611 -79.2598
   -79.2208 -79.2112 -79.2104 -79.2062 -79.2031 -79.2025 -79.2017 -79.2014
   -79.2011 -79.1930 -79.1923 -79.1921 -79.1886 -79.1853 -79.1848 -79.1842
   -79.1839 -79.1835 -79.1805 -79.1760 -79.1737 -79.1667 -79.1637 -79.1592
   -17.3472 -14.9994 -12.6033 -12.1878  -9.3554  -9.1115  -8.3083  -7.8330
    -7.5145  -7.3237  -7.2311  -7.2043  -7.1144  -7.0875  -7.0529  -7.0120
    -6.9741  -6.9686  -6.9525  -6.9493  -6.9452  -6.9349  -6.9296  -6.9193
    -6.8952  -6.8914  -6.8834  -6.8794  -6.8736  -6.8668  -6.8610  -6.8430
    -6.8295  -6.8254  -6.8190  -6.8187  -6.8047  -6.7998  -6.7847  -6.7805
    -6.7739  -6.7651  -6.7608  -6.7579  -6.7545  -6.7522  -6.7295  -6.7195
    -6.7144  -6.7101  -6.7092  -6.6935  -6.6547  -6.6489  -6.6463  -6.6416
    -6.6332  -6.6306  -6.5999  -6.5933  -6.5928  -6.5898  -6.5677  -6.5618
    -6.5535  -6.5469  -6.5406  -6.5356  -6.5247  -6.5217  -6.5095  -6.4959
    -6.4954  -6.4937  -6.4882  -6.4783  -6.4725  -6.4685  -6.4649  -6.4640
    -6.4519  -6.4461  -6.4383  -6.4342  -6.4335  -6.4282  -6.4204  -6.4159
    -6.4070  -6.4043  -6.3834  -6.3712  -6.3613  -6.3511  -6.3435  -6.3402
    -6.3397  -6.3383  -6.3289  -6.3257  -6.3148  -6.3081  -6.3034  -6.3018
    -6.2969  -6.2944  -6.2890  -6.2866  -6.2788  -6.2782  -6.2760  -6.2737
    -6.2691  -6.2601  -6.2514  -6.2504  -6.2330  -6.2313  -6.2233  -6.2198
    -6.2101  -6.2062  -6.1966  -6.1927  -6.1915  -6.1854  -6.1795  -6.1776
    -6.1730  -6.1644  -6.1596  -6.1539  -6.1521  -6.1306  -6.1273  -6.1205
    -6.1121  -6.1090  -6.1071  -6.1063  -6.1054  -6.1024  -6.0966  -6.0859
    -6.0809  -6.0752  -6.0728  -6.0627  -6.0430  -6.0342  -6.0215  -6.0176
    -6.0156  -6.0147  -6.0139  -6.0082  -5.9977  -5.9923  -5.9912  -5.9857
    -5.9837  -5.9817  -5.9785  -5.9754  -5.9708  -5.9683  -5.9662  -5.9628
    -5.9570  -5.9562  -5.9549  -5.9425  -5.9412  -5.9326  -5.9204  -5.9156
    -5.9154  -5.9130  -5.9115  -5.9085  -5.9009  -5.8965  -5.8965  -5.8944
    -5.8922  -5.8809  -5.8770  -5.8750  -5.8732  -5.8708  -5.8666  -5.8624
    -5.8615  -5.8560  -5.8542  -5.8474  -5.8454  -5.8449  -5.8370  -5.8341
    -5.8276  -5.8263  -5.8252  -5.8249  -5.8210  -5.8157  -5.8105  -5.8087
    -5.8066  -5.8028  -5.8022  -5.8000  -5.7913  -5.7883  -5.7849  -5.7822
    -5.7789  -5.7764  -5.7729  -5.7698  -5.7669  -5.7607  -5.7601  -5.7467
    -5.7360  -5.7348  -5.7333  -5.7278  -5.7259  -5.7247  -5.7232  -5.7199
    -5.7129  -5.7117  -5.7111  -5.7085  -5.7079  -5.6934  -5.6853  -5.6794
    -5.6791  -5.6767  -5.6707  -5.6597  -5.6546  -5.6379  -5.6137  -5.6052
    -5.5954  -5.5939  -5.5852  -5.5359  -5.5306  -5.5234  -5.4536  -5.1440
    -5.1043  -5.0905  -4.7536  -4.7476  -4.7324  -4.7250  -4.4153  -4.3504
    -4.0524  -3.7360  -3.6749  -3.4812  -3.4326  -3.4183  -3.0051  -2.9286
    -2.8732  -2.8237  -2.7093  -2.6684  -2.3809  -2.3614  -1.9282  -1.9048
    -1.8841  -1.8468  -1.7169  -1.6258  -1.5643  -1.3133  -1.1822  -0.9480
    -0.9170  -0.8342  -0.7203  -0.6933  -0.6472  -0.4683  -0.3021  -0.1113
    -0.0214   0.1023   0.2504   0.3727   0.4487   0.6327   0.6608   0.7453
     0.8141   1.1579   1.1644   1.3422   1.3456   1.5693   1.7228   1.9510
     2.0149   2.2060   2.2409   2.2761   2.3918   2.4625   2.8367   2.9143
     2.9537   3.1913   3.1940   3.3563   3.3848   3.5040   3.5731   3.6067
     3.6157   3.7308   3.7511   3.9131   4.1348   4.2221   4.2779   4.2996
     4.3161   4.4034   4.4539   4.4969   4.5962   4.6037   4.7219   4.8052
     4.8171   4.8702   4.9307   4.9474   5.0361   5.1031   5.1963   5.3043
     5.3592   5.3885   5.4578   5.5056   5.5902   5.6487   5.7325   5.8442
     5.8974   5.9581   6.0571   6.1068   6.1568   6.1714   6.2105   6.2392
     6.3092   6.3380   6.3954   6.4943   6.5352   6.5523   6.5881   6.6707
     6.8208   6.8326   6.8465   6.9311   6.9418   7.0248   7.0938   7.1350
     7.1466   7.2561   7.2772   7.3221   7.3589   7.4251   7.4452   7.4821
     7.5455   7.5596   7.6196   7.6758   7.7188   7.7607   7.7952   7.8166
     7.8825   7.9492   7.9749   7.9910   8.0415   8.1080

     occupation numbers 
     1.0000   1.0000   1.0000   1.0000   1.0000   1.0000   1.0000   1.0000
     1.0000   1.0000   1.0000   1.0000   1.0000   1.0000   1.0000   1.0000
     1.0000   1.0000   1.0000   1.0000   1.0000   1.0000   1.0000   1.0000
     1.0000   1.0000   1.0000   1.0000   1.0000   1.0000   1.0000   1.0000
     1.0000   1.0000   1.0000   1.0000   1.0000   1.0000   1.0000   1.0000
     1.0000   1.0000   1.0000   1.0000   1.0000   1.0000   1.0000   1.0000
     1.0000   1.0000   1.0000   1.0000   1.0000   1.0000   1.0000   1.0000
     1.0000   1.0000   1.0000   1.0000   1.0000   1.0000   1.0000   1.0000
     1.0000   1.0000   1.0000   1.0000   1.0000   1.0000   1.0000   1.0000
     1.0000   1.0000   1.0000   1.0000   1.0000   1.0000   1.0000   1.0000
     1.0000   1.0000   1.0000   1.0000   1.0000   1.0000   1.0000   1.0000
     1.0000   1.0000   1.0000   1.0000   1.0000   1.0000   1.0000   1.0000
     1.0000   1.0000   1.0000   1.0000   1.0000   1.0000   1.0000   1.0000
     1.0000   1.0000   1.0000   1.0000   1.0000   1.0000   1.0000   1.0000
     1.0000   1.0000   1.0000   1.0000   1.0000   1.0000   1.0000   1.0000
     1.0000   1.0000   1.0000   1.0000   1.0000   1.0000   1.0000   1.0000
     1.0000   1.0000   1.0000   1.0000   1.0000   1.0000   1.0000   1.0000
     1.0000   1.0000   1.0000   1.0000   1.0000   1.0000   1.0000   1.0000
     1.0000   1.0000   1.0000   1.0000   1.0000   1.0000   1.0000   1.0000
     1.0000   1.0000   1.0000   1.0000   1.0000   1.0000   1.0000   1.0000
     1.0000   1.0000   1.0000   1.0000   1.0000   1.0000   1.0000   1.0000
     1.0000   1.0000   1.0000   1.0000   1.0000   1.0000   1.0000   1.0000
     1.0000   1.0000   1.0000   1.0000   1.0000   1.0000   1.0000   1.0000
     1.0000   1.0000   1.0000   1.0000   1.0000   1.0000   1.0000   1.0000
     1.0000   1.0000   1.0000   1.0000   1.0000   1.0000   1.0000   1.0000
     1.0000   1.0000   1.0000   1.0000   1.0000   1.0000   1.0000   1.0000
     1.0000   1.0000   1.0000   1.0000   1.0000   1.0000   1.0000   1.0000
     1.0000   1.0000   1.0000   1.0000   1.0000   1.0000   1.0000   1.0000
     1.0000   1.0000   1.0000   1.0000   1.0000   1.0000   1.0000   1.0000
     1.0000   1.0000   1.0000   1.0000   1.0000   1.0000   1.0000   1.0000
     1.0000   1.0000   1.0000   1.0000   1.0000   1.0000   1.0000   1.0000
     1.0000   1.0000   1.0000   1.0000   1.0000   1.0000   1.0000   1.0000
     1.0000   1.0000   1.0000   1.0000   1.0000   1.0000   1.0000   1.0000
     1.0000   1.0000   1.0000   1.0000   1.0000   1.0000   1.0000   1.0000
     1.0000   1.0000   1.0000   1.0000   1.0000   1.0000   1.0000   1.0000
     1.0000   1.0000   1.0000   1.0000   1.0000   1.0000   1.0000   1.0000
     1.0000   1.0000   1.0000   1.0000   1.0000   1.0000   1.0000   1.0000
     1.0000   1.0000   1.0000   1.0000   1.0000   1.0000   1.0000   1.0000
     1.0000   1.0000   1.0000   1.0000   1.0000   1.0000   1.0000   1.0000
     1.0000   1.0000   1.0000   1.0000   1.0000   1.0000   1.0000   1.0000
     1.0000   1.0000   1.0000   1.0000   1.0000   1.0000   1.0000   1.0000
     1.0000   1.0000   1.0000   1.0000   1.0000   1.0000   1.0000   1.0000
     1.0000   1.0000   1.0000   1.0000   1.0000   1.0000   1.0000   1.0000
     1.0000   1.0000   1.0000   1.0000   1.0000   1.0000   1.0000   1.0000
     1.0000   1.0000   1.0000   1.0000   1.0000   1.0000   1.0000   1.0000
     1.0000   1.0000   1.0000   1.0000   1.0000   1.0000   1.0000   1.0000
     1.0000   1.0000   1.0000   1.0000   1.0000   1.0000   1.0000   1.0000
     1.0000   1.0000   1.0000   1.0000   1.0000   1.0000   1.0000   1.0000
     1.0000   1.0000   1.0000   1.0000   1.0000   1.0000   1.0000   1.0000
     1.0000   1.0000   1.0000   1.0000   1.0000   1.0000   1.0000   1.0000
     1.0000   1.0000   1.0000   1.0000   1.0000   1.0000   1.0000   1.0000
     1.0000   1.0000   1.0000   1.0000   1.0000   1.0000   1.0000   1.0000
     1.0000   1.0000   1.0000   1.0000   1.0000   1.0000   1.0000   1.0000
     1.0000   1.0000   1.0000   1.0000   1.0000   1.0000   1.0000   1.0000
     1.0000   1.0000   1.0000   1.0000   1.0000   1.0000   1.0000   1.0000
     1.0000   1.0000   1.0000   1.0000   1.0000   1.0000   1.0000   1.0000
     1.0000   1.0000   1.0000   1.0000   1.0000   1.0000   1.0000   1.0000
     1.0000   1.0000   1.0000   1.0000   1.0000   1.0000   1.0000   1.0000
     1.0000   1.0000   1.0000   1.0000   1.0000   1.0000   1.0000   1.0000
     1.0000   1.0000   1.0000   1.0000   1.0000   1.0000   1.0000   1.0000
     1.0000   1.0000   1.0000   1.0000   1.0000   1.0000   1.0000   1.0000
     1.0000   1.0001   1.0014   1.0082   1.0199   1.0754   1.0812   1.0702
     1.0100   0.2146   0.2032   0.0304   0.0291   0.0008   0.0000   0.0000
     0.0000   0.0000   0.0000   0.0000   0.0000   0.0000   0.0000   0.0000
     0.0000   0.0000   0.0000   0.0000   0.0000   0.0000   0.0000   0.0000
     0.0000   0.0000   0.0000   0.0000   0.0000   0.0000   0.0000   0.0000
     0.0000   0.0000   0.0000   0.0000   0.0000   0.0000   0.0000   0.0000
     0.0000   0.0000   0.0000   0.0000   0.0000   0.0000   0.0000   0.0000
     0.0000   0.0000   0.0000   0.0000   0.0000   0.0000   0.0000   0.0000
     0.0000   0.0000   0.0000   0.0000   0.0000   0.0000   0.0000   0.0000
     0.0000   0.0000   0.0000   0.0000   0.0000   0.0000   0.0000   0.0000
     0.0000   0.0000   0.0000   0.0000   0.0000   0.0000   0.0000   0.0000
     0.0000   0.0000   0.0000   0.0000   0.0000   0.0000   0.0000   0.0000
     0.0000   0.0000   0.0000   0.0000   0.0000   0.0000   0.0000   0.0000
     0.0000   0.0000   0.0000   0.0000   0.0000   0.0000

          k = 0.3333 0.0811 0.7384 ( 72005 PWs)   bands (ev):

  -125.4489-125.4481-125.4478-125.4469-125.4424-125.4414-125.4412-125.4404
  -125.3767-125.3757-125.3756-125.3746-125.3708-125.3699-125.3696-125.3688
  -125.3015-125.3007-125.3000-125.2993-125.2991-125.2983-125.2968-125.2958
  -125.2086-125.2083-125.2076-125.2076-125.2074-125.2073-125.2066-125.2064
  -125.1244-125.1232-125.1228-125.1228-125.1219-125.1217-125.1215-125.1206
  -125.0488-125.0401-125.0393-125.0353-125.0319-125.0310-125.0309-125.0300
   -79.6090 -79.6035 -79.6025 -79.6025 -79.6022 -79.6012 -79.5990 -79.5982
   -79.5978 -79.5972 -79.5966 -79.5965 -79.5961 -79.5961 -79.5959 -79.5949
   -79.5926 -79.5916 -79.5914 -79.5902 -79.5898 -79.5897 -79.5841 -79.5775
   -79.5368 -79.5329 -79.5319 -79.5316 -79.5312 -79.5305 -79.5272 -79.5266
   -79.5262 -79.5259 -79.5255 -79.5254 -79.5249 -79.5244 -79.5244 -79.5242
   -79.5206 -79.5196 -79.5194 -79.5188 -79.5187 -79.5183 -79.5120 -79.5064
   -79.4615 -79.4610 -79.4601 -79.4596 -79.4594 -79.4586 -79.4583 -79.4573
   -79.4559 -79.4549 -79.4497 -79.4494 -79.4492 -79.4487 -79.4483 -79.4475
   -79.4475 -79.4471 -79.4468 -79.4464 -79.4449 -79.4441 -79.4369 -79.4346
   -79.3700 -79.3699 -79.3695 -79.3695 -79.3690 -79.3688 -79.3686 -79.3685
   -79.3678 -79.3674 -79.3593 -79.3592 -79.3585 -79.3584 -79.3583 -79.3582
   -79.3574 -79.3573 -79.3573 -79.3570 -79.3570 -79.3569 -79.3452 -79.3448
   -79.2891 -79.2878 -79.2873 -79.2871 -79.2864 -79.2860 -79.2857 -79.2847
   -79.2842 -79.2827 -79.2748 -79.2737 -79.2735 -79.2733 -79.2724 -79.2724
   -79.2723 -79.2719 -79.2715 -79.2712 -79.2704 -79.2703 -79.2595 -79.2581
   -79.2208 -79.2112 -79.2104 -79.2062 -79.2031 -79.2022 -79.2020 -79.2014
   -79.2011 -79.1932 -79.1929 -79.1923 -79.1886 -79.1854 -79.1844 -79.1843
   -79.1834 -79.1821 -79.1800 -79.1780 -79.1699 -79.1698 -79.1656 -79.1576
   -17.3472 -14.9994 -12.6033 -12.1878  -9.3554  -9.1115  -8.3413  -7.9721
    -7.3243  -7.2409  -7.2093  -7.1756  -7.1299  -7.1147  -7.1136  -7.1007
    -7.0398  -7.0136  -7.0102  -6.9945  -6.9690  -6.9602  -6.9559  -6.9067
    -6.9035  -6.8900  -6.8825  -6.8813  -6.8366  -6.8324  -6.8300  -6.8096
    -6.8023  -6.8018  -6.7917  -6.7893  -6.7844  -6.7783  -6.7536  -6.7499
    -6.7408  -6.7392  -6.7292  -6.7145  -6.7137  -6.7123  -6.7105  -6.7084
    -6.6918  -6.6821  -6.6816  -6.6782  -6.6747  -6.6729  -6.6545  -6.6453
    -6.6305  -6.6268  -6.6230  -6.6184  -6.5897  -6.5869  -6.5841  -6.5810
    -6.5799  -6.5622  -6.5579  -6.5572  -6.5232  -6.5044  -6.4965  -6.4884
    -6.4864  -6.4776  -6.4759  -6.4709  -6.4680  -6.4514  -6.4473  -6.4413
    -6.4403  -6.4389  -6.4383  -6.4131  -6.4116  -6.4097  -6.4064  -6.3902
    -6.3875  -6.3871  -6.3816  -6.3716  -6.3673  -6.3630  -6.3508  -6.3501
    -6.3428  -6.3400  -6.3267  -6.3235  -6.3199  -6.3138  -6.3119  -6.2905
    -6.2835  -6.2678  -6.2651  -6.2647  -6.2618  -6.2614  -6.2604  -6.2582
    -6.2579  -6.2465  -6.2384  -6.2308  -6.2300  -6.2223  -6.2025  -6.1926
    -6.1923  -6.1893  -6.1869  -6.1749  -6.1654  -6.1626  -6.1622  -6.1612
    -6.1609  -6.1599  -6.1582  -6.1476  -6.1450  -6.1359  -6.1291  -6.1289
    -6.1135  -6.1020  -6.0986  -6.0970  -6.0949  -6.0884  -6.0876  -6.0796
    -6.0745  -6.0733  -6.0726  -6.0449  -6.0437  -6.0421  -6.0408  -6.0311
    -6.0275  -6.0270  -6.0267  -6.0263  -6.0235  -6.0209  -6.0159  -6.0091
    -6.0068  -6.0034  -5.9956  -5.9947  -5.9895  -5.9876  -5.9832  -5.9816
    -5.9813  -5.9738  -5.9653  -5.9644  -5.9488  -5.9446  -5.9375  -5.9354
    -5.9316  -5.9310  -5.9289  -5.9276  -5.9266  -5.9249  -5.9151  -5.9117
    -5.9097  -5.9061  -5.8935  -5.8899  -5.8855  -5.8830  -5.8787  -5.8774
    -5.8734  -5.8698  -5.8675  -5.8624  -5.8586  -5.8489  -5.8485  -5.8476
    -5.8455  -5.8418  -5.8356  -5.8328  -5.8309  -5.8207  -5.8180  -5.8149
    -5.8108  -5.8073  -5.8056  -5.8041  -5.7985  -5.7959  -5.7933  -5.7916
    -5.7910  -5.7846  -5.7808  -5.7741  -5.7723  -5.7694  -5.7669  -5.7639
    -5.7566  -5.7540  -5.7534  -5.7519  -5.7512  -5.7354  -5.7285  -5.7240
    -5.7187  -5.7184  -5.7079  -5.7034  -5.6925  -5.6866  -5.6858  -5.6589
    -5.6574  -5.6517  -5.6392  -5.6372  -5.6345  -5.6203  -5.6122  -5.6106
    -5.5590  -5.5512  -5.5238  -5.5225  -5.5102  -5.4742  -5.4670  -5.2911
    -5.2056  -5.1863  -4.7376  -4.7335  -4.6936  -4.5751  -4.3591  -4.3497
    -4.1446  -4.0790  -3.7362  -3.6719  -3.5665  -3.5587  -3.0171  -2.9075
    -2.9034  -2.8278  -2.3709  -2.3422  -2.0950  -2.0932  -2.0835  -1.9683
    -1.8838  -1.7206  -1.6596  -1.4575  -1.3184  -1.3177  -1.0980  -0.9304
    -0.7749  -0.6779  -0.5811  -0.5539  -0.5182  -0.5169  -0.4681  -0.4030
    -0.3961   0.2277   0.3541   0.3687   0.5487   0.5525   0.5892   0.7780
     0.8361   1.1804   1.2318   1.2755   1.3208   1.3272   1.6419   1.7313
     1.7541   1.9149   1.9968   2.1517   2.4925   2.5792   2.5984   2.7158
     2.7218   2.7433   2.7971   3.2837   3.2982   3.3284   3.4873   3.5148
     3.6384   3.7239   3.9618   4.1162   4.1372   4.1512   4.2192   4.2269
     4.3755   4.4035   4.5560   4.6030   4.7136   4.8112   4.8239   4.8609
     4.8685   4.8865   4.9686   5.0281   5.1158   5.2302   5.3102   5.3638
     5.4496   5.5044   5.5536   5.5713   5.7436   5.7458   5.9130   5.9212
     6.0520   6.1072   6.1312   6.1722   6.2741   6.3626   6.4259   6.4374
     6.4543   6.4697   6.5963   6.6502   6.6863   6.7375   6.7496   6.7840
     6.8488   6.8775   6.9413   6.9749   7.0137   7.0649   7.1018   7.2037
     7.2367   7.2567   7.2950   7.3130   7.3264   7.3907   7.4494   7.4750
     7.5016   7.5656   7.6105   7.6664   7.6843   7.7202   7.7588   7.8009
     7.8097   7.8562   7.8664   7.8896   8.0023   8.0636

     occupation numbers 
     1.0000   1.0000   1.0000   1.0000   1.0000   1.0000   1.0000   1.0000
     1.0000   1.0000   1.0000   1.0000   1.0000   1.0000   1.0000   1.0000
     1.0000   1.0000   1.0000   1.0000   1.0000   1.0000   1.0000   1.0000
     1.0000   1.0000   1.0000   1.0000   1.0000   1.0000   1.0000   1.0000
     1.0000   1.0000   1.0000   1.0000   1.0000   1.0000   1.0000   1.0000
     1.0000   1.0000   1.0000   1.0000   1.0000   1.0000   1.0000   1.0000
     1.0000   1.0000   1.0000   1.0000   1.0000   1.0000   1.0000   1.0000
     1.0000   1.0000   1.0000   1.0000   1.0000   1.0000   1.0000   1.0000
     1.0000   1.0000   1.0000   1.0000   1.0000   1.0000   1.0000   1.0000
     1.0000   1.0000   1.0000   1.0000   1.0000   1.0000   1.0000   1.0000
     1.0000   1.0000   1.0000   1.0000   1.0000   1.0000   1.0000   1.0000
     1.0000   1.0000   1.0000   1.0000   1.0000   1.0000   1.0000   1.0000
     1.0000   1.0000   1.0000   1.0000   1.0000   1.0000   1.0000   1.0000
     1.0000   1.0000   1.0000   1.0000   1.0000   1.0000   1.0000   1.0000
     1.0000   1.0000   1.0000   1.0000   1.0000   1.0000   1.0000   1.0000
     1.0000   1.0000   1.0000   1.0000   1.0000   1.0000   1.0000   1.0000
     1.0000   1.0000   1.0000   1.0000   1.0000   1.0000   1.0000   1.0000
     1.0000   1.0000   1.0000   1.0000   1.0000   1.0000   1.0000   1.0000
     1.0000   1.0000   1.0000   1.0000   1.0000   1.0000   1.0000   1.0000
     1.0000   1.0000   1.0000   1.0000   1.0000   1.0000   1.0000   1.0000
     1.0000   1.0000   1.0000   1.0000   1.0000   1.0000   1.0000   1.0000
     1.0000   1.0000   1.0000   1.0000   1.0000   1.0000   1.0000   1.0000
     1.0000   1.0000   1.0000   1.0000   1.0000   1.0000   1.0000   1.0000
     1.0000   1.0000   1.0000   1.0000   1.0000   1.0000   1.0000   1.0000
     1.0000   1.0000   1.0000   1.0000   1.0000   1.0000   1.0000   1.0000
     1.0000   1.0000   1.0000   1.0000   1.0000   1.0000   1.0000   1.0000
     1.0000   1.0000   1.0000   1.0000   1.0000   1.0000   1.0000   1.0000
     1.0000   1.0000   1.0000   1.0000   1.0000   1.0000   1.0000   1.0000
     1.0000   1.0000   1.0000   1.0000   1.0000   1.0000   1.0000   1.0000
     1.0000   1.0000   1.0000   1.0000   1.0000   1.0000   1.0000   1.0000
     1.0000   1.0000   1.0000   1.0000   1.0000   1.0000   1.0000   1.0000
     1.0000   1.0000   1.0000   1.0000   1.0000   1.0000   1.0000   1.0000
     1.0000   1.0000   1.0000   1.0000   1.0000   1.0000   1.0000   1.0000
     1.0000   1.0000   1.0000   1.0000   1.0000   1.0000   1.0000   1.0000
     1.0000   1.0000   1.0000   1.0000   1.0000   1.0000   1.0000   1.0000
     1.0000   1.0000   1.0000   1.0000   1.0000   1.0000   1.0000   1.0000
     1.0000   1.0000   1.0000   1.0000   1.0000   1.0000   1.0000   1.0000
     1.0000   1.0000   1.0000   1.0000   1.0000   1.0000   1.0000   1.0000
     1.0000   1.0000   1.0000   1.0000   1.0000   1.0000   1.0000   1.0000
     1.0000   1.0000   1.0000   1.0000   1.0000   1.0000   1.0000   1.0000
     1.0000   1.0000   1.0000   1.0000   1.0000   1.0000   1.0000   1.0000
     1.0000   1.0000   1.0000   1.0000   1.0000   1.0000   1.0000   1.0000
     1.0000   1.0000   1.0000   1.0000   1.0000   1.0000   1.0000   1.0000
     1.0000   1.0000   1.0000   1.0000   1.0000   1.0000   1.0000   1.0000
     1.0000   1.0000   1.0000   1.0000   1.0000   1.0000   1.0000   1.0000
     1.0000   1.0000   1.0000   1.0000   1.0000   1.0000   1.0000   1.0000
     1.0000   1.0000   1.0000   1.0000   1.0000   1.0000   1.0000   1.0000
     1.0000   1.0000   1.0000   1.0000   1.0000   1.0000   1.0000   1.0000
     1.0000   1.0000   1.0000   1.0000   1.0000   1.0000   1.0000   1.0000
     1.0000   1.0000   1.0000   1.0000   1.0000   1.0000   1.0000   1.0000
     1.0000   1.0000   1.0000   1.0000   1.0000   1.0000   1.0000   1.0000
     1.0000   1.0000   1.0000   1.0000   1.0000   1.0000   1.0000   1.0000
     1.0000   1.0000   1.0000   1.0000   1.0000   1.0000   1.0000   1.0000
     1.0000   1.0000   1.0000   1.0000   1.0000   1.0000   1.0000   1.0000
     1.0000   1.0000   1.0000   1.0000   1.0000   1.0000   1.0000   1.0000
     1.0000   1.0000   1.0000   1.0000   1.0000   1.0000   1.0000   1.0000
     1.0000   1.0000   1.0000   1.0000   1.0000   1.0000   1.0000   1.0000
     1.0000   1.0000   1.0000   1.0000   1.0000   1.0000   1.0000   1.0000
     1.0000   1.0000   1.0000   1.0000   1.0000   1.0000   1.0000   1.0000
     1.0000   1.0000   1.0000   1.0000   1.0000   1.0000   1.0000   1.0000
     1.0000   1.0000   1.0000   1.0000   1.0000   1.0000   1.0000   1.0000
     1.0000   1.0009   1.0064   1.0078   1.0481   1.0494   1.0620   1.0485
     0.9787   0.1769   0.1086   0.0681   0.0398   0.0368   0.0002   0.0000
     0.0000   0.0000   0.0000   0.0000   0.0000   0.0000   0.0000   0.0000
     0.0000   0.0000   0.0000   0.0000   0.0000   0.0000   0.0000   0.0000
     0.0000   0.0000   0.0000   0.0000   0.0000   0.0000   0.0000   0.0000
     0.0000   0.0000   0.0000   0.0000   0.0000   0.0000   0.0000   0.0000
     0.0000   0.0000   0.0000   0.0000   0.0000   0.0000   0.0000   0.0000
     0.0000   0.0000   0.0000   0.0000   0.0000   0.0000   0.0000   0.0000
     0.0000   0.0000   0.0000   0.0000   0.0000   0.0000   0.0000   0.0000
     0.0000   0.0000   0.0000   0.0000   0.0000   0.0000   0.0000   0.0000
     0.0000   0.0000   0.0000   0.0000   0.0000   0.0000   0.0000   0.0000
     0.0000   0.0000   0.0000   0.0000   0.0000   0.0000   0.0000   0.0000
     0.0000   0.0000   0.0000   0.0000   0.0000   0.0000   0.0000   0.0000
     0.0000   0.0000   0.0000   0.0000   0.0000   0.0000

          k = 0.3333 0.4439 0.9230 ( 71974 PWs)   bands (ev):

  -125.4488-125.4483-125.4475-125.4470-125.4423-125.4417-125.4410-125.4404
  -125.3766-125.3760-125.3753-125.3746-125.3708-125.3702-125.3694-125.3688
  -125.3015-125.3008-125.2999-125.2992-125.2991-125.2984-125.2968-125.2958
  -125.2085-125.2083-125.2080-125.2078-125.2073-125.2070-125.2066-125.2065
  -125.1244-125.1233-125.1227-125.1226-125.1220-125.1220-125.1213-125.1206
  -125.0488-125.0401-125.0393-125.0353-125.0319-125.0313-125.0306-125.0301
   -79.6074 -79.6034 -79.6028 -79.6028 -79.6019 -79.6013 -79.6008 -79.5989
   -79.5984 -79.5972 -79.5971 -79.5967 -79.5964 -79.5963 -79.5955 -79.5950
   -79.5925 -79.5918 -79.5908 -79.5903 -79.5902 -79.5857 -79.5838 -79.5792
   -79.5351 -79.5328 -79.5322 -79.5315 -79.5307 -79.5302 -79.5296 -79.5271
   -79.5265 -79.5265 -79.5259 -79.5258 -79.5251 -79.5251 -79.5246 -79.5244
   -79.5205 -79.5199 -79.5190 -79.5184 -79.5182 -79.5136 -79.5126 -79.5081
   -79.4610 -79.4603 -79.4599 -79.4594 -79.4586 -79.4583 -79.4579 -79.4573
   -79.4559 -79.4552 -79.4550 -79.4529 -79.4496 -79.4490 -79.4482 -79.4476
   -79.4474 -79.4466 -79.4450 -79.4441 -79.4430 -79.4409 -79.4385 -79.4361
   -79.3699 -79.3694 -79.3693 -79.3689 -79.3686 -79.3683 -79.3682 -79.3679
   -79.3677 -79.3674 -79.3637 -79.3633 -79.3592 -79.3591 -79.3587 -79.3585
   -79.3578 -79.3577 -79.3573 -79.3570 -79.3513 -79.3510 -79.3468 -79.3465
   -79.2890 -79.2879 -79.2872 -79.2870 -79.2865 -79.2862 -79.2855 -79.2847
   -79.2825 -79.2811 -79.2780 -79.2766 -79.2748 -79.2738 -79.2734 -79.2730
   -79.2727 -79.2724 -79.2719 -79.2712 -79.2657 -79.2643 -79.2611 -79.2598
   -79.2208 -79.2112 -79.2104 -79.2062 -79.2031 -79.2025 -79.2017 -79.2014
   -79.2011 -79.1930 -79.1923 -79.1921 -79.1886 -79.1853 -79.1848 -79.1842
   -79.1839 -79.1835 -79.1805 -79.1760 -79.1737 -79.1667 -79.1637 -79.1592
   -17.3472 -14.9994 -12.6033 -12.1878  -9.3554  -9.1115  -8.1133  -7.9290
    -7.8329  -7.3238  -7.2312  -7.1145  -7.1063  -7.0909  -7.0381  -7.0303
    -6.9955  -6.9790  -6.9428  -6.9342  -6.9297  -6.9280  -6.9201  -6.9020
    -6.8907  -6.8903  -6.8794  -6.8740  -6.8667  -6.8607  -6.8606  -6.8433
    -6.8361  -6.8294  -6.8260  -6.8187  -6.8152  -6.8095  -6.7944  -6.7876
    -6.7846  -6.7803  -6.7608  -6.7545  -6.7356  -6.7334  -6.7294  -6.7195
    -6.7143  -6.6936  -6.6899  -6.6784  -6.6548  -6.6490  -6.6468  -6.6463
    -6.6418  -6.6307  -6.6143  -6.5931  -6.5885  -6.5679  -6.5647  -6.5621
    -6.5534  -6.5525  -6.5519  -6.5357  -6.5322  -6.5221  -6.5092  -6.4950
    -6.4878  -6.4873  -6.4746  -6.4728  -6.4718  -6.4686  -6.4638  -6.4622
    -6.4542  -6.4385  -6.4383  -6.4337  -6.4269  -6.4164  -6.4102  -6.4071
    -6.4047  -6.4025  -6.3846  -6.3835  -6.3774  -6.3708  -6.3576  -6.3435
    -6.3397  -6.3396  -6.3385  -6.3289  -6.3243  -6.3167  -6.3145  -6.3034
    -6.3026  -6.2962  -6.2946  -6.2890  -6.2790  -6.2738  -6.2690  -6.2672
    -6.2523  -6.2510  -6.2464  -6.2460  -6.2333  -6.2313  -6.2100  -6.2062
    -6.2059  -6.1994  -6.1963  -6.1954  -6.1923  -6.1916  -6.1796  -6.1776
    -6.1643  -6.1586  -6.1545  -6.1514  -6.1503  -6.1291  -6.1249  -6.1226
    -6.1121  -6.1094  -6.1072  -6.1070  -6.1062  -6.0999  -6.0967  -6.0966
    -6.0861  -6.0726  -6.0673  -6.0629  -6.0529  -6.0462  -6.0430  -6.0340
    -6.0321  -6.0178  -6.0157  -6.0078  -5.9990  -5.9934  -5.9919  -5.9915
    -5.9908  -5.9887  -5.9837  -5.9753  -5.9743  -5.9708  -5.9629  -5.9572
    -5.9553  -5.9547  -5.9529  -5.9504  -5.9413  -5.9325  -5.9280  -5.9203
    -5.9158  -5.9156  -5.9154  -5.9115  -5.8993  -5.8985  -5.8979  -5.8965
    -5.8962  -5.8934  -5.8739  -5.8709  -5.8690  -5.8624  -5.8615  -5.8571
    -5.8562  -5.8547  -5.8539  -5.8489  -5.8475  -5.8367  -5.8283  -5.8270
    -5.8252  -5.8249  -5.8212  -5.8168  -5.8157  -5.8137  -5.8104  -5.8089
    -5.8068  -5.8001  -5.7983  -5.7913  -5.7904  -5.7882  -5.7876  -5.7859
    -5.7822  -5.7788  -5.7748  -5.7736  -5.7670  -5.7603  -5.7570  -5.7568
    -5.7465  -5.7381  -5.7345  -5.7333  -5.7262  -5.7257  -5.7231  -5.7186
    -5.7163  -5.7148  -5.7129  -5.7112  -5.6936  -5.6934  -5.6853  -5.6794
    -5.6787  -5.6753  -5.6597  -5.6569  -5.6562  -5.6479  -5.6067  -5.6045
    -5.5993  -5.5943  -5.5620  -5.5448  -5.5074  -5.3340  -5.1907  -5.1442
    -5.1044  -5.0909  -4.8275  -4.7498  -4.7360  -4.7299  -4.4151  -4.3504
    -4.2380  -3.8606  -3.7361  -3.4328  -3.4183  -3.1506  -3.0052  -2.9289
    -2.9134  -2.8418  -2.7780  -2.6685  -2.3811  -2.3617  -2.3398  -2.2725
    -2.1662  -2.1434  -1.8840  -1.6254  -1.5642  -1.1823  -1.1239  -0.9169
    -0.7201  -0.6473  -0.5137  -0.4683  -0.3022  -0.1443  -0.1170  -0.0211
    -0.0075   0.3725   0.4065   0.5017   0.5372   0.6112   0.6609   0.7828
     0.8382   0.9053   1.2951   1.3422   1.4197   1.5693   1.7220   1.8984
     1.9505   2.1778   2.2056   2.2077   2.2550   2.4636   2.6571   2.8371
     2.8720   2.9143   3.0599   3.0822   3.1964   3.3556   3.3843   3.4737
     3.6154   3.6372   3.6469   3.9131   4.0406   4.0510   4.1000   4.1333
     4.2200   4.3145   4.4114   4.4566   4.4987   4.5994   4.7231   4.8050
     4.9284   4.9419   5.0317   5.0844   5.1871   5.3046   5.3075   5.3824
     5.4353   5.4590   5.4810   5.5283   5.5961   5.7087   5.7976   5.8800
     5.9411   5.9636   6.0582   6.1545   6.1648   6.1964   6.2149   6.2859
     6.3247   6.3984   6.4734   6.4768   6.5242   6.5496   6.5866   6.6325
     6.6472   6.6714   6.7948   6.8685   7.0021   7.0164   7.0533   7.1309
     7.1906   7.2401   7.3205   7.3527   7.3839   7.4813   7.5150   7.5542
     7.6193   7.7129   7.7381   7.7721   7.8316   7.8918   7.9644   7.9711
     7.9846   8.0244   8.0817   8.1293   8.1400   8.2106

     occupation numbers 
     1.0000   1.0000   1.0000   1.0000   1.0000   1.0000   1.0000   1.0000
     1.0000   1.0000   1.0000   1.0000   1.0000   1.0000   1.0000   1.0000
     1.0000   1.0000   1.0000   1.0000   1.0000   1.0000   1.0000   1.0000
     1.0000   1.0000   1.0000   1.0000   1.0000   1.0000   1.0000   1.0000
     1.0000   1.0000   1.0000   1.0000   1.0000   1.0000   1.0000   1.0000
     1.0000   1.0000   1.0000   1.0000   1.0000   1.0000   1.0000   1.0000
     1.0000   1.0000   1.0000   1.0000   1.0000   1.0000   1.0000   1.0000
     1.0000   1.0000   1.0000   1.0000   1.0000   1.0000   1.0000   1.0000
     1.0000   1.0000   1.0000   1.0000   1.0000   1.0000   1.0000   1.0000
     1.0000   1.0000   1.0000   1.0000   1.0000   1.0000   1.0000   1.0000
     1.0000   1.0000   1.0000   1.0000   1.0000   1.0000   1.0000   1.0000
     1.0000   1.0000   1.0000   1.0000   1.0000   1.0000   1.0000   1.0000
     1.0000   1.0000   1.0000   1.0000   1.0000   1.0000   1.0000   1.0000
     1.0000   1.0000   1.0000   1.0000   1.0000   1.0000   1.0000   1.0000
     1.0000   1.0000   1.0000   1.0000   1.0000   1.0000   1.0000   1.0000
     1.0000   1.0000   1.0000   1.0000   1.0000   1.0000   1.0000   1.0000
[...]
     atom   50 type  3   force =     0.00000000    0.00000000    0.00000000
     atom   51 type  3   force =     0.00000000    0.00000000    0.00000000
     atom   52 type  3   force =     0.00000000    0.00000000    0.00000000
     atom   53 type  3   force =     0.00000000    0.00000000    0.00000000
     atom   54 type  3   force =     0.00000000    0.00000000    0.00000000
     atom   55 type  2   force =     0.00000000    0.00000000    0.00000000
     atom   56 type  4   force =     0.00000000    0.00000000    0.00000000
     atom   57 type  4   force =     0.00000000    0.00000000    0.00000000
     atom   58 type  4   force =     0.00000000    0.00000000    0.00000000
     atom   59 type  4   force =     0.00000000    0.00000000    0.00000000
     atom   60 type  4   force =     0.00000000    0.00000000    0.00000000
     atom   61 type  4   force =     0.00000000    0.00000000    0.00000000
     atom   62 type  4   force =     0.00000000    0.00000000    0.00000000
     The SCF correction term to forces
     atom    1 type  1   force =     0.00000000   -0.00000000    0.00000000
     atom    2 type  1   force =    -0.00000000    0.00000000    0.00000000
     atom    3 type  1   force =     0.00010520   -0.00019085    0.00005949
     atom    4 type  1   force =    -0.00024368    0.00015856    0.00001083
     atom    5 type  1   force =     0.00006324   -0.00006761   -0.00006846
     atom    6 type  1   force =     0.00016905    0.00012059   -0.00023338
     atom    7 type  1   force =     0.00000000   -0.00000000    0.00000000
     atom    8 type  1   force =    -0.00000000    0.00000000    0.00000000
     atom    9 type  1   force =    -0.00018503    0.00017209    0.00005894
     atom   10 type  1   force =     0.00004933   -0.00020291    0.00001000
     atom   11 type  1   force =     0.00004375    0.00022645   -0.00018904
     atom   12 type  1   force =     0.00017396   -0.00017377   -0.00014128
     atom   13 type  1   force =    -0.00000000    0.00000000   -0.00000000
     atom   14 type  1   force =     0.00000000   -0.00000000    0.00000000
     atom   15 type  1   force =    -0.00014828    0.00008462   -0.00023797
     atom   16 type  1   force =     0.00023036   -0.00006729   -0.00011773
     atom   17 type  1   force =    -0.00003780   -0.00020212   -0.00010222
     atom   18 type  1   force =    -0.00015594    0.00015342   -0.00002869
     atom   19 type  1   force =    -0.00000000    0.00000000    0.00000000
     atom   20 type  1   force =     0.00000000   -0.00000000    0.00000000
     atom   21 type  1   force =     0.00016054    0.00014278   -0.00024840
     atom   22 type  1   force =    -0.00006661   -0.00013382   -0.00010421
     atom   23 type  1   force =    -0.00003045   -0.00004425    0.00000847
     atom   24 type  1   force =    -0.00016381   -0.00000395   -0.00013724
     atom   25 type  1   force =    -0.00000000    0.00000000    0.00000000
     atom   26 type  1   force =     0.00000000   -0.00000000    0.00000000
     atom   27 type  1   force =     0.00011985   -0.00015628   -0.00017413
     atom   28 type  1   force =     0.00004383    0.00020076   -0.00008680
     atom   29 type  1   force =     0.00012525   -0.00026391   -0.00000346
     atom   30 type  1   force =    -0.00015313    0.00024819   -0.00012653
     atom   31 type  1   force =    -0.00000000    0.00000000    0.00000000
     atom   32 type  1   force =    -0.00000000   -0.00000000    0.00000000
     atom   33 type  1   force =     0.00026126   -0.00006700   -0.00013734
     atom   34 type  1   force =    -0.00009077    0.00010637   -0.00012678
     atom   35 type  1   force =    -0.00004405    0.00010490    0.00000795
     atom   36 type  1   force =     0.00000976   -0.00011009   -0.00014068
     atom   37 type  1   force =     0.00000000   -0.00000000   -0.00000000
     atom   38 type  1   force =    -0.00000000    0.00000000    0.00000000
     atom   39 type  1   force =    -0.00009945   -0.00004756    0.00006515
     atom   40 type  1   force =    -0.00003474    0.00002266    0.00003688
     atom   41 type  1   force =    -0.00011864   -0.00009269   -0.00019932
     atom   42 type  1   force =     0.00017703    0.00010704   -0.00013195
     atom   43 type  1   force =     0.00000000    0.00000000   -0.00000000
     atom   44 type  1   force =     0.00000000   -0.00000000    0.00000000
     atom   45 type  1   force =    -0.00023119    0.00031612   -0.00001333
     atom   46 type  1   force =     0.00010220   -0.00035527    0.00011268
     atom   47 type  1   force =     0.00006019   -0.00002390   -0.00019616
     atom   48 type  1   force =     0.00000074    0.00004562   -0.00013256
     atom   49 type  3   force =    -0.00000499    0.00002329   -0.00000002
     atom   50 type  3   force =    -0.00000817    0.00003595    0.00000565
     atom   51 type  3   force =     0.00000530    0.00000391    0.00000678
     atom   52 type  3   force =    -0.00000179   -0.00000087    0.00003119
     atom   53 type  3   force =     0.00000418   -0.00002141    0.00000258
     atom   54 type  3   force =     0.00000760   -0.00003533    0.00000497
     atom   55 type  2   force =     0.00002951    0.00001669    0.00000115
     atom   56 type  4   force =    -0.00000085    0.00000635   -0.00000228
     atom   57 type  4   force =     0.00000177    0.00001207   -0.00000755
     atom   58 type  4   force =    -0.00000198    0.00000666    0.00000248
     atom   59 type  4   force =     0.00000535   -0.00000576   -0.00000520
     atom   60 type  4   force =    -0.00000114   -0.00000029    0.00001171
     atom   61 type  4   force =     0.00000141   -0.00000579   -0.00000099
     atom   62 type  4   force =     0.00000092   -0.00000676    0.00000232

     DFT-D3 dispersion contribution to forces:
     atom    1 type  1   force =    -0.00094590   -0.00023720    0.00247091
     atom    2 type  1   force =    -0.00112953   -0.00027114    0.00213944
     atom    3 type  1   force =     0.00131287    0.00026713    0.00104518
     atom    4 type  1   force =     0.00113220    0.00031424    0.00103557
     atom    5 type  1   force =    -0.00009149    0.00038599   -0.00051765
     atom    6 type  1   force =     0.00018637   -0.00031449   -0.00049423
     atom    7 type  1   force =    -0.00101287   -0.00032805    0.00230101
     atom    8 type  1   force =    -0.00106141   -0.00017959    0.00233317
     atom    9 type  1   force =     0.00118495    0.00028974    0.00098916
     atom   10 type  1   force =     0.00134363    0.00027400    0.00117069
     atom   11 type  1   force =    -0.00042513   -0.00010756   -0.00028270
     atom   12 type  1   force =     0.00002874   -0.00001880   -0.00140368
     atom   13 type  1   force =    -0.00141004   -0.00034850    0.00176028
     atom   14 type  1   force =    -0.00137002   -0.00031462    0.00172847
     atom   15 type  1   force =     0.00031088   -0.00000413   -0.00015463
     atom   16 type  1   force =     0.00067204    0.00020218    0.00031445
     atom   17 type  1   force =     0.00067026    0.00013648   -0.00230427
     atom   18 type  1   force =     0.00068927    0.00024464   -0.00217659
     atom   19 type  1   force =    -0.00139096   -0.00032472    0.00176988
     atom   20 type  1   force =    -0.00138068   -0.00037022    0.00172207
     atom   21 type  1   force =     0.00033203    0.00008407   -0.00014785
     atom   22 type  1   force =     0.00064762    0.00012273    0.00032048
     atom   23 type  1   force =     0.00067563    0.00011068   -0.00221035
     atom   24 type  1   force =     0.00068660    0.00017078   -0.00228293
     atom   25 type  1   force =     0.00048545    0.00008379    0.00267727
     atom   26 type  1   force =     0.00049307    0.00017098    0.00252679
     atom   27 type  1   force =    -0.00046947   -0.00012990    0.00008565
     atom   28 type  1   force =    -0.00070266   -0.00011395   -0.00004829
     atom   29 type  1   force =     0.00000087    0.00001899   -0.00324001
     atom   30 type  1   force =    -0.00056084   -0.00024733   -0.00286107
     atom   31 type  1   force =     0.00047646    0.00013778    0.00267283
     atom   32 type  1   force =     0.00051642    0.00006779    0.00252457
     atom   33 type  1   force =    -0.00047719   -0.00010220    0.00007270
     atom   34 type  1   force =    -0.00069620   -0.00013123   -0.00003175
     atom   35 type  1   force =    -0.00059677   -0.00001450   -0.00283682
     atom   36 type  1   force =    -0.00003916   -0.00003906   -0.00326439
     atom   37 type  1   force =     0.00065098    0.00014942    0.00217319
     atom   38 type  1   force =     0.00065539    0.00015910    0.00225417
     atom   39 type  1   force =    -0.00083306   -0.00013270    0.00016454
     atom   40 type  1   force =    -0.00079698   -0.00024640    0.00017856
     atom   41 type  1   force =     0.00059727    0.00013953   -0.00285227
     atom   42 type  1   force =     0.00052861    0.00011429   -0.00289420
     atom   43 type  1   force =     0.00065660    0.00017350    0.00219588
     atom   44 type  1   force =     0.00063912    0.00013457    0.00221194
     atom   45 type  1   force =    -0.00065472   -0.00013190    0.00026958
     atom   46 type  1   force =    -0.00093160   -0.00020079    0.00008366
     atom   47 type  1   force =     0.00108154    0.00025304   -0.00242853
     atom   48 type  1   force =     0.00037813    0.00011799   -0.00310709
     atom   49 type  3   force =    -0.00007333    0.00020970   -0.00015021
     atom   50 type  3   force =    -0.00001538    0.00017068   -0.00018801
     atom   51 type  3   force =    -0.00000690    0.00000258   -0.00067325
     atom   52 type  3   force =    -0.00002244   -0.00001368    0.00026542
     atom   53 type  3   force =     0.00002607   -0.00022928   -0.00016517
     atom   54 type  3   force =     0.00005810   -0.00015050   -0.00019439
     atom   55 type  2   force =     0.00000211    0.00000060   -0.00139557
     atom   56 type  4   force =    -0.00001604    0.00001519   -0.00014961
     atom   57 type  4   force =    -0.00000689   -0.00005758   -0.00136531
     atom   58 type  4   force =     0.00000649   -0.00001192   -0.00000391
     atom   59 type  4   force =    -0.00002762    0.00005355   -0.00139372
     atom   60 type  4   force =     0.00002402    0.00000723   -0.00007631
     atom   61 type  4   force =    -0.00000660   -0.00002186   -0.00015918
     atom   62 type  4   force =     0.00000206    0.00001088   -0.00000359

     Total force =     0.029867     Total SCF correction =     0.001402

     DFT-D3 dispersion Force =     0.014719


     Computing stress (Cartesian axis) and pressure


     negative rho (up, down):  3.701E-03 0.000E+00
          total   stress  (Ry/bohr**3)                   (kbar)     P=      -15.24
  -0.00016618   0.00000094   0.00000775          -24.45        0.14        1.14
   0.00000094  -0.00012266   0.00000142            0.14      -18.04        0.21
   0.00000775   0.00000142  -0.00002205            1.14        0.21       -3.24

     kinetic stress (kbar)  11633.31     18.83     16.88
                               18.83  11563.90      3.86
                               16.88      3.86  11619.79

     local   stress (kbar)-839693.54   3356.35   2996.84
                             3356.35-852688.63    738.94
                             2996.84    738.94 847972.09

     nonloc. stress (kbar)  -1137.26     -5.93     -3.58
                               -5.93  -1112.92     -0.93
                               -3.58     -0.93  -1149.83

     hartree stress (kbar) 444819.25  -1458.42  -1287.23
                            -1458.42 450452.08   -317.65
                            -1287.23   -317.65-392563.81

     exc-cor stress (kbar)  -5690.09     -1.30     -1.04
                               -1.30  -5684.75     -0.25
                               -1.04     -0.25  -5691.71

     corecor stress (kbar)    -61.50      0.19      0.11
                                0.19    -62.30      0.02
                                0.11      0.02    -62.29

     ewald   stress (kbar) 390111.77  -1910.01  -1721.20
                            -1910.01 397522.62   -423.89
                            -1721.20   -423.89-460124.35

     hubbard stress (kbar)      0.00      0.00      0.00
                                0.00      0.00      0.00
                                0.00      0.00      0.00

     DFT-D   stress (kbar)     -6.38      0.43      0.37
                                0.43     -8.03      0.09
                                0.37      0.09     -3.13

     XDM     stress (kbar)      0.00      0.00      0.00
                                0.00      0.00      0.00
                                0.00      0.00      0.00

     dft-nl  stress (kbar)      0.00      0.00      0.00
                                0.00      0.00      0.00
                                0.00      0.00      0.00

     TS-vdW  stress (kbar)      0.00      0.00      0.00
                                0.00      0.00      0.00
                                0.00      0.00      0.00

     MDB     stress (kbar)      0.00      0.00      0.00
                                0.00      0.00      0.00
                                0.00      0.00      0.00

     3D-RISM stress (kbar)      0.00      0.00      0.00
                                0.00      0.00      0.00
                                0.00      0.00      0.00

     Energy error            =      5.7E-04 Ry
     Gradient error          =      1.3E-02 Ry/Bohr

     number of scf cycles    =  24
     number of bfgs steps    =  23

     energy             old  =  -22293.5961705845 Ry
     energy             new  =  -22293.5967394874 Ry

     CASE: energy            _new < energy            _old

     new trust radius        =       0.0789266736 bohr
     new conv_thr            =       0.0000001138 Ry


ATOMIC_POSITIONS (angstrom)
Zn              -1.0735560000        1.0841420000        1.1977640000    0   0   0
Zn              -2.3094850000        6.1646920000        1.1977640000    0   0   0
Zn              -4.8947258754        0.1560912107        3.7932007981
Zn              -6.1411917886        5.2317695243        3.7799771439
Zn              -8.9752543762       -0.8514708952        5.8624498471
Zn             -10.2087483870        4.2636156152        5.8634960161
Zn              -1.6915200000        3.6244170000        1.1977640000    0   0   0
Zn              -2.9274500000        8.7049670000        1.1977640000    0   0   0
Zn              -5.5280173105        2.6897902375        3.7914860228
Zn              -6.7276750474        7.7796674284        3.8052506779
Zn              -9.6748337320        1.6839444187        5.7877090322
Zn             -10.8129925631        6.7844700603        5.8737866740
Zn               4.4565960000        1.0841420000        1.1977640000    0   0   0
Zn               3.2206660000        6.1646920000        1.1977640000    0   0   0
Zn               0.5623150552        0.1240670436        3.4616606854
Zn              -0.6009966098        5.2397850156        3.5782129384
Zn              -3.2023189891       -0.7805525977        5.7830545644
Zn              -4.4657313960        4.3036187509        5.7907543265
Zn               3.8386310000        3.6244170000        1.1977640000    0   0   0
Zn               2.6027020000        8.7049670000        1.1977640000    0   0   0
Zn              -0.0565666416        2.6863209459        3.4627226515
Zn              -1.2191979578        7.7684087642        3.5795265278
Zn              -3.8279498288        1.7521071231        5.7966251415
Zn              -5.0725538835        6.8383329908        5.7755306553
Zn               1.6915200000        0.4114910000        0.8555450000    0   0   0
Zn               0.4555910000        5.4920410000        0.8555450000    0   0   0
Zn              -2.3374483752       -0.5680069580        3.0046133171
Zn              -3.5917768657        4.5120336239        2.9769341242
Zn              -6.5038061809       -1.5812184515        5.0300481058
Zn              -7.7589144979        3.4894051517        5.0911736774
Zn               1.0735560000        2.9517660000        0.8555450000    0   0   0
Zn              -0.1623740000        8.0323160000        0.8555450000    0   0   0
Zn              -2.9572645196        1.9725728015        3.0063119495
Zn              -4.2072994242        7.0529450021        2.9739228177
Zn              -7.1555985962        0.9539851249        5.0885737220
Zn              -8.3522186529        6.0418488357        5.0320963984
Zn               7.2216720000        0.4114910000        0.8555450000    0   0   0
Zn               5.9857420000        5.4920410000        0.8555450000    0   0   0
Zn               3.1738836363       -0.5633632034        2.9525912060
Zn               1.9469410443        4.5022009605        2.9533433294
Zn              -0.7119082400       -1.5237914876        5.1528551986
Zn              -1.9582661123        3.5632300048        5.1488911500
Zn               6.6037070000        2.9517660000        0.8555450000    0   0   0
Zn               5.3677780000        8.0323160000        0.8555450000    0   0   0
Zn               2.5648425953        1.9700876745        2.9601832037
Zn               1.3153863762        7.0504792967        2.9400872679
Zn              -1.2965236093        1.0308931938        5.1910419349
Zn              -2.6015190322        6.0926534859        5.1028677082
C              -10.0967880642        2.8200472020       11.2604697890
C              -10.2717206078        2.7576207863       12.6464008284
C               -9.7224879037        1.6820713053       10.5268817498
C              -10.0780333169        1.5596077156       13.3447925493
C               -9.5691841714        0.4726816727       11.2264402803
C               -9.7442842826        0.4164136838       12.6119276496
N               -9.5806417596        1.7331815830        9.1405434405
H              -10.2552340653        3.7516103822       10.7127236771
H               -9.4536685943        2.6421863976        8.7097864798
H              -10.5837281756        3.6533367441       13.1859992062
H               -9.0771573619        0.9775518889        8.6875339591
H              -10.2134233831        1.5140876948       14.4294080191
H               -9.3173224093       -0.4203946250       10.6509376928
H               -9.6417218058       -0.5433940593       13.1234671800



     Writing config-only to output data dir ./tmp/Zn101_3layer_aniline_relax.save/ :
     XML data file
     NEW-OLD atomic charge density approx. for the potential

     negative rho (up, down):  3.724E-03 0.000E+00

     total cpu time spent up to now is    74492.8 secs

     Self-consistent Calculation

     iteration #  1     ecut=    40.00 Ry     beta= 0.40
     Davidson diagonalization with overlap

---- Real-time Memory Report at c_bands before calling an iterative solver
           472 MiB given to the printing process from OS
             0 MiB allocation reported by mallinfo(arena+hblkhd)
         51520 MiB available memory on the node where the printing process lives
------------------
     ethr =  1.00E-06,  avg # of iterations =  6.0

     negative rho (up, down):  3.713E-03 0.000E+00

     total cpu time spent up to now is    75060.0 secs

     total energy              =  -22293.59650046 Ry
     estimated scf accuracy    <       0.00558919 Ry

     iteration #  2     ecut=    40.00 Ry     beta= 0.40
     Davidson diagonalization with overlap

---- Real-time Memory Report at c_bands before calling an iterative solver
           472 MiB given to the printing process from OS
             0 MiB allocation reported by mallinfo(arena+hblkhd)
         51407 MiB available memory on the node where the printing process lives
------------------
     c_bands:  1 eigenvalues not converged
     c_bands:  1 eigenvalues not converged
     ethr =  5.61E-07,  avg # of iterations = 18.4
