--------------------------------------------------------------------------
By default, for Open MPI 4.0 and later, infiniband ports on a device
are not used by default.  The intent is to use UCX for these devices.
You can override this policy by setting the btl_openib_allow_ib MCA parameter
to true.

  Local host:              psid06
  Local adapter:           mlx4_0
  Local port:              1

--------------------------------------------------------------------------
--------------------------------------------------------------------------
WARNING: There was an error initializing an OpenFabrics device.

  Local host:   psid06
  Local device: mlx4_0
--------------------------------------------------------------------------

     Program PWSCF v.7.3.1 starts on  5Apr2025 at 16: 6:36 

     This program is part of the open-source Quantum ESPRESSO suite
     for quantum simulation of materials; please cite
         "P. Giannozzi et al., J. Phys.:Condens. Matter 21 395502 (2009);
         "P. Giannozzi et al., J. Phys.:Condens. Matter 29 465901 (2017);
         "P. Giannozzi et al., J. Chem. Phys. 152 154105 (2020);
          URL http://www.quantum-espresso.org", 
     in publications or presentations arising from this work. More details at
     http://www.quantum-espresso.org/quote

     Parallel version (MPI), running on    34 processors

     MPI processes distributed on     1 nodes
     75830 MiB available memory on the printing compute node when the environment starts

     Waiting for input...
     Reading input from standard input
Warning: card &CELL ignored
Warning: card   CELL_DOFREE = 'ALL' ignored
Warning: card / ignored

     Current dimensions of program PWSCF are:
     Max number of different atomic species (ntypx) = 10
     Max number of k-points (npk) =  40000
     Max angular momentum in pseudopotentials (lmaxx) =  4
     Presently stress not available with electric field and gates


     R & G space division:  proc/nbgrp/npool/nimage =      34
     Subspace diagonalization in iterative solution of the eigenvalue problem:
     one sub-group per band group will be used
     custom distributed-memory algorithm (size of sub-group:  5*  5 procs)


     Parallelization info
     --------------------
     sticks:   dense  smooth     PW     G-vecs:    dense   smooth      PW
     Min         222     126     34                35322    15256    2100
     Max         223     127     35                35328    15267    2110
     Sum        7555    4303   1159              1201061   518755   71619

     Using Slab Decomposition



     bravais-lattice index     =            0
     lattice parameter (alat)  =      19.7617  a.u.
     unit-cell volume          =   15176.5939 (a.u.)^3
     number of atoms/cell      =           48
     number of atomic types    =            1
     number of electrons       =       960.00
     number of Kohn-Sham states=          576
     kinetic-energy cutoff     =      40.0000  Ry
     charge density cutoff     =     280.0000  Ry
     scf convergence threshold =      1.0E-06
     mixing beta               =       0.4000
     number of iterations used =            8  plain     mixing
     energy convergence thresh.=      1.0E-05
     force convergence thresh. =      5.0E-04
     Exchange-correlation= SLA  PW   PBE  PBE
                           (   1   4   3   4   0   0   0)
     nstep                     =          500


     celldm(1)=  19.761696  celldm(2)=   0.000000  celldm(3)=   0.000000
     celldm(4)=   0.000000  celldm(5)=   0.000000  celldm(6)=   0.000000

     crystal axes: (cart. coord. in units of alat)
               a(1) = (   1.000000   0.000000   0.000000 )  
               a(2) = (  -0.500000   0.866025   0.000000 )  
               a(3) = (   0.000000   0.000000   2.270759 )  

     reciprocal axes: (cart. coord. in units 2 pi/alat)
               b(1) = (  1.000000  0.577350 -0.000000 )  
               b(2) = (  0.000000  1.154701  0.000000 )  
               b(3) = (  0.000000 -0.000000  0.440381 )  


     PseudoPot. # 1 for Zn read from file:
     /home/ys/qepseudo/SSSP_1.3.0_PBE_efficiency/Zn_pbe_v1.uspp.F.UPF
     MD5 check sum: df62231357ef9e81f77b2b3087fa5675
     Pseudo is Ultrasoft, Zval = 20.0
     Generated by new atomic code, or converted to UPF format
     Using radial grid of  943 points,  6 beta functions with: 
                l(1) =   0
                l(2) =   0
                l(3) =   1
                l(4) =   1
                l(5) =   2
                l(6) =   2
     Q(r) pseudized with  8 coefficients,  rinner =    1.100   1.100   1.100
                                                       1.100   1.100

     atomic species   valence    mass     pseudopotential
     Zn               20.00    65.38000     Zn( 1.00)

     No symmetry found


                                    s                        frac. trans.

      isym =  1     identity                                     

 cryst.   s( 1) = (     1          0          0      )
                  (     0          1          0      )
                  (     0          0          1      )

 cart.    s( 1) = (  1.0000000  0.0000000  0.0000000 )
                  (  0.0000000  1.0000000  0.0000000 )
                  (  0.0000000  0.0000000  1.0000000 )


   Cartesian axes

     site n.     atom                  positions (alat units)
         1        Zn     tau(   1) = (   0.0000000   0.1443375   0.1164998  )
         2        Zn     tau(   2) = (   0.5000000   0.1443375   0.1164998  )
         3        Zn     tau(   3) = (   0.0000008   0.1443287   0.5996818  )
         4        Zn     tau(   4) = (   0.4999961   0.1443636   0.5996092  )
         5        Zn     tau(   5) = (  -0.1250000   0.3608439   0.1164998  )
         6        Zn     tau(   6) = (   0.3750000   0.3608439   0.1164998  )
         7        Zn     tau(   7) = (  -0.1250014   0.3608365   0.5995712  )
         8        Zn     tau(   8) = (   0.3750108   0.3608622   0.5994892  )
         9        Zn     tau(   9) = (  -0.2500000   0.5773502   0.1164998  )
        10        Zn     tau(  10) = (   0.2500000   0.5773502   0.1164998  )
        11        Zn     tau(  11) = (  -0.2500291   0.5773448   0.5994599  )
        12        Zn     tau(  12) = (   0.2500298   0.5773405   0.5995704  )
        13        Zn     tau(  13) = (  -0.3750000   0.7938567   0.1164998  )
        14        Zn     tau(  14) = (   0.1250000   0.7938567   0.1164998  )
        15        Zn     tau(  15) = (  -0.3750192   0.7938503   0.5995597  )
        16        Zn     tau(  16) = (   0.1250210   0.7938546   0.5996923  )
        17        Zn     tau(  17) = (   0.2500000   0.1443375   0.1164998  )
        18        Zn     tau(  18) = (   0.7500000   0.1443375   0.1164998  )
        19        Zn     tau(  19) = (   0.2499808   0.1443394   0.5997016  )
        20        Zn     tau(  20) = (   0.7500196   0.1443469   0.5995819  )
        21        Zn     tau(  21) = (   0.1250000   0.3608439   0.1164998  )
        22        Zn     tau(  22) = (   0.6250000   0.3608439   0.1164998  )
        23        Zn     tau(  23) = (   0.1249968   0.3608336   0.5996865  )
        24        Zn     tau(  24) = (   0.6249894   0.3608655   0.5993717  )
        25        Zn     tau(  25) = (   0.0000000   0.5773502   0.1164998  )
        26        Zn     tau(  26) = (   0.5000000   0.5773502   0.1164998  )
        27        Zn     tau(  27) = (  -0.0000048   0.5773285   0.5996811  )
        28        Zn     tau(  28) = (   0.5000028   0.5773490   0.5993518  )
        29        Zn     tau(  29) = (  -0.1250000   0.7938567   0.1164998  )
        30        Zn     tau(  30) = (   0.3750000   0.7938567   0.1164998  )
        31        Zn     tau(  31) = (  -0.1250309   0.7938550   0.5996904  )
        32        Zn     tau(  32) = (   0.3750259   0.7938514   0.5995577  )
        33        Zn     tau(  33) = (   0.1249792   0.0721726   0.3581392  )
        34        Zn     tau(  34) = (   0.6250232   0.0722219   0.3581048  )
        35        Zn     tau(  35) = (   0.0000042   0.2886408   0.3581388  )
        36        Zn     tau(  36) = (   0.4999973   0.2887225   0.3580491  )
        37        Zn     tau(  37) = (  -0.1250368   0.5051391   0.3580713  )
        38        Zn     tau(  38) = (   0.3750416   0.5051654   0.3580209  )
        39        Zn     tau(  39) = (  -0.2500605   0.7216974   0.3580709  )
        40        Zn     tau(  40) = (   0.2500676   0.7216835   0.3580819  )
        41        Zn     tau(  41) = (   0.3749556   0.0722083   0.3581429  )
        42        Zn     tau(  42) = (   0.8750408   0.0721787   0.3581002  )
        43        Zn     tau(  43) = (   0.2500052   0.2886728   0.3581307  )
        44        Zn     tau(  44) = (   0.7499958   0.2886849   0.3580462  )
        45        Zn     tau(  45) = (   0.1250297   0.5051286   0.3581191  )
        46        Zn     tau(  46) = (   0.6249636   0.5051713   0.3579785  )
        47        Zn     tau(  47) = (  -0.0000166   0.7216885   0.3581396  )
        48        Zn     tau(  48) = (   0.5000104   0.7216822   0.3580223  )

     --------------------------------------------
     DFT-D3 Dispersion Correction (3-body terms):
     --------------------------------------------
       Reference C6 values for interpolation: 

         atom   Coordination number   C6
         Zn         0.000           681.04
         Zn         1.942           306.91

       Values used:

         atom   Coordination number  R0_AB[au]  C6      C8
         Zn         6.586            3.053    306.91  23930.67
         Zn         6.586            3.053    306.91  23930.67
         Zn         6.589            3.053    306.91  23930.67
         Zn         6.588            3.053    306.91  23930.67
         Zn         6.587            3.053    306.91  23930.67
         Zn         6.588            3.053    306.91  23930.67
         Zn         6.591            3.053    306.91  23930.67
         Zn         6.593            3.053    306.91  23930.67
         Zn         6.588            3.053    306.91  23930.67
         Zn         6.587            3.053    306.91  23930.67
         Zn         6.593            3.053    306.91  23930.67
         Zn         6.590            3.053    306.91  23930.67
         Zn         6.587            3.053    306.91  23930.67
         Zn         6.585            3.053    306.91  23930.67
         Zn         6.592            3.053    306.91  23930.67
         Zn         6.584            3.053    306.91  23930.67
         Zn         6.585            3.053    306.91  23930.67
         Zn         6.587            3.053    306.91  23930.67
         Zn         6.588            3.053    306.91  23930.67
         Zn         6.590            3.053    306.91  23930.67
         Zn         6.585            3.053    306.91  23930.67
         Zn         6.589            3.053    306.91  23930.67
         Zn         6.588            3.053    306.91  23930.67
         Zn         6.596            3.053    306.91  23930.67
         Zn         6.585            3.053    306.91  23930.67
         Zn         6.590            3.053    306.91  23930.67
         Zn         6.585            3.053    306.91  23930.67
         Zn         6.597            3.053    306.91  23930.67
         Zn         6.585            3.053    306.91  23930.67
         Zn         6.588            3.053    306.91  23930.67
         Zn         6.586            3.053    306.91  23930.67
         Zn         6.591            3.053    306.91  23930.67
         Zn         7.997            3.053    306.91  23930.67
         Zn         7.995            3.053    306.91  23930.67
         Zn         7.997            3.053    306.91  23930.67
         Zn         8.003            3.053    306.91  23930.67
         Zn         7.997            3.053    306.91  23930.67
         Zn         8.004            3.053    306.91  23930.67
         Zn         7.998            3.053    306.91  23930.67
         Zn         7.996            3.053    306.91  23930.67
         Zn         7.994            3.053    306.91  23930.67
         Zn         7.998            3.053    306.91  23930.67
         Zn         7.997            3.053    306.91  23930.67
         Zn         8.001            3.053    306.91  23930.67
         Zn         7.994            3.053    306.91  23930.67
         Zn         8.007            3.053    306.91  23930.67
         Zn         7.991            3.053    306.91  23930.67
         Zn         8.003            3.053    306.91  23930.67

         Molecular C6 ( Ry / a.u.^6 ) =    707110.50


   Crystallographic axes

     site n.     atom                  positions (cryst. coord.)
         1        Zn     tau(   1) = (  0.0833333  0.1666666  0.0513044  )
         2        Zn     tau(   2) = (  0.5833333  0.1666666  0.0513044  )
         3        Zn     tau(   3) = (  0.0833290  0.1666564  0.2640887  )
         4        Zn     tau(   4) = (  0.5833444  0.1666967  0.2640568  )
         5        Zn     tau(   5) = (  0.0833333  0.4166666  0.0513044  )
         6        Zn     tau(   6) = (  0.5833333  0.4166666  0.0513044  )
         7        Zn     tau(   7) = (  0.0833277  0.4166581  0.2640400  )
         8        Zn     tau(   8) = (  0.5833547  0.4166878  0.2640039  )
         9        Zn     tau(   9) = (  0.0833333  0.6666666  0.0513044  )
        10        Zn     tau(  10) = (  0.5833333  0.6666666  0.0513044  )
        11        Zn     tau(  11) = (  0.0833011  0.6666604  0.2639910  )
        12        Zn     tau(  12) = (  0.5833575  0.6666554  0.2640396  )
        13        Zn     tau(  13) = (  0.0833333  0.9166667  0.0513044  )
        14        Zn     tau(  14) = (  0.5833334  0.9166667  0.0513044  )
        15        Zn     tau(  15) = (  0.0833105  0.9166594  0.2640349  )
        16        Zn     tau(  16) = (  0.5833532  0.9166644  0.2640933  )
        17        Zn     tau(  17) = (  0.3333333  0.1666666  0.0513044  )
        18        Zn     tau(  18) = (  0.8333334  0.1666666  0.0513044  )
        19        Zn     tau(  19) = (  0.3333151  0.1666688  0.2640975  )
        20        Zn     tau(  20) = (  0.8333583  0.1666774  0.2640447  )
        21        Zn     tau(  21) = (  0.3333333  0.4166666  0.0513044  )
        22        Zn     tau(  22) = (  0.8333333  0.4166666  0.0513044  )
        23        Zn     tau(  23) = (  0.3333242  0.4166548  0.2640908  )
        24        Zn     tau(  24) = (  0.8333351  0.4166916  0.2639522  )
        25        Zn     tau(  25) = (  0.3333333  0.6666666  0.0513044  )
        26        Zn     tau(  26) = (  0.8333333  0.6666666  0.0513044  )
        27        Zn     tau(  27) = (  0.3333160  0.6666415  0.2640884  )
        28        Zn     tau(  28) = (  0.8333354  0.6666652  0.2639434  )
        29        Zn     tau(  29) = (  0.3333334  0.9166667  0.0513044  )
        30        Zn     tau(  30) = (  0.8333334  0.9166667  0.0513044  )
        31        Zn     tau(  31) = (  0.3333015  0.9166648  0.2640925  )
        32        Zn     tau(  32) = (  0.8333562  0.9166607  0.2640341  )
        33        Zn     tau(  33) = (  0.1666481  0.0833377  0.1577179  )
        34        Zn     tau(  34) = (  0.6667206  0.0833947  0.1577027  )
        35        Zn     tau(  35) = (  0.1666511  0.3332937  0.1577177  )
        36        Zn     tau(  36) = (  0.6666913  0.3333880  0.1576782  )
        37        Zn     tau(  37) = (  0.1666054  0.5832844  0.1576879  )
        38        Zn     tau(  38) = (  0.6666990  0.5833147  0.1576658  )
        39        Zn     tau(  39) = (  0.1666116  0.8333443  0.1576878  )
        40        Zn     tau(  40) = (  0.6667318  0.8333283  0.1576926  )
        41        Zn     tau(  41) = (  0.4166450  0.0833790  0.1577195  )
        42        Zn     tau(  42) = (  0.9167132  0.0833448  0.1577007  )
        43        Zn     tau(  43) = (  0.4166705  0.3333307  0.1577141  )
        44        Zn     tau(  44) = (  0.9166681  0.3333446  0.1576769  )
        45        Zn     tau(  45) = (  0.4166659  0.5832723  0.1577090  )
        46        Zn     tau(  46) = (  0.9166243  0.5833215  0.1576471  )
        47        Zn     tau(  47) = (  0.4166504  0.8333341  0.1577180  )
        48        Zn     tau(  48) = (  0.9166738  0.8333268  0.1576664  )

     number of k points=     5  Marzari-Vanderbilt smearing, width (Ry)=  0.0200
                       cart. coord. in units 2pi/alat
        k(    1) = (   0.0000000   0.0000000   0.0000000), wk =   0.2222222
        k(    2) = (   0.0000000   0.3849002   0.0000000), wk =   0.4444444
        k(    3) = (   0.3333333   0.1924501   0.0000000), wk =   0.4444444
        k(    4) = (   0.3333333   0.5773503   0.0000000), wk =   0.4444444
        k(    5) = (   0.3333333  -0.1924501   0.0000000), wk =   0.4444444

                       cryst. coord.
        k(    1) = (   0.0000000   0.0000000   0.0000000), wk =   0.2222222
        k(    2) = (   0.0000000   0.3333333   0.0000000), wk =   0.4444444
        k(    3) = (   0.3333333   0.0000000   0.0000000), wk =   0.4444444
        k(    4) = (   0.3333333   0.3333333   0.0000000), wk =   0.4444444
        k(    5) = (   0.3333333  -0.3333333   0.0000000), wk =   0.4444444

     Dense  grid:  1201061 G-vectors     FFT dimensions: ( 108, 108, 240)

     Smooth grid:   518755 G-vectors     FFT dimensions: (  80,  80, 192)

     Dynamical RAM for                 wfc:      16.75 MB

     Dynamical RAM for     wfc (w. buffer):     100.51 MB

     Dynamical RAM for           str. fact:       0.54 MB

     Dynamical RAM for           local pot:       0.00 MB

     Dynamical RAM for          nlocal pot:      25.13 MB

     Dynamical RAM for                qrad:       1.34 MB

     Dynamical RAM for          rho,v,vnew:       3.75 MB

     Dynamical RAM for               rhoin:       1.25 MB

     Dynamical RAM for            rho*nmix:       8.62 MB

     Dynamical RAM for           G-vectors:       2.14 MB

     Dynamical RAM for          h,s,v(r/c):       2.42 MB

     Dynamical RAM for          <psi|beta>:       7.59 MB

     Dynamical RAM for                 psi:      33.50 MB

     Dynamical RAM for                hpsi:      33.50 MB

     Dynamical RAM for                spsi:      33.50 MB

     Dynamical RAM for      wfcinit/wfcrot:      45.21 MB

     Dynamical RAM for           addusdens:     126.14 MB

     Dynamical RAM for          addusforce:     177.27 MB

     Estimated static dynamical RAM per process >     139.30 MB

     Estimated max dynamical RAM per process >     325.20 MB

     Estimated total dynamical RAM >      10.80 GB

     Initial potential from superposition of free atoms

     starting charge     959.9932, renormalised to     960.0000

     negative rho (up, down):  3.987E-03 0.000E+00

     Adding external electric field

     Computed dipole along edir(1) : 
        Elec. dipole         -0.3353 Ry au,         -0.8522 Debye
        Ion. dipole          -0.4915 Ry au,         -1.2492 Debye
        Dipole             -188.6528 Ry au,       -479.5077 Debye
        Dipole field         -0.1562 Ry au, 

        Potential amp.        5.5564 Ry
        Total length         17.7855 bohr

     Starting wfcs are  624 randomized atomic wfcs
[psid06:205163] 33 more processes have sent help message help-mpi-btl-openib.txt / ib port not selected
[psid06:205163] Set MCA parameter "orte_base_help_aggregate" to 0 to see all help / error messages
[psid06:205163] 33 more processes have sent help message help-mpi-btl-openib.txt / error in device init

     total cpu time spent up to now is       55.3 secs

     Self-consistent Calculation

     iteration #  1     ecut=    40.00 Ry     beta= 0.40
     Davidson diagonalization with overlap

---- Real-time Memory Report at c_bands before calling an iterative solver
           212 MiB given to the printing process from OS
             0 MiB allocation reported by mallinfo(arena+hblkhd)
         70568 MiB available memory on the node where the printing process lives
------------------
     ethr =  1.00E-02,  avg # of iterations = 12.6

     negative rho (up, down):  8.618E-04 0.000E+00

     Adding external electric field

     Computed dipole along edir(1) : 
        Elec. dipole         -1.1370 Ry au,         -2.8899 Debye
        Ion. dipole          -0.4915 Ry au,         -1.2492 Debye
        Dipole              779.5982 Ry au,       1981.5410 Debye
        Dipole field          0.6455 Ry au, 

        Potential amp.      -22.9617 Ry
        Total length         17.7855 bohr


     total cpu time spent up to now is      569.8 secs

     total energy              =  -15377.19738156 Ry
     estimated scf accuracy    <   11357.24372972 Ry

     iteration #  2     ecut=    40.00 Ry     beta= 0.40
     Davidson diagonalization with overlap

---- Real-time Memory Report at c_bands before calling an iterative solver
           304 MiB given to the printing process from OS
             0 MiB allocation reported by mallinfo(arena+hblkhd)
         69339 MiB available memory on the node where the printing process lives
------------------
     ethr =  1.00E-02,  avg # of iterations = 33.0

     negative rho (up, down):  1.545E-03 0.000E+00

     Adding external electric field

     Computed dipole along edir(1) : 
        Elec. dipole         -0.6203 Ry au,         -1.5767 Debye
        Ion. dipole          -0.4915 Ry au,         -1.2492 Debye
        Dipole              155.6035 Ry au,        395.5047 Debye
        Dipole field          0.1288 Ry au, 

        Potential amp.       -4.5830 Ry
        Total length         17.7855 bohr


     total cpu time spent up to now is     2766.8 secs

     total energy              =  -19523.39119061 Ry
     estimated scf accuracy    <   66486.29834911 Ry

     iteration #  3     ecut=    40.00 Ry     beta= 0.40
     Davidson diagonalization with overlap

---- Real-time Memory Report at c_bands before calling an iterative solver
           313 MiB given to the printing process from OS
             0 MiB allocation reported by mallinfo(arena+hblkhd)
         69297 MiB available memory on the node where the printing process lives
------------------
     ethr =  1.00E-02,  avg # of iterations = 13.0

     negative rho (up, down):  2.517E-03 0.000E+00

     Adding external electric field

     Computed dipole along edir(1) : 
        Elec. dipole         -0.5598 Ry au,         -1.4230 Debye
        Ion. dipole          -0.4915 Ry au,         -1.2492 Debye
        Dipole               82.5754 Ry au,        209.8857 Debye
        Dipole field          0.0684 Ry au, 

        Potential amp.       -2.4321 Ry
        Total length         17.7855 bohr


     total cpu time spent up to now is     3636.7 secs

     total energy              =  -21867.36244830 Ry
     estimated scf accuracy    <    9855.76924176 Ry

     iteration #  4     ecut=    40.00 Ry     beta= 0.40
     Davidson diagonalization with overlap

---- Real-time Memory Report at c_bands before calling an iterative solver
           315 MiB given to the printing process from OS
             0 MiB allocation reported by mallinfo(arena+hblkhd)
         69274 MiB available memory on the node where the printing process lives
------------------
     ethr =  1.00E-02,  avg # of iterations = 10.0

     negative rho (up, down):  2.523E-03 0.000E+00

     Adding external electric field

     Computed dipole along edir(1) : 
        Elec. dipole         -0.5117 Ry au,         -1.3006 Debye
        Ion. dipole          -0.4915 Ry au,         -1.2492 Debye
        Dipole               24.4473 Ry au,         62.1389 Debye
        Dipole field          0.0202 Ry au, 

        Potential amp.       -0.7201 Ry
        Total length         17.7855 bohr


     total cpu time spent up to now is     4105.5 secs

     total energy              =  -22389.43360279 Ry
     estimated scf accuracy    <    1555.84746542 Ry

     iteration #  5     ecut=    40.00 Ry     beta= 0.40
     Davidson diagonalization with overlap

---- Real-time Memory Report at c_bands before calling an iterative solver
           316 MiB given to the printing process from OS
             0 MiB allocation reported by mallinfo(arena+hblkhd)
         69256 MiB available memory on the node where the printing process lives
------------------
     ethr =  1.00E-02,  avg # of iterations =  6.4

     negative rho (up, down):  2.793E-03 0.000E+00

     Adding external electric field

     Computed dipole along edir(1) : 
        Elec. dipole         -0.5149 Ry au,         -1.3087 Debye
        Ion. dipole          -0.4915 Ry au,         -1.2492 Debye
        Dipole               28.2986 Ry au,         71.9279 Debye
        Dipole field          0.0234 Ry au, 

        Potential amp.       -0.8335 Ry
        Total length         17.7855 bohr


     total cpu time spent up to now is     4399.9 secs

     total energy              =  -22376.14070895 Ry
     estimated scf accuracy    <     633.28097797 Ry

     iteration #  6     ecut=    40.00 Ry     beta= 0.40
     Davidson diagonalization with overlap

---- Real-time Memory Report at c_bands before calling an iterative solver
           316 MiB given to the printing process from OS
             0 MiB allocation reported by mallinfo(arena+hblkhd)
         69238 MiB available memory on the node where the printing process lives
------------------
     ethr =  1.00E-02,  avg # of iterations =  2.0

     negative rho (up, down):  2.770E-03 0.000E+00

     Adding external electric field

     Computed dipole along edir(1) : 
        Elec. dipole         -0.4881 Ry au,         -1.2407 Debye
        Ion. dipole          -0.4915 Ry au,         -1.2492 Debye
        Dipole               -4.0544 Ry au,        -10.3052 Debye
        Dipole field         -0.0034 Ry au, 

        Potential amp.        0.1194 Ry
        Total length         17.7855 bohr


     total cpu time spent up to now is     4584.7 secs

     total energy              =  -22244.93695061 Ry
     estimated scf accuracy    <     574.86829935 Ry

     iteration #  7     ecut=    40.00 Ry     beta= 0.40
     Davidson diagonalization with overlap

---- Real-time Memory Report at c_bands before calling an iterative solver
           317 MiB given to the printing process from OS
             0 MiB allocation reported by mallinfo(arena+hblkhd)
         69221 MiB available memory on the node where the printing process lives
------------------
     ethr =  1.00E-02,  avg # of iterations =  2.0

     negative rho (up, down):  4.702E-03 0.000E+00

     Adding external electric field

     Computed dipole along edir(1) : 
        Elec. dipole         -0.4844 Ry au,         -1.2311 Debye
        Ion. dipole          -0.4915 Ry au,         -1.2492 Debye
        Dipole               -8.5868 Ry au,        -21.8255 Debye
        Dipole field         -0.0071 Ry au, 

        Potential amp.        0.2529 Ry
        Total length         17.7855 bohr


     total cpu time spent up to now is     4777.2 secs

     total energy              =  -22240.83596331 Ry
     estimated scf accuracy    <     601.75621095 Ry

     iteration #  8     ecut=    40.00 Ry     beta= 0.40
     Davidson diagonalization with overlap

---- Real-time Memory Report at c_bands before calling an iterative solver
           317 MiB given to the printing process from OS
             0 MiB allocation reported by mallinfo(arena+hblkhd)
         69202 MiB available memory on the node where the printing process lives
------------------
     ethr =  1.00E-02,  avg # of iterations =  1.0

     negative rho (up, down):  4.791E-03 0.000E+00

     Adding external electric field

     Computed dipole along edir(1) : 
        Elec. dipole         -0.4820 Ry au,         -1.2252 Debye
        Ion. dipole          -0.4915 Ry au,         -1.2492 Debye
        Dipole              -11.4116 Ry au,        -29.0053 Debye
        Dipole field         -0.0094 Ry au, 

        Potential amp.        0.3361 Ry
        Total length         17.7855 bohr


     total cpu time spent up to now is     4921.4 secs

     total energy              =  -22234.88278278 Ry
     estimated scf accuracy    <     558.28172803 Ry

     iteration #  9     ecut=    40.00 Ry     beta= 0.40
     Davidson diagonalization with overlap

---- Real-time Memory Report at c_bands before calling an iterative solver
           318 MiB given to the printing process from OS
             0 MiB allocation reported by mallinfo(arena+hblkhd)
         69187 MiB available memory on the node where the printing process lives
------------------
     ethr =  1.00E-02,  avg # of iterations =  1.0

     negative rho (up, down):  3.740E-03 0.000E+00

     Adding external electric field

     Computed dipole along edir(1) : 
        Elec. dipole         -0.4776 Ry au,         -1.2139 Debye
        Ion. dipole          -0.4915 Ry au,         -1.2492 Debye
        Dipole              -16.7606 Ry au,        -42.6012 Debye
        Dipole field         -0.0139 Ry au, 

        Potential amp.        0.4937 Ry
        Total length         17.7855 bohr


     total cpu time spent up to now is     5065.6 secs

     total energy              =  -22228.84788202 Ry
     estimated scf accuracy    <     317.97958615 Ry

     iteration # 10     ecut=    40.00 Ry     beta= 0.40
     Davidson diagonalization with overlap

---- Real-time Memory Report at c_bands before calling an iterative solver
           318 MiB given to the printing process from OS
             0 MiB allocation reported by mallinfo(arena+hblkhd)
         69169 MiB available memory on the node where the printing process lives
------------------
     ethr =  1.00E-02,  avg # of iterations =  1.0

     negative rho (up, down):  5.570E-03 0.000E+00

     Adding external electric field

     Computed dipole along edir(1) : 
        Elec. dipole         -0.4228 Ry au,         -1.0746 Debye
        Ion. dipole          -0.4915 Ry au,         -1.2492 Debye
        Dipole              -82.9394 Ry au,       -210.8110 Debye
        Dipole field         -0.0687 Ry au, 

        Potential amp.        2.4428 Ry
        Total length         17.7855 bohr


     total cpu time spent up to now is     5209.8 secs

     total energy              =  -22112.60599215 Ry
     estimated scf accuracy    <     259.79220759 Ry

     iteration # 11     ecut=    40.00 Ry     beta= 0.40
     Davidson diagonalization with overlap

---- Real-time Memory Report at c_bands before calling an iterative solver
           319 MiB given to the printing process from OS
             0 MiB allocation reported by mallinfo(arena+hblkhd)
         69169 MiB available memory on the node where the printing process lives
------------------
     ethr =  1.00E-02,  avg # of iterations =  5.0

     negative rho (up, down):  4.735E-03 0.000E+00

     Adding external electric field

     Computed dipole along edir(1) : 
        Elec. dipole         -0.4324 Ry au,         -1.0989 Debye
        Ion. dipole          -0.4915 Ry au,         -1.2492 Debye
        Dipole              -71.3963 Ry au,       -181.4712 Debye
        Dipole field         -0.0591 Ry au, 

        Potential amp.        2.1028 Ry
        Total length         17.7855 bohr


     total cpu time spent up to now is     5500.3 secs

     total energy              =  -22132.73655541 Ry
     estimated scf accuracy    <     229.66412418 Ry

     iteration # 12     ecut=    40.00 Ry     beta= 0.40
     Davidson diagonalization with overlap

---- Real-time Memory Report at c_bands before calling an iterative solver
           319 MiB given to the printing process from OS
             0 MiB allocation reported by mallinfo(arena+hblkhd)
         69166 MiB available memory on the node where the printing process lives
------------------
     ethr =  1.00E-02,  avg # of iterations =  2.2

     negative rho (up, down):  4.092E-03 0.000E+00

     Adding external electric field

     Computed dipole along edir(1) : 
        Elec. dipole         -0.4373 Ry au,         -1.1115 Debye
        Ion. dipole          -0.4915 Ry au,         -1.2492 Debye
        Dipole              -65.4018 Ry au,       -166.2348 Debye
        Dipole field         -0.0542 Ry au, 

        Potential amp.        1.9263 Ry
        Total length         17.7855 bohr


     total cpu time spent up to now is     5682.7 secs

     total energy              =  -22144.74265927 Ry
     estimated scf accuracy    <      19.78854271 Ry

     iteration # 13     ecut=    40.00 Ry     beta= 0.40
     Davidson diagonalization with overlap

---- Real-time Memory Report at c_bands before calling an iterative solver
           319 MiB given to the printing process from OS
             0 MiB allocation reported by mallinfo(arena+hblkhd)
         69165 MiB available memory on the node where the printing process lives
------------------
     ethr =  2.06E-03,  avg # of iterations =  3.4

     negative rho (up, down):  8.394E-03 0.000E+00

     Adding external electric field

     Computed dipole along edir(1) : 
        Elec. dipole         -0.4290 Ry au,         -1.0905 Debye
        Ion. dipole          -0.4915 Ry au,         -1.2492 Debye
        Dipole              -75.3999 Ry au,       -191.6474 Debye
        Dipole field         -0.0624 Ry au, 

        Potential amp.        2.2208 Ry
        Total length         17.7855 bohr


     total cpu time spent up to now is     5869.2 secs

     total energy              =  -22144.31210490 Ry
     estimated scf accuracy    <      14.67002679 Ry

     iteration # 14     ecut=    40.00 Ry     beta= 0.40
     Davidson diagonalization with overlap

---- Real-time Memory Report at c_bands before calling an iterative solver
           319 MiB given to the printing process from OS
             0 MiB allocation reported by mallinfo(arena+hblkhd)
         69164 MiB available memory on the node where the printing process lives
------------------
     ethr =  1.53E-03,  avg # of iterations =  9.2

     negative rho (up, down):  4.032E-03 0.000E+00

     Adding external electric field

     Computed dipole along edir(1) : 
        Elec. dipole         -0.4332 Ry au,         -1.1010 Debye
        Ion. dipole          -0.4915 Ry au,         -1.2492 Debye
        Dipole              -70.4136 Ry au,       -178.9735 Debye
        Dipole field         -0.0583 Ry au, 

        Potential amp.        2.0739 Ry
        Total length         17.7855 bohr


     total cpu time spent up to now is     6208.2 secs

     total energy              =  -22134.28547449 Ry
     estimated scf accuracy    <     157.25522049 Ry

     iteration # 15     ecut=    40.00 Ry     beta= 0.40
     Davidson diagonalization with overlap

---- Real-time Memory Report at c_bands before calling an iterative solver
           319 MiB given to the printing process from OS
             0 MiB allocation reported by mallinfo(arena+hblkhd)
         69162 MiB available memory on the node where the printing process lives
------------------
     ethr =  1.53E-03,  avg # of iterations =  9.6

     negative rho (up, down):  3.686E-03 0.000E+00

     Adding external electric field

     Computed dipole along edir(1) : 
        Elec. dipole         -0.4359 Ry au,         -1.1079 Debye
        Ion. dipole          -0.4915 Ry au,         -1.2492 Debye
        Dipole              -67.1572 Ry au,       -170.6966 Debye
        Dipole field         -0.0556 Ry au, 

        Potential amp.        1.9780 Ry
        Total length         17.7855 bohr


     total cpu time spent up to now is     6424.5 secs

     total energy              =  -22144.53781270 Ry
     estimated scf accuracy    <       6.28418245 Ry

     iteration # 16     ecut=    40.00 Ry     beta= 0.40
     Davidson diagonalization with overlap

---- Real-time Memory Report at c_bands before calling an iterative solver
           319 MiB given to the printing process from OS
             0 MiB allocation reported by mallinfo(arena+hblkhd)
         69161 MiB available memory on the node where the printing process lives
------------------
     ethr =  6.55E-04,  avg # of iterations =  9.0

     negative rho (up, down):  3.402E-03 0.000E+00

     Adding external electric field

     Computed dipole along edir(1) : 
        Elec. dipole         -0.4341 Ry au,         -1.1035 Debye
        Ion. dipole          -0.4915 Ry au,         -1.2492 Debye
        Dipole              -69.2445 Ry au,       -176.0020 Debye
        Dipole field         -0.0573 Ry au, 

        Potential amp.        2.0395 Ry
        Total length         17.7855 bohr


     total cpu time spent up to now is     6616.2 secs

     total energy              =  -22143.54538721 Ry
     estimated scf accuracy    <       3.46046236 Ry

     iteration # 17     ecut=    40.00 Ry     beta= 0.40
     Davidson diagonalization with overlap

---- Real-time Memory Report at c_bands before calling an iterative solver
           319 MiB given to the printing process from OS
             0 MiB allocation reported by mallinfo(arena+hblkhd)
         69163 MiB available memory on the node where the printing process lives
------------------
     ethr =  3.60E-04,  avg # of iterations = 11.2

     negative rho (up, down):  3.454E-03 0.000E+00

     Adding external electric field

     Computed dipole along edir(1) : 
        Elec. dipole         -0.4334 Ry au,         -1.1017 Debye
        Ion. dipole          -0.4915 Ry au,         -1.2492 Debye
        Dipole              -70.0918 Ry au,       -178.1557 Debye
        Dipole field         -0.0580 Ry au, 

        Potential amp.        2.0644 Ry
        Total length         17.7855 bohr


     total cpu time spent up to now is     6840.2 secs

     total energy              =  -22143.91595066 Ry
     estimated scf accuracy    <       1.80407871 Ry

     iteration # 18     ecut=    40.00 Ry     beta= 0.40
     Davidson diagonalization with overlap

---- Real-time Memory Report at c_bands before calling an iterative solver
           319 MiB given to the printing process from OS
             0 MiB allocation reported by mallinfo(arena+hblkhd)
         69160 MiB available memory on the node where the printing process lives
------------------
     ethr =  1.88E-04,  avg # of iterations = 10.6

     negative rho (up, down):  3.357E-03 0.000E+00

     Adding external electric field

     Computed dipole along edir(1) : 
        Elec. dipole         -0.4346 Ry au,         -1.1047 Debye
        Ion. dipole          -0.4915 Ry au,         -1.2492 Debye
        Dipole              -68.6488 Ry au,       -174.4878 Debye
        Dipole field         -0.0568 Ry au, 

        Potential amp.        2.0219 Ry
        Total length         17.7855 bohr


     total cpu time spent up to now is     7038.3 secs

     total energy              =  -22143.94292180 Ry
     estimated scf accuracy    <       1.89198085 Ry

     iteration # 19     ecut=    40.00 Ry     beta= 0.40
     Davidson diagonalization with overlap

---- Real-time Memory Report at c_bands before calling an iterative solver
           319 MiB given to the printing process from OS
             0 MiB allocation reported by mallinfo(arena+hblkhd)
         69160 MiB available memory on the node where the printing process lives
------------------
     ethr =  1.88E-04,  avg # of iterations =  4.8

     negative rho (up, down):  3.240E-03 0.000E+00

     Adding external electric field

     Computed dipole along edir(1) : 
        Elec. dipole         -0.4346 Ry au,         -1.1047 Debye
        Ion. dipole          -0.4915 Ry au,         -1.2492 Debye
        Dipole              -68.6519 Ry au,       -174.4957 Debye
        Dipole field         -0.0568 Ry au, 

        Potential amp.        2.0220 Ry
        Total length         17.7855 bohr


     total cpu time spent up to now is     7217.8 secs

     total energy              =  -22144.00657275 Ry
     estimated scf accuracy    <       0.26591414 Ry

     iteration # 20     ecut=    40.00 Ry     beta= 0.40
     Davidson diagonalization with overlap

---- Real-time Memory Report at c_bands before calling an iterative solver
           319 MiB given to the printing process from OS
             0 MiB allocation reported by mallinfo(arena+hblkhd)
         69160 MiB available memory on the node where the printing process lives
------------------
     ethr =  2.77E-05,  avg # of iterations = 11.8

     negative rho (up, down):  3.226E-03 0.000E+00

     Adding external electric field

     Computed dipole along edir(1) : 
        Elec. dipole         -0.4345 Ry au,         -1.1044 Debye
        Ion. dipole          -0.4915 Ry au,         -1.2492 Debye
        Dipole              -68.8093 Ry au,       -174.8957 Debye
        Dipole field         -0.0570 Ry au, 

        Potential amp.        2.0267 Ry
        Total length         17.7855 bohr


     total cpu time spent up to now is     7413.4 secs

     total energy              =  -22143.95920665 Ry
     estimated scf accuracy    <       0.18407258 Ry

     iteration # 21     ecut=    40.00 Ry     beta= 0.40
     Davidson diagonalization with overlap

---- Real-time Memory Report at c_bands before calling an iterative solver
           319 MiB given to the printing process from OS
             0 MiB allocation reported by mallinfo(arena+hblkhd)
         69161 MiB available memory on the node where the printing process lives
------------------
     ethr =  1.92E-05,  avg # of iterations = 11.4

     negative rho (up, down):  3.227E-03 0.000E+00

     Adding external electric field

     Computed dipole along edir(1) : 
        Elec. dipole         -0.4344 Ry au,         -1.1042 Debye
        Ion. dipole          -0.4915 Ry au,         -1.2492 Debye
        Dipole              -68.9122 Ry au,       -175.1574 Debye
        Dipole field         -0.0571 Ry au, 

        Potential amp.        2.0297 Ry
        Total length         17.7855 bohr


     total cpu time spent up to now is     7616.2 secs

     total energy              =  -22143.97479989 Ry
     estimated scf accuracy    <       0.01946339 Ry

     iteration # 22     ecut=    40.00 Ry     beta= 0.40
     Davidson diagonalization with overlap

---- Real-time Memory Report at c_bands before calling an iterative solver
           319 MiB given to the printing process from OS
             0 MiB allocation reported by mallinfo(arena+hblkhd)
         69161 MiB available memory on the node where the printing process lives
------------------
     c_bands:  1 eigenvalues not converged
     ethr =  2.03E-06,  avg # of iterations = 10.2

     negative rho (up, down):  3.220E-03 0.000E+00

     Adding external electric field

     Computed dipole along edir(1) : 
        Elec. dipole         -0.4345 Ry au,         -1.1045 Debye
        Ion. dipole          -0.4915 Ry au,         -1.2492 Debye
        Dipole              -68.7513 Ry au,       -174.7485 Debye
        Dipole field         -0.0569 Ry au, 

        Potential amp.        2.0249 Ry
        Total length         17.7855 bohr


     total cpu time spent up to now is     7822.6 secs

     total energy              =  -22143.97556141 Ry
     estimated scf accuracy    <       0.01113167 Ry

     iteration # 23     ecut=    40.00 Ry     beta= 0.40
     Davidson diagonalization with overlap

---- Real-time Memory Report at c_bands before calling an iterative solver
           319 MiB given to the printing process from OS
             0 MiB allocation reported by mallinfo(arena+hblkhd)
         69162 MiB available memory on the node where the printing process lives
------------------
     ethr =  1.16E-06,  avg # of iterations =  5.6

     negative rho (up, down):  3.211E-03 0.000E+00

     Adding external electric field

     Computed dipole along edir(1) : 
        Elec. dipole         -0.4345 Ry au,         -1.1043 Debye
        Ion. dipole          -0.4915 Ry au,         -1.2492 Debye
        Dipole              -68.8335 Ry au,       -174.9573 Debye
        Dipole field         -0.0570 Ry au, 

        Potential amp.        2.0274 Ry
        Total length         17.7855 bohr


     total cpu time spent up to now is     8005.5 secs

     total energy              =  -22143.97609926 Ry
     estimated scf accuracy    <       0.00382158 Ry

     iteration # 24     ecut=    40.00 Ry     beta= 0.40
     Davidson diagonalization with overlap

---- Real-time Memory Report at c_bands before calling an iterative solver
           319 MiB given to the printing process from OS
             0 MiB allocation reported by mallinfo(arena+hblkhd)
         69160 MiB available memory on the node where the printing process lives
------------------
     ethr =  3.98E-07,  avg # of iterations =  6.8

     negative rho (up, down):  3.189E-03 0.000E+00

     Adding external electric field

     Computed dipole along edir(1) : 
        Elec. dipole         -0.4345 Ry au,         -1.1044 Debye
        Ion. dipole          -0.4915 Ry au,         -1.2492 Debye
        Dipole              -68.8092 Ry au,       -174.8956 Debye
        Dipole field         -0.0570 Ry au, 

        Potential amp.        2.0267 Ry
        Total length         17.7855 bohr


     total cpu time spent up to now is     8191.9 secs

     total energy              =  -22143.97618844 Ry
     estimated scf accuracy    <       0.00265910 Ry

     iteration # 25     ecut=    40.00 Ry     beta= 0.40
     Davidson diagonalization with overlap

---- Real-time Memory Report at c_bands before calling an iterative solver
           319 MiB given to the printing process from OS
             0 MiB allocation reported by mallinfo(arena+hblkhd)
         69160 MiB available memory on the node where the printing process lives
------------------
     ethr =  2.77E-07,  avg # of iterations =  2.0

     negative rho (up, down):  3.183E-03 0.000E+00

     Adding external electric field

     Computed dipole along edir(1) : 
        Elec. dipole         -0.4345 Ry au,         -1.1044 Debye
        Ion. dipole          -0.4915 Ry au,         -1.2492 Debye
        Dipole              -68.7805 Ry au,       -174.8225 Debye
        Dipole field         -0.0570 Ry au, 

        Potential amp.        2.0258 Ry
        Total length         17.7855 bohr


     total cpu time spent up to now is     8367.4 secs

     total energy              =  -22143.97638622 Ry
     estimated scf accuracy    <       0.00079355 Ry

     iteration # 26     ecut=    40.00 Ry     beta= 0.40
     Davidson diagonalization with overlap

---- Real-time Memory Report at c_bands before calling an iterative solver
           319 MiB given to the printing process from OS
             0 MiB allocation reported by mallinfo(arena+hblkhd)
         69160 MiB available memory on the node where the printing process lives
------------------
     ethr =  8.27E-08,  avg # of iterations =  2.0

     negative rho (up, down):  3.181E-03 0.000E+00

     Adding external electric field

     Computed dipole along edir(1) : 
        Elec. dipole         -0.4345 Ry au,         -1.1044 Debye
        Ion. dipole          -0.4915 Ry au,         -1.2492 Debye
        Dipole              -68.7893 Ry au,       -174.8449 Debye
        Dipole field         -0.0570 Ry au, 

        Potential amp.        2.0261 Ry
        Total length         17.7855 bohr


     total cpu time spent up to now is     8543.2 secs

     total energy              =  -22143.97645685 Ry
     estimated scf accuracy    <       0.00020940 Ry

     iteration # 27     ecut=    40.00 Ry     beta= 0.40
     Davidson diagonalization with overlap

---- Real-time Memory Report at c_bands before calling an iterative solver
           319 MiB given to the printing process from OS
             0 MiB allocation reported by mallinfo(arena+hblkhd)
         69161 MiB available memory on the node where the printing process lives
------------------
     ethr =  2.18E-08,  avg # of iterations =  2.0

     negative rho (up, down):  3.180E-03 0.000E+00

     Adding external electric field

     Computed dipole along edir(1) : 
        Elec. dipole         -0.4345 Ry au,         -1.1044 Debye
        Ion. dipole          -0.4915 Ry au,         -1.2492 Debye
        Dipole              -68.7925 Ry au,       -174.8531 Debye
        Dipole field         -0.0570 Ry au, 

        Potential amp.        2.0262 Ry
        Total length         17.7855 bohr


     total cpu time spent up to now is     8719.3 secs

     total energy              =  -22143.97647746 Ry
     estimated scf accuracy    <       0.00020842 Ry

     iteration # 28     ecut=    40.00 Ry     beta= 0.40
     Davidson diagonalization with overlap

---- Real-time Memory Report at c_bands before calling an iterative solver
           319 MiB given to the printing process from OS
             0 MiB allocation reported by mallinfo(arena+hblkhd)
         69161 MiB available memory on the node where the printing process lives
------------------
     ethr =  2.17E-08,  avg # of iterations =  2.0

     negative rho (up, down):  3.181E-03 0.000E+00

     Adding external electric field

     Computed dipole along edir(1) : 
        Elec. dipole         -0.4345 Ry au,         -1.1044 Debye
        Ion. dipole          -0.4915 Ry au,         -1.2492 Debye
        Dipole              -68.7827 Ry au,       -174.8283 Debye
        Dipole field         -0.0570 Ry au, 

        Potential amp.        2.0259 Ry
        Total length         17.7855 bohr


     total cpu time spent up to now is     8894.6 secs

     total energy              =  -22143.97649911 Ry
     estimated scf accuracy    <       0.00003904 Ry

     iteration # 29     ecut=    40.00 Ry     beta= 0.40
     Davidson diagonalization with overlap

---- Real-time Memory Report at c_bands before calling an iterative solver
           319 MiB given to the printing process from OS
             0 MiB allocation reported by mallinfo(arena+hblkhd)
         69162 MiB available memory on the node where the printing process lives
------------------
     ethr =  4.07E-09,  avg # of iterations =  3.0

     negative rho (up, down):  3.182E-03 0.000E+00

     Adding external electric field

     Computed dipole along edir(1) : 
        Elec. dipole         -0.4345 Ry au,         -1.1044 Debye
        Ion. dipole          -0.4915 Ry au,         -1.2492 Debye
        Dipole              -68.7862 Ry au,       -174.8371 Debye
        Dipole field         -0.0570 Ry au, 

        Potential amp.        2.0260 Ry
        Total length         17.7855 bohr


     total cpu time spent up to now is     9072.0 secs

     total energy              =  -22143.97650523 Ry
     estimated scf accuracy    <       0.00001651 Ry

     iteration # 30     ecut=    40.00 Ry     beta= 0.40
     Davidson diagonalization with overlap

---- Real-time Memory Report at c_bands before calling an iterative solver
           319 MiB given to the printing process from OS
             0 MiB allocation reported by mallinfo(arena+hblkhd)
         69161 MiB available memory on the node where the printing process lives
------------------
     ethr =  1.72E-09,  avg # of iterations =  2.0

     negative rho (up, down):  3.184E-03 0.000E+00

     Adding external electric field

     Computed dipole along edir(1) : 
        Elec. dipole         -0.4345 Ry au,         -1.1044 Debye
        Ion. dipole          -0.4915 Ry au,         -1.2492 Debye
        Dipole              -68.7849 Ry au,       -174.8338 Debye
        Dipole field         -0.0570 Ry au, 

        Potential amp.        2.0259 Ry
        Total length         17.7855 bohr


     total cpu time spent up to now is     9247.9 secs

     total energy              =  -22143.97650829 Ry
     estimated scf accuracy    <       0.00000230 Ry

     iteration # 31     ecut=    40.00 Ry     beta= 0.40
     Davidson diagonalization with overlap

---- Real-time Memory Report at c_bands before calling an iterative solver
           319 MiB given to the printing process from OS
             0 MiB allocation reported by mallinfo(arena+hblkhd)
         69160 MiB available memory on the node where the printing process lives
------------------
     ethr =  2.40E-10,  avg # of iterations =  3.0

     negative rho (up, down):  3.186E-03 0.000E+00

     Adding external electric field

     Computed dipole along edir(1) : 
        Elec. dipole         -0.4345 Ry au,         -1.1044 Debye
        Ion. dipole          -0.4915 Ry au,         -1.2492 Debye
        Dipole              -68.7845 Ry au,       -174.8328 Debye
        Dipole field         -0.0570 Ry au, 

        Potential amp.        2.0259 Ry
        Total length         17.7855 bohr


     total cpu time spent up to now is     9426.3 secs

     total energy              =  -22143.97650901 Ry
     estimated scf accuracy    <       0.00000191 Ry

     iteration # 32     ecut=    40.00 Ry     beta= 0.40
     Davidson diagonalization with overlap

---- Real-time Memory Report at c_bands before calling an iterative solver
           319 MiB given to the printing process from OS
             0 MiB allocation reported by mallinfo(arena+hblkhd)
         69160 MiB available memory on the node where the printing process lives
------------------
     ethr =  1.99E-10,  avg # of iterations =  2.6

     negative rho (up, down):  3.188E-03 0.000E+00

     Adding external electric field

     Computed dipole along edir(1) : 
        Elec. dipole         -0.4345 Ry au,         -1.1044 Debye
        Ion. dipole          -0.4915 Ry au,         -1.2492 Debye
        Dipole              -68.7907 Ry au,       -174.8486 Debye
        Dipole field         -0.0570 Ry au, 

        Potential amp.        2.0261 Ry
        Total length         17.7855 bohr


     total cpu time spent up to now is     9603.0 secs

     End of self-consistent calculation

          k = 0.0000 0.0000 0.0000 ( 64855 PWs)   bands (ev):

  -129.2493-129.2483-129.2473-129.2463-129.0643-129.0634-129.0634-129.0627
  -129.0625-129.0624-129.0618-129.0615-127.4524-127.4515-127.4510-127.4504
  -127.4501-127.4501-127.4494-127.4494-127.4492-127.4491-127.4484-127.4482
  -127.3272-127.3263-127.3262-127.3252-127.2145-127.2141-127.2136-127.2135
  -127.2132-127.2132-127.2126-127.2123-126.6356-126.6355-126.6347-126.6346
  -126.6346-126.6346-126.6338-126.6338-125.7238-125.7227-125.7225-125.7214
   -83.5857 -83.5845 -83.5835 -83.5824 -83.5426 -83.5416 -83.5414 -83.5409
   -83.5406 -83.5404 -83.5404 -83.5399 -83.5397 -83.5394 -83.5279 -83.5277
   -83.5269 -83.5269 -83.5150 -83.5141 -83.3358 -83.3325 -83.3314 -83.3304
   -83.3294 -83.3231 -83.3230 -83.3102 -82.3699 -82.3696 -82.3689 -82.3686
   -82.3685 -82.3684 -82.3675 -82.3674 -81.6104 -81.6100 -81.6096 -81.6092
   -81.6091 -81.6088 -81.6075 -81.6075 -81.6070 -81.6063 -81.6063 -81.6059
   -81.6058 -81.6051 -81.6047 -81.6040 -81.6024 -81.6023 -81.6021 -81.6013
   -81.6012 -81.6001 -81.5998 -81.5988 -81.5987 -81.5980 -81.5980 -81.5974
   -81.5974 -81.5966 -81.5965 -81.5961 -81.5960 -81.5852 -81.5848 -81.5837
   -81.4897 -81.4785 -81.4775 -81.4775 -81.4774 -81.4774 -81.4764 -81.4740
   -81.4731 -81.4730 -81.4721 -81.4652 -81.3809 -81.3806 -81.3686 -81.3686
   -81.3683 -81.3682 -81.3661 -81.3657 -81.3651 -81.3650 -81.3648 -81.3648
   -81.3641 -81.3638 -81.3622 -81.3619 -81.3613 -81.3612 -81.3610 -81.3610
   -81.3602 -81.3600 -81.3563 -81.3560 -80.8336 -80.8336 -80.8212 -80.8212
   -80.8212 -80.8212 -80.8088 -80.8088 -80.7874 -80.7873 -80.7865 -80.7864
   -80.7863 -80.7863 -80.7854 -80.7854 -80.7691 -80.7691 -80.7682 -80.7682
   -80.7682 -80.7681 -80.7672 -80.7672 -79.9510 -79.9389 -79.9388 -79.9268
   -79.9048 -79.9037 -79.9035 -79.9023 -79.6858 -79.6847 -79.6845 -79.6833
   -11.5828 -11.1492 -11.1152 -10.8404 -10.8248 -10.7566 -10.7146 -10.7146
   -10.6623 -10.6527 -10.6527 -10.5951 -10.5862 -10.5861 -10.5490 -10.5489
   -10.5254 -10.4894 -10.4577 -10.4577 -10.3459 -10.3459 -10.3274 -10.3274
   -10.2817 -10.2583 -10.2514 -10.2513 -10.1805 -10.1731 -10.1676 -10.1675
   -10.1552 -10.0851 -10.0333 -10.0333 -10.0137  -9.9725  -9.8588  -9.8424
    -9.8413  -9.7946  -9.6427  -9.6331  -9.6328  -9.6327  -9.4886  -9.4370
    -9.4370  -9.4298  -9.4151  -9.4151  -9.4074  -9.4074  -9.3324  -9.3297
    -9.3157  -9.3145  -9.3145  -9.3075  -9.2447  -9.1587  -9.1587  -9.1468
    -9.1432  -9.1263  -9.0516  -9.0476  -8.9627  -8.9627  -8.9317  -8.9006
    -8.8951  -8.8761  -8.8190  -8.7951  -8.7951  -8.7689  -8.7689  -8.7668
    -8.7608  -8.7600  -8.7349  -8.7349  -8.7267  -8.7197  -8.7103  -8.7103
    -8.6780  -8.6705  -8.6300  -8.6300  -8.6219  -8.6011  -8.5941  -8.5892
    -8.5892  -8.5672  -8.5672  -8.5652  -8.5600  -8.5596  -8.5596  -8.5115
    -8.5115  -8.5024  -8.4687  -8.4687  -8.4677  -8.4433  -8.4433  -8.4381
    -8.4251  -8.4251  -8.4119  -8.3858  -8.3858  -8.3615  -8.3615  -8.3485
    -8.3484  -8.3265  -8.3245  -8.3158  -8.3017  -8.3017  -8.2864  -8.2764
    -8.2764  -8.2641  -8.2503  -8.2326  -8.2325  -8.2233  -8.2091  -8.2090
    -8.2040  -8.1933  -8.1874  -8.1862  -8.1827  -8.1827  -8.1446  -8.1373
    -8.1364  -8.1364  -8.1334  -8.1189  -8.0920  -8.0920  -8.0908  -8.0907
    -8.0730  -8.0730  -8.0629  -8.0629  -8.0563  -8.0560  -8.0559  -8.0513
    -8.0386  -8.0248  -8.0230  -8.0230  -8.0172  -8.0172  -8.0076  -8.0045
    -7.9921  -7.9823  -7.9823  -7.9803  -7.9533  -7.9533  -7.9488  -7.9342
    -7.9280  -7.9280  -7.9064  -7.8587  -7.8587  -7.8303  -7.8264  -7.8056
    -7.7989  -7.7960  -7.7845  -7.7462  -7.7413  -7.7351  -7.7265  -7.6984
    -7.6305  -7.6304  -7.6156  -7.6155  -7.5439  -7.5438  -7.5284  -7.5284
    -7.5104  -7.5103  -7.5008  -7.4989  -7.4965  -7.4963  -7.4859  -7.4859
    -7.4712  -7.4711  -7.4520  -7.4338  -7.4159  -7.4159  -7.4148  -7.4148
    -7.4071  -7.3686  -7.3678  -7.3678  -7.3541  -7.3284  -7.2853  -7.2853
    -7.2833  -7.2592  -7.2506  -7.1933  -7.1929  -7.1421  -7.1137  -7.0329
    -6.7918  -6.7766  -6.7765  -6.7574  -6.7438  -6.6746  -6.6745  -6.5979
    -6.5979  -6.4225  -6.4183  -6.4182  -6.3740  -6.3740  -6.3450  -6.3294
    -6.3126  -6.3087  -6.3068  -6.1494  -6.1494  -6.1382  -5.9192  -5.3929
    -5.3928  -4.9505  -4.9194  -4.7188  -4.7116  -4.7115  -4.0696  -4.0695
    -3.7296  -3.6994  -3.6214  -3.5701  -3.5701  -3.4388  -3.4241  -3.3883
    -3.3882  -3.1876  -3.0959  -2.3800  -2.1225  -2.1224  -2.0928  -2.0461
    -1.8261  -1.8261  -1.6523  -1.4402  -1.3548  -1.3548  -1.3112  -1.2255
    -1.1785  -1.1699  -1.1073  -0.5552  -0.5004  -0.3379  -0.2221  -0.2221
    -0.1589   0.0186   0.0186   0.1723   0.2730   0.2730   0.4443   0.4794
     0.5010   0.8150   0.8150   0.8224   1.0348   1.0348   1.0731   1.1074
     1.9153   2.0408   2.0499   2.0548   2.0839   2.2100   2.2100   2.3274
     2.3744   2.3744   2.4414   2.4415   2.6232   2.6233   2.8635   2.8700
     3.0035   3.0138   3.0138   3.1572   3.1572   3.2285   3.6619   3.6620
     3.6797   3.7116   3.7116   3.9016   4.0407   4.0408   4.0561   4.0561
     4.0633   4.0738   4.0885   4.2309   4.2624   4.3477   4.3477   4.4080
     4.4239   4.4568   4.4568   4.7182   4.7301   4.7588   4.7588   4.9187
     4.9812   5.0587   5.1698   5.1755   5.1755   5.2140   5.3687   5.3687
     5.5130   5.5130   5.5317   5.7438   5.7851   5.8769   5.9413   5.9413
     5.9626   6.0452   6.0737   6.0738   6.1215   6.1335   6.1590   6.5148

     occupation numbers 
     1.0000   1.0000   1.0000   1.0000   1.0000   1.0000   1.0000   1.0000
     1.0000   1.0000   1.0000   1.0000   1.0000   1.0000   1.0000   1.0000
     1.0000   1.0000   1.0000   1.0000   1.0000   1.0000   1.0000   1.0000
     1.0000   1.0000   1.0000   1.0000   1.0000   1.0000   1.0000   1.0000
     1.0000   1.0000   1.0000   1.0000   1.0000   1.0000   1.0000   1.0000
     1.0000   1.0000   1.0000   1.0000   1.0000   1.0000   1.0000   1.0000
     1.0000   1.0000   1.0000   1.0000   1.0000   1.0000   1.0000   1.0000
     1.0000   1.0000   1.0000   1.0000   1.0000   1.0000   1.0000   1.0000
     1.0000   1.0000   1.0000   1.0000   1.0000   1.0000   1.0000   1.0000
     1.0000   1.0000   1.0000   1.0000   1.0000   1.0000   1.0000   1.0000
     1.0000   1.0000   1.0000   1.0000   1.0000   1.0000   1.0000   1.0000
     1.0000   1.0000   1.0000   1.0000   1.0000   1.0000   1.0000   1.0000
     1.0000   1.0000   1.0000   1.0000   1.0000   1.0000   1.0000   1.0000
     1.0000   1.0000   1.0000   1.0000   1.0000   1.0000   1.0000   1.0000
     1.0000   1.0000   1.0000   1.0000   1.0000   1.0000   1.0000   1.0000
     1.0000   1.0000   1.0000   1.0000   1.0000   1.0000   1.0000   1.0000
     1.0000   1.0000   1.0000   1.0000   1.0000   1.0000   1.0000   1.0000
     1.0000   1.0000   1.0000   1.0000   1.0000   1.0000   1.0000   1.0000
     1.0000   1.0000   1.0000   1.0000   1.0000   1.0000   1.0000   1.0000
     1.0000   1.0000   1.0000   1.0000   1.0000   1.0000   1.0000   1.0000
     1.0000   1.0000   1.0000   1.0000   1.0000   1.0000   1.0000   1.0000
     1.0000   1.0000   1.0000   1.0000   1.0000   1.0000   1.0000   1.0000
     1.0000   1.0000   1.0000   1.0000   1.0000   1.0000   1.0000   1.0000
     1.0000   1.0000   1.0000   1.0000   1.0000   1.0000   1.0000   1.0000
     1.0000   1.0000   1.0000   1.0000   1.0000   1.0000   1.0000   1.0000
     1.0000   1.0000   1.0000   1.0000   1.0000   1.0000   1.0000   1.0000
     1.0000   1.0000   1.0000   1.0000   1.0000   1.0000   1.0000   1.0000
     1.0000   1.0000   1.0000   1.0000   1.0000   1.0000   1.0000   1.0000
     1.0000   1.0000   1.0000   1.0000   1.0000   1.0000   1.0000   1.0000
     1.0000   1.0000   1.0000   1.0000   1.0000   1.0000   1.0000   1.0000
     1.0000   1.0000   1.0000   1.0000   1.0000   1.0000   1.0000   1.0000
     1.0000   1.0000   1.0000   1.0000   1.0000   1.0000   1.0000   1.0000
     1.0000   1.0000   1.0000   1.0000   1.0000   1.0000   1.0000   1.0000
     1.0000   1.0000   1.0000   1.0000   1.0000   1.0000   1.0000   1.0000
     1.0000   1.0000   1.0000   1.0000   1.0000   1.0000   1.0000   1.0000
     1.0000   1.0000   1.0000   1.0000   1.0000   1.0000   1.0000   1.0000
     1.0000   1.0000   1.0000   1.0000   1.0000   1.0000   1.0000   1.0000
     1.0000   1.0000   1.0000   1.0000   1.0000   1.0000   1.0000   1.0000
     1.0000   1.0000   1.0000   1.0000   1.0000   1.0000   1.0000   1.0000
     1.0000   1.0000   1.0000   1.0000   1.0000   1.0000   1.0000   1.0000
     1.0000   1.0000   1.0000   1.0000   1.0000   1.0000   1.0000   1.0000
     1.0000   1.0000   1.0000   1.0000   1.0000   1.0000   1.0000   1.0000
     1.0000   1.0000   1.0000   1.0000   1.0000   1.0000   1.0000   1.0000
     1.0000   1.0000   1.0000   1.0000   1.0000   1.0000   1.0000   1.0000
     1.0000   1.0000   1.0000   1.0000   1.0000   1.0000   1.0000   1.0000
     1.0000   1.0000   1.0000   1.0000   1.0000   1.0000   1.0000   1.0000
     1.0000   1.0000   1.0000   1.0000   1.0000   1.0000   1.0000   1.0000
     1.0000   1.0000   1.0000   1.0000   1.0000   1.0000   1.0000   1.0000
     1.0000   1.0000   1.0000   1.0000   1.0000   1.0000   1.0000   1.0000
     1.0000   1.0000   1.0000   1.0000   1.0000   1.0000   1.0000   1.0000
     1.0000   1.0000   1.0000   1.0000   1.0000   1.0000   1.0000   1.0000
     1.0000   1.0000   1.0000   1.0000   1.0000   1.0000   1.0000   1.0000
     1.0000   1.0000   1.0000   1.0000   1.0000   1.0000   1.0000   1.0000
     1.0000   1.0000   1.0000   1.0000   1.0000   1.0000   1.0000   1.0000
     1.0000   1.0000   1.0000   1.0000   1.0000   1.0000   1.0000   1.0000
     1.0000   1.0000   1.0000   1.0000   1.0000   1.0000   1.0000   1.0000
     1.0000   1.0000   1.0000   1.0000   1.0000   1.0000   1.0000   1.0000
     1.0000   1.0000   1.0000   1.0000   1.0000   1.0000   1.0000   1.0000
     1.0000   1.0000   1.0000   1.0000   1.0000   1.0000   1.0000   1.0000
     1.0001   1.0001   1.0021   1.0295   1.0568   1.0568   1.0711   1.0824
     1.0676   1.0626   1.0001   0.0200   0.0090   0.0005   0.0000   0.0000
     0.0000   0.0000   0.0000   0.0000   0.0000   0.0000   0.0000   0.0000
     0.0000   0.0000   0.0000   0.0000   0.0000   0.0000   0.0000   0.0000
     0.0000   0.0000   0.0000   0.0000   0.0000   0.0000   0.0000   0.0000
     0.0000   0.0000   0.0000   0.0000   0.0000   0.0000   0.0000   0.0000
     0.0000   0.0000   0.0000   0.0000   0.0000   0.0000   0.0000   0.0000
     0.0000   0.0000   0.0000   0.0000   0.0000   0.0000   0.0000   0.0000
     0.0000   0.0000   0.0000   0.0000   0.0000   0.0000   0.0000   0.0000
     0.0000   0.0000   0.0000   0.0000   0.0000   0.0000   0.0000   0.0000
     0.0000   0.0000   0.0000   0.0000   0.0000   0.0000   0.0000   0.0000
     0.0000   0.0000   0.0000   0.0000   0.0000   0.0000   0.0000   0.0000
     0.0000   0.0000   0.0000   0.0000   0.0000   0.0000   0.0000   0.0000

          k = 0.0000 0.3849 0.0000 ( 64840 PWs)   bands (ev):

  -129.2493-129.2484-129.2472-129.2463-129.0642-129.0635-129.0633-129.0629
  -129.0626-129.0620-129.0618-129.0616-127.4523-127.4517-127.4509-127.4504
  -127.4502-127.4500-127.4497-127.4495-127.4491-127.4487-127.4484-127.4483
  -127.3271-127.3266-127.3259-127.3253-127.2144-127.2140-127.2139-127.2136
  -127.2132-127.2128-127.2127-127.2124-126.6355-126.6354-126.6351-126.6351
  -126.6343-126.6342-126.6339-126.6339-125.7237-125.7229-125.7223-125.7214
   -83.5857 -83.5846 -83.5834 -83.5824 -83.5426 -83.5417 -83.5413 -83.5409
   -83.5408 -83.5400 -83.5399 -83.5395 -83.5389 -83.5380 -83.5342 -83.5333
   -83.5214 -83.5205 -83.5166 -83.5158 -83.3342 -83.3325 -83.3315 -83.3303
   -83.3294 -83.3293 -83.3167 -83.3119 -82.3699 -82.3694 -82.3691 -82.3690
   -82.3682 -82.3681 -82.3677 -82.3675 -81.6103 -81.6095 -81.6086 -81.6083
   -81.6081 -81.6076 -81.6074 -81.6074 -81.6069 -81.6067 -81.6063 -81.6059
   -81.6054 -81.6051 -81.6048 -81.6039 -81.6038 -81.6035 -81.6031 -81.6031
   -81.6020 -81.6015 -81.6012 -81.6004 -81.6002 -81.5997 -81.5986 -81.5984
   -81.5977 -81.5975 -81.5913 -81.5909 -81.5900 -81.5868 -81.5864 -81.5854
   -81.4881 -81.4836 -81.4784 -81.4779 -81.4770 -81.4765 -81.4739 -81.4734
   -81.4727 -81.4722 -81.4713 -81.4668 -81.3793 -81.3789 -81.3748 -81.3744
   -81.3660 -81.3656 -81.3655 -81.3652 -81.3647 -81.3643 -81.3642 -81.3639
   -81.3624 -81.3621 -81.3621 -81.3618 -81.3616 -81.3614 -81.3608 -81.3605
   -81.3603 -81.3601 -81.3579 -81.3576 -80.8319 -80.8319 -80.8274 -80.8274
   -80.8150 -80.8150 -80.8104 -80.8104 -80.7873 -80.7872 -80.7869 -80.7868
   -80.7860 -80.7859 -80.7855 -80.7855 -80.7690 -80.7690 -80.7686 -80.7686
   -80.7677 -80.7677 -80.7674 -80.7673 -79.9494 -79.9449 -79.9329 -79.9284
   -79.9047 -79.9039 -79.9033 -79.9024 -79.6857 -79.6850 -79.6843 -79.6834
   -11.4239 -11.0551 -11.0399 -11.0098 -10.8455 -10.8165 -10.8122 -10.7936
   -10.7475 -10.7294 -10.7052 -10.6547 -10.6334 -10.5643 -10.5300 -10.5193
   -10.5141 -10.4749 -10.4688 -10.3496 -10.3232 -10.3117 -10.3046 -10.2922
   -10.2872 -10.2841 -10.2669 -10.2144 -10.2077 -10.1977 -10.1875 -10.1861
   -10.1401 -10.1340 -10.0608 -10.0291  -9.9771  -9.9731  -9.8185  -9.7792
    -9.7299  -9.7258  -9.6670  -9.6529  -9.5974  -9.5839  -9.5663  -9.4671
    -9.4434  -9.4114  -9.4074  -9.3802  -9.3611  -9.3465  -9.3453  -9.3276
    -9.3259  -9.3199  -9.3044  -9.2879  -9.2774  -9.2531  -9.1719  -9.1579
    -9.1525  -9.0488  -9.0039  -8.9938  -8.9938  -8.9718  -8.9272  -8.8877
    -8.8867  -8.8863  -8.8677  -8.8551  -8.8441  -8.8355  -8.8255  -8.8173
    -8.7925  -8.7864  -8.7830  -8.7519  -8.7497  -8.7371  -8.7250  -8.7152
    -8.7094  -8.7006  -8.6786  -8.6595  -8.6527  -8.6357  -8.6344  -8.6247
    -8.6157  -8.6029  -8.5796  -8.5728  -8.5565  -8.5462  -8.5369  -8.5238
    -8.5134  -8.5107  -8.4921  -8.4837  -8.4719  -8.4443  -8.4399  -8.4239
    -8.4190  -8.4128  -8.4065  -8.3915  -8.3613  -8.3533  -8.3532  -8.3358
    -8.3280  -8.3204  -8.3200  -8.3134  -8.3072  -8.2901  -8.2867  -8.2574
    -8.2368  -8.2356  -8.2353  -8.2293  -8.2196  -8.2159  -8.1975  -8.1969
    -8.1942  -8.1901  -8.1692  -8.1547  -8.1536  -8.1516  -8.1492  -8.1465
    -8.1256  -8.1190  -8.1134  -8.1117  -8.1023  -8.1007  -8.0948  -8.0917
    -8.0912  -8.0760  -8.0587  -8.0551  -8.0500  -8.0493  -8.0433  -8.0361
    -8.0247  -8.0216  -8.0203  -8.0145  -8.0015  -8.0013  -7.9962  -7.9849
    -7.9809  -7.9521  -7.9486  -7.9421  -7.9366  -7.9350  -7.9183  -7.9000
    -7.8990  -7.8840  -7.8793  -7.8593  -7.8560  -7.8505  -7.8473  -7.8470
    -7.8265  -7.8125  -7.8074  -7.7830  -7.7620  -7.7605  -7.7493  -7.7196
    -7.6912  -7.6480  -7.6361  -7.6053  -7.5916  -7.5577  -7.5513  -7.5346
    -7.5310  -7.5053  -7.4864  -7.4498  -7.4400  -7.4397  -7.4333  -7.4273
    -7.4198  -7.3997  -7.3961  -7.3951  -7.3901  -7.3880  -7.3775  -7.3707
    -7.3644  -7.3464  -7.3386  -7.3318  -7.3231  -7.3029  -7.2957  -7.2902
    -7.2767  -7.1989  -7.1945  -7.1747  -7.1394  -6.9880  -6.9179  -6.9152
    -6.8957  -6.8504  -6.7938  -6.7582  -6.7195  -6.6586  -6.6374  -6.5566
    -6.5109  -6.4916  -6.4576  -6.4231  -6.4110  -6.3883  -6.3251  -6.3238
    -6.3132  -6.2895  -6.2591  -6.1831  -6.1400  -6.0553  -5.9904  -5.7868
    -5.5317  -5.2237  -5.1894  -5.0292  -4.8789  -4.6253  -4.5419  -4.4861
    -4.1346  -3.8622  -3.6927  -3.5743  -3.5150  -3.4607  -3.2875  -3.2586
    -3.0638  -2.9328  -2.7619  -2.7453  -2.4446  -2.2045  -2.1622  -1.9667
    -1.8248  -1.7584  -1.3479  -1.1419  -1.0139  -0.9916  -0.9207  -0.9132
    -0.9095  -0.8999  -0.5324  -0.4419  -0.4011  -0.3184  -0.1830  -0.0863
     0.0515   0.1013   0.1428   0.2806   0.4052   0.5248   0.6294   0.7026
     0.8488   0.9666   0.9796   0.9936   0.9946   1.0793   1.2375   1.3084
     1.3163   1.4039   1.4621   1.4674   1.7012   1.8140   1.8569   1.8858
     2.0733   2.1061   2.1975   2.4363   2.4960   2.5174   2.5458   2.6734
     2.7573   2.9139   3.0199   3.1696   3.1915   3.2114   3.2959   3.3168
     3.3663   3.3721   3.4217   3.5815   3.5852   3.5872   3.7155   3.8545
     3.9257   3.9570   3.9888   3.9996   4.1865   4.2264   4.2781   4.3630
     4.4298   4.4837   4.5551   4.6916   4.7502   4.8001   4.8558   4.9200
     4.9996   5.0440   5.2478   5.2570   5.3607   5.3744   5.4524   5.6348
     5.6519   5.7402   5.7592   5.7657   5.8447   5.9065   5.9201   6.0348
     6.1332   6.1634   6.2693   6.2798   6.3684   6.3816   6.3908   6.4004

     occupation numbers 
     1.0000   1.0000   1.0000   1.0000   1.0000   1.0000   1.0000   1.0000
     1.0000   1.0000   1.0000   1.0000   1.0000   1.0000   1.0000   1.0000
     1.0000   1.0000   1.0000   1.0000   1.0000   1.0000   1.0000   1.0000
     1.0000   1.0000   1.0000   1.0000   1.0000   1.0000   1.0000   1.0000
     1.0000   1.0000   1.0000   1.0000   1.0000   1.0000   1.0000   1.0000
     1.0000   1.0000   1.0000   1.0000   1.0000   1.0000   1.0000   1.0000
     1.0000   1.0000   1.0000   1.0000   1.0000   1.0000   1.0000   1.0000
     1.0000   1.0000   1.0000   1.0000   1.0000   1.0000   1.0000   1.0000
     1.0000   1.0000   1.0000   1.0000   1.0000   1.0000   1.0000   1.0000
     1.0000   1.0000   1.0000   1.0000   1.0000   1.0000   1.0000   1.0000
     1.0000   1.0000   1.0000   1.0000   1.0000   1.0000   1.0000   1.0000
     1.0000   1.0000   1.0000   1.0000   1.0000   1.0000   1.0000   1.0000
     1.0000   1.0000   1.0000   1.0000   1.0000   1.0000   1.0000   1.0000
     1.0000   1.0000   1.0000   1.0000   1.0000   1.0000   1.0000   1.0000
     1.0000   1.0000   1.0000   1.0000   1.0000   1.0000   1.0000   1.0000
     1.0000   1.0000   1.0000   1.0000   1.0000   1.0000   1.0000   1.0000
     1.0000   1.0000   1.0000   1.0000   1.0000   1.0000   1.0000   1.0000
     1.0000   1.0000   1.0000   1.0000   1.0000   1.0000   1.0000   1.0000
     1.0000   1.0000   1.0000   1.0000   1.0000   1.0000   1.0000   1.0000
     1.0000   1.0000   1.0000   1.0000   1.0000   1.0000   1.0000   1.0000
     1.0000   1.0000   1.0000   1.0000   1.0000   1.0000   1.0000   1.0000
     1.0000   1.0000   1.0000   1.0000   1.0000   1.0000   1.0000   1.0000
     1.0000   1.0000   1.0000   1.0000   1.0000   1.0000   1.0000   1.0000
     1.0000   1.0000   1.0000   1.0000   1.0000   1.0000   1.0000   1.0000
     1.0000   1.0000   1.0000   1.0000   1.0000   1.0000   1.0000   1.0000
     1.0000   1.0000   1.0000   1.0000   1.0000   1.0000   1.0000   1.0000
     1.0000   1.0000   1.0000   1.0000   1.0000   1.0000   1.0000   1.0000
     1.0000   1.0000   1.0000   1.0000   1.0000   1.0000   1.0000   1.0000
     1.0000   1.0000   1.0000   1.0000   1.0000   1.0000   1.0000   1.0000
     1.0000   1.0000   1.0000   1.0000   1.0000   1.0000   1.0000   1.0000
     1.0000   1.0000   1.0000   1.0000   1.0000   1.0000   1.0000   1.0000
     1.0000   1.0000   1.0000   1.0000   1.0000   1.0000   1.0000   1.0000
     1.0000   1.0000   1.0000   1.0000   1.0000   1.0000   1.0000   1.0000
     1.0000   1.0000   1.0000   1.0000   1.0000   1.0000   1.0000   1.0000
     1.0000   1.0000   1.0000   1.0000   1.0000   1.0000   1.0000   1.0000
     1.0000   1.0000   1.0000   1.0000   1.0000   1.0000   1.0000   1.0000
     1.0000   1.0000   1.0000   1.0000   1.0000   1.0000   1.0000   1.0000
     1.0000   1.0000   1.0000   1.0000   1.0000   1.0000   1.0000   1.0000
     1.0000   1.0000   1.0000   1.0000   1.0000   1.0000   1.0000   1.0000
     1.0000   1.0000   1.0000   1.0000   1.0000   1.0000   1.0000   1.0000
     1.0000   1.0000   1.0000   1.0000   1.0000   1.0000   1.0000   1.0000
     1.0000   1.0000   1.0000   1.0000   1.0000   1.0000   1.0000   1.0000
     1.0000   1.0000   1.0000   1.0000   1.0000   1.0000   1.0000   1.0000
     1.0000   1.0000   1.0000   1.0000   1.0000   1.0000   1.0000   1.0000
     1.0000   1.0000   1.0000   1.0000   1.0000   1.0000   1.0000   1.0000
     1.0000   1.0000   1.0000   1.0000   1.0000   1.0000   1.0000   1.0000
     1.0000   1.0000   1.0000   1.0000   1.0000   1.0000   1.0000   1.0000
     1.0000   1.0000   1.0000   1.0000   1.0000   1.0000   1.0000   1.0000
     1.0000   1.0000   1.0000   1.0000   1.0000   1.0000   1.0000   1.0000
     1.0000   1.0000   1.0000   1.0000   1.0000   1.0000   1.0000   1.0000
     1.0000   1.0000   1.0000   1.0000   1.0000   1.0000   1.0000   1.0000
     1.0000   1.0000   1.0000   1.0000   1.0000   1.0000   1.0000   1.0000
     1.0000   1.0000   1.0000   1.0000   1.0000   1.0000   1.0000   1.0000
     1.0000   1.0000   1.0000   1.0000   1.0000   1.0000   1.0000   1.0000
     1.0000   1.0000   1.0000   1.0000   1.0000   1.0000   1.0000   1.0000
     1.0000   1.0000   1.0000   1.0000   1.0000   1.0000   1.0000   1.0000
     1.0000   1.0000   1.0000   1.0000   1.0000   1.0000   1.0000   1.0000
     1.0000   1.0000   1.0000   1.0000   1.0000   1.0000   1.0000   1.0000
     1.0000   1.0000   1.0000   1.0000   1.0000   1.0000   1.0000   1.0000
     1.0001   1.0003   1.0592   1.0404   0.8200   0.7643   0.5720   0.5513
     0.5412   0.5147   0.0145   0.0036   0.0018   0.0004   0.0000   0.0000
     0.0000   0.0000   0.0000   0.0000   0.0000   0.0000   0.0000   0.0000
     0.0000   0.0000   0.0000   0.0000   0.0000   0.0000   0.0000   0.0000
     0.0000   0.0000   0.0000   0.0000   0.0000   0.0000   0.0000   0.0000
     0.0000   0.0000   0.0000   0.0000   0.0000   0.0000   0.0000   0.0000
     0.0000   0.0000   0.0000   0.0000   0.0000   0.0000   0.0000   0.0000
     0.0000   0.0000   0.0000   0.0000   0.0000   0.0000   0.0000   0.0000
     0.0000   0.0000   0.0000   0.0000   0.0000   0.0000   0.0000   0.0000
     0.0000   0.0000   0.0000   0.0000   0.0000   0.0000   0.0000   0.0000
     0.0000   0.0000   0.0000   0.0000   0.0000   0.0000   0.0000   0.0000
     0.0000   0.0000   0.0000   0.0000   0.0000   0.0000   0.0000   0.0000
     0.0000   0.0000   0.0000   0.0000   0.0000   0.0000   0.0000   0.0000

          k = 0.3333 0.1925 0.0000 ( 64840 PWs)   bands (ev):

  -129.2493-129.2483-129.2473-129.2463-129.0643-129.0634-129.0633-129.0627
  -129.0625-129.0624-129.0618-129.0615-127.4524-127.4515-127.4510-127.4504
  -127.4501-127.4501-127.4494-127.4494-127.4492-127.4491-127.4483-127.4482
  -127.3272-127.3263-127.3262-127.3252-127.2145-127.2141-127.2136-127.2135
  -127.2132-127.2132-127.2126-127.2123-126.6356-126.6355-126.6347-126.6346
  -126.6346-126.6346-126.6338-126.6338-125.7238-125.7227-125.7225-125.7214
   -83.5857 -83.5845 -83.5835 -83.5824 -83.5426 -83.5416 -83.5414 -83.5409
   -83.5406 -83.5404 -83.5404 -83.5399 -83.5397 -83.5394 -83.5279 -83.5277
   -83.5269 -83.5269 -83.5150 -83.5141 -83.3358 -83.3325 -83.3314 -83.3304
   -83.3294 -83.3231 -83.3230 -83.3102 -82.3699 -82.3696 -82.3689 -82.3686
   -82.3685 -82.3684 -82.3675 -82.3674 -81.6104 -81.6100 -81.6096 -81.6092
   -81.6091 -81.6088 -81.6075 -81.6075 -81.6070 -81.6063 -81.6063 -81.6059
   -81.6058 -81.6051 -81.6047 -81.6040 -81.6024 -81.6023 -81.6021 -81.6013
   -81.6012 -81.6001 -81.5998 -81.5988 -81.5987 -81.5980 -81.5980 -81.5974
   -81.5974 -81.5966 -81.5965 -81.5961 -81.5960 -81.5852 -81.5848 -81.5837
   -81.4897 -81.4785 -81.4775 -81.4775 -81.4774 -81.4774 -81.4764 -81.4740
   -81.4731 -81.4730 -81.4721 -81.4652 -81.3809 -81.3806 -81.3686 -81.3686
   -81.3683 -81.3682 -81.3661 -81.3657 -81.3651 -81.3650 -81.3648 -81.3648
   -81.3641 -81.3638 -81.3622 -81.3619 -81.3613 -81.3612 -81.3610 -81.3610
   -81.3602 -81.3600 -81.3563 -81.3560 -80.8336 -80.8336 -80.8212 -80.8212
   -80.8212 -80.8212 -80.8088 -80.8088 -80.7874 -80.7873 -80.7865 -80.7864
   -80.7863 -80.7863 -80.7854 -80.7854 -80.7691 -80.7691 -80.7682 -80.7682
   -80.7682 -80.7681 -80.7672 -80.7672 -79.9510 -79.9389 -79.9388 -79.9268
   -79.9048 -79.9037 -79.9035 -79.9023 -79.6858 -79.6847 -79.6845 -79.6833
   -11.5524 -11.1454 -11.1140 -10.8395 -10.8248 -10.7566 -10.7165 -10.7165
   -10.6623 -10.6517 -10.6517 -10.5863 -10.5862 -10.5590 -10.5491 -10.5490
   -10.5256 -10.4772 -10.4563 -10.4563 -10.3452 -10.3451 -10.3275 -10.3274
   -10.2810 -10.2582 -10.2514 -10.2513 -10.1805 -10.1731 -10.1685 -10.1685
   -10.1552 -10.0850 -10.0475 -10.0474 -10.0136  -9.9703  -9.9438  -9.8546
    -9.8260  -9.7946  -9.6306  -9.6270  -9.6269  -9.5957  -9.5420  -9.4312
    -9.4312  -9.4269  -9.4225  -9.4171  -9.4170  -9.4055  -9.4055  -9.3200
    -9.3175  -9.3144  -9.3143  -9.3063  -9.2440  -9.2029  -9.2029  -9.1456
    -9.1420  -9.1229  -9.0660  -9.0642  -8.9543  -8.9390  -8.9260  -8.9172
    -8.9172  -8.8881  -8.8486  -8.8002  -8.7998  -8.7768  -8.7768  -8.7752
    -8.7678  -8.7678  -8.7527  -8.7387  -8.7386  -8.7296  -8.7056  -8.7056
    -8.6948  -8.6895  -8.6795  -8.6545  -8.6545  -8.6048  -8.6048  -8.5990
    -8.5801  -8.5801  -8.5791  -8.5621  -8.5603  -8.5602  -8.5561  -8.5539
    -8.5384  -8.5316  -8.5316  -8.4813  -8.4813  -8.4410  -8.4410  -8.4377
    -8.4303  -8.4303  -8.4114  -8.3899  -8.3899  -8.3634  -8.3634  -8.3436
    -8.3424  -8.3424  -8.3190  -8.3190  -8.3059  -8.2981  -8.2940  -8.2940
    -8.2728  -8.2536  -8.2528  -8.2528  -8.2386  -8.2239  -8.2175  -8.2086
    -8.1981  -8.1914  -8.1871  -8.1871  -8.1634  -8.1482  -8.1482  -8.1471
    -8.1406  -8.1309  -8.1205  -8.0959  -8.0959  -8.0760  -8.0743  -8.0743
    -8.0717  -8.0717  -8.0652  -8.0652  -8.0512  -8.0392  -8.0374  -8.0357
    -8.0326  -8.0310  -8.0310  -8.0106  -8.0035  -8.0035  -7.9915  -7.9881
    -7.9876  -7.9796  -7.9796  -7.9565  -7.9459  -7.9341  -7.9273  -7.9273
    -7.9145  -7.9144  -7.8864  -7.8230  -7.8177  -7.8022  -7.7858  -7.7843
    -7.7841  -7.7793  -7.7793  -7.7449  -7.7434  -7.7323  -7.6991  -7.6208
    -7.6208  -7.6158  -7.6083  -7.6082  -7.6004  -7.5852  -7.5852  -7.5484
    -7.5484  -7.5104  -7.5094  -7.5093  -7.5058  -7.4764  -7.4764  -7.4677
    -7.4358  -7.4281  -7.4258  -7.4258  -7.4050  -7.4050  -7.3960  -7.3959
    -7.3799  -7.3616  -7.3396  -7.3168  -7.2736  -7.2736  -7.2596  -7.2576
    -7.2576  -7.2509  -7.1984  -7.1979  -7.1649  -7.1601  -7.1282  -6.8409
    -6.7578  -6.7389  -6.6710  -6.6708  -6.6588  -6.6497  -6.6496  -6.5408
    -6.5408  -6.4295  -6.4175  -6.4175  -6.4145  -6.4144  -6.4105  -6.3294
    -6.3178  -6.3122  -6.3104  -6.1390  -5.8940  -5.8940  -5.7540  -5.7540
    -5.3758  -5.3757  -5.2226  -5.1147  -4.9449  -4.6670  -4.5856  -4.3310
    -4.3309  -3.8391  -3.8391  -3.6755  -3.6135  -3.5646  -3.5554  -3.3975
[...]
     atom   15 type  1   force =     0.00000000    0.00000000    0.00000000
     atom   16 type  1   force =     0.00000000    0.00000000    0.00000000
     atom   17 type  1   force =     0.00000000    0.00000000    0.00000000
     atom   18 type  1   force =     0.00000000    0.00000000    0.00000000
     atom   19 type  1   force =     0.00000000    0.00000000    0.00000000
     atom   20 type  1   force =     0.00000000    0.00000000    0.00000000
     atom   21 type  1   force =     0.00000000    0.00000000    0.00000000
     atom   22 type  1   force =     0.00000000    0.00000000    0.00000000
     atom   23 type  1   force =     0.00000000    0.00000000    0.00000000
     atom   24 type  1   force =     0.00000000    0.00000000    0.00000000
     atom   25 type  1   force =     0.00000000    0.00000000    0.00000000
     atom   26 type  1   force =     0.00000000    0.00000000    0.00000000
     atom   27 type  1   force =     0.00000000    0.00000000    0.00000000
     atom   28 type  1   force =     0.00000000    0.00000000    0.00000000
     atom   29 type  1   force =     0.00000000    0.00000000    0.00000000
     atom   30 type  1   force =     0.00000000    0.00000000    0.00000000
     atom   31 type  1   force =     0.00000000    0.00000000    0.00000000
     atom   32 type  1   force =     0.00000000    0.00000000    0.00000000
     atom   33 type  1   force =     0.00000000    0.00000000    0.00000000
     atom   34 type  1   force =     0.00000000    0.00000000    0.00000000
     atom   35 type  1   force =     0.00000000    0.00000000    0.00000000
     atom   36 type  1   force =     0.00000000    0.00000000    0.00000000
     atom   37 type  1   force =     0.00000000    0.00000000    0.00000000
     atom   38 type  1   force =     0.00000000    0.00000000    0.00000000
     atom   39 type  1   force =     0.00000000    0.00000000    0.00000000
     atom   40 type  1   force =     0.00000000    0.00000000    0.00000000
     atom   41 type  1   force =     0.00000000    0.00000000    0.00000000
     atom   42 type  1   force =     0.00000000    0.00000000    0.00000000
     atom   43 type  1   force =     0.00000000    0.00000000    0.00000000
     atom   44 type  1   force =     0.00000000    0.00000000    0.00000000
     atom   45 type  1   force =     0.00000000    0.00000000    0.00000000
     atom   46 type  1   force =     0.00000000    0.00000000    0.00000000
     atom   47 type  1   force =     0.00000000    0.00000000    0.00000000
     atom   48 type  1   force =     0.00000000    0.00000000    0.00000000
     The SCF correction term to forces
     atom    1 type  1   force =     0.00000000    0.00000000   -0.00000000
     atom    2 type  1   force =     0.00000000    0.00000000   -0.00000000
     atom    3 type  1   force =    -0.00010008   -0.00002357   -0.00021071
     atom    4 type  1   force =     0.00200745    0.00103045   -0.00120079
     atom    5 type  1   force =     0.00000000    0.00000000   -0.00000000
     atom    6 type  1   force =     0.00000000    0.00000000   -0.00000000
     atom    7 type  1   force =    -0.00012465    0.00019248   -0.00032643
     atom    8 type  1   force =     0.00203025    0.00119317   -0.00115852
     atom    9 type  1   force =     0.00000000    0.00000000   -0.00000000
     atom   10 type  1   force =     0.00000000    0.00000000   -0.00000000
     atom   11 type  1   force =     0.00005966    0.00000019   -0.00041568
     atom   12 type  1   force =     0.00187138    0.00120883   -0.00121755
     atom   13 type  1   force =     0.00000000   -0.00000000   -0.00000000
     atom   14 type  1   force =     0.00000000    0.00000000   -0.00000000
     atom   15 type  1   force =     0.00008379   -0.00021616   -0.00029989
     atom   16 type  1   force =     0.00184850    0.00104638   -0.00125987
     atom   17 type  1   force =     0.00000000    0.00000000   -0.00000000
     atom   18 type  1   force =    -0.00000000   -0.00000000   -0.00000000
     atom   19 type  1   force =     0.00053577    0.00013837   -0.00073026
     atom   20 type  1   force =    -0.00135307   -0.00071661   -0.00064678
     atom   21 type  1   force =     0.00000000    0.00000000   -0.00000000
     atom   22 type  1   force =    -0.00000000   -0.00000000   -0.00000000
     atom   23 type  1   force =     0.00035799    0.00043309   -0.00075129
     atom   24 type  1   force =    -0.00117766   -0.00062674   -0.00069702
     atom   25 type  1   force =     0.00000000    0.00000000   -0.00000000
     atom   26 type  1   force =    -0.00000000   -0.00000000   -0.00000000
     atom   27 type  1   force =     0.00032707    0.00035970   -0.00089888
     atom   28 type  1   force =    -0.00115124   -0.00072910   -0.00069223
     atom   29 type  1   force =     0.00000000    0.00000000   -0.00000000
     atom   30 type  1   force =    -0.00000000   -0.00000000   -0.00000000
     atom   31 type  1   force =     0.00050448    0.00006494   -0.00087832
     atom   32 type  1   force =    -0.00132605   -0.00081917   -0.00064200
     atom   33 type  1   force =     0.00081872    0.00023370   -0.00172850
     atom   34 type  1   force =    -0.00125507   -0.00078987   -0.00152878
     atom   35 type  1   force =     0.00058733    0.00065191   -0.00172891
     atom   36 type  1   force =    -0.00103270   -0.00063866   -0.00153131
     atom   37 type  1   force =     0.00065110    0.00061626   -0.00173103
     atom   38 type  1   force =    -0.00111017   -0.00057619   -0.00153136
     atom   39 type  1   force =     0.00088346    0.00019587   -0.00173076
     atom   40 type  1   force =    -0.00133265   -0.00072694   -0.00152896
     atom   41 type  1   force =     0.00032203   -0.00011819   -0.00169764
     atom   42 type  1   force =    -0.00117357   -0.00065261   -0.00157618
     atom   43 type  1   force =     0.00025947    0.00019371   -0.00169693
     atom   44 type  1   force =    -0.00109176   -0.00041629   -0.00157771
     atom   45 type  1   force =     0.00003518    0.00032461   -0.00169815
     atom   46 type  1   force =    -0.00086740   -0.00052573   -0.00157978
     atom   47 type  1   force =     0.00009787    0.00001228   -0.00169914
     atom   48 type  1   force =    -0.00094824   -0.00076146   -0.00157745

     DFT-D3 dispersion contribution to forces:
     atom    1 type  1   force =    -0.00000036   -0.00000014    0.00234901
     atom    2 type  1   force =     0.00000043    0.00000114    0.00234936
     atom    3 type  1   force =    -0.00000011   -0.00000093   -0.00235234
     atom    4 type  1   force =     0.00000081    0.00000243   -0.00235219
     atom    5 type  1   force =    -0.00000114    0.00000034    0.00235055
     atom    6 type  1   force =     0.00000106    0.00000078    0.00235184
     atom    7 type  1   force =    -0.00000011   -0.00000069   -0.00235440
     atom    8 type  1   force =     0.00000195    0.00000188   -0.00235652
     atom    9 type  1   force =    -0.00000112   -0.00000070    0.00235261
     atom   10 type  1   force =     0.00000113   -0.00000023    0.00235084
     atom   11 type  1   force =    -0.00000239   -0.00000034   -0.00235630
     atom   12 type  1   force =     0.00000331    0.00000012   -0.00235303
     atom   13 type  1   force =    -0.00000049   -0.00000133    0.00235134
     atom   14 type  1   force =     0.00000054    0.00000006    0.00234829
     atom   15 type  1   force =    -0.00000158   -0.00000055   -0.00235467
     atom   16 type  1   force =     0.00000264    0.00000041   -0.00234882
     atom   17 type  1   force =     0.00000015    0.00000033    0.00234793
     atom   18 type  1   force =    -0.00000006    0.00000091    0.00235068
     atom   19 type  1   force =    -0.00000144   -0.00000013   -0.00235126
     atom   20 type  1   force =     0.00000095    0.00000009   -0.00235347
     atom   21 type  1   force =     0.00000023    0.00000019    0.00234825
     atom   22 type  1   force =    -0.00000007    0.00000098    0.00235402
     atom   23 type  1   force =    -0.00000039   -0.00000079   -0.00235165
     atom   24 type  1   force =    -0.00000144    0.00000128   -0.00235947
     atom   25 type  1   force =    -0.00000052   -0.00000050    0.00234821
     atom   26 type  1   force =     0.00000067   -0.00000045    0.00235522
     atom   27 type  1   force =    -0.00000036   -0.00000141   -0.00234975
     atom   28 type  1   force =    -0.00000027   -0.00000021   -0.00235970
     atom   29 type  1   force =    -0.00000067   -0.00000048    0.00234800
     atom   30 type  1   force =     0.00000073   -0.00000067    0.00235177
     atom   31 type  1   force =    -0.00000229   -0.00000018   -0.00234977
     atom   32 type  1   force =     0.00000133   -0.00000067   -0.00235404
     atom   33 type  1   force =    -0.00000222   -0.00000069    0.00000395
     atom   34 type  1   force =     0.00000223    0.00000560    0.00000161
     atom   35 type  1   force =    -0.00000037   -0.00000310    0.00000391
     atom   36 type  1   force =     0.00000031    0.00000561    0.00000482
     atom   37 type  1   force =    -0.00000501   -0.00000407    0.00000248
     atom   38 type  1   force =     0.00000514   -0.00000139    0.00000410
     atom   39 type  1   force =    -0.00000666   -0.00000022    0.00000267
     atom   40 type  1   force =     0.00000720   -0.00000088    0.00000135
     atom   41 type  1   force =    -0.00000355    0.00000399    0.00000240
     atom   42 type  1   force =     0.00000313    0.00000025    0.00000309
     atom   43 type  1   force =     0.00000184    0.00000056    0.00000396
     atom   44 type  1   force =    -0.00000184    0.00000149    0.00000392
     atom   45 type  1   force =     0.00000378   -0.00000452    0.00000191
     atom   46 type  1   force =    -0.00000437   -0.00000134    0.00000494
     atom   47 type  1   force =    -0.00000148    0.00000018    0.00000082
     atom   48 type  1   force =     0.00000076   -0.00000201    0.00000357

     Total force =    28.931354     Total SCF correction =     0.010000

     DFT-D3 dispersion Force =     0.013305
     Energy error            =      9.0E-03 Ry
     Gradient error          =      1.1E+01 Ry/Bohr

     number of scf cycles    =  36
     number of bfgs steps    =   1

     energy             old  =  -22143.9765091994 Ry
     energy             new  =  -22143.9675167293 Ry

     CASE: energy            _new > energy            _old

     new trust radius        =       0.0001030617 bohr
     new conv_thr            =       0.0000010000 Ry


ATOMIC_POSITIONS (angstrom)
Zn               0.0000000000        1.5094010000        1.2182900000    0   0   0
Zn               5.2287200000        1.5094010000        1.2182900000    0   0   0
Zn              -0.0000017074        1.5093024755        6.2711362166
Zn               5.2287258942        1.5097009150        6.2703771504
Zn              -1.3071800000        3.7735030000        1.2182900000    0   0   0
Zn               3.9215400000        3.7735030000        1.2182900000    0   0   0
Zn              -1.3072046273        3.7734200640        6.2699791467
Zn               3.9216995276        3.7737222702        6.2691221466
Zn              -2.6143600000        6.0376050000        1.2182900000    0   0   0
Zn               2.6143600000        6.0376050000        1.2182900000    0   0   0
Zn              -2.6146741800        6.0375428347        6.2688155444
Zn               2.6147192035        6.0375304000        6.2699708298
Zn              -3.9215400000        8.3017080000        1.2182900000    0   0   0
Zn               1.3071800000        8.3017080000        1.2182900000    0   0   0
Zn              -3.9217505569        8.3016359270        6.2698588635
Zn               1.3074470239        8.3017139710        6.2712456146
Zn               2.6143600000        1.5094010000        1.2182900000    0   0   0
Zn               7.8430800000        1.5094010000        1.2182900000    0   0   0
Zn               2.6141487763        1.5094146655        6.2713436246
Zn               7.8432740004        1.5094931771        6.2700911233
Zn               1.3071800000        3.7735030000        1.2182900000    0   0   0
Zn               6.5359000000        3.7735030000        1.2182900000    0   0   0
Zn               1.3071365945        3.7733900147        6.2711850505
Zn               6.5357782265        3.7737233660        6.2678937309
Zn               0.0000000000        6.0376050000        1.2182900000    0   0   0
Zn               5.2287200000        6.0376050000        1.2182900000    0   0   0
Zn              -0.0000601844        6.0373722411        6.2711290568
Zn               5.2287391469        6.0375865974        6.2676854636
Zn              -1.3071800000        8.3017080000        1.2182900000    0   0   0
Zn               3.9215400000        8.3017080000        1.2182900000    0   0   0
Zn              -1.3075127076        8.3016846955        6.2712265732
Zn               3.9218005747        8.3016473166        6.2698379379
Zn               1.3069524654        0.7547346189        3.7452189560
Zn               6.5361360881        0.7552527876        3.7448596920
Zn               0.0000343669        3.0184383012        3.7452148020
Zn               5.2286846024        3.0192938951        3.7442763063
Zn              -1.3075746022        5.2824554770        3.7445086000
Zn               3.9219679650        5.2827324853        3.7439818701
Zn              -2.6150030718        7.5471006553        3.7445048579
Zn               2.6150604087        7.5469573561        3.7446199862
Zn               3.9210671554        0.7551093674        3.7452579076
Zn               9.1506758910        0.7547989577        3.7448112953
Zn               2.6144058840        3.0187743077        3.7451303387
Zn               7.8430258691        3.0188993093        3.7442459423
Zn               1.3074829903        5.2823470922        3.7450085399
Zn               6.5355084865        5.2827920114        3.7435380893
Zn              -0.0001818578        7.5470091353        3.7452233030
Zn               5.2288181917        7.5469422800        3.7439961032



     Writing config-only to output data dir ./tmp/Zn002_3layer_relax.save/ :
     XML data file
     NEW-OLD atomic charge density approx. for the potential

     negative rho (up, down):  3.189E-03 0.000E+00

     Adding external electric field

     Computed dipole along edir(1) : 
        Elec. dipole         -0.4346 Ry au,         -1.1046 Debye
        Ion. dipole          -0.4915 Ry au,         -1.2494 Debye
        Dipole              -68.7652 Ry au,       -174.7838 Debye
        Dipole field         -0.0569 Ry au, 

        Potential amp.        2.0254 Ry
        Total length         17.7855 bohr


     total cpu time spent up to now is   163377.5 secs

     Self-consistent Calculation

     iteration #  1     ecut=    40.00 Ry     beta= 0.40
     Davidson diagonalization with overlap

---- Real-time Memory Report at c_bands before calling an iterative solver
           405 MiB given to the printing process from OS
             0 MiB allocation reported by mallinfo(arena+hblkhd)
         69265 MiB available memory on the node where the printing process lives
------------------
     ethr =  1.00E-06,  avg # of iterations =  2.0

     Threshold (ethr) on eigenvalues was too large:
     Diagonalizing with lowered threshold

     Davidson diagonalization with overlap

---- Real-time Memory Report at c_bands before calling an iterative solver
           405 MiB given to the printing process from OS
             0 MiB allocation reported by mallinfo(arena+hblkhd)
         69211 MiB available memory on the node where the printing process lives
------------------
     ethr =  4.69E-08,  avg # of iterations =  1.0

     negative rho (up, down):  3.191E-03 0.000E+00

     Adding external electric field

     Computed dipole along edir(1) : 
        Elec. dipole         -0.4345 Ry au,         -1.1043 Debye
        Ion. dipole          -0.4915 Ry au,         -1.2494 Debye
        Dipole              -68.9340 Ry au,       -175.2127 Debye
        Dipole field         -0.0571 Ry au, 

        Potential amp.        2.0303 Ry
        Total length         17.7855 bohr


     total cpu time spent up to now is   163748.7 secs

     total energy              =  -22143.97317151 Ry
     estimated scf accuracy    <       0.00045417 Ry

     iteration #  2     ecut=    40.00 Ry     beta= 0.40
     Davidson diagonalization with overlap

---- Real-time Memory Report at c_bands before calling an iterative solver
           405 MiB given to the printing process from OS
             0 MiB allocation reported by mallinfo(arena+hblkhd)
         69107 MiB available memory on the node where the printing process lives
------------------
     ethr =  4.73E-08,  avg # of iterations =  3.0

     negative rho (up, down):  3.189E-03 0.000E+00

     Adding external electric field

     Computed dipole along edir(1) : 
        Elec. dipole         -0.4346 Ry au,         -1.1046 Debye
        Ion. dipole          -0.4915 Ry au,         -1.2494 Debye
        Dipole              -68.8077 Ry au,       -174.8918 Debye
        Dipole field         -0.0570 Ry au, 

        Potential amp.        2.0266 Ry
        Total length         17.7855 bohr


     total cpu time spent up to now is   163949.0 secs

     total energy              =  -22143.97244515 Ry
     estimated scf accuracy    <       0.02122139 Ry

     iteration #  3     ecut=    40.00 Ry     beta= 0.40
     Davidson diagonalization with overlap

---- Real-time Memory Report at c_bands before calling an iterative solver
           405 MiB given to the printing process from OS
             0 MiB allocation reported by mallinfo(arena+hblkhd)
         69093 MiB available memory on the node where the printing process lives
------------------
     ethr =  4.73E-08,  avg # of iterations =  3.0

     negative rho (up, down):  3.189E-03 0.000E+00

     Adding external electric field

     Computed dipole along edir(1) : 
        Elec. dipole         -0.4346 Ry au,         -1.1046 Debye
        Ion. dipole          -0.4915 Ry au,         -1.2494 Debye
        Dipole              -68.7902 Ry au,       -174.8472 Debye
        Dipole field         -0.0570 Ry au, 

        Potential amp.        2.0261 Ry
        Total length         17.7855 bohr


     total cpu time spent up to now is   164138.0 secs

     total energy              =  -22143.97341554 Ry
     estimated scf accuracy    <       0.00014346 Ry

     iteration #  4     ecut=    40.00 Ry     beta= 0.40
     Davidson diagonalization with overlap

---- Real-time Memory Report at c_bands before calling an iterative solver
           405 MiB given to the printing process from OS
             0 MiB allocation reported by mallinfo(arena+hblkhd)
         69077 MiB available memory on the node where the printing process lives
------------------
     ethr =  1.49E-08,  avg # of iterations =  2.0

     negative rho (up, down):  3.189E-03 0.000E+00

     Adding external electric field

     Computed dipole along edir(1) : 
        Elec. dipole         -0.4346 Ry au,         -1.1046 Debye
        Ion. dipole          -0.4915 Ry au,         -1.2494 Debye
        Dipole              -68.7938 Ry au,       -174.8563 Debye
        Dipole field         -0.0570 Ry au, 

        Potential amp.        2.0262 Ry
        Total length         17.7855 bohr


     total cpu time spent up to now is   164314.0 secs

     total energy              =  -22143.97342527 Ry
     estimated scf accuracy    <       0.00004228 Ry

     iteration #  5     ecut=    40.00 Ry     beta= 0.40
     Davidson diagonalization with overlap

---- Real-time Memory Report at c_bands before calling an iterative solver
           405 MiB given to the printing process from OS
             0 MiB allocation reported by mallinfo(arena+hblkhd)
         69052 MiB available memory on the node where the printing process lives
------------------
