--------------------------------------------------------------------------
By default, for Open MPI 4.0 and later, infiniband ports on a device
are not used by default.  The intent is to use UCX for these devices.
You can override this policy by setting the btl_openib_allow_ib MCA parameter
to true.

  Local host:              psid05
  Local adapter:           mlx4_0
  Local port:              1

--------------------------------------------------------------------------
--------------------------------------------------------------------------
WARNING: There was an error initializing an OpenFabrics device.

  Local host:   psid05
  Local device: mlx4_0
--------------------------------------------------------------------------

     Program PWSCF v.7.3.1 starts on 26Mar2025 at  1: 6:20 

     This program is part of the open-source Quantum ESPRESSO suite
     for quantum simulation of materials; please cite
         "P. Giannozzi et al., J. Phys.:Condens. Matter 21 395502 (2009);
         "P. Giannozzi et al., J. Phys.:Condens. Matter 29 465901 (2017);
         "P. Giannozzi et al., J. Chem. Phys. 152 154105 (2020);
          URL http://www.quantum-espresso.org", 
     in publications or presentations arising from this work. More details at
     http://www.quantum-espresso.org/quote

     Parallel version (MPI), running on    33 processors

     MPI processes distributed on     1 nodes
     79095 MiB available memory on the printing compute node when the environment starts

     Waiting for input...
     Reading input from standard input

     Current dimensions of program PWSCF are:
     Max number of different atomic species (ntypx) = 10
     Max number of k-points (npk) =  40000
     Max angular momentum in pseudopotentials (lmaxx) =  4
     Found identity + ( -0.5000  0.0000  0.0000) symmetry
     This is a supercell, fractional translations are disabled

     R & G space division:  proc/nbgrp/npool/nimage =      33
     Subspace diagonalization in iterative solution of the eigenvalue problem:
     one sub-group per band group will be used
     custom distributed-memory algorithm (size of sub-group:  5*  5 procs)


     Parallelization info
     --------------------
     sticks:   dense  smooth     PW     G-vecs:    dense   smooth      PW
     Min         163     130     36                21965    15714    2270
     Max         165     131     37                21971    15723    2280
     Sum        5389    4303   1189               724931   518755   75035

     Using Slab Decomposition



     bravais-lattice index     =            0
     lattice parameter (alat)  =      19.7617  a.u.
     unit-cell volume          =   15176.5939 (a.u.)^3
     number of atoms/cell      =           48
     number of atomic types    =            1
     number of electrons       =       960.00
     number of Kohn-Sham states=          576
     kinetic-energy cutoff     =      40.0000  Ry
     charge density cutoff     =     200.0000  Ry
     scf convergence threshold =      1.0E-06
     mixing beta               =       0.4000
     number of iterations used =            8  plain     mixing
     Exchange-correlation= SLA  PW   PBE  PBE
                           (   1   4   3   4   0   0   0)

     celldm(1)=  19.761696  celldm(2)=   0.000000  celldm(3)=   0.000000
     celldm(4)=   0.000000  celldm(5)=   0.000000  celldm(6)=   0.000000

     crystal axes: (cart. coord. in units of alat)
               a(1) = (   1.000000   0.000000   0.000000 )  
               a(2) = (  -0.500000   0.866025   0.000000 )  
               a(3) = (   0.000000   0.000000   2.270759 )  

     reciprocal axes: (cart. coord. in units 2 pi/alat)
               b(1) = (  1.000000  0.577350 -0.000000 )  
               b(2) = (  0.000000  1.154701  0.000000 )  
               b(3) = (  0.000000 -0.000000  0.440381 )  


     PseudoPot. # 1 for Zn read from file:
     /home/ys/qepseudo/SSSP_1.3.0_PBE_efficiency/Zn_pbe_v1.uspp.F.UPF
     MD5 check sum: df62231357ef9e81f77b2b3087fa5675
     Pseudo is Ultrasoft, Zval = 20.0
     Generated by new atomic code, or converted to UPF format
     Using radial grid of  943 points,  6 beta functions with: 
                l(1) =   0
                l(2) =   0
                l(3) =   1
                l(4) =   1
                l(5) =   2
                l(6) =   2
     Q(r) pseudized with  8 coefficients,  rinner =    1.100   1.100   1.100
                                                       1.100   1.100

     atomic species   valence    mass     pseudopotential
     Zn               20.00    65.38000     Zn( 1.00)

     No symmetry found


                                    s                        frac. trans.

      isym =  1     identity                                     

 cryst.   s( 1) = (     1          0          0      )
                  (     0          1          0      )
                  (     0          0          1      )

 cart.    s( 1) = (  1.0000000  0.0000000  0.0000000 )
                  (  0.0000000  1.0000000  0.0000000 )
                  (  0.0000000  0.0000000  1.0000000 )


   Cartesian axes

     site n.     atom                  positions (alat units)
         1        Zn     tau(   1) = (   0.0000000   0.1443375   0.1164998  )
         2        Zn     tau(   2) = (   0.5000000   0.1443375   0.1164998  )
         3        Zn     tau(   3) = (   0.0000000   0.1443375   0.5824993  )
         4        Zn     tau(   4) = (   0.5000000   0.1443375   0.5824993  )
         5        Zn     tau(   5) = (  -0.1250000   0.3608439   0.1164998  )
         6        Zn     tau(   6) = (   0.3750000   0.3608439   0.1164998  )
         7        Zn     tau(   7) = (  -0.1250000   0.3608439   0.5824993  )
         8        Zn     tau(   8) = (   0.3750000   0.3608439   0.5824993  )
         9        Zn     tau(   9) = (  -0.2500000   0.5773502   0.1164998  )
        10        Zn     tau(  10) = (   0.2500000   0.5773502   0.1164998  )
        11        Zn     tau(  11) = (  -0.2500000   0.5773502   0.5824993  )
        12        Zn     tau(  12) = (   0.2500000   0.5773502   0.5824993  )
        13        Zn     tau(  13) = (  -0.3750000   0.7938567   0.1164998  )
        14        Zn     tau(  14) = (   0.1250000   0.7938567   0.1164998  )
        15        Zn     tau(  15) = (  -0.3750000   0.7938567   0.5824993  )
        16        Zn     tau(  16) = (   0.1250000   0.7938567   0.5824993  )
        17        Zn     tau(  17) = (   0.2500000   0.1443375   0.1164998  )
        18        Zn     tau(  18) = (   0.7500000   0.1443375   0.1164998  )
        19        Zn     tau(  19) = (   0.2500000   0.1443375   0.5824993  )
        20        Zn     tau(  20) = (   0.7500000   0.1443375   0.5824993  )
        21        Zn     tau(  21) = (   0.1250000   0.3608439   0.1164998  )
        22        Zn     tau(  22) = (   0.6250000   0.3608439   0.1164998  )
        23        Zn     tau(  23) = (   0.1250000   0.3608439   0.5824993  )
        24        Zn     tau(  24) = (   0.6250000   0.3608439   0.5824993  )
        25        Zn     tau(  25) = (   0.0000000   0.5773502   0.1164998  )
        26        Zn     tau(  26) = (   0.5000000   0.5773502   0.1164998  )
        27        Zn     tau(  27) = (   0.0000000   0.5773502   0.5824993  )
        28        Zn     tau(  28) = (   0.5000000   0.5773502   0.5824993  )
        29        Zn     tau(  29) = (  -0.1250000   0.7938567   0.1164998  )
        30        Zn     tau(  30) = (   0.3750000   0.7938567   0.1164998  )
        31        Zn     tau(  31) = (  -0.1250000   0.7938567   0.5824993  )
        32        Zn     tau(  32) = (   0.3750000   0.7938567   0.5824993  )
        33        Zn     tau(  33) = (   0.1250000   0.0721688   0.3494996  )
        34        Zn     tau(  34) = (   0.6250000   0.0721688   0.3494996  )
        35        Zn     tau(  35) = (   0.0000000   0.2886752   0.3494996  )
        36        Zn     tau(  36) = (   0.5000000   0.2886752   0.3494996  )
        37        Zn     tau(  37) = (  -0.1250000   0.5051815   0.3494996  )
        38        Zn     tau(  38) = (   0.3750000   0.5051815   0.3494996  )
        39        Zn     tau(  39) = (  -0.2500000   0.7216879   0.3494996  )
        40        Zn     tau(  40) = (   0.2500000   0.7216879   0.3494996  )
        41        Zn     tau(  41) = (   0.3750000   0.0721688   0.3494996  )
        42        Zn     tau(  42) = (   0.8750000   0.0721688   0.3494996  )
        43        Zn     tau(  43) = (   0.2500000   0.2886752   0.3494996  )
        44        Zn     tau(  44) = (   0.7500000   0.2886752   0.3494996  )
        45        Zn     tau(  45) = (   0.1250000   0.5051815   0.3494996  )
        46        Zn     tau(  46) = (   0.6250000   0.5051815   0.3494996  )
        47        Zn     tau(  47) = (   0.0000000   0.7216879   0.3494996  )
        48        Zn     tau(  48) = (   0.5000000   0.7216879   0.3494996  )

   Crystallographic axes

     site n.     atom                  positions (cryst. coord.)
         1        Zn     tau(   1) = (  0.0833333  0.1666666  0.0513044  )
         2        Zn     tau(   2) = (  0.5833333  0.1666666  0.0513044  )
         3        Zn     tau(   3) = (  0.0833333  0.1666666  0.2565219  )
         4        Zn     tau(   4) = (  0.5833333  0.1666666  0.2565219  )
         5        Zn     tau(   5) = (  0.0833333  0.4166666  0.0513044  )
         6        Zn     tau(   6) = (  0.5833333  0.4166666  0.0513044  )
         7        Zn     tau(   7) = (  0.0833333  0.4166666  0.2565219  )
         8        Zn     tau(   8) = (  0.5833333  0.4166666  0.2565219  )
         9        Zn     tau(   9) = (  0.0833333  0.6666666  0.0513044  )
        10        Zn     tau(  10) = (  0.5833333  0.6666666  0.0513044  )
        11        Zn     tau(  11) = (  0.0833333  0.6666666  0.2565219  )
        12        Zn     tau(  12) = (  0.5833333  0.6666666  0.2565219  )
        13        Zn     tau(  13) = (  0.0833333  0.9166667  0.0513044  )
        14        Zn     tau(  14) = (  0.5833334  0.9166667  0.0513044  )
        15        Zn     tau(  15) = (  0.0833333  0.9166667  0.2565219  )
        16        Zn     tau(  16) = (  0.5833334  0.9166667  0.2565219  )
        17        Zn     tau(  17) = (  0.3333333  0.1666666  0.0513044  )
        18        Zn     tau(  18) = (  0.8333334  0.1666666  0.0513044  )
        19        Zn     tau(  19) = (  0.3333333  0.1666666  0.2565219  )
        20        Zn     tau(  20) = (  0.8333334  0.1666666  0.2565219  )
        21        Zn     tau(  21) = (  0.3333333  0.4166666  0.0513044  )
        22        Zn     tau(  22) = (  0.8333333  0.4166666  0.0513044  )
        23        Zn     tau(  23) = (  0.3333333  0.4166666  0.2565219  )
        24        Zn     tau(  24) = (  0.8333333  0.4166666  0.2565219  )
        25        Zn     tau(  25) = (  0.3333333  0.6666666  0.0513044  )
        26        Zn     tau(  26) = (  0.8333333  0.6666666  0.0513044  )
        27        Zn     tau(  27) = (  0.3333333  0.6666666  0.2565219  )
        28        Zn     tau(  28) = (  0.8333333  0.6666666  0.2565219  )
        29        Zn     tau(  29) = (  0.3333334  0.9166667  0.0513044  )
        30        Zn     tau(  30) = (  0.8333334  0.9166667  0.0513044  )
        31        Zn     tau(  31) = (  0.3333334  0.9166667  0.2565219  )
        32        Zn     tau(  32) = (  0.8333334  0.9166667  0.2565219  )
        33        Zn     tau(  33) = (  0.1666667  0.0833334  0.1539131  )
        34        Zn     tau(  34) = (  0.6666667  0.0833334  0.1539131  )
        35        Zn     tau(  35) = (  0.1666667  0.3333334  0.1539131  )
        36        Zn     tau(  36) = (  0.6666667  0.3333334  0.1539131  )
        37        Zn     tau(  37) = (  0.1666667  0.5833334  0.1539131  )
        38        Zn     tau(  38) = (  0.6666667  0.5833334  0.1539131  )
        39        Zn     tau(  39) = (  0.1666667  0.8333334  0.1539131  )
        40        Zn     tau(  40) = (  0.6666667  0.8333334  0.1539131  )
        41        Zn     tau(  41) = (  0.4166667  0.0833334  0.1539131  )
        42        Zn     tau(  42) = (  0.9166667  0.0833334  0.1539131  )
        43        Zn     tau(  43) = (  0.4166667  0.3333334  0.1539131  )
        44        Zn     tau(  44) = (  0.9166667  0.3333334  0.1539131  )
        45        Zn     tau(  45) = (  0.4166667  0.5833334  0.1539131  )
        46        Zn     tau(  46) = (  0.9166667  0.5833334  0.1539131  )
        47        Zn     tau(  47) = (  0.4166667  0.8333334  0.1539131  )
        48        Zn     tau(  48) = (  0.9166667  0.8333334  0.1539131  )

     number of k points=    10  Marzari-Vanderbilt smearing, width (Ry)=  0.0200
                       cart. coord. in units 2pi/alat
        k(    1) = (   0.0000000   0.0000000   0.0000000), wk =   0.1250000
        k(    2) = (   0.0000000   0.2886751   0.0000000), wk =   0.2500000
        k(    3) = (   0.0000000  -0.5773503   0.0000000), wk =   0.1250000
        k(    4) = (   0.2500000   0.1443376   0.0000000), wk =   0.2500000
        k(    5) = (   0.2500000   0.4330127   0.0000000), wk =   0.2500000
        k(    6) = (   0.2500000  -0.4330127   0.0000000), wk =   0.2500000
        k(    7) = (   0.2500000  -0.1443376   0.0000000), wk =   0.2500000
        k(    8) = (  -0.5000000  -0.2886751   0.0000000), wk =   0.1250000
        k(    9) = (  -0.5000000   0.0000000   0.0000000), wk =   0.2500000
        k(   10) = (  -0.5000000  -0.8660254   0.0000000), wk =   0.1250000

                       cryst. coord.
        k(    1) = (   0.0000000   0.0000000   0.0000000), wk =   0.1250000
        k(    2) = (   0.0000000   0.2500000   0.0000000), wk =   0.2500000
        k(    3) = (   0.0000000  -0.5000000   0.0000000), wk =   0.1250000
        k(    4) = (   0.2500000   0.0000000   0.0000000), wk =   0.2500000
        k(    5) = (   0.2500000   0.2500000   0.0000000), wk =   0.2500000
        k(    6) = (   0.2500000  -0.5000000   0.0000000), wk =   0.2500000
        k(    7) = (   0.2500000  -0.2500000   0.0000000), wk =   0.2500000
        k(    8) = (  -0.5000000   0.0000000   0.0000000), wk =   0.1250000
        k(    9) = (  -0.5000000   0.2500000   0.0000000), wk =   0.2500000
        k(   10) = (  -0.5000000  -0.5000000   0.0000000), wk =   0.1250000

     Dense  grid:   724931 G-vectors     FFT dimensions: (  90,  90, 216)

     Smooth grid:   518755 G-vectors     FFT dimensions: (  80,  80, 192)

     Dynamical RAM for                 wfc:      17.26 MB

     Dynamical RAM for     wfc (w. buffer):     189.88 MB

     Dynamical RAM for           str. fact:       0.34 MB

     Dynamical RAM for           local pot:       0.00 MB

     Dynamical RAM for          nlocal pot:      25.89 MB

     Dynamical RAM for                qrad:       1.14 MB

     Dynamical RAM for          rho,v,vnew:       2.30 MB

     Dynamical RAM for               rhoin:       0.77 MB

     Dynamical RAM for            rho*nmix:       5.36 MB

     Dynamical RAM for           G-vectors:       1.38 MB

     Dynamical RAM for          h,s,v(r/c):       2.42 MB

     Dynamical RAM for          <psi|beta>:       7.59 MB

     Dynamical RAM for                 psi:      34.52 MB

     Dynamical RAM for                hpsi:      34.52 MB

     Dynamical RAM for                spsi:      34.52 MB

     Dynamical RAM for      wfcinit/wfcrot:      46.32 MB

     Dynamical RAM for           addusdens:      78.45 MB

     Estimated static dynamical RAM per process >     224.52 MB

     Estimated max dynamical RAM per process >     343.47 MB

     Estimated total dynamical RAM >      11.07 GB

     Initial potential from superposition of free atoms

     starting charge     959.9932, renormalised to     960.0000

     negative rho (up, down):  1.159E-02 0.000E+00
     Starting wfcs are  624 randomized atomic wfcs
[psid05:11198] 32 more processes have sent help message help-mpi-btl-openib.txt / ib port not selected
[psid05:11198] Set MCA parameter "orte_base_help_aggregate" to 0 to see all help / error messages
[psid05:11198] 32 more processes have sent help message help-mpi-btl-openib.txt / error in device init

     total cpu time spent up to now is      115.3 secs

     Self-consistent Calculation

     iteration #  1     ecut=    40.00 Ry     beta= 0.40
     Davidson diagonalization with overlap

---- Real-time Memory Report at c_bands before calling an iterative solver
           293 MiB given to the printing process from OS
             0 MiB allocation reported by mallinfo(arena+hblkhd)
         71260 MiB available memory on the node where the printing process lives
------------------
     ethr =  1.00E-02,  avg # of iterations =  9.8

     Threshold (ethr) on eigenvalues was too large:
     Diagonalizing with lowered threshold

     Davidson diagonalization with overlap

---- Real-time Memory Report at c_bands before calling an iterative solver
           376 MiB given to the printing process from OS
             0 MiB allocation reported by mallinfo(arena+hblkhd)
         70551 MiB available memory on the node where the printing process lives
------------------
     ethr =  1.61E-04,  avg # of iterations = 13.0

     negative rho (up, down):  1.074E-02 0.000E+00

     total cpu time spent up to now is     1049.3 secs

     total energy              =  -22153.85646346 Ry
     estimated scf accuracy    <       1.57458287 Ry

     iteration #  2     ecut=    40.00 Ry     beta= 0.40
     Davidson diagonalization with overlap

---- Real-time Memory Report at c_bands before calling an iterative solver
           382 MiB given to the printing process from OS
             0 MiB allocation reported by mallinfo(arena+hblkhd)
         70421 MiB available memory on the node where the printing process lives
------------------
     ethr =  1.64E-04,  avg # of iterations =  2.0

     negative rho (up, down):  1.033E-02 0.000E+00

     total cpu time spent up to now is     1498.8 secs

     total energy              =  -22154.23566910 Ry
     estimated scf accuracy    <       0.27630406 Ry

     iteration #  3     ecut=    40.00 Ry     beta= 0.40
     Davidson diagonalization with overlap

---- Real-time Memory Report at c_bands before calling an iterative solver
           386 MiB given to the printing process from OS
             0 MiB allocation reported by mallinfo(arena+hblkhd)
         70401 MiB available memory on the node where the printing process lives
------------------
     ethr =  2.88E-05,  avg # of iterations =  6.0

     negative rho (up, down):  1.007E-02 0.000E+00

     total cpu time spent up to now is     1897.8 secs

     total energy              =  -22154.25248338 Ry
     estimated scf accuracy    <       0.04708741 Ry

     iteration #  4     ecut=    40.00 Ry     beta= 0.40
     Davidson diagonalization with overlap

---- Real-time Memory Report at c_bands before calling an iterative solver
           386 MiB given to the printing process from OS
             0 MiB allocation reported by mallinfo(arena+hblkhd)
         70384 MiB available memory on the node where the printing process lives
------------------
     c_bands:  1 eigenvalues not converged
     ethr =  4.90E-06,  avg # of iterations =  7.6

     negative rho (up, down):  9.804E-03 0.000E+00

     total cpu time spent up to now is     2308.7 secs

     total energy              =  -22154.25381567 Ry
     estimated scf accuracy    <       0.01510039 Ry

     iteration #  5     ecut=    40.00 Ry     beta= 0.40
     Davidson diagonalization with overlap

---- Real-time Memory Report at c_bands before calling an iterative solver
           387 MiB given to the printing process from OS
             0 MiB allocation reported by mallinfo(arena+hblkhd)
         70361 MiB available memory on the node where the printing process lives
------------------
     c_bands:  1 eigenvalues not converged
     ethr =  1.57E-06,  avg # of iterations =  6.9

     negative rho (up, down):  9.653E-03 0.000E+00

     total cpu time spent up to now is     2712.9 secs

     total energy              =  -22154.25488588 Ry
     estimated scf accuracy    <       0.00220468 Ry

     iteration #  6     ecut=    40.00 Ry     beta= 0.40
     Davidson diagonalization with overlap

---- Real-time Memory Report at c_bands before calling an iterative solver
           387 MiB given to the printing process from OS
             0 MiB allocation reported by mallinfo(arena+hblkhd)
         70345 MiB available memory on the node where the printing process lives
------------------
     ethr =  2.30E-07,  avg # of iterations =  2.0

     negative rho (up, down):  9.568E-03 0.000E+00

     total cpu time spent up to now is     3144.7 secs

     total energy              =  -22154.25531311 Ry
     estimated scf accuracy    <       0.00005135 Ry

     iteration #  7     ecut=    40.00 Ry     beta= 0.40
     Davidson diagonalization with overlap

---- Real-time Memory Report at c_bands before calling an iterative solver
           388 MiB given to the printing process from OS
             0 MiB allocation reported by mallinfo(arena+hblkhd)
         70325 MiB available memory on the node where the printing process lives
------------------
     ethr =  5.35E-09,  avg # of iterations =  2.9

     negative rho (up, down):  9.524E-03 0.000E+00

     total cpu time spent up to now is     3602.8 secs

     total energy              =  -22154.25530629 Ry
     estimated scf accuracy    <       0.00008378 Ry

     iteration #  8     ecut=    40.00 Ry     beta= 0.40
     Davidson diagonalization with overlap

---- Real-time Memory Report at c_bands before calling an iterative solver
           388 MiB given to the printing process from OS
             0 MiB allocation reported by mallinfo(arena+hblkhd)
         70305 MiB available memory on the node where the printing process lives
------------------
     ethr =  5.35E-09,  avg # of iterations =  2.0

     negative rho (up, down):  9.499E-03 0.000E+00

     total cpu time spent up to now is     4021.4 secs

     total energy              =  -22154.25530259 Ry
     estimated scf accuracy    <       0.00011758 Ry

     iteration #  9     ecut=    40.00 Ry     beta= 0.40
     Davidson diagonalization with overlap

---- Real-time Memory Report at c_bands before calling an iterative solver
           389 MiB given to the printing process from OS
             0 MiB allocation reported by mallinfo(arena+hblkhd)
         70291 MiB available memory on the node where the printing process lives
------------------
     ethr =  5.35E-09,  avg # of iterations =  2.0

     negative rho (up, down):  9.484E-03 0.000E+00

     total cpu time spent up to now is     4462.5 secs

     total energy              =  -22154.25531112 Ry
     estimated scf accuracy    <       0.00001484 Ry

     iteration # 10     ecut=    40.00 Ry     beta= 0.40
     Davidson diagonalization with overlap

---- Real-time Memory Report at c_bands before calling an iterative solver
           390 MiB given to the printing process from OS
             0 MiB allocation reported by mallinfo(arena+hblkhd)
         70270 MiB available memory on the node where the printing process lives
------------------
     ethr =  1.55E-09,  avg # of iterations =  2.0

     negative rho (up, down):  9.476E-03 0.000E+00

     total cpu time spent up to now is     4919.5 secs

     total energy              =  -22154.25531534 Ry
     estimated scf accuracy    <       0.00000120 Ry

     iteration # 11     ecut=    40.00 Ry     beta= 0.40
     Davidson diagonalization with overlap

---- Real-time Memory Report at c_bands before calling an iterative solver
           391 MiB given to the printing process from OS
             0 MiB allocation reported by mallinfo(arena+hblkhd)
         70268 MiB available memory on the node where the printing process lives
------------------
     ethr =  1.25E-10,  avg # of iterations =  1.3

     negative rho (up, down):  9.464E-03 0.000E+00

     total cpu time spent up to now is     5251.3 secs

     End of self-consistent calculation

          k = 0.0000 0.0000 0.0000 ( 64855 PWs)   bands (ev):

  -125.0681-125.0663-125.0663-125.0663-125.0663-125.0663-125.0663-125.0646
  -125.0646-125.0646-125.0646-125.0646-125.0646-125.0646-125.0646-125.0645
  -124.8637-124.8636-124.8620-124.8620-124.8620-124.8619-124.8619-124.8619
  -124.8619-124.8619-124.8619-124.8619-124.8619-124.8619-124.8602-124.8602
  -124.8602-124.8602-124.8602-124.8602-124.8602-124.8602-124.8602-124.8602
  -124.8602-124.8602-124.8602-124.8601-124.8601-124.8601-124.8601-124.8601
   -79.2344 -79.2344 -79.2344 -79.2278 -79.2278 -79.2278 -79.2278 -79.2278
   -79.2278 -79.2166 -79.2164 -79.2164 -79.2164 -79.2164 -79.2164 -79.2164
   -79.2147 -79.2147 -79.2147 -79.2147 -79.2146 -79.2146 -79.2144 -79.2144
   -79.2144 -79.2144 -79.2144 -79.2144 -79.2127 -79.2127 -79.2127 -79.2127
   -79.2127 -79.2127 -79.2127 -79.2127 -79.2126 -79.2078 -79.2078 -79.2078
   -79.2031 -79.2030 -79.2030 -79.2030 -79.2030 -79.2030 -79.1983 -79.1983
   -79.0267 -79.0267 -79.0267 -79.0267 -79.0267 -79.0267 -79.0206 -79.0204
   -79.0201 -79.0201 -79.0201 -79.0201 -79.0201 -79.0201 -79.0200 -79.0200
   -79.0200 -79.0200 -79.0200 -79.0200 -79.0187 -79.0187 -79.0187 -79.0187
   -79.0187 -79.0187 -79.0186 -79.0186 -79.0186 -79.0186 -79.0186 -79.0186
   -79.0168 -79.0168 -79.0168 -79.0168 -79.0168 -79.0168 -79.0167 -79.0167
   -79.0167 -79.0167 -79.0167 -79.0167 -79.0167 -79.0167 -79.0167 -79.0167
   -79.0167 -79.0167 -79.0088 -79.0088 -79.0088 -79.0088 -79.0088 -79.0088
   -79.0087 -79.0087 -79.0087 -79.0087 -79.0087 -79.0087 -79.0067 -79.0067
   -79.0067 -79.0067 -79.0067 -79.0067 -79.0067 -79.0067 -79.0067 -79.0067
   -79.0067 -79.0067 -79.0002 -79.0002 -79.0002 -79.0001 -79.0001 -79.0001
   -78.9954 -78.9954 -78.9954 -78.9954 -78.9954 -78.9954 -78.9954 -78.9954
   -78.9954 -78.9954 -78.9954 -78.9954 -78.9907 -78.9907 -78.9907 -78.9907
    -8.6229  -7.4007  -7.0926  -7.0689  -7.0689  -7.0689  -7.0689  -7.0689
    -7.0689  -6.9150  -6.9150  -6.9150  -6.7260  -6.7260  -6.7260  -6.6784
    -6.6784  -6.6784  -6.5895  -6.5895  -6.5895  -6.5895  -6.5895  -6.5895
    -6.5403  -6.5403  -6.5403  -6.5403  -6.5403  -6.5403  -6.5369  -6.5369
    -6.5369  -6.4794  -6.4794  -6.4794  -6.4794  -6.4794  -6.4794  -6.4327
    -6.4327  -6.4327  -6.4327  -6.4327  -6.4327  -6.3353  -6.3353  -6.3353
    -6.3353  -6.3353  -6.3353  -6.3337  -6.3337  -6.3337  -6.2739  -6.2739
    -6.2739  -6.2739  -6.2739  -6.2739  -6.2706  -6.2118  -6.2118  -6.2118
    -6.2118  -6.2118  -6.2118  -6.1719  -6.1719  -6.1719  -6.1719  -6.1719
    -6.1719  -6.1463  -6.1463  -6.1463  -6.1463  -6.1463  -6.1463  -6.1227
    -6.1227  -6.1227  -6.1227  -6.1227  -6.1227  -6.1227  -6.1227  -6.0977
    -6.0977  -6.0977  -6.0970  -6.0970  -6.0970  -6.0970  -6.0970  -6.0970
    -5.9947  -5.9947  -5.9947  -5.9947  -5.9947  -5.9947  -5.9169  -5.9169
    -5.8981  -5.8981  -5.8659  -5.8659  -5.8659  -5.8659  -5.8659  -5.8659
    -5.8637  -5.8637  -5.8637  -5.8637  -5.8637  -5.8637  -5.8325  -5.8325
    -5.8325  -5.7833  -5.7833  -5.7833  -5.7833  -5.7833  -5.7833  -5.7769
    -5.7769  -5.7769  -5.7769  -5.7769  -5.7769  -5.7766  -5.7766  -5.7766
    -5.7766  -5.7766  -5.7766  -5.7547  -5.7547  -5.7547  -5.7547  -5.7547
    -5.7547  -5.7455  -5.7455  -5.7455  -5.7455  -5.7455  -5.7455  -5.7286
    -5.7286  -5.7286  -5.7286  -5.7286  -5.7286  -5.7163  -5.7094  -5.7094
    -5.7094  -5.7094  -5.7094  -5.7094  -5.6976  -5.6976  -5.6976  -5.6111
    -5.6111  -5.5756  -5.5756  -5.5756  -5.5756  -5.5756  -5.5756  -5.5693
    -5.5693  -5.5693  -5.5693  -5.5693  -5.5693  -5.5460  -5.5460  -5.5460
    -5.5460  -5.5460  -5.5460  -5.5296  -5.5296  -5.5296  -5.5029  -5.5029
    -5.5029  -5.5029  -5.5029  -5.5029  -5.4942  -5.4942  -5.4942  -5.4942
    -5.4942  -5.4942  -5.4460  -5.4460  -5.4460  -5.4460  -5.4460  -5.4460
    -5.4344  -5.4344  -5.4344  -5.4336  -5.4336  -5.4336  -5.3978  -5.3978
    -5.3978  -5.3913  -5.3913  -5.3913  -5.3913  -5.3913  -5.3913  -5.3836
    -5.3836  -5.3624  -5.3624  -5.3202  -5.3202  -5.3202  -5.3202  -5.3202
    -5.3202  -5.2906  -5.2906  -5.2906  -5.2906  -5.2906  -5.2906  -5.2816
    -5.2816  -5.2816  -5.0718  -5.0718  -5.0718  -5.0717  -5.0717  -5.0717
    -4.3980  -4.3980  -4.3980  -4.3980  -4.3980  -4.3980  -3.4507  -2.1041
    -2.1041  -2.1041  -2.1041  -2.1041  -2.1041  -2.0205  -2.0205  -2.0205
    -2.0205  -2.0205  -2.0205  -0.8430  -0.8430  -0.8430  -0.7127  -0.6406
    -0.6406  -0.6406  -0.6406  -0.6406  -0.6406  -0.0850  -0.0850  -0.0850
     0.2445   0.2445   0.2445   1.5358   1.5358   1.5358   1.5358   1.5358
     1.5358   1.5802   1.5802   1.5802   1.5802   1.5802   1.5802   2.3086
     2.3086   2.3086   3.1063   3.3006   3.3006   3.3006   4.1410   4.1410
     4.1410   4.8819   4.8819   4.8819   4.8819   4.8819   4.8819   5.0476
     5.1939   5.4267   5.4267   5.4267   5.4267   5.4267   5.4267   5.4342
     5.4342   5.4342   5.4342   5.4342   5.4342   5.6047   5.6047   5.6047
     5.6047   5.6047   5.6047   6.1586   6.3393   6.5618   6.5618   6.5618
     6.8480   6.8480   6.8480   6.8482   6.8482   6.8482   7.0103   7.0103
     7.0103   7.0103   7.0103   7.0103   7.0296   7.0296   7.0296   7.0298
     7.0298   7.0298   7.1882   7.1882   7.1882   7.1882   7.1882   7.1882
     7.9978   7.9978   7.9978   7.9979   7.9979   7.9979   8.1262   8.1262
     8.1262   8.1266   8.1266   8.1266   8.1439   8.1439   8.1439   8.1439
     8.1439   8.1439   8.1545   8.3259   8.3752   8.3752   8.3752   9.2805

     occupation numbers 
     1.0000   1.0000   1.0000   1.0000   1.0000   1.0000   1.0000   1.0000
     1.0000   1.0000   1.0000   1.0000   1.0000   1.0000   1.0000   1.0000
     1.0000   1.0000   1.0000   1.0000   1.0000   1.0000   1.0000   1.0000
     1.0000   1.0000   1.0000   1.0000   1.0000   1.0000   1.0000   1.0000
     1.0000   1.0000   1.0000   1.0000   1.0000   1.0000   1.0000   1.0000
     1.0000   1.0000   1.0000   1.0000   1.0000   1.0000   1.0000   1.0000
     1.0000   1.0000   1.0000   1.0000   1.0000   1.0000   1.0000   1.0000
     1.0000   1.0000   1.0000   1.0000   1.0000   1.0000   1.0000   1.0000
     1.0000   1.0000   1.0000   1.0000   1.0000   1.0000   1.0000   1.0000
     1.0000   1.0000   1.0000   1.0000   1.0000   1.0000   1.0000   1.0000
     1.0000   1.0000   1.0000   1.0000   1.0000   1.0000   1.0000   1.0000
     1.0000   1.0000   1.0000   1.0000   1.0000   1.0000   1.0000   1.0000
     1.0000   1.0000   1.0000   1.0000   1.0000   1.0000   1.0000   1.0000
     1.0000   1.0000   1.0000   1.0000   1.0000   1.0000   1.0000   1.0000
     1.0000   1.0000   1.0000   1.0000   1.0000   1.0000   1.0000   1.0000
     1.0000   1.0000   1.0000   1.0000   1.0000   1.0000   1.0000   1.0000
     1.0000   1.0000   1.0000   1.0000   1.0000   1.0000   1.0000   1.0000
     1.0000   1.0000   1.0000   1.0000   1.0000   1.0000   1.0000   1.0000
     1.0000   1.0000   1.0000   1.0000   1.0000   1.0000   1.0000   1.0000
     1.0000   1.0000   1.0000   1.0000   1.0000   1.0000   1.0000   1.0000
     1.0000   1.0000   1.0000   1.0000   1.0000   1.0000   1.0000   1.0000
     1.0000   1.0000   1.0000   1.0000   1.0000   1.0000   1.0000   1.0000
     1.0000   1.0000   1.0000   1.0000   1.0000   1.0000   1.0000   1.0000
     1.0000   1.0000   1.0000   1.0000   1.0000   1.0000   1.0000   1.0000
     1.0000   1.0000   1.0000   1.0000   1.0000   1.0000   1.0000   1.0000
     1.0000   1.0000   1.0000   1.0000   1.0000   1.0000   1.0000   1.0000
     1.0000   1.0000   1.0000   1.0000   1.0000   1.0000   1.0000   1.0000
     1.0000   1.0000   1.0000   1.0000   1.0000   1.0000   1.0000   1.0000
     1.0000   1.0000   1.0000   1.0000   1.0000   1.0000   1.0000   1.0000
     1.0000   1.0000   1.0000   1.0000   1.0000   1.0000   1.0000   1.0000
     1.0000   1.0000   1.0000   1.0000   1.0000   1.0000   1.0000   1.0000
     1.0000   1.0000   1.0000   1.0000   1.0000   1.0000   1.0000   1.0000
     1.0000   1.0000   1.0000   1.0000   1.0000   1.0000   1.0000   1.0000
     1.0000   1.0000   1.0000   1.0000   1.0000   1.0000   1.0000   1.0000
     1.0000   1.0000   1.0000   1.0000   1.0000   1.0000   1.0000   1.0000
     1.0000   1.0000   1.0000   1.0000   1.0000   1.0000   1.0000   1.0000
     1.0000   1.0000   1.0000   1.0000   1.0000   1.0000   1.0000   1.0000
     1.0000   1.0000   1.0000   1.0000   1.0000   1.0000   1.0000   1.0000
     1.0000   1.0000   1.0000   1.0000   1.0000   1.0000   1.0000   1.0000
     1.0000   1.0000   1.0000   1.0000   1.0000   1.0000   1.0000   1.0000
     1.0000   1.0000   1.0000   1.0000   1.0000   1.0000   1.0000   1.0000
     1.0000   1.0000   1.0000   1.0000   1.0000   1.0000   1.0000   1.0000
     1.0000   1.0000   1.0000   1.0000   1.0000   1.0000   1.0000   1.0000
     1.0000   1.0000   1.0000   1.0000   1.0000   1.0000   1.0000   1.0000
     1.0000   1.0000   1.0000   1.0000   1.0000   1.0000   1.0000   1.0000
     1.0000   1.0000   1.0000   1.0000   1.0000   1.0000   1.0000   1.0000
     1.0000   1.0000   1.0000   1.0000   1.0000   1.0000   1.0000   1.0000
     1.0000   1.0000   1.0000   1.0000   1.0000   1.0000   1.0000   1.0000
     1.0000   1.0000   1.0000   1.0000   1.0000   1.0000   1.0000   1.0000
     1.0000   1.0000   1.0000   1.0000   1.0000   1.0000   1.0000   1.0000
     1.0000   1.0000   1.0000   1.0000   1.0000   1.0000   1.0000   1.0000
     1.0000   1.0000   1.0000   1.0000   1.0000   1.0000   1.0000   1.0000
     1.0000   1.0000   1.0000   1.0000   1.0000   1.0000   1.0000   1.0000
     1.0000   1.0000   1.0000   1.0000   1.0000   1.0000   1.0000   1.0000
     1.0000   1.0000   1.0000   1.0000   1.0000   1.0000   1.0000   1.0000
     1.0000   1.0000   1.0000   1.0000   1.0000   1.0000   1.0000   1.0000
     1.0000   1.0000   1.0000   1.0000   1.0000   1.0000   1.0000   1.0000
     1.0000   1.0000   1.0000   1.0000   1.0000   1.0000   1.0000   1.0000
     1.0000   1.0000   1.0000   1.0000   1.0000   1.0000   1.0000   1.0000
     1.0000   1.0000   1.0000   0.1848   0.1848   0.1848   0.1848   0.1848
     0.1848   0.1223   0.1223   0.1223   0.1223   0.1223   0.1223   0.0000
     0.0000   0.0000   0.0000   0.0000   0.0000   0.0000   0.0000   0.0000
     0.0000   0.0000   0.0000   0.0000   0.0000   0.0000   0.0000   0.0000
     0.0000   0.0000   0.0000   0.0000   0.0000   0.0000   0.0000   0.0000
     0.0000   0.0000   0.0000   0.0000   0.0000   0.0000   0.0000   0.0000
     0.0000   0.0000   0.0000   0.0000   0.0000   0.0000   0.0000   0.0000
     0.0000   0.0000   0.0000   0.0000   0.0000   0.0000   0.0000   0.0000
     0.0000   0.0000   0.0000   0.0000   0.0000   0.0000   0.0000   0.0000
     0.0000   0.0000   0.0000   0.0000   0.0000   0.0000   0.0000   0.0000
     0.0000   0.0000   0.0000   0.0000   0.0000   0.0000   0.0000   0.0000
     0.0000   0.0000   0.0000   0.0000   0.0000   0.0000   0.0000   0.0000
     0.0000   0.0000   0.0000   0.0000   0.0000   0.0000   0.0000   0.0000

          k = 0.0000 0.2887 0.0000 ( 64808 PWs)   bands (ev):

  -125.0679-125.0670-125.0666-125.0666-125.0659-125.0659-125.0657-125.0650
  -125.0650-125.0647-125.0646-125.0646-125.0646-125.0646-125.0643-125.0643
  -124.8636-124.8635-124.8626-124.8626-124.8622-124.8622-124.8622-124.8622
  -124.8616-124.8616-124.8615-124.8615-124.8613-124.8612-124.8606-124.8606
  -124.8606-124.8605-124.8603-124.8603-124.8602-124.8602-124.8602-124.8602
  -124.8601-124.8601-124.8601-124.8601-124.8599-124.8599-124.8599-124.8599
   -79.2337 -79.2337 -79.2330 -79.2291 -79.2291 -79.2282 -79.2282 -79.2263
   -79.2263 -79.2233 -79.2201 -79.2201 -79.2174 -79.2174 -79.2165 -79.2154
   -79.2150 -79.2150 -79.2142 -79.2142 -79.2139 -79.2134 -79.2134 -79.2131
   -79.2131 -79.2131 -79.2131 -79.2128 -79.2127 -79.2127 -79.2127 -79.2127
   -79.2124 -79.2124 -79.2107 -79.2107 -79.2095 -79.2085 -79.2085 -79.2074
   -79.2049 -79.2046 -79.2046 -79.2026 -79.2026 -79.2012 -79.1997 -79.1987
   -79.0260 -79.0260 -79.0259 -79.0259 -79.0254 -79.0253 -79.0214 -79.0214
   -79.0213 -79.0213 -79.0205 -79.0205 -79.0205 -79.0204 -79.0204 -79.0203
   -79.0194 -79.0193 -79.0190 -79.0190 -79.0189 -79.0189 -79.0186 -79.0186
   -79.0185 -79.0185 -79.0182 -79.0182 -79.0181 -79.0181 -79.0179 -79.0179
   -79.0172 -79.0172 -79.0171 -79.0171 -79.0169 -79.0168 -79.0168 -79.0168
   -79.0168 -79.0167 -79.0167 -79.0167 -79.0167 -79.0167 -79.0165 -79.0165
   -79.0164 -79.0164 -79.0156 -79.0156 -79.0125 -79.0125 -79.0124 -79.0124
   -79.0098 -79.0098 -79.0097 -79.0097 -79.0057 -79.0057 -79.0057 -79.0057
   -79.0054 -79.0054 -79.0054 -79.0054 -79.0031 -79.0031 -79.0030 -79.0030
   -79.0019 -79.0018 -79.0009 -79.0009 -79.0008 -79.0008 -78.9998 -78.9997
   -78.9972 -78.9972 -78.9969 -78.9969 -78.9969 -78.9969 -78.9950 -78.9950
   -78.9949 -78.9949 -78.9936 -78.9936 -78.9921 -78.9920 -78.9911 -78.9910
    -8.5041  -7.6206  -7.3008  -7.2486  -7.2486  -7.0301  -6.8988  -6.8726
    -6.8726  -6.8499  -6.8465  -6.8465  -6.7072  -6.6922  -6.6922  -6.6911
    -6.6757  -6.6631  -6.6387  -6.6387  -6.5904  -6.5809  -6.5777  -6.5777
    -6.5682  -6.5682  -6.5487  -6.5487  -6.5288  -6.5288  -6.5190  -6.5190
    -6.5174  -6.5126  -6.5126  -6.5097  -6.5097  -6.5028  -6.5028  -6.4870
    -6.4870  -6.4613  -6.4613  -6.4237  -6.4237  -6.3956  -6.3956  -6.3807
    -6.3807  -6.3764  -6.3224  -6.3176  -6.3176  -6.3161  -6.3161  -6.3158
    -6.3158  -6.2694  -6.2694  -6.2597  -6.2523  -6.2301  -6.2301  -6.2238
    -6.2238  -6.2222  -6.2222  -6.2222  -6.2089  -6.2089  -6.2051  -6.2051
    -6.1960  -6.1960  -6.1844  -6.1844  -6.1804  -6.1787  -6.1787  -6.1548
    -6.1384  -6.1239  -6.1239  -6.1148  -6.1148  -6.1009  -6.1009  -6.0935
    -6.0908  -6.0908  -6.0784  -6.0639  -6.0639  -6.0502  -6.0502  -6.0491
    -6.0491  -5.9595  -5.9595  -5.9594  -5.9594  -5.9441  -5.9414  -5.9375
    -5.9374  -5.9352  -5.9352  -5.9246  -5.9246  -5.9132  -5.9116  -5.9116
    -5.8934  -5.8934  -5.8896  -5.8860  -5.8819  -5.8744  -5.8744  -5.8690
    -5.8465  -5.8465  -5.8395  -5.8395  -5.8255  -5.8118  -5.7958  -5.7958
    -5.7958  -5.7958  -5.7870  -5.7870  -5.7770  -5.7770  -5.7763  -5.7734
    -5.7734  -5.7558  -5.7558  -5.7479  -5.7479  -5.7405  -5.7307  -5.7307
    -5.7147  -5.7133  -5.7133  -5.7056  -5.7056  -5.6977  -5.6977  -5.6954
    -5.6954  -5.6926  -5.6926  -5.6795  -5.6682  -5.6682  -5.6574  -5.6444
    -5.6397  -5.6397  -5.6338  -5.6338  -5.6188  -5.6188  -5.6175  -5.6166
    -5.6166  -5.6128  -5.6117  -5.6056  -5.6056  -5.5801  -5.5642  -5.5609
    -5.5609  -5.5566  -5.5566  -5.5481  -5.5480  -5.5457  -5.5457  -5.5441
    -5.5441  -5.5413  -5.5269  -5.5269  -5.5260  -5.5216  -5.5216  -5.5127
    -5.5127  -5.4917  -5.4917  -5.4630  -5.4605  -5.4582  -5.4582  -5.4543
    -5.4543  -5.4519  -5.4519  -5.4399  -5.4399  -5.4307  -5.4260  -5.4260
    -5.4236  -5.4200  -5.4145  -5.4142  -5.4028  -5.4028  -5.3997  -5.3997
    -5.3886  -5.3872  -5.3872  -5.3806  -5.3688  -5.3688  -5.3645  -5.3594
    -5.3459  -5.3459  -5.3415  -5.3327  -5.3205  -5.3205  -5.3142  -5.3117
    -5.3117  -5.3020  -5.3020  -5.2934  -5.2934  -5.2829  -5.2829  -5.1441
    -5.1441  -5.1298  -5.1298  -5.1243  -5.1243  -5.1059  -5.1052  -4.9477
    -4.9348  -4.6388  -4.6388  -3.8815  -3.8815  -3.4804  -3.3943  -3.3943
    -3.3657  -2.6740  -2.3022  -2.3022  -2.2225  -2.0216  -2.0216  -1.9718
    -1.9718  -1.5153  -1.5153  -1.2926  -1.2926  -1.1173  -0.7954  -0.5734
    -0.5734  -0.5613  -0.5613  -0.5526   0.0234   0.0234   0.2686   0.2686
     0.5596   0.5596   0.6330   0.8761   0.8979   0.8979   1.1831   1.1831
     1.5560   1.5560   2.2259   2.2259   2.6468   2.6961   2.6961   2.7205
     2.7821   2.7821   2.9495   2.9495   3.2182   3.5461   3.6902   3.6902
     3.9082   3.9082   4.1106   4.1846   4.1846   4.5547   4.5547   4.8013
     4.8013   4.8427   4.8427   5.1513   5.1513   5.1600   5.1600   5.1606
     5.3089   5.4245   5.4245   5.5679   5.6423   5.7930   5.7930   5.8053
     6.0633   6.0936   6.0936   6.2276   6.2747   6.3126   6.3126   6.4517
     6.5135   6.5135   6.5940   6.5940   6.6864   6.6864   6.7096   7.0097
     7.0097   7.0864   7.0864   7.1708   7.1708   7.1994   7.3084   7.3084
     7.3496   7.3999   7.3999   7.4468   7.4468   7.5976   7.5976   7.6562
     7.6562   7.6589   7.6589   7.7287   7.7968   7.7968   7.9454   7.9454
     8.0198   8.0198   8.0619   8.2701   8.2936   8.4376   8.5966   8.5966
     8.6505   8.6506   8.6946   8.8074   8.8075   8.8243   8.8243   8.8358

     occupation numbers 
     1.0000   1.0000   1.0000   1.0000   1.0000   1.0000   1.0000   1.0000
     1.0000   1.0000   1.0000   1.0000   1.0000   1.0000   1.0000   1.0000
     1.0000   1.0000   1.0000   1.0000   1.0000   1.0000   1.0000   1.0000
     1.0000   1.0000   1.0000   1.0000   1.0000   1.0000   1.0000   1.0000
     1.0000   1.0000   1.0000   1.0000   1.0000   1.0000   1.0000   1.0000
     1.0000   1.0000   1.0000   1.0000   1.0000   1.0000   1.0000   1.0000
     1.0000   1.0000   1.0000   1.0000   1.0000   1.0000   1.0000   1.0000
     1.0000   1.0000   1.0000   1.0000   1.0000   1.0000   1.0000   1.0000
     1.0000   1.0000   1.0000   1.0000   1.0000   1.0000   1.0000   1.0000
     1.0000   1.0000   1.0000   1.0000   1.0000   1.0000   1.0000   1.0000
     1.0000   1.0000   1.0000   1.0000   1.0000   1.0000   1.0000   1.0000
     1.0000   1.0000   1.0000   1.0000   1.0000   1.0000   1.0000   1.0000
     1.0000   1.0000   1.0000   1.0000   1.0000   1.0000   1.0000   1.0000
     1.0000   1.0000   1.0000   1.0000   1.0000   1.0000   1.0000   1.0000
     1.0000   1.0000   1.0000   1.0000   1.0000   1.0000   1.0000   1.0000
     1.0000   1.0000   1.0000   1.0000   1.0000   1.0000   1.0000   1.0000
     1.0000   1.0000   1.0000   1.0000   1.0000   1.0000   1.0000   1.0000
     1.0000   1.0000   1.0000   1.0000   1.0000   1.0000   1.0000   1.0000
     1.0000   1.0000   1.0000   1.0000   1.0000   1.0000   1.0000   1.0000
     1.0000   1.0000   1.0000   1.0000   1.0000   1.0000   1.0000   1.0000
     1.0000   1.0000   1.0000   1.0000   1.0000   1.0000   1.0000   1.0000
     1.0000   1.0000   1.0000   1.0000   1.0000   1.0000   1.0000   1.0000
     1.0000   1.0000   1.0000   1.0000   1.0000   1.0000   1.0000   1.0000
     1.0000   1.0000   1.0000   1.0000   1.0000   1.0000   1.0000   1.0000
     1.0000   1.0000   1.0000   1.0000   1.0000   1.0000   1.0000   1.0000
     1.0000   1.0000   1.0000   1.0000   1.0000   1.0000   1.0000   1.0000
     1.0000   1.0000   1.0000   1.0000   1.0000   1.0000   1.0000   1.0000
     1.0000   1.0000   1.0000   1.0000   1.0000   1.0000   1.0000   1.0000
     1.0000   1.0000   1.0000   1.0000   1.0000   1.0000   1.0000   1.0000
     1.0000   1.0000   1.0000   1.0000   1.0000   1.0000   1.0000   1.0000
     1.0000   1.0000   1.0000   1.0000   1.0000   1.0000   1.0000   1.0000
     1.0000   1.0000   1.0000   1.0000   1.0000   1.0000   1.0000   1.0000
     1.0000   1.0000   1.0000   1.0000   1.0000   1.0000   1.0000   1.0000
     1.0000   1.0000   1.0000   1.0000   1.0000   1.0000   1.0000   1.0000
     1.0000   1.0000   1.0000   1.0000   1.0000   1.0000   1.0000   1.0000
     1.0000   1.0000   1.0000   1.0000   1.0000   1.0000   1.0000   1.0000
     1.0000   1.0000   1.0000   1.0000   1.0000   1.0000   1.0000   1.0000
     1.0000   1.0000   1.0000   1.0000   1.0000   1.0000   1.0000   1.0000
     1.0000   1.0000   1.0000   1.0000   1.0000   1.0000   1.0000   1.0000
     1.0000   1.0000   1.0000   1.0000   1.0000   1.0000   1.0000   1.0000
     1.0000   1.0000   1.0000   1.0000   1.0000   1.0000   1.0000   1.0000
     1.0000   1.0000   1.0000   1.0000   1.0000   1.0000   1.0000   1.0000
     1.0000   1.0000   1.0000   1.0000   1.0000   1.0000   1.0000   1.0000
     1.0000   1.0000   1.0000   1.0000   1.0000   1.0000   1.0000   1.0000
     1.0000   1.0000   1.0000   1.0000   1.0000   1.0000   1.0000   1.0000
     1.0000   1.0000   1.0000   1.0000   1.0000   1.0000   1.0000   1.0000
     1.0000   1.0000   1.0000   1.0000   1.0000   1.0000   1.0000   1.0000
     1.0000   1.0000   1.0000   1.0000   1.0000   1.0000   1.0000   1.0000
     1.0000   1.0000   1.0000   1.0000   1.0000   1.0000   1.0000   1.0000
     1.0000   1.0000   1.0000   1.0000   1.0000   1.0000   1.0000   1.0000
     1.0000   1.0000   1.0000   1.0000   1.0000   1.0000   1.0000   1.0000
     1.0000   1.0000   1.0000   1.0000   1.0000   1.0000   1.0000   1.0000
     1.0000   1.0000   1.0000   1.0000   1.0000   1.0000   1.0000   1.0000
     1.0000   1.0000   1.0000   1.0000   1.0000   1.0000   1.0000   1.0000
     1.0000   1.0000   1.0000   1.0000   1.0000   1.0000   1.0000   1.0000
     1.0000   1.0000   1.0000   1.0000   1.0000   1.0000   1.0000   1.0000
     1.0000   1.0000   1.0000   1.0000   1.0000   1.0000   1.0000   1.0000
     1.0000   1.0000   1.0000   1.0000   1.0000   1.0000   1.0000   1.0000
     1.0000   1.0000   1.0000   1.0000   1.0000   1.0000   1.0000   1.0000
     1.0006   1.0006   1.0019   1.0374   1.0443   1.0443   0.9985   0.9985
     0.1541   0.1541   0.0000   0.0000   0.0000   0.0000   0.0000   0.0000
     0.0000   0.0000   0.0000   0.0000   0.0000   0.0000   0.0000   0.0000
     0.0000   0.0000   0.0000   0.0000   0.0000   0.0000   0.0000   0.0000
     0.0000   0.0000   0.0000   0.0000   0.0000   0.0000   0.0000   0.0000
     0.0000   0.0000   0.0000   0.0000   0.0000   0.0000   0.0000   0.0000
     0.0000   0.0000   0.0000   0.0000   0.0000   0.0000   0.0000   0.0000
     0.0000   0.0000   0.0000   0.0000   0.0000   0.0000   0.0000   0.0000
     0.0000   0.0000   0.0000   0.0000   0.0000   0.0000   0.0000   0.0000
     0.0000   0.0000   0.0000   0.0000   0.0000   0.0000   0.0000   0.0000
     0.0000   0.0000   0.0000   0.0000   0.0000   0.0000   0.0000   0.0000
     0.0000   0.0000   0.0000   0.0000   0.0000   0.0000   0.0000   0.0000
     0.0000   0.0000   0.0000   0.0000   0.0000   0.0000   0.0000   0.0000

          k = 0.0000-0.5774 0.0000 ( 64842 PWs)   bands (ev):

  -125.0676-125.0675-125.0667-125.0667-125.0655-125.0655-125.0655-125.0654
  -125.0651-125.0651-125.0646-125.0646-125.0646-125.0646-125.0642-125.0642
  -124.8632-124.8632-124.8631-124.8631-124.8623-124.8623-124.8622-124.8622
  -124.8611-124.8611-124.8611-124.8611-124.8610-124.8610-124.8610-124.8610
  -124.8607-124.8607-124.8607-124.8607-124.8602-124.8602-124.8602-124.8602
  -124.8601-124.8601-124.8601-124.8601-124.8598-124.8598-124.8598-124.8598
   -79.2316 -79.2316 -79.2316 -79.2316 -79.2292 -79.2292 -79.2281 -79.2281
   -79.2236 -79.2236 -79.2236 -79.2236 -79.2187 -79.2187 -79.2161 -79.2161
   -79.2151 -79.2151 -79.2137 -79.2137 -79.2137 -79.2137 -79.2133 -79.2132
   -79.2127 -79.2127 -79.2127 -79.2127 -79.2123 -79.2123 -79.2121 -79.2121
   -79.2106 -79.2105 -79.2105 -79.2105 -79.2072 -79.2072 -79.2072 -79.2072
   -79.2064 -79.2064 -79.2036 -79.2036 -79.2026 -79.2026 -79.1997 -79.1997
   -79.0239 -79.0239 -79.0239 -79.0239 -79.0239 -79.0239 -79.0239 -79.0239
   -79.0215 -79.0215 -79.0214 -79.0214 -79.0204 -79.0204 -79.0204 -79.0204
   -79.0200 -79.0200 -79.0199 -79.0199 -79.0191 -79.0191 -79.0189 -79.0189
   -79.0177 -79.0177 -79.0177 -79.0177 -79.0176 -79.0176 -79.0176 -79.0176
   -79.0173 -79.0173 -79.0172 -79.0172 -79.0168 -79.0168 -79.0168 -79.0167
   -79.0167 -79.0167 -79.0167 -79.0167 -79.0164 -79.0164 -79.0163 -79.0163
   -79.0159 -79.0159 -79.0159 -79.0159 -79.0159 -79.0159 -79.0159 -79.0159
   -79.0110 -79.0110 -79.0110 -79.0110 -79.0045 -79.0045 -79.0044 -79.0044
   -79.0029 -79.0029 -79.0029 -79.0029 -79.0029 -79.0029 -79.0029 -79.0029
   -78.9996 -78.9996 -78.9996 -78.9996 -78.9995 -78.9995 -78.9995 -78.9995
   -78.9988 -78.9988 -78.9987 -78.9987 -78.9960 -78.9960 -78.9959 -78.9959
   -78.9950 -78.9950 -78.9950 -78.9950 -78.9921 -78.9921 -78.9920 -78.9920
    -8.1562  -8.1562  -7.3173  -7.3173  -7.0263  -7.0263  -6.8646  -6.8646
    -6.8602  -6.8602  -6.7502  -6.7502  -6.7502  -6.7502  -6.6541  -6.6541
    -6.6475  -6.6475  -6.6475  -6.6475  -6.6251  -6.6251  -6.6075  -6.6075
    -6.6075  -6.6075  -6.5542  -6.5542  -6.5293  -6.5293  -6.5293  -6.5293
    -6.5065  -6.5065  -6.4880  -6.4880  -6.4880  -6.4880  -6.4636  -6.4636
    -6.4636  -6.4636  -6.4613  -6.4613  -6.4502  -6.4502  -6.4266  -6.4266
    -6.4223  -6.4223  -6.4223  -6.4223  -6.3107  -6.3107  -6.3019  -6.3019
    -6.2935  -6.2935  -6.2935  -6.2935  -6.2920  -6.2920  -6.2711  -6.2711
    -6.2711  -6.2711  -6.2368  -6.2368  -6.2216  -6.2216  -6.2215  -6.2215
    -6.2065  -6.2065  -6.2015  -6.2015  -6.1706  -6.1706  -6.1425  -6.1425
    -6.1122  -6.1122  -6.1037  -6.1037  -6.0829  -6.0829  -6.0829  -6.0829
    -6.0622  -6.0622  -6.0622  -6.0622  -6.0424  -6.0424  -6.0327  -6.0327
    -6.0264  -6.0264  -6.0226  -6.0226  -6.0096  -6.0096  -5.9903  -5.9903
    -5.9903  -5.9903  -5.9472  -5.9472  -5.9461  -5.9461  -5.9157  -5.9157
    -5.9057  -5.9057  -5.8723  -5.8723  -5.8723  -5.8723  -5.8153  -5.8153
    -5.8096  -5.8096  -5.8090  -5.8090  -5.8090  -5.8090  -5.8056  -5.8056
    -5.7876  -5.7876  -5.7852  -5.7852  -5.7763  -5.7763  -5.7763  -5.7763
    -5.7684  -5.7684  -5.7679  -5.7679  -5.7679  -5.7679  -5.7562  -5.7562
    -5.7542  -5.7542  -5.7542  -5.7542  -5.6756  -5.6756  -5.6742  -5.6742
    -5.6674  -5.6674  -5.6459  -5.6459  -5.6459  -5.6459  -5.6314  -5.6314
    -5.6241  -5.6241  -5.6049  -5.6049  -5.6049  -5.6049  -5.5947  -5.5947
    -5.5706  -5.5706  -5.5439  -5.5439  -5.5293  -5.5293  -5.5293  -5.5293
    -5.5266  -5.5266  -5.5266  -5.5266  -5.5235  -5.5235  -5.5212  -5.5212
    -5.4993  -5.4993  -5.4993  -5.4993  -5.4892  -5.4892  -5.4889  -5.4889
    -5.4872  -5.4872  -5.4794  -5.4794  -5.4643  -5.4643  -5.4643  -5.4643
    -5.4517  -5.4517  -5.4517  -5.4517  -5.4400  -5.4400  -5.4230  -5.4230
    -5.4160  -5.4160  -5.4160  -5.4160  -5.4127  -5.4127  -5.4121  -5.4121
    -5.4056  -5.4056  -5.4028  -5.4028  -5.4006  -5.4006  -5.3707  -5.3707
    -5.3632  -5.3632  -5.3632  -5.3632  -5.3246  -5.3246  -5.3246  -5.3246
    -5.2546  -5.2546  -5.2546  -5.2546  -5.2357  -5.2357  -5.2347  -5.2347
    -5.2347  -5.2347  -5.2018  -5.2018  -5.1991  -5.1991  -4.7025  -4.7025
    -4.4188  -4.4188  -4.4188  -4.4188  -3.7287  -3.7287  -3.1109  -3.1109
    -3.0620  -3.0620  -3.0620  -3.0620  -2.3918  -2.3918  -2.2402  -2.2402
    -1.7583  -1.7583  -1.7583  -1.7583  -0.7557  -0.7557  -0.7557  -0.7557
    -0.3258  -0.3258  -0.3258  -0.3258  -0.0907  -0.0907   0.0127   0.0127
     1.0209   1.0209   1.0489   1.0489   1.3377   1.3377   1.3696   1.3696
     1.3696   1.3696   2.2232   2.2232   2.8996   2.8996   2.8997   2.8997
     3.1013   3.1013   3.1013   3.1013   3.3219   3.3219   3.5536   3.5536
     3.8663   3.8663   3.8663   3.8663   3.9979   3.9980   4.2576   4.2576
     4.4456   4.4456   4.7456   4.7456   4.8577   4.8577   5.4821   5.4821
     5.4994   5.4994   5.6536   5.6536   5.8007   5.8007   5.9293   5.9293
     5.9293   5.9293   5.9828   5.9828   5.9828   5.9828   6.1526   6.1526
     6.1526   6.1526   6.4017   6.4017   6.5594   6.5594   6.5719   6.5719
     6.6223   6.6223   6.7889   6.7889   6.8655   6.8655   7.0133   7.0133
     7.0133   7.0133   7.5449   7.5449   7.6862   7.6862   8.0642   8.0642
     8.0763   8.0763   8.0765   8.0765   8.2773   8.2773   8.4051   8.4051
     8.4053   8.4053   8.6116   8.6116   8.6117   8.6117   8.6161   8.6161
     8.7362   8.7362   8.7716   8.7716   8.9981   8.9981   8.9981   8.9981

     occupation numbers 
     1.0000   1.0000   1.0000   1.0000   1.0000   1.0000   1.0000   1.0000
     1.0000   1.0000   1.0000   1.0000   1.0000   1.0000   1.0000   1.0000
     1.0000   1.0000   1.0000   1.0000   1.0000   1.0000   1.0000   1.0000
     1.0000   1.0000   1.0000   1.0000   1.0000   1.0000   1.0000   1.0000
     1.0000   1.0000   1.0000   1.0000   1.0000   1.0000   1.0000   1.0000
     1.0000   1.0000   1.0000   1.0000   1.0000   1.0000   1.0000   1.0000
     1.0000   1.0000   1.0000   1.0000   1.0000   1.0000   1.0000   1.0000
     1.0000   1.0000   1.0000   1.0000   1.0000   1.0000   1.0000   1.0000
     1.0000   1.0000   1.0000   1.0000   1.0000   1.0000   1.0000   1.0000
     1.0000   1.0000   1.0000   1.0000   1.0000   1.0000   1.0000   1.0000
     1.0000   1.0000   1.0000   1.0000   1.0000   1.0000   1.0000   1.0000
     1.0000   1.0000   1.0000   1.0000   1.0000   1.0000   1.0000   1.0000
     1.0000   1.0000   1.0000   1.0000   1.0000   1.0000   1.0000   1.0000
     1.0000   1.0000   1.0000   1.0000   1.0000   1.0000   1.0000   1.0000
     1.0000   1.0000   1.0000   1.0000   1.0000   1.0000   1.0000   1.0000
     1.0000   1.0000   1.0000   1.0000   1.0000   1.0000   1.0000   1.0000
     1.0000   1.0000   1.0000   1.0000   1.0000   1.0000   1.0000   1.0000
     1.0000   1.0000   1.0000   1.0000   1.0000   1.0000   1.0000   1.0000
     1.0000   1.0000   1.0000   1.0000   1.0000   1.0000   1.0000   1.0000
     1.0000   1.0000   1.0000   1.0000   1.0000   1.0000   1.0000   1.0000
     1.0000   1.0000   1.0000   1.0000   1.0000   1.0000   1.0000   1.0000
     1.0000   1.0000   1.0000   1.0000   1.0000   1.0000   1.0000   1.0000
     1.0000   1.0000   1.0000   1.0000   1.0000   1.0000   1.0000   1.0000
     1.0000   1.0000   1.0000   1.0000   1.0000   1.0000   1.0000   1.0000
     1.0000   1.0000   1.0000   1.0000   1.0000   1.0000   1.0000   1.0000
     1.0000   1.0000   1.0000   1.0000   1.0000   1.0000   1.0000   1.0000
     1.0000   1.0000   1.0000   1.0000   1.0000   1.0000   1.0000   1.0000
     1.0000   1.0000   1.0000   1.0000   1.0000   1.0000   1.0000   1.0000
     1.0000   1.0000   1.0000   1.0000   1.0000   1.0000   1.0000   1.0000
     1.0000   1.0000   1.0000   1.0000   1.0000   1.0000   1.0000   1.0000
     1.0000   1.0000   1.0000   1.0000   1.0000   1.0000   1.0000   1.0000
     1.0000   1.0000   1.0000   1.0000   1.0000   1.0000   1.0000   1.0000
     1.0000   1.0000   1.0000   1.0000   1.0000   1.0000   1.0000   1.0000
     1.0000   1.0000   1.0000   1.0000   1.0000   1.0000   1.0000   1.0000
     1.0000   1.0000   1.0000   1.0000   1.0000   1.0000   1.0000   1.0000
     1.0000   1.0000   1.0000   1.0000   1.0000   1.0000   1.0000   1.0000
     1.0000   1.0000   1.0000   1.0000   1.0000   1.0000   1.0000   1.0000
     1.0000   1.0000   1.0000   1.0000   1.0000   1.0000   1.0000   1.0000
     1.0000   1.0000   1.0000   1.0000   1.0000   1.0000   1.0000   1.0000
     1.0000   1.0000   1.0000   1.0000   1.0000   1.0000   1.0000   1.0000
     1.0000   1.0000   1.0000   1.0000   1.0000   1.0000   1.0000   1.0000
     1.0000   1.0000   1.0000   1.0000   1.0000   1.0000   1.0000   1.0000
     1.0000   1.0000   1.0000   1.0000   1.0000   1.0000   1.0000   1.0000
     1.0000   1.0000   1.0000   1.0000   1.0000   1.0000   1.0000   1.0000
     1.0000   1.0000   1.0000   1.0000   1.0000   1.0000   1.0000   1.0000
     1.0000   1.0000   1.0000   1.0000   1.0000   1.0000   1.0000   1.0000
     1.0000   1.0000   1.0000   1.0000   1.0000   1.0000   1.0000   1.0000
     1.0000   1.0000   1.0000   1.0000   1.0000   1.0000   1.0000   1.0000
     1.0000   1.0000   1.0000   1.0000   1.0000   1.0000   1.0000   1.0000
     1.0000   1.0000   1.0000   1.0000   1.0000   1.0000   1.0000   1.0000
     1.0000   1.0000   1.0000   1.0000   1.0000   1.0000   1.0000   1.0000
     1.0000   1.0000   1.0000   1.0000   1.0000   1.0000   1.0000   1.0000
     1.0000   1.0000   1.0000   1.0000   1.0000   1.0000   1.0000   1.0000
     1.0000   1.0000   1.0000   1.0000   1.0000   1.0000   1.0000   1.0000
     1.0000   1.0000   1.0000   1.0000   1.0000   1.0000   1.0000   1.0000
     1.0000   1.0000   1.0000   1.0000   1.0000   1.0000   1.0000   1.0000
     1.0000   1.0000   1.0000   1.0000   1.0000   1.0000   1.0000   1.0000
     1.0000   1.0000   1.0000   1.0000   1.0000   1.0000   1.0000   1.0000
     1.0000   1.0000   1.0000   1.0000   1.0000   1.0000   1.0000   1.0000
     1.0812   1.0812   1.0833   1.0833   0.6571   0.6571   0.5689   0.5689
     0.5689   0.5689   0.0000   0.0000   0.0000   0.0000   0.0000   0.0000
     0.0000   0.0000   0.0000   0.0000   0.0000   0.0000   0.0000   0.0000
     0.0000   0.0000   0.0000   0.0000   0.0000   0.0000   0.0000   0.0000
     0.0000   0.0000   0.0000   0.0000   0.0000   0.0000   0.0000   0.0000
     0.0000   0.0000   0.0000   0.0000   0.0000   0.0000   0.0000   0.0000
     0.0000   0.0000   0.0000   0.0000   0.0000   0.0000   0.0000   0.0000
     0.0000   0.0000   0.0000   0.0000   0.0000   0.0000   0.0000   0.0000
     0.0000   0.0000   0.0000   0.0000   0.0000   0.0000   0.0000   0.0000
     0.0000   0.0000   0.0000   0.0000   0.0000   0.0000   0.0000   0.0000
     0.0000   0.0000   0.0000   0.0000   0.0000   0.0000   0.0000   0.0000
     0.0000   0.0000   0.0000   0.0000   0.0000   0.0000   0.0000   0.0000
     0.0000   0.0000   0.0000   0.0000   0.0000   0.0000   0.0000   0.0000

          k = 0.2500 0.1443 0.0000 ( 64808 PWs)   bands (ev):

  -125.0679-125.0670-125.0666-125.0666-125.0659-125.0659-125.0657-125.0650
  -125.0650-125.0647-125.0646-125.0646-125.0646-125.0646-125.0643-125.0643
  -124.8636-124.8635-124.8626-124.8626-124.8622-124.8622-124.8622-124.8622
  -124.8616-124.8616-124.8615-124.8615-124.8613-124.8612-124.8606-124.8606
  -124.8606-124.8605-124.8603-124.8603-124.8602-124.8602-124.8602-124.8602
  -124.8602-124.8601-124.8601-124.8601-124.8599-124.8599-124.8599-124.8599
   -79.2337 -79.2337 -79.2330 -79.2291 -79.2291 -79.2282 -79.2282 -79.2263
   -79.2263 -79.2233 -79.2201 -79.2201 -79.2174 -79.2174 -79.2165 -79.2154
   -79.2150 -79.2150 -79.2142 -79.2142 -79.2139 -79.2134 -79.2134 -79.2131
   -79.2131 -79.2131 -79.2131 -79.2128 -79.2127 -79.2127 -79.2127 -79.2127
   -79.2124 -79.2124 -79.2107 -79.2107 -79.2095 -79.2085 -79.2085 -79.2074
   -79.2049 -79.2046 -79.2046 -79.2026 -79.2026 -79.2012 -79.1997 -79.1987
   -79.0260 -79.0260 -79.0259 -79.0259 -79.0254 -79.0253 -79.0214 -79.0214
   -79.0213 -79.0213 -79.0205 -79.0205 -79.0205 -79.0204 -79.0204 -79.0203
   -79.0194 -79.0193 -79.0190 -79.0190 -79.0189 -79.0188 -79.0186 -79.0186
   -79.0185 -79.0185 -79.0182 -79.0182 -79.0181 -79.0181 -79.0179 -79.0179
   -79.0172 -79.0172 -79.0171 -79.0171 -79.0169 -79.0168 -79.0168 -79.0168
   -79.0168 -79.0167 -79.0167 -79.0167 -79.0167 -79.0167 -79.0165 -79.0165
   -79.0164 -79.0164 -79.0156 -79.0156 -79.0125 -79.0125 -79.0124 -79.0124
   -79.0098 -79.0098 -79.0097 -79.0097 -79.0057 -79.0057 -79.0057 -79.0057
   -79.0054 -79.0054 -79.0054 -79.0054 -79.0031 -79.0031 -79.0030 -79.0030
   -79.0019 -79.0018 -79.0009 -79.0009 -79.0008 -79.0008 -78.9998 -78.9997
   -78.9972 -78.9972 -78.9969 -78.9969 -78.9969 -78.9969 -78.9950 -78.9950
   -78.9949 -78.9949 -78.9936 -78.9936 -78.9921 -78.9920 -78.9911 -78.9910
    -8.5041  -7.6206  -7.3008  -7.2486  -7.2486  -7.0301  -6.8988  -6.8726
    -6.8726  -6.8499  -6.8465  -6.8465  -6.7072  -6.6922  -6.6922  -6.6911
    -6.6757  -6.6631  -6.6387  -6.6387  -6.5904  -6.5809  -6.5777  -6.5777
    -6.5682  -6.5682  -6.5487  -6.5487  -6.5288  -6.5288  -6.5190  -6.5190
    -6.5174  -6.5126  -6.5126  -6.5097  -6.5097  -6.5028  -6.5028  -6.4870
    -6.4870  -6.4613  -6.4612  -6.4237  -6.4237  -6.3956  -6.3956  -6.3807
    -6.3807  -6.3764  -6.3224  -6.3176  -6.3176  -6.3161  -6.3161  -6.3158
    -6.3158  -6.2694  -6.2694  -6.2597  -6.2523  -6.2301  -6.2301  -6.2238
    -6.2238  -6.2222  -6.2222  -6.2222  -6.2089  -6.2089  -6.2051  -6.2051
    -6.1960  -6.1960  -6.1844  -6.1844  -6.1804  -6.1787  -6.1787  -6.1548
    -6.1384  -6.1239  -6.1239  -6.1148  -6.1148  -6.1009  -6.1009  -6.0935
    -6.0908  -6.0908  -6.0784  -6.0639  -6.0639  -6.0502  -6.0502  -6.0491
    -6.0491  -5.9595  -5.9595  -5.9594  -5.9594  -5.9441  -5.9414  -5.9375
    -5.9374  -5.9352  -5.9352  -5.9246  -5.9246  -5.9132  -5.9116  -5.9116
    -5.8934  -5.8934  -5.8896  -5.8860  -5.8819  -5.8744  -5.8744  -5.8690
    -5.8465  -5.8465  -5.8395  -5.8395  -5.8255  -5.8118  -5.7958  -5.7958
    -5.7958  -5.7958  -5.7870  -5.7870  -5.7770  -5.7770  -5.7763  -5.7734
    -5.7734  -5.7558  -5.7558  -5.7479  -5.7479  -5.7405  -5.7307  -5.7307
    -5.7147  -5.7133  -5.7133  -5.7056  -5.7056  -5.6977  -5.6977  -5.6954
    -5.6954  -5.6926  -5.6926  -5.6795  -5.6682  -5.6682  -5.6574  -5.6444
    -5.6397  -5.6397  -5.6338  -5.6338  -5.6188  -5.6188  -5.6175  -5.6166
    -5.6166  -5.6128  -5.6117  -5.6056  -5.6056  -5.5801  -5.5642  -5.5609
    -5.5609  -5.5566  -5.5566  -5.5481  -5.5480  -5.5457  -5.5457  -5.5441
    -5.5441  -5.5413  -5.5269  -5.5269  -5.5260  -5.5216  -5.5216  -5.5127
    -5.5127  -5.4917  -5.4917  -5.4630  -5.4605  -5.4582  -5.4582  -5.4543
    -5.4543  -5.4519  -5.4519  -5.4399  -5.4399  -5.4307  -5.4260  -5.4260
    -5.4236  -5.4200  -5.4145  -5.4142  -5.4028  -5.4028  -5.3997  -5.3997
    -5.3886  -5.3872  -5.3872  -5.3806  -5.3688  -5.3688  -5.3645  -5.3594
    -5.3459  -5.3459  -5.3415  -5.3327  -5.3205  -5.3205  -5.3142  -5.3117
    -5.3117  -5.3020  -5.3020  -5.2934  -5.2934  -5.2829  -5.2829  -5.1441
    -5.1441  -5.1298  -5.1298  -5.1243  -5.1243  -5.1059  -5.1052  -4.9477
    -4.9348  -4.6388  -4.6388  -3.8815  -3.8815  -3.4804  -3.3943  -3.3943
    -3.3657  -2.6740  -2.3022  -2.3022  -2.2225  -2.0216  -2.0216  -1.9718
    -1.9718  -1.5153  -1.5153  -1.2926  -1.2926  -1.1173  -0.7954  -0.5734
    -0.5734  -0.5613  -0.5613  -0.5526   0.0234   0.0234   0.2686   0.2686
     0.5596   0.5596   0.6330   0.8761   0.8979   0.8979   1.1831   1.1831
     1.5560   1.5560   2.2259   2.2259   2.6468   2.6961   2.6961   2.7205
     2.7821   2.7821   2.9495   2.9495   3.2182   3.5461   3.6902   3.6902
     3.9082   3.9082   4.1106   4.1846   4.1846   4.5547   4.5547   4.8013
     4.8013   4.8427   4.8427   5.1513   5.1513   5.1600   5.1600   5.1606
     5.3089   5.4245   5.4245   5.5679   5.6423   5.7930   5.7930   5.8053
     6.0633   6.0936   6.0936   6.2276   6.2747   6.3126   6.3126   6.4517
     6.5135   6.5135   6.5940   6.5940   6.6864   6.6864   6.7096   7.0097
     7.0097   7.0864   7.0864   7.1708   7.1708   7.1994   7.3084   7.3084
     7.3497   7.3999   7.3999   7.4468   7.4468   7.5976   7.5976   7.6562
     7.6562   7.6589   7.6589   7.7287   7.7968   7.7968   7.9454   7.9454
     8.0198   8.0198   8.0619   8.2701   8.2936   8.4376   8.5966   8.5966
     8.6505   8.6506   8.6946   8.8075   8.8075   8.8243   8.8243   8.8358

     occupation numbers 
     1.0000   1.0000   1.0000   1.0000   1.0000   1.0000   1.0000   1.0000
     1.0000   1.0000   1.0000   1.0000   1.0000   1.0000   1.0000   1.0000
     1.0000   1.0000   1.0000   1.0000   1.0000   1.0000   1.0000   1.0000
     1.0000   1.0000   1.0000   1.0000   1.0000   1.0000   1.0000   1.0000
     1.0000   1.0000   1.0000   1.0000   1.0000   1.0000   1.0000   1.0000
     1.0000   1.0000   1.0000   1.0000   1.0000   1.0000   1.0000   1.0000
     1.0000   1.0000   1.0000   1.0000   1.0000   1.0000   1.0000   1.0000
     1.0000   1.0000   1.0000   1.0000   1.0000   1.0000   1.0000   1.0000
     1.0000   1.0000   1.0000   1.0000   1.0000   1.0000   1.0000   1.0000
     1.0000   1.0000   1.0000   1.0000   1.0000   1.0000   1.0000   1.0000
     1.0000   1.0000   1.0000   1.0000   1.0000   1.0000   1.0000   1.0000
     1.0000   1.0000   1.0000   1.0000   1.0000   1.0000   1.0000   1.0000
     1.0000   1.0000   1.0000   1.0000   1.0000   1.0000   1.0000   1.0000
     1.0000   1.0000   1.0000   1.0000   1.0000   1.0000   1.0000   1.0000
     1.0000   1.0000   1.0000   1.0000   1.0000   1.0000   1.0000   1.0000
     1.0000   1.0000   1.0000   1.0000   1.0000   1.0000   1.0000   1.0000
     1.0000   1.0000   1.0000   1.0000   1.0000   1.0000   1.0000   1.0000
     1.0000   1.0000   1.0000   1.0000   1.0000   1.0000   1.0000   1.0000
     1.0000   1.0000   1.0000   1.0000   1.0000   1.0000   1.0000   1.0000
     1.0000   1.0000   1.0000   1.0000   1.0000   1.0000   1.0000   1.0000
     1.0000   1.0000   1.0000   1.0000   1.0000   1.0000   1.0000   1.0000
     1.0000   1.0000   1.0000   1.0000   1.0000   1.0000   1.0000   1.0000
     1.0000   1.0000   1.0000   1.0000   1.0000   1.0000   1.0000   1.0000
     1.0000   1.0000   1.0000   1.0000   1.0000   1.0000   1.0000   1.0000
     1.0000   1.0000   1.0000   1.0000   1.0000   1.0000   1.0000   1.0000
     1.0000   1.0000   1.0000   1.0000   1.0000   1.0000   1.0000   1.0000
     1.0000   1.0000   1.0000   1.0000   1.0000   1.0000   1.0000   1.0000
     1.0000   1.0000   1.0000   1.0000   1.0000   1.0000   1.0000   1.0000
     1.0000   1.0000   1.0000   1.0000   1.0000   1.0000   1.0000   1.0000
     1.0000   1.0000   1.0000   1.0000   1.0000   1.0000   1.0000   1.0000
     1.0000   1.0000   1.0000   1.0000   1.0000   1.0000   1.0000   1.0000
     1.0000   1.0000   1.0000   1.0000   1.0000   1.0000   1.0000   1.0000
     1.0000   1.0000   1.0000   1.0000   1.0000   1.0000   1.0000   1.0000
     1.0000   1.0000   1.0000   1.0000   1.0000   1.0000   1.0000   1.0000
     1.0000   1.0000   1.0000   1.0000   1.0000   1.0000   1.0000   1.0000
     1.0000   1.0000   1.0000   1.0000   1.0000   1.0000   1.0000   1.0000
     1.0000   1.0000   1.0000   1.0000   1.0000   1.0000   1.0000   1.0000
     1.0000   1.0000   1.0000   1.0000   1.0000   1.0000   1.0000   1.0000
     1.0000   1.0000   1.0000   1.0000   1.0000   1.0000   1.0000   1.0000
     1.0000   1.0000   1.0000   1.0000   1.0000   1.0000   1.0000   1.0000
     1.0000   1.0000   1.0000   1.0000   1.0000   1.0000   1.0000   1.0000
     1.0000   1.0000   1.0000   1.0000   1.0000   1.0000   1.0000   1.0000
     1.0000   1.0000   1.0000   1.0000   1.0000   1.0000   1.0000   1.0000
     1.0000   1.0000   1.0000   1.0000   1.0000   1.0000   1.0000   1.0000
     1.0000   1.0000   1.0000   1.0000   1.0000   1.0000   1.0000   1.0000
     1.0000   1.0000   1.0000   1.0000   1.0000   1.0000   1.0000   1.0000
     1.0000   1.0000   1.0000   1.0000   1.0000   1.0000   1.0000   1.0000
     1.0000   1.0000   1.0000   1.0000   1.0000   1.0000   1.0000   1.0000
     1.0000   1.0000   1.0000   1.0000   1.0000   1.0000   1.0000   1.0000
     1.0000   1.0000   1.0000   1.0000   1.0000   1.0000   1.0000   1.0000
     1.0000   1.0000   1.0000   1.0000   1.0000   1.0000   1.0000   1.0000
     1.0000   1.0000   1.0000   1.0000   1.0000   1.0000   1.0000   1.0000
     1.0000   1.0000   1.0000   1.0000   1.0000   1.0000   1.0000   1.0000
     1.0000   1.0000   1.0000   1.0000   1.0000   1.0000   1.0000   1.0000
     1.0000   1.0000   1.0000   1.0000   1.0000   1.0000   1.0000   1.0000
     1.0000   1.0000   1.0000   1.0000   1.0000   1.0000   1.0000   1.0000
     1.0000   1.0000   1.0000   1.0000   1.0000   1.0000   1.0000   1.0000
     1.0000   1.0000   1.0000   1.0000   1.0000   1.0000   1.0000   1.0000
     1.0000   1.0000   1.0000   1.0000   1.0000   1.0000   1.0000   1.0000
     1.0006   1.0006   1.0019   1.0374   1.0443   1.0443   0.9985   0.9985
     0.1541   0.1541   0.0000   0.0000   0.0000   0.0000   0.0000   0.0000
     0.0000   0.0000   0.0000   0.0000   0.0000   0.0000   0.0000   0.0000
     0.0000   0.0000   0.0000   0.0000   0.0000   0.0000   0.0000   0.0000
     0.0000   0.0000   0.0000   0.0000   0.0000   0.0000   0.0000   0.0000
     0.0000   0.0000   0.0000   0.0000   0.0000   0.0000   0.0000   0.0000
     0.0000   0.0000   0.0000   0.0000   0.0000   0.0000   0.0000   0.0000
     0.0000   0.0000   0.0000   0.0000   0.0000   0.0000   0.0000   0.0000
     0.0000   0.0000   0.0000   0.0000   0.0000   0.0000   0.0000   0.0000
     0.0000   0.0000   0.0000   0.0000   0.0000   0.0000   0.0000   0.0000
     0.0000   0.0000   0.0000   0.0000   0.0000   0.0000   0.0000   0.0000
     0.0000   0.0000   0.0000   0.0000   0.0000   0.0000   0.0000   0.0000
     0.0000   0.0000   0.0000   0.0000   0.0000   0.0000   0.0000   0.0000

          k = 0.2500 0.4330 0.0000 ( 64876 PWs)   bands (ev):

  -125.0677-125.0672-125.0672-125.0661-125.0661-125.0655-125.0653-125.0653
  -125.0649-125.0649-125.0648-125.0648-125.0645-125.0644-125.0643-125.0642
  -124.8633-124.8632-124.8628-124.8628-124.8628-124.8628-124.8617-124.8617
  -124.8616-124.8616-124.8611-124.8611-124.8609-124.8609-124.8609-124.8609
  -124.8606-124.8606-124.8605-124.8605-124.8605-124.8605-124.8604-124.8604
  -124.8601-124.8600-124.8600-124.8600-124.8599-124.8599-124.8598-124.8597
   -79.2327 -79.2311 -79.2311 -79.2306 -79.2306 -79.2284 -79.2284 -79.2263
   -79.2263 -79.2259 -79.2224 -79.2216 -79.2179 -79.2179 -79.2162 -79.2157
   -79.2157 -79.2144 -79.2144 -79.2144 -79.2144 -79.2137 -79.2135 -79.2135
   -79.2131 -79.2131 -79.2130 -79.2130 -79.2125 -79.2124 -79.2124 -79.2122
   -79.2110 -79.2092 -79.2092 -79.2078 -79.2078 -79.2078 -79.2071 -79.2071
   -79.2064 -79.2064 -79.2049 -79.2049 -79.2023 -79.2008 -79.2008 -79.1994
   -79.0251 -79.0250 -79.0234 -79.0234 -79.0233 -79.0233 -79.0229 -79.0229
   -79.0228 -79.0228 -79.0208 -79.0207 -79.0207 -79.0207 -79.0202 -79.0200
   -79.0197 -79.0196 -79.0195 -79.0195 -79.0187 -79.0187 -79.0186 -79.0186
   -79.0184 -79.0184 -79.0183 -79.0183 -79.0182 -79.0182 -79.0178 -79.0177
   -79.0176 -79.0175 -79.0175 -79.0175 -79.0171 -79.0171 -79.0171 -79.0171
   -79.0170 -79.0170 -79.0170 -79.0170 -79.0166 -79.0166 -79.0165 -79.0165
   -79.0165 -79.0164 -79.0163 -79.0162 -79.0147 -79.0147 -79.0139 -79.0138
   -79.0102 -79.0102 -79.0102 -79.0102 -79.0068 -79.0068 -79.0067 -79.0067
   -79.0034 -79.0033 -79.0016 -79.0016 -79.0015 -79.0015 -79.0002 -79.0001
   -79.0001 -79.0001 -79.0001 -79.0001 -78.9995 -78.9995 -78.9994 -78.9994
   -78.9988 -78.9988 -78.9987 -78.9987 -78.9973 -78.9973 -78.9972 -78.9972
   -78.9947 -78.9946 -78.9932 -78.9932 -78.9931 -78.9931 -78.9918 -78.9918
    -8.2703  -7.8235  -7.8235  -7.1123  -6.9150  -6.8404  -6.8404  -6.8040
    -6.8040  -6.7975  -6.7975  -6.7934  -6.7934  -6.7693  -6.7284  -6.7284
    -6.6989  -6.6989  -6.6556  -6.6556  -6.6237  -6.6097  -6.6097  -6.6049
    -6.6049  -6.5885  -6.5885  -6.5684  -6.5684  -6.5603  -6.5603  -6.5443
    -6.5347  -6.5347  -6.4923  -6.4923  -6.4725  -6.4725  -6.4695  -6.4624
    -6.4624  -6.4407  -6.4404  -6.4180  -6.4128  -6.4128  -6.4124  -6.4124
    -6.4035  -6.4035  -6.3928  -6.3703  -6.3703  -6.3131  -6.3024  -6.3024
    -6.2976  -6.2976  -6.2926  -6.2926  -6.2920  -6.2788  -6.2676  -6.2636
    -6.2636  -6.2552  -6.2494  -6.2494  -6.2442  -6.2442  -6.2425  -6.2229
    -6.2229  -6.2023  -6.2023  -6.1782  -6.1782  -6.1662  -6.1478  -6.1459
    -6.1419  -6.1419  -6.1184  -6.1184  -6.1086  -6.1086  -6.0949  -6.0894
    -6.0564  -6.0564  -6.0469  -6.0469  -6.0426  -6.0335  -6.0205  -6.0205
    -5.9978  -5.9920  -5.9920  -5.9894  -5.9805  -5.9805  -5.9731  -5.9731
    -5.9705  -5.9705  -5.9577  -5.9492  -5.9424  -5.9159  -5.9159  -5.9078
    -5.9078  -5.9068  -5.8993  -5.8914  -5.8914  -5.8864  -5.8863  -5.8779
    -5.8779  -5.8539  -5.8539  -5.8468  -5.8468  -5.8340  -5.8340  -5.8334
    -5.8327  -5.8292  -5.8292  -5.8089  -5.7972  -5.7972  -5.7940  -5.7728
    -5.7634  -5.7634  -5.7560  -5.7527  -5.7527  -5.7503  -5.7134  -5.7134
    -5.6944  -5.6944  -5.6918  -5.6918  -5.6578  -5.6545  -5.6545  -5.6535
    -5.6535  -5.6470  -5.6328  -5.6312  -5.6312  -5.6243  -5.6243  -5.5930
    -5.5928  -5.5928  -5.5925  -5.5925  -5.5830  -5.5830  -5.5813  -5.5813
    -5.5791  -5.5791  -5.5746  -5.5746  -5.5668  -5.5668  -5.5495  -5.5495
    -5.5490  -5.5490  -5.5450  -5.5404  -5.5367  -5.5367  -5.5153  -5.5153
    -5.5127  -5.5100  -5.5100  -5.5077  -5.5032  -5.4840  -5.4840  -5.4823
    -5.4797  -5.4797  -5.4663  -5.4619  -5.4619  -5.4601  -5.4601  -5.4582
    -5.4582  -5.4560  -5.4560  -5.4433  -5.4433  -5.4408  -5.4408  -5.4338
    -5.4338  -5.4314  -5.4181  -5.4181  -5.4103  -5.4101  -5.4101  -5.3989
    -5.3957  -5.3866  -5.3866  -5.3749  -5.3749  -5.3748  -5.3695  -5.3681
    -5.3653  -5.3653  -5.3357  -5.3282  -5.3282  -5.3086  -5.3086  -5.2823
    -5.2763  -5.2763  -5.2732  -5.2732  -5.2723  -5.2723  -5.2572  -5.2290
    -5.1874  -5.1874  -5.1834  -5.1834  -5.1444  -5.1444  -5.0652  -5.0652
    -4.4567  -4.2335  -4.2335  -4.0443  -4.0443  -3.2455  -3.2455  -3.1960
    -3.1453  -2.8778  -2.8778  -2.8501  -2.8501  -2.7809  -2.7809  -1.7964
    -1.7964  -1.7019  -1.7019  -1.4138  -1.4138  -0.8454  -0.4762  -0.4762
    -0.4127  -0.4127  -0.3237  -0.2418   0.2941   0.3496   0.3496   0.4230
     0.4230   0.6993   0.6993   0.7886   0.9697   0.9697   1.0862   1.4152
     1.4152   1.9754   1.9754   2.5305   2.5515   2.8201   2.9851   3.0902
     3.3254   3.3254   3.3636   3.3636   3.4419   3.4461   3.4461   3.5743
     3.5743   3.6667   3.8885   3.8885   4.3742   4.3742   4.3913   4.4243
     4.4429   4.4430   4.5663   4.5663   4.8783   4.9323   5.1385   5.1385
     5.2186   5.2186   5.3865   5.4437   5.4437   5.4516   5.4516   5.5387
     5.8380   5.8380   5.9981   5.9981   6.0888   6.1234   6.1234   6.5065
     6.5405   6.5405   6.6432   6.6451   6.6451   6.6766   6.9515   6.9690
     6.9690   6.9984   6.9984   7.0014   7.0433   7.0433   7.1258   7.1258
     7.1630   7.1630   7.1866   7.1868   7.2207   7.2207   7.3737   7.3739
     8.0691   8.2128   8.2128   8.2829   8.3426   8.3427   8.3614   8.4630
     8.4633   8.5009   8.5386   8.5809   8.5810   8.5979   8.5979   8.6574
     8.6605   8.6778   8.6778   8.7362   8.7362   8.7378   8.9609   8.9609

     occupation numbers 
     1.0000   1.0000   1.0000   1.0000   1.0000   1.0000   1.0000   1.0000
     1.0000   1.0000   1.0000   1.0000   1.0000   1.0000   1.0000   1.0000
     1.0000   1.0000   1.0000   1.0000   1.0000   1.0000   1.0000   1.0000
     1.0000   1.0000   1.0000   1.0000   1.0000   1.0000   1.0000   1.0000
     1.0000   1.0000   1.0000   1.0000   1.0000   1.0000   1.0000   1.0000
     1.0000   1.0000   1.0000   1.0000   1.0000   1.0000   1.0000   1.0000
     1.0000   1.0000   1.0000   1.0000   1.0000   1.0000   1.0000   1.0000
     1.0000   1.0000   1.0000   1.0000   1.0000   1.0000   1.0000   1.0000
     1.0000   1.0000   1.0000   1.0000   1.0000   1.0000   1.0000   1.0000
     1.0000   1.0000   1.0000   1.0000   1.0000   1.0000   1.0000   1.0000
     1.0000   1.0000   1.0000   1.0000   1.0000   1.0000   1.0000   1.0000
     1.0000   1.0000   1.0000   1.0000   1.0000   1.0000   1.0000   1.0000
     1.0000   1.0000   1.0000   1.0000   1.0000   1.0000   1.0000   1.0000
     1.0000   1.0000   1.0000   1.0000   1.0000   1.0000   1.0000   1.0000
     1.0000   1.0000   1.0000   1.0000   1.0000   1.0000   1.0000   1.0000
     1.0000   1.0000   1.0000   1.0000   1.0000   1.0000   1.0000   1.0000
     1.0000   1.0000   1.0000   1.0000   1.0000   1.0000   1.0000   1.0000
     1.0000   1.0000   1.0000   1.0000   1.0000   1.0000   1.0000   1.0000
     1.0000   1.0000   1.0000   1.0000   1.0000   1.0000   1.0000   1.0000
     1.0000   1.0000   1.0000   1.0000   1.0000   1.0000   1.0000   1.0000
     1.0000   1.0000   1.0000   1.0000   1.0000   1.0000   1.0000   1.0000
     1.0000   1.0000   1.0000   1.0000   1.0000   1.0000   1.0000   1.0000
     1.0000   1.0000   1.0000   1.0000   1.0000   1.0000   1.0000   1.0000
     1.0000   1.0000   1.0000   1.0000   1.0000   1.0000   1.0000   1.0000
     1.0000   1.0000   1.0000   1.0000   1.0000   1.0000   1.0000   1.0000
     1.0000   1.0000   1.0000   1.0000   1.0000   1.0000   1.0000   1.0000
     1.0000   1.0000   1.0000   1.0000   1.0000   1.0000   1.0000   1.0000
     1.0000   1.0000   1.0000   1.0000   1.0000   1.0000   1.0000   1.0000
     1.0000   1.0000   1.0000   1.0000   1.0000   1.0000   1.0000   1.0000
     1.0000   1.0000   1.0000   1.0000   1.0000   1.0000   1.0000   1.0000
     1.0000   1.0000   1.0000   1.0000   1.0000   1.0000   1.0000   1.0000
     1.0000   1.0000   1.0000   1.0000   1.0000   1.0000   1.0000   1.0000
     1.0000   1.0000   1.0000   1.0000   1.0000   1.0000   1.0000   1.0000
     1.0000   1.0000   1.0000   1.0000   1.0000   1.0000   1.0000   1.0000
     1.0000   1.0000   1.0000   1.0000   1.0000   1.0000   1.0000   1.0000
     1.0000   1.0000   1.0000   1.0000   1.0000   1.0000   1.0000   1.0000
     1.0000   1.0000   1.0000   1.0000   1.0000   1.0000   1.0000   1.0000
     1.0000   1.0000   1.0000   1.0000   1.0000   1.0000   1.0000   1.0000
     1.0000   1.0000   1.0000   1.0000   1.0000   1.0000   1.0000   1.0000
     1.0000   1.0000   1.0000   1.0000   1.0000   1.0000   1.0000   1.0000
     1.0000   1.0000   1.0000   1.0000   1.0000   1.0000   1.0000   1.0000
     1.0000   1.0000   1.0000   1.0000   1.0000   1.0000   1.0000   1.0000
     1.0000   1.0000   1.0000   1.0000   1.0000   1.0000   1.0000   1.0000
     1.0000   1.0000   1.0000   1.0000   1.0000   1.0000   1.0000   1.0000
     1.0000   1.0000   1.0000   1.0000   1.0000   1.0000   1.0000   1.0000
     1.0000   1.0000   1.0000   1.0000   1.0000   1.0000   1.0000   1.0000
     1.0000   1.0000   1.0000   1.0000   1.0000   1.0000   1.0000   1.0000
     1.0000   1.0000   1.0000   1.0000   1.0000   1.0000   1.0000   1.0000
     1.0000   1.0000   1.0000   1.0000   1.0000   1.0000   1.0000   1.0000
     1.0000   1.0000   1.0000   1.0000   1.0000   1.0000   1.0000   1.0000
     1.0000   1.0000   1.0000   1.0000   1.0000   1.0000   1.0000   1.0000
     1.0000   1.0000   1.0000   1.0000   1.0000   1.0000   1.0000   1.0000
     1.0000   1.0000   1.0000   1.0000   1.0000   1.0000   1.0000   1.0000
     1.0000   1.0000   1.0000   1.0000   1.0000   1.0000   1.0000   1.0000
     1.0000   1.0000   1.0000   1.0000   1.0000   1.0000   1.0000   1.0000
     1.0000   1.0000   1.0000   1.0000   1.0000   1.0000   1.0000   1.0000
     1.0000   1.0000   1.0000   1.0000   1.0000   1.0000   1.0000   1.0000
     1.0000   1.0000   1.0000   1.0000   1.0000   1.0000   1.0000   1.0000
     1.0000   1.0000   1.0000   1.0000   1.0000   1.0000   1.0000   1.0000
     1.0000   1.0052   1.0052   1.0159   1.0686   1.0686   1.0779   0.4452
     0.4452   0.0003   0.0003   0.0000   0.0000   0.0000   0.0000   0.0000
     0.0000   0.0000   0.0000   0.0000   0.0000   0.0000   0.0000   0.0000
     0.0000   0.0000   0.0000   0.0000   0.0000   0.0000   0.0000   0.0000
     0.0000   0.0000   0.0000   0.0000   0.0000   0.0000   0.0000   0.0000
     0.0000   0.0000   0.0000   0.0000   0.0000   0.0000   0.0000   0.0000
     0.0000   0.0000   0.0000   0.0000   0.0000   0.0000   0.0000   0.0000
     0.0000   0.0000   0.0000   0.0000   0.0000   0.0000   0.0000   0.0000
     0.0000   0.0000   0.0000   0.0000   0.0000   0.0000   0.0000   0.0000
     0.0000   0.0000   0.0000   0.0000   0.0000   0.0000   0.0000   0.0000
     0.0000   0.0000   0.0000   0.0000   0.0000   0.0000   0.0000   0.0000
     0.0000   0.0000   0.0000   0.0000   0.0000   0.0000   0.0000   0.0000
     0.0000   0.0000   0.0000   0.0000   0.0000   0.0000   0.0000   0.0000

          k = 0.2500-0.4330 0.0000 ( 64876 PWs)   bands (ev):

  -125.0677-125.0672-125.0672-125.0661-125.0661-125.0655-125.0653-125.0653
  -125.0649-125.0649-125.0648-125.0648-125.0645-125.0644-125.0644-125.0642
  -124.8633-124.8632-124.8628-124.8628-124.8628-124.8628-124.8617-124.8617
  -124.8616-124.8616-124.8611-124.8611-124.8609-124.8609-124.8609-124.8609
  -124.8606-124.8606-124.8605-124.8605-124.8605-124.8605-124.8604-124.8604
  -124.8601-124.8600-124.8600-124.8600-124.8599-124.8599-124.8598-124.8597
   -79.2327 -79.2311 -79.2311 -79.2306 -79.2306 -79.2284 -79.2284 -79.2263
   -79.2263 -79.2259 -79.2224 -79.2216 -79.2179 -79.2179 -79.2162 -79.2157
   -79.2157 -79.2144 -79.2144 -79.2144 -79.2144 -79.2137 -79.2135 -79.2135
   -79.2131 -79.2131 -79.2130 -79.2130 -79.2125 -79.2124 -79.2124 -79.2122
   -79.2110 -79.2092 -79.2092 -79.2078 -79.2078 -79.2078 -79.2071 -79.2071
   -79.2064 -79.2064 -79.2049 -79.2049 -79.2023 -79.2008 -79.2008 -79.1994
   -79.0251 -79.0250 -79.0234 -79.0234 -79.0233 -79.0233 -79.0229 -79.0229
   -79.0228 -79.0228 -79.0208 -79.0207 -79.0207 -79.0207 -79.0202 -79.0200
   -79.0197 -79.0196 -79.0195 -79.0195 -79.0187 -79.0187 -79.0186 -79.0186
   -79.0184 -79.0184 -79.0183 -79.0183 -79.0182 -79.0182 -79.0178 -79.0177
   -79.0176 -79.0175 -79.0175 -79.0175 -79.0171 -79.0171 -79.0171 -79.0171
   -79.0170 -79.0170 -79.0170 -79.0170 -79.0166 -79.0166 -79.0165 -79.0165
[...]
     1.0000   1.0000   1.0000   1.0000   1.0000   1.0000   1.0000   1.0000
     1.0000   1.0000   1.0000   1.0000   1.0000   1.0000   1.0000   1.0000
     1.0000   1.0000   1.0000   1.0000   1.0000   1.0000   1.0000   1.0000
     1.0000   1.0000   1.0000   1.0000   1.0000   1.0000   1.0000   1.0000
     1.0000   1.0000   1.0000   1.0000   1.0000   1.0000   1.0000   1.0000
     1.0000   1.0000   1.0000   1.0000   1.0000   1.0000   1.0000   1.0000
     1.0000   1.0000   1.0000   1.0000   1.0000   1.0000   1.0000   1.0000
     1.0000   1.0000   1.0000   1.0000   1.0000   1.0000   1.0000   1.0000
     1.0000   1.0000   1.0000   1.0000   1.0000   1.0000   1.0000   1.0000
     1.0000   1.0000   1.0000   1.0000   1.0000   1.0000   1.0000   1.0000
     1.0000   1.0000   1.0000   1.0000   1.0000   1.0000   1.0000   1.0000
     1.0000   1.0000   1.0000   1.0000   1.0000   1.0000   1.0000   1.0000
     1.0000   1.0000   1.0000   1.0000   1.0000   1.0000   1.0000   1.0000
     1.0000   1.0000   1.0000   1.0000   1.0000   1.0000   1.0000   1.0000
     1.0000   1.0000   1.0000   1.0000   1.0000   1.0000   1.0000   1.0000
     1.0000   1.0000   1.0000   1.0000   1.0000   1.0000   1.0000   1.0000
     1.0000   1.0000   1.0000   1.0000   1.0000   1.0000   1.0000   1.0000
     1.0000   1.0000   1.0000   1.0000   1.0000   1.0000   1.0000   1.0000
     1.0000   1.0000   1.0000   1.0000   1.0000   1.0000   1.0000   1.0000
     1.0000   1.0000   1.0000   1.0000   1.0000   1.0000   1.0000   1.0000
     1.0000   1.0000   1.0000   1.0000   1.0000   1.0000   1.0000   1.0000
     1.0000   1.0000   1.0000   1.0000   1.0000   1.0000   1.0000   1.0000
     1.0000   1.0000   1.0000   1.0000   1.0000   1.0000   1.0000   1.0000
     1.0000   1.0000   1.0000   1.0000   1.0000   1.0000   1.0000   1.0000
     1.0000   1.0000   1.0000   1.0000   1.0000   1.0000   1.0000   1.0000
     1.0000   1.0000   1.0000   1.0000   1.0000   1.0000   1.0000   1.0000
     1.0000   1.0000   1.0000   1.0000   1.0000   1.0000   1.0000   1.0000
     1.0000   1.0000   1.0000   1.0000   1.0000   1.0000   1.0000   1.0000
     1.0000   1.0000   1.0000   1.0000   1.0000   1.0000   1.0000   1.0000
     1.0000   1.0000   1.0000   1.0000   1.0000   1.0000   1.0000   1.0000
     1.0000   1.0000   1.0000   1.0000   1.0000   1.0000   1.0000   1.0000
     1.0000   1.0000   1.0000   1.0000   1.0000   1.0000   1.0000   1.0000
     1.0000   1.0000   1.0000   1.0000   1.0000   1.0000   1.0000   1.0000
     1.0000   1.0000   1.0000   1.0000   1.0000   1.0000   1.0000   1.0000
     1.0000   1.0000   1.0000   1.0000   1.0000   1.0000   1.0000   1.0000
     1.0000   1.0000   1.0000   1.0000   1.0000   1.0000   1.0000   1.0000
     1.0000   1.0000   1.0000   1.0000   1.0000   1.0000   1.0000   1.0000
     1.0000   1.0000   1.0000   1.0000   1.0000   1.0000   1.0000   1.0000
     1.0000   1.0000   1.0000   1.0000   1.0000   1.0000   1.0000   1.0000
     1.0000   1.0000   1.0000   1.0000   1.0000   1.0000   1.0000   1.0000
     1.0000   1.0000   1.0000   1.0000   1.0000   1.0000   1.0000   1.0000
     1.0000   1.0052   1.0052   1.0159   1.0686   1.0686   1.0779   0.4452
     0.4452   0.0003   0.0003   0.0000   0.0000   0.0000   0.0000   0.0000
     0.0000   0.0000   0.0000   0.0000   0.0000   0.0000   0.0000   0.0000
     0.0000   0.0000   0.0000   0.0000   0.0000   0.0000   0.0000   0.0000
     0.0000   0.0000   0.0000   0.0000   0.0000   0.0000   0.0000   0.0000
     0.0000   0.0000   0.0000   0.0000   0.0000   0.0000   0.0000   0.0000
     0.0000   0.0000   0.0000   0.0000   0.0000   0.0000   0.0000   0.0000
     0.0000   0.0000   0.0000   0.0000   0.0000   0.0000   0.0000   0.0000
     0.0000   0.0000   0.0000   0.0000   0.0000   0.0000   0.0000   0.0000
     0.0000   0.0000   0.0000   0.0000   0.0000   0.0000   0.0000   0.0000
     0.0000   0.0000   0.0000   0.0000   0.0000   0.0000   0.0000   0.0000
     0.0000   0.0000   0.0000   0.0000   0.0000   0.0000   0.0000   0.0000
     0.0000   0.0000   0.0000   0.0000   0.0000   0.0000   0.0000   0.0000

          k =-0.5000-0.8660 0.0000 ( 64842 PWs)   bands (ev):

  -125.0676-125.0675-125.0667-125.0667-125.0655-125.0654-125.0654-125.0654
  -125.0651-125.0651-125.0646-125.0646-125.0646-125.0646-125.0642-125.0642
  -124.8632-124.8632-124.8631-124.8631-124.8623-124.8623-124.8623-124.8622
  -124.8611-124.8611-124.8611-124.8611-124.8610-124.8610-124.8610-124.8610
  -124.8607-124.8607-124.8607-124.8607-124.8602-124.8602-124.8602-124.8602
  -124.8602-124.8602-124.8601-124.8601-124.8598-124.8598-124.8598-124.8598
   -79.2316 -79.2316 -79.2316 -79.2316 -79.2292 -79.2291 -79.2281 -79.2281
   -79.2236 -79.2236 -79.2236 -79.2236 -79.2187 -79.2187 -79.2161 -79.2160
   -79.2151 -79.2151 -79.2137 -79.2137 -79.2137 -79.2137 -79.2133 -79.2132
   -79.2127 -79.2127 -79.2127 -79.2127 -79.2123 -79.2123 -79.2121 -79.2121
   -79.2106 -79.2105 -79.2105 -79.2105 -79.2072 -79.2072 -79.2072 -79.2072
   -79.2064 -79.2064 -79.2036 -79.2036 -79.2026 -79.2026 -79.1997 -79.1997
   -79.0240 -79.0239 -79.0239 -79.0239 -79.0239 -79.0239 -79.0239 -79.0239
   -79.0215 -79.0215 -79.0214 -79.0214 -79.0204 -79.0204 -79.0204 -79.0204
   -79.0200 -79.0200 -79.0199 -79.0199 -79.0191 -79.0191 -79.0190 -79.0189
   -79.0177 -79.0177 -79.0177 -79.0177 -79.0176 -79.0176 -79.0176 -79.0176
   -79.0173 -79.0173 -79.0173 -79.0172 -79.0168 -79.0168 -79.0167 -79.0167
   -79.0167 -79.0167 -79.0167 -79.0167 -79.0164 -79.0164 -79.0163 -79.0163
   -79.0159 -79.0159 -79.0159 -79.0159 -79.0159 -79.0159 -79.0159 -79.0159
   -79.0110 -79.0110 -79.0110 -79.0110 -79.0045 -79.0045 -79.0044 -79.0044
   -79.0029 -79.0029 -79.0029 -79.0029 -79.0029 -79.0029 -79.0029 -79.0028
   -78.9996 -78.9996 -78.9996 -78.9996 -78.9995 -78.9995 -78.9995 -78.9995
   -78.9988 -78.9988 -78.9987 -78.9987 -78.9960 -78.9960 -78.9960 -78.9959
   -78.9950 -78.9950 -78.9950 -78.9950 -78.9921 -78.9921 -78.9921 -78.9920
    -8.1562  -8.1562  -7.3173  -7.3173  -7.0263  -7.0263  -6.8646  -6.8646
    -6.8602  -6.8602  -6.7502  -6.7502  -6.7502  -6.7501  -6.6541  -6.6541
    -6.6475  -6.6475  -6.6475  -6.6475  -6.6251  -6.6251  -6.6075  -6.6075
    -6.6075  -6.6075  -6.5542  -6.5542  -6.5293  -6.5293  -6.5293  -6.5293
    -6.5065  -6.5065  -6.4880  -6.4880  -6.4880  -6.4880  -6.4636  -6.4636
    -6.4636  -6.4636  -6.4613  -6.4613  -6.4502  -6.4502  -6.4266  -6.4266
    -6.4223  -6.4223  -6.4223  -6.4223  -6.3107  -6.3107  -6.3019  -6.3019
    -6.2935  -6.2935  -6.2935  -6.2935  -6.2920  -6.2920  -6.2711  -6.2711
    -6.2711  -6.2711  -6.2368  -6.2368  -6.2216  -6.2215  -6.2215  -6.2215
    -6.2065  -6.2065  -6.2015  -6.2015  -6.1706  -6.1706  -6.1425  -6.1425
    -6.1122  -6.1122  -6.1037  -6.1037  -6.0829  -6.0829  -6.0829  -6.0829
    -6.0622  -6.0622  -6.0622  -6.0622  -6.0424  -6.0424  -6.0327  -6.0327
    -6.0264  -6.0264  -6.0226  -6.0226  -6.0096  -6.0096  -5.9903  -5.9903
    -5.9903  -5.9903  -5.9472  -5.9472  -5.9461  -5.9461  -5.9157  -5.9157
    -5.9057  -5.9057  -5.8723  -5.8723  -5.8723  -5.8723  -5.8153  -5.8153
    -5.8096  -5.8096  -5.8090  -5.8090  -5.8090  -5.8090  -5.8056  -5.8056
    -5.7876  -5.7876  -5.7852  -5.7852  -5.7763  -5.7763  -5.7763  -5.7763
    -5.7684  -5.7684  -5.7679  -5.7679  -5.7679  -5.7679  -5.7562  -5.7562
    -5.7542  -5.7542  -5.7542  -5.7542  -5.6756  -5.6756  -5.6742  -5.6742
    -5.6674  -5.6674  -5.6459  -5.6459  -5.6459  -5.6459  -5.6314  -5.6314
    -5.6241  -5.6241  -5.6049  -5.6049  -5.6049  -5.6049  -5.5947  -5.5947
    -5.5706  -5.5706  -5.5439  -5.5439  -5.5293  -5.5293  -5.5293  -5.5293
    -5.5266  -5.5266  -5.5266  -5.5266  -5.5235  -5.5235  -5.5212  -5.5212
    -5.4993  -5.4993  -5.4993  -5.4993  -5.4892  -5.4892  -5.4889  -5.4889
    -5.4872  -5.4872  -5.4794  -5.4794  -5.4643  -5.4643  -5.4643  -5.4643
    -5.4517  -5.4517  -5.4517  -5.4517  -5.4400  -5.4400  -5.4230  -5.4230
    -5.4160  -5.4160  -5.4160  -5.4160  -5.4127  -5.4127  -5.4121  -5.4121
    -5.4056  -5.4056  -5.4028  -5.4028  -5.4006  -5.4006  -5.3707  -5.3707
    -5.3632  -5.3632  -5.3632  -5.3632  -5.3246  -5.3246  -5.3246  -5.3246
    -5.2546  -5.2546  -5.2546  -5.2546  -5.2357  -5.2357  -5.2347  -5.2347
    -5.2347  -5.2347  -5.2018  -5.2018  -5.1991  -5.1991  -4.7025  -4.7025
    -4.4188  -4.4188  -4.4188  -4.4188  -3.7287  -3.7287  -3.1109  -3.1109
    -3.0620  -3.0620  -3.0620  -3.0620  -2.3918  -2.3918  -2.2402  -2.2402
    -1.7583  -1.7583  -1.7583  -1.7583  -0.7557  -0.7557  -0.7557  -0.7557
    -0.3258  -0.3258  -0.3258  -0.3258  -0.0907  -0.0907   0.0127   0.0127
     1.0209   1.0209   1.0488   1.0489   1.3377   1.3377   1.3696   1.3696
     1.3696   1.3696   2.2232   2.2232   2.8996   2.8996   2.8997   2.8997
     3.1013   3.1013   3.1013   3.1013   3.3219   3.3219   3.5536   3.5536
     3.8663   3.8663   3.8663   3.8663   3.9979   3.9980   4.2576   4.2576
     4.4456   4.4456   4.7456   4.7456   4.8577   4.8577   5.4821   5.4821
     5.4994   5.4994   5.6536   5.6536   5.8007   5.8007   5.9293   5.9293
     5.9293   5.9293   5.9828   5.9828   5.9828   5.9828   6.1526   6.1526
     6.1526   6.1526   6.4017   6.4017   6.5594   6.5594   6.5719   6.5719
     6.6223   6.6223   6.7889   6.7889   6.8655   6.8655   7.0133   7.0133
     7.0133   7.0133   7.5449   7.5449   7.6862   7.6862   8.0642   8.0642
     8.0763   8.0763   8.0765   8.0765   8.2773   8.2773   8.4051   8.4051
     8.4053   8.4053   8.6116   8.6116   8.6117   8.6117   8.6161   8.6161
     8.7362   8.7362   8.7716   8.7716   8.9981   8.9981   8.9981   8.9981

     occupation numbers 
     1.0000   1.0000   1.0000   1.0000   1.0000   1.0000   1.0000   1.0000
     1.0000   1.0000   1.0000   1.0000   1.0000   1.0000   1.0000   1.0000
     1.0000   1.0000   1.0000   1.0000   1.0000   1.0000   1.0000   1.0000
     1.0000   1.0000   1.0000   1.0000   1.0000   1.0000   1.0000   1.0000
     1.0000   1.0000   1.0000   1.0000   1.0000   1.0000   1.0000   1.0000
     1.0000   1.0000   1.0000   1.0000   1.0000   1.0000   1.0000   1.0000
     1.0000   1.0000   1.0000   1.0000   1.0000   1.0000   1.0000   1.0000
     1.0000   1.0000   1.0000   1.0000   1.0000   1.0000   1.0000   1.0000
     1.0000   1.0000   1.0000   1.0000   1.0000   1.0000   1.0000   1.0000
     1.0000   1.0000   1.0000   1.0000   1.0000   1.0000   1.0000   1.0000
     1.0000   1.0000   1.0000   1.0000   1.0000   1.0000   1.0000   1.0000
     1.0000   1.0000   1.0000   1.0000   1.0000   1.0000   1.0000   1.0000
     1.0000   1.0000   1.0000   1.0000   1.0000   1.0000   1.0000   1.0000
     1.0000   1.0000   1.0000   1.0000   1.0000   1.0000   1.0000   1.0000
     1.0000   1.0000   1.0000   1.0000   1.0000   1.0000   1.0000   1.0000
     1.0000   1.0000   1.0000   1.0000   1.0000   1.0000   1.0000   1.0000
     1.0000   1.0000   1.0000   1.0000   1.0000   1.0000   1.0000   1.0000
     1.0000   1.0000   1.0000   1.0000   1.0000   1.0000   1.0000   1.0000
     1.0000   1.0000   1.0000   1.0000   1.0000   1.0000   1.0000   1.0000
     1.0000   1.0000   1.0000   1.0000   1.0000   1.0000   1.0000   1.0000
     1.0000   1.0000   1.0000   1.0000   1.0000   1.0000   1.0000   1.0000
     1.0000   1.0000   1.0000   1.0000   1.0000   1.0000   1.0000   1.0000
     1.0000   1.0000   1.0000   1.0000   1.0000   1.0000   1.0000   1.0000
     1.0000   1.0000   1.0000   1.0000   1.0000   1.0000   1.0000   1.0000
     1.0000   1.0000   1.0000   1.0000   1.0000   1.0000   1.0000   1.0000
     1.0000   1.0000   1.0000   1.0000   1.0000   1.0000   1.0000   1.0000
     1.0000   1.0000   1.0000   1.0000   1.0000   1.0000   1.0000   1.0000
     1.0000   1.0000   1.0000   1.0000   1.0000   1.0000   1.0000   1.0000
     1.0000   1.0000   1.0000   1.0000   1.0000   1.0000   1.0000   1.0000
     1.0000   1.0000   1.0000   1.0000   1.0000   1.0000   1.0000   1.0000
     1.0000   1.0000   1.0000   1.0000   1.0000   1.0000   1.0000   1.0000
     1.0000   1.0000   1.0000   1.0000   1.0000   1.0000   1.0000   1.0000
     1.0000   1.0000   1.0000   1.0000   1.0000   1.0000   1.0000   1.0000
     1.0000   1.0000   1.0000   1.0000   1.0000   1.0000   1.0000   1.0000
     1.0000   1.0000   1.0000   1.0000   1.0000   1.0000   1.0000   1.0000
     1.0000   1.0000   1.0000   1.0000   1.0000   1.0000   1.0000   1.0000
     1.0000   1.0000   1.0000   1.0000   1.0000   1.0000   1.0000   1.0000
     1.0000   1.0000   1.0000   1.0000   1.0000   1.0000   1.0000   1.0000
     1.0000   1.0000   1.0000   1.0000   1.0000   1.0000   1.0000   1.0000
     1.0000   1.0000   1.0000   1.0000   1.0000   1.0000   1.0000   1.0000
     1.0000   1.0000   1.0000   1.0000   1.0000   1.0000   1.0000   1.0000
     1.0000   1.0000   1.0000   1.0000   1.0000   1.0000   1.0000   1.0000
     1.0000   1.0000   1.0000   1.0000   1.0000   1.0000   1.0000   1.0000
     1.0000   1.0000   1.0000   1.0000   1.0000   1.0000   1.0000   1.0000
     1.0000   1.0000   1.0000   1.0000   1.0000   1.0000   1.0000   1.0000
     1.0000   1.0000   1.0000   1.0000   1.0000   1.0000   1.0000   1.0000
     1.0000   1.0000   1.0000   1.0000   1.0000   1.0000   1.0000   1.0000
     1.0000   1.0000   1.0000   1.0000   1.0000   1.0000   1.0000   1.0000
     1.0000   1.0000   1.0000   1.0000   1.0000   1.0000   1.0000   1.0000
     1.0000   1.0000   1.0000   1.0000   1.0000   1.0000   1.0000   1.0000
     1.0000   1.0000   1.0000   1.0000   1.0000   1.0000   1.0000   1.0000
     1.0000   1.0000   1.0000   1.0000   1.0000   1.0000   1.0000   1.0000
     1.0000   1.0000   1.0000   1.0000   1.0000   1.0000   1.0000   1.0000
     1.0000   1.0000   1.0000   1.0000   1.0000   1.0000   1.0000   1.0000
     1.0000   1.0000   1.0000   1.0000   1.0000   1.0000   1.0000   1.0000
     1.0000   1.0000   1.0000   1.0000   1.0000   1.0000   1.0000   1.0000
     1.0000   1.0000   1.0000   1.0000   1.0000   1.0000   1.0000   1.0000
     1.0000   1.0000   1.0000   1.0000   1.0000   1.0000   1.0000   1.0000
     1.0000   1.0000   1.0000   1.0000   1.0000   1.0000   1.0000   1.0000
     1.0812   1.0812   1.0833   1.0833   0.6571   0.6571   0.5689   0.5689
     0.5689   0.5689   0.0000   0.0000   0.0000   0.0000   0.0000   0.0000
     0.0000   0.0000   0.0000   0.0000   0.0000   0.0000   0.0000   0.0000
     0.0000   0.0000   0.0000   0.0000   0.0000   0.0000   0.0000   0.0000
     0.0000   0.0000   0.0000   0.0000   0.0000   0.0000   0.0000   0.0000
     0.0000   0.0000   0.0000   0.0000   0.0000   0.0000   0.0000   0.0000
     0.0000   0.0000   0.0000   0.0000   0.0000   0.0000   0.0000   0.0000
     0.0000   0.0000   0.0000   0.0000   0.0000   0.0000   0.0000   0.0000
     0.0000   0.0000   0.0000   0.0000   0.0000   0.0000   0.0000   0.0000
     0.0000   0.0000   0.0000   0.0000   0.0000   0.0000   0.0000   0.0000
     0.0000   0.0000   0.0000   0.0000   0.0000   0.0000   0.0000   0.0000
     0.0000   0.0000   0.0000   0.0000   0.0000   0.0000   0.0000   0.0000
     0.0000   0.0000   0.0000   0.0000   0.0000   0.0000   0.0000   0.0000

     the Fermi energy is     1.4326 ev

!    total energy              =  -22154.25531476 Ry
     estimated scf accuracy    <       0.00000073 Ry
     smearing contrib. (-TS)   =       0.00133651 Ry
     internal energy E=F+TS    =  -22154.25665127 Ry

     The total energy is F=E-TS. E is the sum of the following terms:
     one-electron contribution = -144865.45512945 Ry
     hartree contribution      =   72366.10933987 Ry
     xc contribution           =   -2024.15880538 Ry
     ewald contribution        =   52369.24794370 Ry

     convergence has been achieved in  11 iterations

     Writing all to output data dir ./tmp/Zn002.save/ :
     XML data file, charge density, pseudopotentials, collected wavefunctions

     init_run     :    114.39s CPU    115.11s WALL (       1 calls)
     electrons    :   5100.70s CPU   5136.07s WALL (       1 calls)

     Called by init_run:
     wfcinit      :    113.63s CPU    114.33s WALL (       1 calls)
     wfcinit:atom :      0.07s CPU      0.12s WALL (      10 calls)
     wfcinit:wfcr :    112.50s CPU    113.06s WALL (      10 calls)
     potinit      :      0.04s CPU      0.05s WALL (       1 calls)
     hinit0       :      0.02s CPU      0.03s WALL (       1 calls)

     Called by electrons:
     c_bands      :   4757.51s CPU   4790.80s WALL (      12 calls)
     sum_band     :    336.77s CPU    338.60s WALL (      12 calls)
     v_of_rho     :      0.48s CPU      0.51s WALL (      12 calls)
     v_h          :      0.03s CPU      0.03s WALL (      12 calls)
     v_xc         :      0.45s CPU      0.47s WALL (      12 calls)
     newd         :      6.36s CPU      6.54s WALL (      12 calls)
     mix_rho      :      0.07s CPU      0.08s WALL (      12 calls)

     Called by c_bands:
     init_us_2    :      4.73s CPU      4.75s WALL (     250 calls)
     cegterg      :   4748.01s CPU   4781.17s WALL (     120 calls)

     Called by sum_band:
     sum_band:wei :      0.05s CPU      0.05s WALL (      12 calls)
     sum_band:loo :    330.33s CPU    331.96s WALL (      12 calls)
     sum_band:buf :      1.02s CPU      1.05s WALL (     120 calls)
     sum_band:ini :      2.25s CPU      2.25s WALL (     120 calls)
     sum_band:cal :    286.76s CPU    288.04s WALL (     120 calls)
     sum_band:bec :      2.45s CPU      2.46s WALL (     120 calls)
     addusdens    :      6.31s CPU      6.50s WALL (      12 calls)
                                        0.00s GPU  (      12 calls)
     addusd:skk   :      0.07s CPU      0.07s WALL (      12 calls)
                                        0.00s GPU  (      12 calls)

     Called by *egterg:
     cdiaghg      :    298.95s CPU    310.38s WALL (     685 calls)
     cegterg:over :    761.20s CPU    763.67s WALL (     575 calls)
     cegterg:upda :    335.26s CPU    337.18s WALL (     575 calls)
     cegterg:last :   1126.44s CPU   1133.14s WALL (     233 calls)
     cdiaghg:chol :     18.94s CPU     18.99s WALL (     685 calls)
     cdiaghg:inve :      2.96s CPU      2.97s WALL (     685 calls)
     cdiaghg:para :     77.83s CPU     79.26s WALL (    1370 calls)
     h_psi        :   1487.04s CPU   1494.17s WALL (     705 calls)
     s_psi        :    613.17s CPU    614.63s WALL (     705 calls)
     g_psi        :      0.64s CPU      0.64s WALL (     575 calls)

     Called by h_psi:
     h_psi:calbec :    685.53s CPU    688.63s WALL (     705 calls)
     vloc_psi     :    178.25s CPU    179.64s WALL (     705 calls)
     add_vuspsi   :    621.19s CPU    622.70s WALL (     705 calls)

     General routines
     calbec       :    972.29s CPU    976.67s WALL (     825 calls)
     fft          :      0.25s CPU      0.29s WALL (     154 calls)
     ffts         :      0.02s CPU      0.03s WALL (      24 calls)
     fftw         :    197.23s CPU    198.72s WALL (  399638 calls)
     interpolate  :      0.03s CPU      0.04s WALL (      12 calls)

     Parallel routines

     PWSCF        :      1h26m CPU      1h27m WALL


   This run was terminated on:   2:34: 1  26Mar2025            

=------------------------------------------------------------------------------=
   JOB DONE.
=------------------------------------------------------------------------------=
Note: The following floating-point exceptions are signalling: IEEE_DENORMAL
Note: The following floating-point exceptions are signalling: IEEE_DENORMAL
Note: The following floating-point exceptions are signalling: IEEE_DENORMAL
Note: The following floating-point exceptions are signalling: IEEE_DENORMAL
Note: The following floating-point exceptions are signalling: IEEE_DENORMAL
Note: The following floating-point exceptions are signalling: IEEE_DENORMAL
Note: The following floating-point exceptions are signalling: IEEE_DENORMAL
Note: The following floating-point exceptions are signalling: IEEE_DENORMAL
Note: The following floating-point exceptions are signalling: IEEE_DENORMAL
Note: The following floating-point exceptions are signalling: IEEE_DENORMAL
Note: The following floating-point exceptions are signalling: IEEE_DENORMAL
