--------------------------------------------------------------------------
By default, for Open MPI 4.0 and later, infiniband ports on a device
are not used by default.  The intent is to use UCX for these devices.
You can override this policy by setting the btl_openib_allow_ib MCA parameter
to true.

  Local host:              psid07
  Local adapter:           mlx4_0
  Local port:              1

--------------------------------------------------------------------------
--------------------------------------------------------------------------
WARNING: There was an error initializing an OpenFabrics device.

  Local host:   psid07
  Local device: mlx4_0
--------------------------------------------------------------------------

     Program PWSCF v.7.3.1 starts on 26Mar2025 at 16:17:41 

     This program is part of the open-source Quantum ESPRESSO suite
     for quantum simulation of materials; please cite
         "P. Giannozzi et al., J. Phys.:Condens. Matter 21 395502 (2009);
         "P. Giannozzi et al., J. Phys.:Condens. Matter 29 465901 (2017);
         "P. Giannozzi et al., J. Chem. Phys. 152 154105 (2020);
          URL http://www.quantum-espresso.org", 
     in publications or presentations arising from this work. More details at
     http://www.quantum-espresso.org/quote

     Parallel version (MPI), running on    33 processors

     MPI processes distributed on     1 nodes
     132368 MiB available memory on the printing compute node when the environment starts

     Waiting for input...
     Reading input from standard input

     Current dimensions of program PWSCF are:
     Max number of different atomic species (ntypx) = 10
     Max number of k-points (npk) =  40000
     Max angular momentum in pseudopotentials (lmaxx) =  4
     Found identity + ( -0.5000  0.0000  0.0000) symmetry
     This is a supercell, fractional translations are disabled

     R & G space division:  proc/nbgrp/npool/nimage =      33
     Subspace diagonalization in iterative solution of the eigenvalue problem:
     one sub-group per band group will be used
     custom distributed-memory algorithm (size of sub-group:  5*  5 procs)


     Parallelization info
     --------------------
     sticks:   dense  smooth     PW     G-vecs:    dense   smooth      PW
     Min         228     130     36                36393    15714    2270
     Max         230     131     37                36401    15723    2280
     Sum        7555    4303   1189              1201061   518755   75035

     Using Slab Decomposition



     bravais-lattice index     =            0
     lattice parameter (alat)  =      19.7617  a.u.
     unit-cell volume          =   15176.5939 (a.u.)^3
     number of atoms/cell      =           48
     number of atomic types    =            1
     number of electrons       =       960.00
     number of Kohn-Sham states=          576
     kinetic-energy cutoff     =      40.0000  Ry
     charge density cutoff     =     280.0000  Ry
     scf convergence threshold =      1.0E-06
     mixing beta               =       0.4000
     number of iterations used =            8  plain     mixing
     Exchange-correlation= SLA  PW   PBE  PBE
                           (   1   4   3   4   0   0   0)

     celldm(1)=  19.761696  celldm(2)=   0.000000  celldm(3)=   0.000000
     celldm(4)=   0.000000  celldm(5)=   0.000000  celldm(6)=   0.000000

     crystal axes: (cart. coord. in units of alat)
               a(1) = (   1.000000   0.000000   0.000000 )  
               a(2) = (  -0.500000   0.866025   0.000000 )  
               a(3) = (   0.000000   0.000000   2.270759 )  

     reciprocal axes: (cart. coord. in units 2 pi/alat)
               b(1) = (  1.000000  0.577350 -0.000000 )  
               b(2) = (  0.000000  1.154701  0.000000 )  
               b(3) = (  0.000000 -0.000000  0.440381 )  


     PseudoPot. # 1 for Zn read from file:
     /home/ys/qepseudo/SSSP_1.3.0_PBE_efficiency/Zn_pbe_v1.uspp.F.UPF
     MD5 check sum: df62231357ef9e81f77b2b3087fa5675
     Pseudo is Ultrasoft, Zval = 20.0
     Generated by new atomic code, or converted to UPF format
     Using radial grid of  943 points,  6 beta functions with: 
                l(1) =   0
                l(2) =   0
                l(3) =   1
                l(4) =   1
                l(5) =   2
                l(6) =   2
     Q(r) pseudized with  8 coefficients,  rinner =    1.100   1.100   1.100
                                                       1.100   1.100

     atomic species   valence    mass     pseudopotential
     Zn               20.00    65.38000     Zn( 1.00)

     No symmetry found


                                    s                        frac. trans.

      isym =  1     identity                                     

 cryst.   s( 1) = (     1          0          0      )
                  (     0          1          0      )
                  (     0          0          1      )

 cart.    s( 1) = (  1.0000000  0.0000000  0.0000000 )
                  (  0.0000000  1.0000000  0.0000000 )
                  (  0.0000000  0.0000000  1.0000000 )


   Cartesian axes

     site n.     atom                  positions (alat units)
         1        Zn     tau(   1) = (   0.0000000   0.1443375   0.1164998  )
         2        Zn     tau(   2) = (   0.5000000   0.1443375   0.1164998  )
         3        Zn     tau(   3) = (   0.0000000   0.1443375   0.5824993  )
         4        Zn     tau(   4) = (   0.5000000   0.1443375   0.5824993  )
         5        Zn     tau(   5) = (  -0.1250000   0.3608439   0.1164998  )
         6        Zn     tau(   6) = (   0.3750000   0.3608439   0.1164998  )
         7        Zn     tau(   7) = (  -0.1250000   0.3608439   0.5824993  )
         8        Zn     tau(   8) = (   0.3750000   0.3608439   0.5824993  )
         9        Zn     tau(   9) = (  -0.2500000   0.5773502   0.1164998  )
        10        Zn     tau(  10) = (   0.2500000   0.5773502   0.1164998  )
        11        Zn     tau(  11) = (  -0.2500000   0.5773502   0.5824993  )
        12        Zn     tau(  12) = (   0.2500000   0.5773502   0.5824993  )
        13        Zn     tau(  13) = (  -0.3750000   0.7938567   0.1164998  )
        14        Zn     tau(  14) = (   0.1250000   0.7938567   0.1164998  )
        15        Zn     tau(  15) = (  -0.3750000   0.7938567   0.5824993  )
        16        Zn     tau(  16) = (   0.1250000   0.7938567   0.5824993  )
        17        Zn     tau(  17) = (   0.2500000   0.1443375   0.1164998  )
        18        Zn     tau(  18) = (   0.7500000   0.1443375   0.1164998  )
        19        Zn     tau(  19) = (   0.2500000   0.1443375   0.5824993  )
        20        Zn     tau(  20) = (   0.7500000   0.1443375   0.5824993  )
        21        Zn     tau(  21) = (   0.1250000   0.3608439   0.1164998  )
        22        Zn     tau(  22) = (   0.6250000   0.3608439   0.1164998  )
        23        Zn     tau(  23) = (   0.1250000   0.3608439   0.5824993  )
        24        Zn     tau(  24) = (   0.6250000   0.3608439   0.5824993  )
        25        Zn     tau(  25) = (   0.0000000   0.5773502   0.1164998  )
        26        Zn     tau(  26) = (   0.5000000   0.5773502   0.1164998  )
        27        Zn     tau(  27) = (   0.0000000   0.5773502   0.5824993  )
        28        Zn     tau(  28) = (   0.5000000   0.5773502   0.5824993  )
        29        Zn     tau(  29) = (  -0.1250000   0.7938567   0.1164998  )
        30        Zn     tau(  30) = (   0.3750000   0.7938567   0.1164998  )
        31        Zn     tau(  31) = (  -0.1250000   0.7938567   0.5824993  )
        32        Zn     tau(  32) = (   0.3750000   0.7938567   0.5824993  )
        33        Zn     tau(  33) = (   0.1250000   0.0721688   0.3494996  )
        34        Zn     tau(  34) = (   0.6250000   0.0721688   0.3494996  )
        35        Zn     tau(  35) = (   0.0000000   0.2886752   0.3494996  )
        36        Zn     tau(  36) = (   0.5000000   0.2886752   0.3494996  )
        37        Zn     tau(  37) = (  -0.1250000   0.5051815   0.3494996  )
        38        Zn     tau(  38) = (   0.3750000   0.5051815   0.3494996  )
        39        Zn     tau(  39) = (  -0.2500000   0.7216879   0.3494996  )
        40        Zn     tau(  40) = (   0.2500000   0.7216879   0.3494996  )
        41        Zn     tau(  41) = (   0.3750000   0.0721688   0.3494996  )
        42        Zn     tau(  42) = (   0.8750000   0.0721688   0.3494996  )
        43        Zn     tau(  43) = (   0.2500000   0.2886752   0.3494996  )
        44        Zn     tau(  44) = (   0.7500000   0.2886752   0.3494996  )
        45        Zn     tau(  45) = (   0.1250000   0.5051815   0.3494996  )
        46        Zn     tau(  46) = (   0.6250000   0.5051815   0.3494996  )
        47        Zn     tau(  47) = (   0.0000000   0.7216879   0.3494996  )
        48        Zn     tau(  48) = (   0.5000000   0.7216879   0.3494996  )

   Crystallographic axes

     site n.     atom                  positions (cryst. coord.)
         1        Zn     tau(   1) = (  0.0833333  0.1666666  0.0513044  )
         2        Zn     tau(   2) = (  0.5833333  0.1666666  0.0513044  )
         3        Zn     tau(   3) = (  0.0833333  0.1666666  0.2565219  )
         4        Zn     tau(   4) = (  0.5833333  0.1666666  0.2565219  )
         5        Zn     tau(   5) = (  0.0833333  0.4166666  0.0513044  )
         6        Zn     tau(   6) = (  0.5833333  0.4166666  0.0513044  )
         7        Zn     tau(   7) = (  0.0833333  0.4166666  0.2565219  )
         8        Zn     tau(   8) = (  0.5833333  0.4166666  0.2565219  )
         9        Zn     tau(   9) = (  0.0833333  0.6666666  0.0513044  )
        10        Zn     tau(  10) = (  0.5833333  0.6666666  0.0513044  )
        11        Zn     tau(  11) = (  0.0833333  0.6666666  0.2565219  )
        12        Zn     tau(  12) = (  0.5833333  0.6666666  0.2565219  )
        13        Zn     tau(  13) = (  0.0833333  0.9166667  0.0513044  )
        14        Zn     tau(  14) = (  0.5833334  0.9166667  0.0513044  )
        15        Zn     tau(  15) = (  0.0833333  0.9166667  0.2565219  )
        16        Zn     tau(  16) = (  0.5833334  0.9166667  0.2565219  )
        17        Zn     tau(  17) = (  0.3333333  0.1666666  0.0513044  )
        18        Zn     tau(  18) = (  0.8333334  0.1666666  0.0513044  )
        19        Zn     tau(  19) = (  0.3333333  0.1666666  0.2565219  )
        20        Zn     tau(  20) = (  0.8333334  0.1666666  0.2565219  )
        21        Zn     tau(  21) = (  0.3333333  0.4166666  0.0513044  )
        22        Zn     tau(  22) = (  0.8333333  0.4166666  0.0513044  )
        23        Zn     tau(  23) = (  0.3333333  0.4166666  0.2565219  )
        24        Zn     tau(  24) = (  0.8333333  0.4166666  0.2565219  )
        25        Zn     tau(  25) = (  0.3333333  0.6666666  0.0513044  )
        26        Zn     tau(  26) = (  0.8333333  0.6666666  0.0513044  )
        27        Zn     tau(  27) = (  0.3333333  0.6666666  0.2565219  )
        28        Zn     tau(  28) = (  0.8333333  0.6666666  0.2565219  )
        29        Zn     tau(  29) = (  0.3333334  0.9166667  0.0513044  )
        30        Zn     tau(  30) = (  0.8333334  0.9166667  0.0513044  )
        31        Zn     tau(  31) = (  0.3333334  0.9166667  0.2565219  )
        32        Zn     tau(  32) = (  0.8333334  0.9166667  0.2565219  )
        33        Zn     tau(  33) = (  0.1666667  0.0833334  0.1539131  )
        34        Zn     tau(  34) = (  0.6666667  0.0833334  0.1539131  )
        35        Zn     tau(  35) = (  0.1666667  0.3333334  0.1539131  )
        36        Zn     tau(  36) = (  0.6666667  0.3333334  0.1539131  )
        37        Zn     tau(  37) = (  0.1666667  0.5833334  0.1539131  )
        38        Zn     tau(  38) = (  0.6666667  0.5833334  0.1539131  )
        39        Zn     tau(  39) = (  0.1666667  0.8333334  0.1539131  )
        40        Zn     tau(  40) = (  0.6666667  0.8333334  0.1539131  )
        41        Zn     tau(  41) = (  0.4166667  0.0833334  0.1539131  )
        42        Zn     tau(  42) = (  0.9166667  0.0833334  0.1539131  )
        43        Zn     tau(  43) = (  0.4166667  0.3333334  0.1539131  )
        44        Zn     tau(  44) = (  0.9166667  0.3333334  0.1539131  )
        45        Zn     tau(  45) = (  0.4166667  0.5833334  0.1539131  )
        46        Zn     tau(  46) = (  0.9166667  0.5833334  0.1539131  )
        47        Zn     tau(  47) = (  0.4166667  0.8333334  0.1539131  )
        48        Zn     tau(  48) = (  0.9166667  0.8333334  0.1539131  )

     number of k points=    10  Marzari-Vanderbilt smearing, width (Ry)=  0.0020
                       cart. coord. in units 2pi/alat
        k(    1) = (   0.0000000   0.0000000   0.0000000), wk =   0.1250000
        k(    2) = (   0.0000000   0.2886751   0.0000000), wk =   0.2500000
        k(    3) = (   0.0000000  -0.5773503   0.0000000), wk =   0.1250000
        k(    4) = (   0.2500000   0.1443376   0.0000000), wk =   0.2500000
        k(    5) = (   0.2500000   0.4330127   0.0000000), wk =   0.2500000
        k(    6) = (   0.2500000  -0.4330127   0.0000000), wk =   0.2500000
        k(    7) = (   0.2500000  -0.1443376   0.0000000), wk =   0.2500000
        k(    8) = (  -0.5000000  -0.2886751   0.0000000), wk =   0.1250000
        k(    9) = (  -0.5000000   0.0000000   0.0000000), wk =   0.2500000
        k(   10) = (  -0.5000000  -0.8660254   0.0000000), wk =   0.1250000

                       cryst. coord.
        k(    1) = (   0.0000000   0.0000000   0.0000000), wk =   0.1250000
        k(    2) = (   0.0000000   0.2500000   0.0000000), wk =   0.2500000
        k(    3) = (   0.0000000  -0.5000000   0.0000000), wk =   0.1250000
        k(    4) = (   0.2500000   0.0000000   0.0000000), wk =   0.2500000
        k(    5) = (   0.2500000   0.2500000   0.0000000), wk =   0.2500000
        k(    6) = (   0.2500000  -0.5000000   0.0000000), wk =   0.2500000
        k(    7) = (   0.2500000  -0.2500000   0.0000000), wk =   0.2500000
        k(    8) = (  -0.5000000   0.0000000   0.0000000), wk =   0.1250000
        k(    9) = (  -0.5000000   0.2500000   0.0000000), wk =   0.2500000
        k(   10) = (  -0.5000000  -0.5000000   0.0000000), wk =   0.1250000

     Dense  grid:  1201061 G-vectors     FFT dimensions: ( 108, 108, 240)

     Smooth grid:   518755 G-vectors     FFT dimensions: (  80,  80, 192)

     Dynamical RAM for                 wfc:      17.26 MB

     Dynamical RAM for     wfc (w. buffer):     189.88 MB

     Dynamical RAM for           str. fact:       0.56 MB

     Dynamical RAM for           local pot:       0.00 MB

     Dynamical RAM for          nlocal pot:      25.89 MB

     Dynamical RAM for                qrad:       1.34 MB

     Dynamical RAM for          rho,v,vnew:       3.80 MB

     Dynamical RAM for               rhoin:       1.27 MB

     Dynamical RAM for            rho*nmix:       8.89 MB

     Dynamical RAM for           G-vectors:       2.20 MB

     Dynamical RAM for          h,s,v(r/c):       2.42 MB

     Dynamical RAM for          <psi|beta>:       7.59 MB

     Dynamical RAM for                 psi:      34.52 MB

     Dynamical RAM for                hpsi:      34.52 MB

     Dynamical RAM for                spsi:      34.52 MB

     Dynamical RAM for      wfcinit/wfcrot:      46.32 MB

     Dynamical RAM for           addusdens:     129.95 MB

     Estimated static dynamical RAM per process >     229.61 MB

     Estimated max dynamical RAM per process >     368.45 MB

     Estimated total dynamical RAM >      11.87 GB

     Initial potential from superposition of free atoms

     starting charge     959.9932, renormalised to     960.0000

     negative rho (up, down):  4.194E-03 0.000E+00
     Starting wfcs are  624 randomized atomic wfcs
[psid07:132514] 32 more processes have sent help message help-mpi-btl-openib.txt / ib port not selected
[psid07:132514] Set MCA parameter "orte_base_help_aggregate" to 0 to see all help / error messages
[psid07:132514] 32 more processes have sent help message help-mpi-btl-openib.txt / error in device init

     total cpu time spent up to now is      115.6 secs

     Self-consistent Calculation

     iteration #  1     ecut=    40.00 Ry     beta= 0.40
     Davidson diagonalization with overlap

---- Real-time Memory Report at c_bands before calling an iterative solver
           298 MiB given to the printing process from OS
             0 MiB allocation reported by mallinfo(arena+hblkhd)
        124347 MiB available memory on the node where the printing process lives
------------------
     ethr =  1.00E-02,  avg # of iterations =  9.4

     Threshold (ethr) on eigenvalues was too large:
     Diagonalizing with lowered threshold

     Davidson diagonalization with overlap

---- Real-time Memory Report at c_bands before calling an iterative solver
           391 MiB given to the printing process from OS
             0 MiB allocation reported by mallinfo(arena+hblkhd)
        123207 MiB available memory on the node where the printing process lives
------------------
     ethr =  1.61E-04,  avg # of iterations = 11.2

     negative rho (up, down):  4.987E-03 0.000E+00

     total cpu time spent up to now is     1015.5 secs

     total energy              =  -22153.85351726 Ry
     estimated scf accuracy    <       1.57835056 Ry

     iteration #  2     ecut=    40.00 Ry     beta= 0.40
     Davidson diagonalization with overlap

---- Real-time Memory Report at c_bands before calling an iterative solver
           400 MiB given to the printing process from OS
             0 MiB allocation reported by mallinfo(arena+hblkhd)
        123105 MiB available memory on the node where the printing process lives
------------------
     ethr =  1.64E-04,  avg # of iterations =  2.6

     negative rho (up, down):  5.515E-03 0.000E+00

     total cpu time spent up to now is     1455.0 secs

     total energy              =  -22154.23268114 Ry
     estimated scf accuracy    <       0.27748123 Ry

     iteration #  3     ecut=    40.00 Ry     beta= 0.40
     Davidson diagonalization with overlap

---- Real-time Memory Report at c_bands before calling an iterative solver
           403 MiB given to the printing process from OS
             0 MiB allocation reported by mallinfo(arena+hblkhd)
        123077 MiB available memory on the node where the printing process lives
------------------
     c_bands:  1 eigenvalues not converged
     ethr =  2.89E-05,  avg # of iterations =  8.5

     negative rho (up, down):  5.965E-03 0.000E+00

     total cpu time spent up to now is     1851.3 secs

     total energy              =  -22154.24963969 Ry
     estimated scf accuracy    <       0.04776671 Ry

     iteration #  4     ecut=    40.00 Ry     beta= 0.40
     Davidson diagonalization with overlap

---- Real-time Memory Report at c_bands before calling an iterative solver
           404 MiB given to the printing process from OS
             0 MiB allocation reported by mallinfo(arena+hblkhd)
        123065 MiB available memory on the node where the printing process lives
------------------
     ethr =  4.98E-06,  avg # of iterations = 11.9

     negative rho (up, down):  5.970E-03 0.000E+00

     total cpu time spent up to now is     2310.6 secs

     total energy              =  -22154.25127015 Ry
     estimated scf accuracy    <       0.01265197 Ry

     iteration #  5     ecut=    40.00 Ry     beta= 0.40
     Davidson diagonalization with overlap

---- Real-time Memory Report at c_bands before calling an iterative solver
           404 MiB given to the printing process from OS
             0 MiB allocation reported by mallinfo(arena+hblkhd)
        123042 MiB available memory on the node where the printing process lives
------------------
     ethr =  1.32E-06,  avg # of iterations =  2.3

     negative rho (up, down):  6.017E-03 0.000E+00

     total cpu time spent up to now is     2686.1 secs

     total energy              =  -22154.25201675 Ry
     estimated scf accuracy    <       0.00187139 Ry

     iteration #  6     ecut=    40.00 Ry     beta= 0.40
     Davidson diagonalization with overlap

---- Real-time Memory Report at c_bands before calling an iterative solver
           405 MiB given to the printing process from OS
             0 MiB allocation reported by mallinfo(arena+hblkhd)
        123026 MiB available memory on the node where the printing process lives
------------------
     ethr =  1.95E-07,  avg # of iterations =  2.0

     negative rho (up, down):  6.046E-03 0.000E+00

     total cpu time spent up to now is     3119.4 secs

     total energy              =  -22154.25241772 Ry
     estimated scf accuracy    <       0.00007200 Ry

     iteration #  7     ecut=    40.00 Ry     beta= 0.40
     Davidson diagonalization with overlap

---- Real-time Memory Report at c_bands before calling an iterative solver
           407 MiB given to the printing process from OS
             0 MiB allocation reported by mallinfo(arena+hblkhd)
        123008 MiB available memory on the node where the printing process lives
------------------
     ethr =  7.50E-09,  avg # of iterations =  2.0

     negative rho (up, down):  6.069E-03 0.000E+00

     total cpu time spent up to now is     3560.8 secs

     total energy              =  -22154.25240379 Ry
     estimated scf accuracy    <       0.00053821 Ry

     iteration #  8     ecut=    40.00 Ry     beta= 0.40
     Davidson diagonalization with overlap

---- Real-time Memory Report at c_bands before calling an iterative solver
           407 MiB given to the printing process from OS
             0 MiB allocation reported by mallinfo(arena+hblkhd)
        122991 MiB available memory on the node where the printing process lives
------------------
     ethr =  7.50E-09,  avg # of iterations =  1.9

     negative rho (up, down):  6.085E-03 0.000E+00

     total cpu time spent up to now is     3924.5 secs

     total energy              =  -22154.25241274 Ry
     estimated scf accuracy    <       0.00005245 Ry

     iteration #  9     ecut=    40.00 Ry     beta= 0.40
     Davidson diagonalization with overlap

---- Real-time Memory Report at c_bands before calling an iterative solver
           408 MiB given to the printing process from OS
             0 MiB allocation reported by mallinfo(arena+hblkhd)
        122971 MiB available memory on the node where the printing process lives
------------------
     ethr =  5.46E-09,  avg # of iterations =  2.0

     negative rho (up, down):  6.096E-03 0.000E+00

     total cpu time spent up to now is     4378.8 secs

     total energy              =  -22154.25243059 Ry
     estimated scf accuracy    <       0.00002090 Ry

     iteration # 10     ecut=    40.00 Ry     beta= 0.40
     Davidson diagonalization with overlap

---- Real-time Memory Report at c_bands before calling an iterative solver
           408 MiB given to the printing process from OS
             0 MiB allocation reported by mallinfo(arena+hblkhd)
        122954 MiB available memory on the node where the printing process lives
------------------
     ethr =  2.18E-09,  avg # of iterations =  2.0

     negative rho (up, down):  6.103E-03 0.000E+00

     total cpu time spent up to now is     4749.0 secs

     total energy              =  -22154.25242510 Ry
     estimated scf accuracy    <       0.00001407 Ry

     iteration # 11     ecut=    40.00 Ry     beta= 0.40
     Davidson diagonalization with overlap

---- Real-time Memory Report at c_bands before calling an iterative solver
           409 MiB given to the printing process from OS
             0 MiB allocation reported by mallinfo(arena+hblkhd)
        122952 MiB available memory on the node where the printing process lives
------------------
     ethr =  1.47E-09,  avg # of iterations =  2.0

     negative rho (up, down):  6.107E-03 0.000E+00

     total cpu time spent up to now is     5192.3 secs

     total energy              =  -22154.25242907 Ry
     estimated scf accuracy    <       0.00000103 Ry

     iteration # 12     ecut=    40.00 Ry     beta= 0.40
     Davidson diagonalization with overlap

---- Real-time Memory Report at c_bands before calling an iterative solver
           409 MiB given to the printing process from OS
             0 MiB allocation reported by mallinfo(arena+hblkhd)
        122947 MiB available memory on the node where the printing process lives
------------------
     ethr =  1.08E-10,  avg # of iterations =  2.0

     negative rho (up, down):  6.114E-03 0.000E+00

     total cpu time spent up to now is     5613.4 secs

     End of self-consistent calculation

          k = 0.0000 0.0000 0.0000 ( 64855 PWs)   bands (ev):

  -125.0313-125.0296-125.0296-125.0296-125.0296-125.0296-125.0296-125.0279
  -125.0279-125.0279-125.0279-125.0279-125.0279-125.0279-125.0279-125.0279
  -124.8524-124.8523-124.8506-124.8506-124.8506-124.8506-124.8506-124.8506
  -124.8506-124.8506-124.8506-124.8506-124.8506-124.8506-124.8489-124.8489
  -124.8489-124.8489-124.8489-124.8489-124.8489-124.8489-124.8489-124.8489
  -124.8489-124.8489-124.8489-124.8489-124.8489-124.8489-124.8489-124.8488
   -79.1973 -79.1973 -79.1973 -79.1906 -79.1906 -79.1906 -79.1906 -79.1906
   -79.1906 -79.1807 -79.1793 -79.1793 -79.1793 -79.1793 -79.1793 -79.1792
   -79.1787 -79.1787 -79.1787 -79.1787 -79.1787 -79.1787 -79.1772 -79.1772
   -79.1772 -79.1772 -79.1772 -79.1772 -79.1768 -79.1767 -79.1767 -79.1767
   -79.1767 -79.1767 -79.1767 -79.1767 -79.1767 -79.1706 -79.1706 -79.1706
   -79.1659 -79.1659 -79.1659 -79.1659 -79.1659 -79.1659 -79.1612 -79.1612
   -79.0151 -79.0151 -79.0151 -79.0150 -79.0150 -79.0150 -79.0098 -79.0095
   -79.0085 -79.0085 -79.0085 -79.0085 -79.0084 -79.0084 -79.0084 -79.0084
   -79.0084 -79.0084 -79.0084 -79.0084 -79.0078 -79.0078 -79.0078 -79.0078
   -79.0078 -79.0078 -79.0077 -79.0077 -79.0077 -79.0077 -79.0077 -79.0077
   -79.0059 -79.0059 -79.0059 -79.0059 -79.0059 -79.0059 -79.0059 -79.0059
   -79.0059 -79.0059 -79.0058 -79.0058 -79.0058 -79.0058 -79.0058 -79.0058
   -79.0058 -79.0058 -78.9971 -78.9971 -78.9971 -78.9971 -78.9971 -78.9971
   -78.9971 -78.9971 -78.9971 -78.9971 -78.9971 -78.9971 -78.9951 -78.9951
   -78.9951 -78.9951 -78.9951 -78.9951 -78.9951 -78.9951 -78.9951 -78.9951
   -78.9951 -78.9951 -78.9885 -78.9885 -78.9885 -78.9885 -78.9885 -78.9885
   -78.9838 -78.9838 -78.9838 -78.9838 -78.9838 -78.9838 -78.9838 -78.9838
   -78.9838 -78.9838 -78.9838 -78.9838 -78.9791 -78.9791 -78.9791 -78.9791
    -8.5957  -7.3860  -7.0679  -7.0409  -7.0409  -7.0409  -7.0409  -7.0409
    -7.0409  -6.8791  -6.8791  -6.8791  -6.7050  -6.7050  -6.7050  -6.6643
    -6.6643  -6.6643  -6.5640  -6.5640  -6.5640  -6.5640  -6.5640  -6.5640
    -6.5223  -6.5223  -6.5223  -6.5223  -6.5223  -6.5223  -6.5152  -6.5152
    -6.5152  -6.4495  -6.4495  -6.4495  -6.4495  -6.4495  -6.4495  -6.3985
    -6.3985  -6.3985  -6.3985  -6.3985  -6.3985  -6.3162  -6.3162  -6.3162
    -6.3151  -6.3151  -6.3151  -6.3151  -6.3151  -6.3151  -6.2491  -6.2491
    -6.2491  -6.2491  -6.2491  -6.2491  -6.2473  -6.1915  -6.1914  -6.1914
    -6.1914  -6.1914  -6.1914  -6.1512  -6.1512  -6.1512  -6.1512  -6.1512
    -6.1512  -6.1306  -6.1306  -6.1306  -6.1306  -6.1306  -6.1306  -6.1017
    -6.1017  -6.1017  -6.1017  -6.1017  -6.1017  -6.0855  -6.0855  -6.0834
    -6.0834  -6.0834  -6.0676  -6.0676  -6.0676  -6.0676  -6.0676  -6.0676
    -5.9683  -5.9683  -5.9683  -5.9683  -5.9683  -5.9683  -5.9033  -5.9033
    -5.8856  -5.8856  -5.8539  -5.8539  -5.8539  -5.8539  -5.8539  -5.8539
    -5.8461  -5.8461  -5.8460  -5.8460  -5.8460  -5.8460  -5.8025  -5.8025
    -5.8025  -5.7683  -5.7683  -5.7683  -5.7683  -5.7683  -5.7683  -5.7629
    -5.7629  -5.7629  -5.7629  -5.7629  -5.7629  -5.7590  -5.7590  -5.7590
    -5.7589  -5.7589  -5.7589  -5.7398  -5.7398  -5.7398  -5.7398  -5.7398
    -5.7398  -5.7150  -5.7150  -5.7150  -5.7150  -5.7150  -5.7150  -5.7025
    -5.6951  -5.6951  -5.6951  -5.6951  -5.6951  -5.6951  -5.6923  -5.6923
    -5.6923  -5.6923  -5.6923  -5.6923  -5.6768  -5.6768  -5.6768  -5.5792
    -5.5792  -5.5580  -5.5580  -5.5580  -5.5580  -5.5579  -5.5579  -5.5516
    -5.5516  -5.5516  -5.5516  -5.5516  -5.5516  -5.5317  -5.5317  -5.5317
    -5.5317  -5.5317  -5.5317  -5.5183  -5.5183  -5.5183  -5.4906  -5.4906
    -5.4906  -5.4906  -5.4906  -5.4906  -5.4819  -5.4819  -5.4819  -5.4818
    -5.4818  -5.4818  -5.4335  -5.4335  -5.4335  -5.4335  -5.4335  -5.4335
    -5.4165  -5.4165  -5.4165  -5.4137  -5.4137  -5.4137  -5.3838  -5.3838
    -5.3838  -5.3748  -5.3748  -5.3748  -5.3748  -5.3748  -5.3748  -5.3722
    -5.3722  -5.3483  -5.3483  -5.3058  -5.3058  -5.3058  -5.3058  -5.3058
    -5.3058  -5.2689  -5.2689  -5.2689  -5.2689  -5.2689  -5.2689  -5.2441
    -5.2441  -5.2441  -5.0596  -5.0596  -5.0596  -5.0595  -5.0595  -5.0595
    -4.3809  -4.3809  -4.3809  -4.3809  -4.3809  -4.3809  -3.4358  -2.0783
    -2.0783  -2.0783  -2.0783  -2.0783  -2.0783  -2.0036  -2.0036  -2.0036
    -2.0036  -2.0036  -2.0036  -0.8156  -0.8156  -0.8156  -0.6997  -0.6252
    -0.6252  -0.6252  -0.6252  -0.6252  -0.6252  -0.0614  -0.0614  -0.0614
     0.2600   0.2600   0.2600   1.5543   1.5543   1.5543   1.5543   1.5543
     1.5543   1.5942   1.5942   1.5942   1.5942   1.5942   1.5942   2.3242
     2.3242   2.3242   3.1175   3.3212   3.3212   3.3212   4.1572   4.1572
     4.1572   4.8920   4.8920   4.8920   4.8920   4.8920   4.8920   5.0699
     5.2571   5.4411   5.4411   5.4411   5.4411   5.4411   5.4411   5.4598
     5.4598   5.4598   5.4598   5.4598   5.4598   5.6310   5.6310   5.6310
     5.6310   5.6310   5.6310   6.1940   6.3928   6.5745   6.5745   6.5745
     6.8692   6.8692   6.8692   6.8692   6.8692   6.8692   7.0265   7.0265
     7.0265   7.0265   7.0265   7.0265   7.0931   7.0931   7.0931   7.0931
     7.0931   7.0931   7.2023   7.2023   7.2023   7.2023   7.2023   7.2023
     8.0332   8.0332   8.0332   8.0332   8.0332   8.0332   8.1544   8.1544
     8.1544   8.1544   8.1544   8.1544   8.1805   8.1805   8.1805   8.1805
     8.1805   8.1805   8.2013   8.3643   8.3912   8.3912   8.3912   9.3075

     occupation numbers 
     1.0000   1.0000   1.0000   1.0000   1.0000   1.0000   1.0000   1.0000
     1.0000   1.0000   1.0000   1.0000   1.0000   1.0000   1.0000   1.0000
     1.0000   1.0000   1.0000   1.0000   1.0000   1.0000   1.0000   1.0000
     1.0000   1.0000   1.0000   1.0000   1.0000   1.0000   1.0000   1.0000
     1.0000   1.0000   1.0000   1.0000   1.0000   1.0000   1.0000   1.0000
     1.0000   1.0000   1.0000   1.0000   1.0000   1.0000   1.0000   1.0000
     1.0000   1.0000   1.0000   1.0000   1.0000   1.0000   1.0000   1.0000
     1.0000   1.0000   1.0000   1.0000   1.0000   1.0000   1.0000   1.0000
     1.0000   1.0000   1.0000   1.0000   1.0000   1.0000   1.0000   1.0000
     1.0000   1.0000   1.0000   1.0000   1.0000   1.0000   1.0000   1.0000
     1.0000   1.0000   1.0000   1.0000   1.0000   1.0000   1.0000   1.0000
     1.0000   1.0000   1.0000   1.0000   1.0000   1.0000   1.0000   1.0000
     1.0000   1.0000   1.0000   1.0000   1.0000   1.0000   1.0000   1.0000
     1.0000   1.0000   1.0000   1.0000   1.0000   1.0000   1.0000   1.0000
     1.0000   1.0000   1.0000   1.0000   1.0000   1.0000   1.0000   1.0000
     1.0000   1.0000   1.0000   1.0000   1.0000   1.0000   1.0000   1.0000
     1.0000   1.0000   1.0000   1.0000   1.0000   1.0000   1.0000   1.0000
     1.0000   1.0000   1.0000   1.0000   1.0000   1.0000   1.0000   1.0000
     1.0000   1.0000   1.0000   1.0000   1.0000   1.0000   1.0000   1.0000
     1.0000   1.0000   1.0000   1.0000   1.0000   1.0000   1.0000   1.0000
     1.0000   1.0000   1.0000   1.0000   1.0000   1.0000   1.0000   1.0000
     1.0000   1.0000   1.0000   1.0000   1.0000   1.0000   1.0000   1.0000
     1.0000   1.0000   1.0000   1.0000   1.0000   1.0000   1.0000   1.0000
     1.0000   1.0000   1.0000   1.0000   1.0000   1.0000   1.0000   1.0000
     1.0000   1.0000   1.0000   1.0000   1.0000   1.0000   1.0000   1.0000
     1.0000   1.0000   1.0000   1.0000   1.0000   1.0000   1.0000   1.0000
     1.0000   1.0000   1.0000   1.0000   1.0000   1.0000   1.0000   1.0000
     1.0000   1.0000   1.0000   1.0000   1.0000   1.0000   1.0000   1.0000
     1.0000   1.0000   1.0000   1.0000   1.0000   1.0000   1.0000   1.0000
     1.0000   1.0000   1.0000   1.0000   1.0000   1.0000   1.0000   1.0000
     1.0000   1.0000   1.0000   1.0000   1.0000   1.0000   1.0000   1.0000
     1.0000   1.0000   1.0000   1.0000   1.0000   1.0000   1.0000   1.0000
     1.0000   1.0000   1.0000   1.0000   1.0000   1.0000   1.0000   1.0000
     1.0000   1.0000   1.0000   1.0000   1.0000   1.0000   1.0000   1.0000
     1.0000   1.0000   1.0000   1.0000   1.0000   1.0000   1.0000   1.0000
     1.0000   1.0000   1.0000   1.0000   1.0000   1.0000   1.0000   1.0000
     1.0000   1.0000   1.0000   1.0000   1.0000   1.0000   1.0000   1.0000
     1.0000   1.0000   1.0000   1.0000   1.0000   1.0000   1.0000   1.0000
     1.0000   1.0000   1.0000   1.0000   1.0000   1.0000   1.0000   1.0000
     1.0000   1.0000   1.0000   1.0000   1.0000   1.0000   1.0000   1.0000
     1.0000   1.0000   1.0000   1.0000   1.0000   1.0000   1.0000   1.0000
     1.0000   1.0000   1.0000   1.0000   1.0000   1.0000   1.0000   1.0000
     1.0000   1.0000   1.0000   1.0000   1.0000   1.0000   1.0000   1.0000
     1.0000   1.0000   1.0000   1.0000   1.0000   1.0000   1.0000   1.0000
     1.0000   1.0000   1.0000   1.0000   1.0000   1.0000   1.0000   1.0000
     1.0000   1.0000   1.0000   1.0000   1.0000   1.0000   1.0000   1.0000
     1.0000   1.0000   1.0000   1.0000   1.0000   1.0000   1.0000   1.0000
     1.0000   1.0000   1.0000   1.0000   1.0000   1.0000   1.0000   1.0000
     1.0000   1.0000   1.0000   1.0000   1.0000   1.0000   1.0000   1.0000
     1.0000   1.0000   1.0000   1.0000   1.0000   1.0000   1.0000   1.0000
     1.0000   1.0000   1.0000   1.0000   1.0000   1.0000   1.0000   1.0000
     1.0000   1.0000   1.0000   1.0000   1.0000   1.0000   1.0000   1.0000
     1.0000   1.0000   1.0000   1.0000   1.0000   1.0000   1.0000   1.0000
     1.0000   1.0000   1.0000   1.0000   1.0000   1.0000   1.0000   1.0000
     1.0000   1.0000   1.0000   1.0000   1.0000   1.0000   1.0000   1.0000
     1.0000   1.0000   1.0000   1.0000   1.0000   1.0000   1.0000   1.0000
     1.0000   1.0000   1.0000   1.0000   1.0000   1.0000   1.0000   1.0000
     1.0000   1.0000   1.0000   1.0000   1.0000   1.0000   1.0000   1.0000
     1.0000   1.0000   1.0000   1.0000   1.0000   1.0000   1.0000   1.0000
     1.0000   1.0000   1.0000   0.0000   0.0000   0.0000   0.0000   0.0000
     0.0000   0.0000   0.0000   0.0000   0.0000   0.0000   0.0000   0.0000
     0.0000   0.0000   0.0000   0.0000   0.0000   0.0000   0.0000   0.0000
     0.0000   0.0000   0.0000   0.0000   0.0000   0.0000   0.0000   0.0000
     0.0000   0.0000   0.0000   0.0000   0.0000   0.0000   0.0000   0.0000
     0.0000   0.0000   0.0000   0.0000   0.0000   0.0000   0.0000   0.0000
     0.0000   0.0000   0.0000   0.0000   0.0000   0.0000   0.0000   0.0000
     0.0000   0.0000   0.0000   0.0000   0.0000   0.0000   0.0000   0.0000
     0.0000   0.0000   0.0000   0.0000   0.0000   0.0000   0.0000   0.0000
     0.0000   0.0000   0.0000   0.0000   0.0000   0.0000   0.0000   0.0000
     0.0000   0.0000   0.0000   0.0000   0.0000   0.0000   0.0000   0.0000
     0.0000   0.0000   0.0000   0.0000   0.0000   0.0000   0.0000   0.0000
     0.0000   0.0000   0.0000   0.0000   0.0000   0.0000   0.0000   0.0000

          k = 0.0000 0.2887 0.0000 ( 64808 PWs)   bands (ev):

  -125.0312-125.0303-125.0299-125.0299-125.0292-125.0292-125.0289-125.0283
  -125.0283-125.0280-125.0279-125.0279-125.0279-125.0279-125.0276-125.0276
  -124.8522-124.8522-124.8513-124.8513-124.8509-124.8509-124.8509-124.8509
  -124.8502-124.8502-124.8502-124.8502-124.8500-124.8499-124.8493-124.8493
  -124.8493-124.8493-124.8490-124.8490-124.8489-124.8489-124.8489-124.8489
  -124.8489-124.8489-124.8489-124.8489-124.8486-124.8486-124.8486-124.8486
   -79.1965 -79.1965 -79.1959 -79.1919 -79.1919 -79.1910 -79.1910 -79.1891
   -79.1891 -79.1862 -79.1830 -79.1830 -79.1806 -79.1803 -79.1803 -79.1795
   -79.1790 -79.1790 -79.1783 -79.1783 -79.1780 -79.1772 -79.1772 -79.1769
   -79.1767 -79.1767 -79.1767 -79.1767 -79.1764 -79.1764 -79.1762 -79.1762
   -79.1759 -79.1759 -79.1735 -79.1735 -79.1723 -79.1714 -79.1714 -79.1703
   -79.1677 -79.1674 -79.1674 -79.1654 -79.1654 -79.1641 -79.1626 -79.1615
   -79.0143 -79.0143 -79.0143 -79.0143 -79.0137 -79.0137 -79.0098 -79.0098
   -79.0097 -79.0097 -79.0096 -79.0094 -79.0089 -79.0089 -79.0088 -79.0088
   -79.0085 -79.0084 -79.0081 -79.0081 -79.0080 -79.0080 -79.0073 -79.0073
   -79.0073 -79.0073 -79.0070 -79.0070 -79.0070 -79.0070 -79.0069 -79.0069
   -79.0063 -79.0063 -79.0063 -79.0063 -79.0060 -79.0060 -79.0059 -79.0059
   -79.0059 -79.0059 -79.0059 -79.0058 -79.0058 -79.0058 -79.0056 -79.0056
   -79.0055 -79.0055 -79.0040 -79.0040 -79.0008 -79.0008 -79.0008 -79.0008
   -78.9981 -78.9981 -78.9981 -78.9981 -78.9941 -78.9941 -78.9940 -78.9940
   -78.9938 -78.9938 -78.9938 -78.9938 -78.9914 -78.9914 -78.9914 -78.9914
   -78.9902 -78.9902 -78.9893 -78.9893 -78.9892 -78.9892 -78.9882 -78.9881
   -78.9856 -78.9856 -78.9853 -78.9853 -78.9853 -78.9853 -78.9834 -78.9834
   -78.9833 -78.9833 -78.9820 -78.9820 -78.9805 -78.9804 -78.9795 -78.9794
    -8.4769  -7.5934  -7.2861  -7.2214  -7.2214  -7.0052  -6.8631  -6.8369
    -6.8369  -6.8174  -6.8166  -6.8166  -6.6861  -6.6752  -6.6700  -6.6700
    -6.6493  -6.6488  -6.6244  -6.6244  -6.5713  -6.5607  -6.5506  -6.5506
    -6.5335  -6.5335  -6.5257  -6.5257  -6.5111  -6.5111  -6.4957  -6.4915
    -6.4915  -6.4899  -6.4899  -6.4892  -6.4892  -6.4687  -6.4687  -6.4572
    -6.4572  -6.4317  -6.4316  -6.3895  -6.3895  -6.3778  -6.3778  -6.3605
    -6.3605  -6.3537  -6.3045  -6.3000  -6.3000  -6.2963  -6.2963  -6.2940
    -6.2940  -6.2554  -6.2554  -6.2365  -6.2325  -6.2040  -6.2040  -6.1974
    -6.1974  -6.1961  -6.1961  -6.1955  -6.1955  -6.1931  -6.1856  -6.1856
    -6.1794  -6.1794  -6.1595  -6.1595  -6.1588  -6.1588  -6.1539  -6.1292
    -6.1042  -6.1042  -6.1015  -6.1007  -6.1007  -6.0794  -6.0794  -6.0760
    -6.0760  -6.0642  -6.0564  -6.0437  -6.0437  -6.0224  -6.0224  -6.0207
    -6.0207  -5.9466  -5.9466  -5.9341  -5.9341  -5.9305  -5.9266  -5.9243
    -5.9233  -5.9200  -5.9200  -5.9007  -5.8973  -5.8973  -5.8964  -5.8964
    -5.8778  -5.8778  -5.8758  -5.8643  -5.8565  -5.8531  -5.8531  -5.8449
    -5.8231  -5.8231  -5.8171  -5.8171  -5.7954  -5.7914  -5.7800  -5.7800
    -5.7757  -5.7757  -5.7674  -5.7674  -5.7567  -5.7567  -5.7560  -5.7560
    -5.7457  -5.7286  -5.7286  -5.7206  -5.7206  -5.7159  -5.7086  -5.7086
    -5.6942  -5.6931  -5.6931  -5.6927  -5.6927  -5.6842  -5.6842  -5.6752
    -5.6752  -5.6724  -5.6724  -5.6663  -5.6514  -5.6514  -5.6450  -5.6247
    -5.6209  -5.6209  -5.6154  -5.6154  -5.6037  -5.6037  -5.6022  -5.6022
    -5.5971  -5.5936  -5.5872  -5.5872  -5.5862  -5.5520  -5.5493  -5.5466
    -5.5466  -5.5390  -5.5390  -5.5340  -5.5340  -5.5306  -5.5306  -5.5247
    -5.5247  -5.5207  -5.5146  -5.5125  -5.5125  -5.5048  -5.5048  -5.4978
    -5.4978  -5.4786  -5.4786  -5.4426  -5.4422  -5.4372  -5.4372  -5.4358
    -5.4358  -5.4351  -5.4351  -5.4273  -5.4273  -5.4138  -5.4119  -5.4118
    -5.4118  -5.4059  -5.4031  -5.3986  -5.3885  -5.3885  -5.3837  -5.3837
    -5.3772  -5.3720  -5.3720  -5.3649  -5.3543  -5.3543  -5.3501  -5.3421
    -5.3293  -5.3245  -5.3245  -5.3195  -5.2977  -5.2977  -5.2878  -5.2878
    -5.2857  -5.2857  -5.2769  -5.2712  -5.2712  -5.2618  -5.2618  -5.1247
    -5.1247  -5.1175  -5.1175  -5.1116  -5.1116  -5.0937  -5.0930  -4.9288
    -4.9125  -4.6211  -4.6211  -3.8652  -3.8652  -3.4644  -3.3691  -3.3691
    -3.3507  -2.6578  -2.2855  -2.2855  -2.1966  -1.9958  -1.9958  -1.9563
    -1.9563  -1.4979  -1.4979  -1.2663  -1.2663  -1.0997  -0.7800  -0.5473
    -0.5473  -0.5459  -0.5459  -0.5394   0.0388   0.0388   0.2867   0.2867
     0.5838   0.5838   0.6467   0.8978   0.9133   0.9133   1.1970   1.1970
     1.5749   1.5749   2.2400   2.2400   2.6693   2.7179   2.7179   2.7347
     2.7978   2.7978   2.9695   2.9695   3.2293   3.5620   3.7129   3.7129
     3.9336   3.9336   4.1210   4.1989   4.1989   4.5649   4.5649   4.8184
     4.8184   4.8583   4.8583   5.1759   5.1759   5.1772   5.1772   5.1828
     5.3721   5.4344   5.4344   5.5811   5.6592   5.8065   5.8065   5.8162
     6.0851   6.1191   6.1191   6.2910   6.3101   6.3257   6.3257   6.5053
     6.5350   6.5350   6.6096   6.6096   6.7343   6.7498   6.7498   7.0269
     7.0269   7.0998   7.0998   7.1817   7.1817   7.2348   7.3282   7.3282
     7.4035   7.4203   7.4203   7.4688   7.4688   7.6600   7.6600   7.6713
     7.6713   7.6943   7.6943   7.7451   7.8508   7.8508   7.9705   7.9705
     8.0471   8.0471   8.1252   8.3168   8.3174   8.4760   8.6317   8.6317
     8.7037   8.7037   8.7060   8.8245   8.8245   8.8364   8.8365   8.8515

     occupation numbers 
     1.0000   1.0000   1.0000   1.0000   1.0000   1.0000   1.0000   1.0000
     1.0000   1.0000   1.0000   1.0000   1.0000   1.0000   1.0000   1.0000
     1.0000   1.0000   1.0000   1.0000   1.0000   1.0000   1.0000   1.0000
     1.0000   1.0000   1.0000   1.0000   1.0000   1.0000   1.0000   1.0000
     1.0000   1.0000   1.0000   1.0000   1.0000   1.0000   1.0000   1.0000
     1.0000   1.0000   1.0000   1.0000   1.0000   1.0000   1.0000   1.0000
     1.0000   1.0000   1.0000   1.0000   1.0000   1.0000   1.0000   1.0000
     1.0000   1.0000   1.0000   1.0000   1.0000   1.0000   1.0000   1.0000
     1.0000   1.0000   1.0000   1.0000   1.0000   1.0000   1.0000   1.0000
     1.0000   1.0000   1.0000   1.0000   1.0000   1.0000   1.0000   1.0000
     1.0000   1.0000   1.0000   1.0000   1.0000   1.0000   1.0000   1.0000
     1.0000   1.0000   1.0000   1.0000   1.0000   1.0000   1.0000   1.0000
     1.0000   1.0000   1.0000   1.0000   1.0000   1.0000   1.0000   1.0000
     1.0000   1.0000   1.0000   1.0000   1.0000   1.0000   1.0000   1.0000
     1.0000   1.0000   1.0000   1.0000   1.0000   1.0000   1.0000   1.0000
     1.0000   1.0000   1.0000   1.0000   1.0000   1.0000   1.0000   1.0000
     1.0000   1.0000   1.0000   1.0000   1.0000   1.0000   1.0000   1.0000
     1.0000   1.0000   1.0000   1.0000   1.0000   1.0000   1.0000   1.0000
     1.0000   1.0000   1.0000   1.0000   1.0000   1.0000   1.0000   1.0000
     1.0000   1.0000   1.0000   1.0000   1.0000   1.0000   1.0000   1.0000
     1.0000   1.0000   1.0000   1.0000   1.0000   1.0000   1.0000   1.0000
     1.0000   1.0000   1.0000   1.0000   1.0000   1.0000   1.0000   1.0000
     1.0000   1.0000   1.0000   1.0000   1.0000   1.0000   1.0000   1.0000
     1.0000   1.0000   1.0000   1.0000   1.0000   1.0000   1.0000   1.0000
     1.0000   1.0000   1.0000   1.0000   1.0000   1.0000   1.0000   1.0000
     1.0000   1.0000   1.0000   1.0000   1.0000   1.0000   1.0000   1.0000
     1.0000   1.0000   1.0000   1.0000   1.0000   1.0000   1.0000   1.0000
     1.0000   1.0000   1.0000   1.0000   1.0000   1.0000   1.0000   1.0000
     1.0000   1.0000   1.0000   1.0000   1.0000   1.0000   1.0000   1.0000
     1.0000   1.0000   1.0000   1.0000   1.0000   1.0000   1.0000   1.0000
     1.0000   1.0000   1.0000   1.0000   1.0000   1.0000   1.0000   1.0000
     1.0000   1.0000   1.0000   1.0000   1.0000   1.0000   1.0000   1.0000
     1.0000   1.0000   1.0000   1.0000   1.0000   1.0000   1.0000   1.0000
     1.0000   1.0000   1.0000   1.0000   1.0000   1.0000   1.0000   1.0000
     1.0000   1.0000   1.0000   1.0000   1.0000   1.0000   1.0000   1.0000
     1.0000   1.0000   1.0000   1.0000   1.0000   1.0000   1.0000   1.0000
     1.0000   1.0000   1.0000   1.0000   1.0000   1.0000   1.0000   1.0000
     1.0000   1.0000   1.0000   1.0000   1.0000   1.0000   1.0000   1.0000
     1.0000   1.0000   1.0000   1.0000   1.0000   1.0000   1.0000   1.0000
     1.0000   1.0000   1.0000   1.0000   1.0000   1.0000   1.0000   1.0000
     1.0000   1.0000   1.0000   1.0000   1.0000   1.0000   1.0000   1.0000
     1.0000   1.0000   1.0000   1.0000   1.0000   1.0000   1.0000   1.0000
     1.0000   1.0000   1.0000   1.0000   1.0000   1.0000   1.0000   1.0000
     1.0000   1.0000   1.0000   1.0000   1.0000   1.0000   1.0000   1.0000
     1.0000   1.0000   1.0000   1.0000   1.0000   1.0000   1.0000   1.0000
     1.0000   1.0000   1.0000   1.0000   1.0000   1.0000   1.0000   1.0000
     1.0000   1.0000   1.0000   1.0000   1.0000   1.0000   1.0000   1.0000
     1.0000   1.0000   1.0000   1.0000   1.0000   1.0000   1.0000   1.0000
     1.0000   1.0000   1.0000   1.0000   1.0000   1.0000   1.0000   1.0000
     1.0000   1.0000   1.0000   1.0000   1.0000   1.0000   1.0000   1.0000
     1.0000   1.0000   1.0000   1.0000   1.0000   1.0000   1.0000   1.0000
     1.0000   1.0000   1.0000   1.0000   1.0000   1.0000   1.0000   1.0000
     1.0000   1.0000   1.0000   1.0000   1.0000   1.0000   1.0000   1.0000
     1.0000   1.0000   1.0000   1.0000   1.0000   1.0000   1.0000   1.0000
     1.0000   1.0000   1.0000   1.0000   1.0000   1.0000   1.0000   1.0000
     1.0000   1.0000   1.0000   1.0000   1.0000   1.0000   1.0000   1.0000
     1.0000   1.0000   1.0000   1.0000   1.0000   1.0000   1.0000   1.0000
     1.0000   1.0000   1.0000   1.0000   1.0000   1.0000   1.0000   1.0000
     1.0000   1.0000   1.0000   1.0000   1.0000   1.0000   1.0000   1.0000
     1.0000   1.0000   1.0000   1.0000   1.0000   1.0000   1.0000   1.0000
     0.0000   0.0000   0.0000   0.0000   0.0000   0.0000   0.0000   0.0000
     0.0000   0.0000   0.0000   0.0000   0.0000   0.0000   0.0000   0.0000
     0.0000   0.0000   0.0000   0.0000   0.0000   0.0000   0.0000   0.0000
     0.0000   0.0000   0.0000   0.0000   0.0000   0.0000   0.0000   0.0000
     0.0000   0.0000   0.0000   0.0000   0.0000   0.0000   0.0000   0.0000
     0.0000   0.0000   0.0000   0.0000   0.0000   0.0000   0.0000   0.0000
     0.0000   0.0000   0.0000   0.0000   0.0000   0.0000   0.0000   0.0000
     0.0000   0.0000   0.0000   0.0000   0.0000   0.0000   0.0000   0.0000
     0.0000   0.0000   0.0000   0.0000   0.0000   0.0000   0.0000   0.0000
     0.0000   0.0000   0.0000   0.0000   0.0000   0.0000   0.0000   0.0000
     0.0000   0.0000   0.0000   0.0000   0.0000   0.0000   0.0000   0.0000
     0.0000   0.0000   0.0000   0.0000   0.0000   0.0000   0.0000   0.0000

          k = 0.0000-0.5774 0.0000 ( 64842 PWs)   bands (ev):

  -125.0308-125.0308-125.0300-125.0300-125.0288-125.0288-125.0287-125.0287
  -125.0284-125.0284-125.0279-125.0279-125.0279-125.0279-125.0275-125.0275
  -124.8519-124.8519-124.8518-124.8518-124.8510-124.8510-124.8510-124.8510
  -124.8498-124.8498-124.8498-124.8498-124.8497-124.8497-124.8497-124.8497
  -124.8494-124.8494-124.8494-124.8494-124.8489-124.8489-124.8489-124.8489
  -124.8489-124.8489-124.8489-124.8489-124.8485-124.8485-124.8485-124.8485
   -79.1945 -79.1945 -79.1945 -79.1945 -79.1920 -79.1920 -79.1910 -79.1910
   -79.1865 -79.1865 -79.1864 -79.1864 -79.1815 -79.1815 -79.1801 -79.1801
   -79.1791 -79.1791 -79.1777 -79.1777 -79.1777 -79.1777 -79.1773 -79.1773
   -79.1767 -79.1767 -79.1767 -79.1767 -79.1763 -79.1763 -79.1749 -79.1749
   -79.1734 -79.1734 -79.1734 -79.1734 -79.1701 -79.1701 -79.1701 -79.1701
   -79.1692 -79.1692 -79.1665 -79.1665 -79.1655 -79.1655 -79.1626 -79.1626
   -79.0123 -79.0123 -79.0123 -79.0123 -79.0123 -79.0123 -79.0123 -79.0123
   -79.0098 -79.0098 -79.0098 -79.0098 -79.0092 -79.0092 -79.0090 -79.0090
   -79.0088 -79.0088 -79.0088 -79.0088 -79.0082 -79.0082 -79.0081 -79.0081
   -79.0068 -79.0068 -79.0068 -79.0068 -79.0068 -79.0068 -79.0068 -79.0068
   -79.0064 -79.0064 -79.0064 -79.0064 -79.0059 -79.0059 -79.0059 -79.0059
   -79.0059 -79.0058 -79.0058 -79.0058 -79.0055 -79.0055 -79.0054 -79.0054
   -79.0043 -79.0043 -79.0043 -79.0043 -79.0043 -79.0043 -79.0043 -79.0043
   -78.9994 -78.9994 -78.9994 -78.9994 -78.9928 -78.9928 -78.9928 -78.9928
   -78.9913 -78.9913 -78.9913 -78.9913 -78.9913 -78.9913 -78.9913 -78.9913
   -78.9880 -78.9880 -78.9880 -78.9880 -78.9879 -78.9879 -78.9879 -78.9879
   -78.9871 -78.9871 -78.9871 -78.9871 -78.9844 -78.9844 -78.9843 -78.9843
   -78.9834 -78.9834 -78.9834 -78.9833 -78.9805 -78.9805 -78.9804 -78.9804
    -8.1290  -8.1290  -7.2903  -7.2903  -7.0113  -7.0113  -6.8392  -6.8392
    -6.8251  -6.8251  -6.7148  -6.7148  -6.7148  -6.7148  -6.6332  -6.6332
    -6.6149  -6.6149  -6.6149  -6.6149  -6.6097  -6.6097  -6.5816  -6.5816
    -6.5816  -6.5816  -6.5266  -6.5266  -6.5140  -6.5140  -6.5140  -6.5140
    -6.4883  -6.4883  -6.4606  -6.4606  -6.4606  -6.4606  -6.4429  -6.4429
    -6.4429  -6.4429  -6.4394  -6.4394  -6.4208  -6.4208  -6.4054  -6.4054
    -6.4054  -6.4054  -6.3925  -6.3925  -6.2912  -6.2912  -6.2778  -6.2778
    -6.2778  -6.2778  -6.2733  -6.2733  -6.2664  -6.2664  -6.2535  -6.2535
    -6.2535  -6.2535  -6.2126  -6.2126  -6.2029  -6.2029  -6.2029  -6.2029
    -6.1796  -6.1796  -6.1783  -6.1783  -6.1360  -6.1360  -6.1240  -6.1240
    -6.0980  -6.0980  -6.0845  -6.0845  -6.0657  -6.0657  -6.0657  -6.0657
    -6.0329  -6.0329  -6.0329  -6.0329  -6.0285  -6.0284  -6.0183  -6.0183
    -6.0087  -6.0087  -6.0051  -6.0051  -5.9730  -5.9730  -5.9730  -5.9730
    -5.9725  -5.9725  -5.9332  -5.9332  -5.9231  -5.9231  -5.8985  -5.8985
    -5.8914  -5.8914  -5.8457  -5.8457  -5.8457  -5.8457  -5.7999  -5.7999
    -5.7915  -5.7915  -5.7915  -5.7915  -5.7883  -5.7883  -5.7752  -5.7752
    -5.7728  -5.7728  -5.7698  -5.7698  -5.7541  -5.7541  -5.7541  -5.7541
    -5.7504  -5.7504  -5.7504  -5.7504  -5.7485  -5.7485  -5.7321  -5.7321
    -5.7321  -5.7321  -5.7213  -5.7213  -5.6618  -5.6617  -5.6600  -5.6600
    -5.6467  -5.6467  -5.6270  -5.6270  -5.6270  -5.6269  -5.6116  -5.6116
    -5.6023  -5.6023  -5.5885  -5.5885  -5.5885  -5.5885  -5.5779  -5.5779
    -5.5571  -5.5570  -5.5231  -5.5231  -5.5148  -5.5148  -5.5148  -5.5148
    -5.5077  -5.5077  -5.5074  -5.5074  -5.5071  -5.5071  -5.5071  -5.5071
    -5.4829  -5.4829  -5.4829  -5.4829  -5.4777  -5.4777  -5.4746  -5.4746
    -5.4683  -5.4683  -5.4664  -5.4664  -5.4482  -5.4482  -5.4482  -5.4482
    -5.4373  -5.4373  -5.4373  -5.4373  -5.4270  -5.4270  -5.4063  -5.4063
    -5.3974  -5.3974  -5.3917  -5.3917  -5.3917  -5.3917  -5.3913  -5.3913
    -5.3908  -5.3908  -5.3903  -5.3903  -5.3653  -5.3653  -5.3558  -5.3558
    -5.3404  -5.3404  -5.3404  -5.3404  -5.3105  -5.3105  -5.3105  -5.3105
    -5.2417  -5.2417  -5.2417  -5.2417  -5.2179  -5.2179  -5.2179  -5.2179
    -5.2152  -5.2152  -5.1896  -5.1896  -5.1867  -5.1867  -4.6848  -4.6848
    -4.3951  -4.3951  -4.3951  -4.3951  -3.7037  -3.7037  -3.0954  -3.0954
    -3.0462  -3.0462  -3.0462  -3.0462  -2.3753  -2.3753  -2.2246  -2.2246
    -1.7323  -1.7323  -1.7323  -1.7323  -0.7379  -0.7379  -0.7379  -0.7379
    -0.3104  -0.3104  -0.3104  -0.3104  -0.0772  -0.0772   0.0311   0.0311
     1.0489   1.0489   1.0627   1.0627   1.3616   1.3616   1.3913   1.3913
     1.3913   1.3913   2.2387   2.2387   2.9221   2.9221   2.9221   2.9221
     3.1155   3.1155   3.1155   3.1155   3.3372   3.3372   3.5644   3.5644
     3.8820   3.8820   3.8820   3.8820   4.0126   4.0126   4.2832   4.2832
     4.4558   4.4558   4.7639   4.7639   4.8831   4.8831   5.5006   5.5006
     5.5215   5.5215   5.7169   5.7169   5.8154   5.8154   5.9427   5.9427
     5.9427   5.9427   6.0000   6.0000   6.0000   6.0000   6.1633   6.1633
     6.1633   6.1633   6.4233   6.4233   6.5749   6.5749   6.6353   6.6353
     6.6577   6.6577   6.8426   6.8426   6.8762   6.8762   7.0382   7.0382
     7.0382   7.0382   7.5804   7.5804   7.7402   7.7402   8.0772   8.0772
     8.0929   8.0929   8.0929   8.0929   8.2945   8.2945   8.4685   8.4685
     8.4685   8.4685   8.6347   8.6347   8.6347   8.6347   8.6627   8.6628
     8.7538   8.7538   8.8100   8.8100   9.0099   9.0099   9.0099   9.0099

     occupation numbers 
     1.0000   1.0000   1.0000   1.0000   1.0000   1.0000   1.0000   1.0000
     1.0000   1.0000   1.0000   1.0000   1.0000   1.0000   1.0000   1.0000
     1.0000   1.0000   1.0000   1.0000   1.0000   1.0000   1.0000   1.0000
     1.0000   1.0000   1.0000   1.0000   1.0000   1.0000   1.0000   1.0000
     1.0000   1.0000   1.0000   1.0000   1.0000   1.0000   1.0000   1.0000
     1.0000   1.0000   1.0000   1.0000   1.0000   1.0000   1.0000   1.0000
     1.0000   1.0000   1.0000   1.0000   1.0000   1.0000   1.0000   1.0000
     1.0000   1.0000   1.0000   1.0000   1.0000   1.0000   1.0000   1.0000
     1.0000   1.0000   1.0000   1.0000   1.0000   1.0000   1.0000   1.0000
     1.0000   1.0000   1.0000   1.0000   1.0000   1.0000   1.0000   1.0000
     1.0000   1.0000   1.0000   1.0000   1.0000   1.0000   1.0000   1.0000
     1.0000   1.0000   1.0000   1.0000   1.0000   1.0000   1.0000   1.0000
     1.0000   1.0000   1.0000   1.0000   1.0000   1.0000   1.0000   1.0000
     1.0000   1.0000   1.0000   1.0000   1.0000   1.0000   1.0000   1.0000
     1.0000   1.0000   1.0000   1.0000   1.0000   1.0000   1.0000   1.0000
     1.0000   1.0000   1.0000   1.0000   1.0000   1.0000   1.0000   1.0000
     1.0000   1.0000   1.0000   1.0000   1.0000   1.0000   1.0000   1.0000
     1.0000   1.0000   1.0000   1.0000   1.0000   1.0000   1.0000   1.0000
     1.0000   1.0000   1.0000   1.0000   1.0000   1.0000   1.0000   1.0000
     1.0000   1.0000   1.0000   1.0000   1.0000   1.0000   1.0000   1.0000
     1.0000   1.0000   1.0000   1.0000   1.0000   1.0000   1.0000   1.0000
     1.0000   1.0000   1.0000   1.0000   1.0000   1.0000   1.0000   1.0000
     1.0000   1.0000   1.0000   1.0000   1.0000   1.0000   1.0000   1.0000
     1.0000   1.0000   1.0000   1.0000   1.0000   1.0000   1.0000   1.0000
     1.0000   1.0000   1.0000   1.0000   1.0000   1.0000   1.0000   1.0000
     1.0000   1.0000   1.0000   1.0000   1.0000   1.0000   1.0000   1.0000
     1.0000   1.0000   1.0000   1.0000   1.0000   1.0000   1.0000   1.0000
     1.0000   1.0000   1.0000   1.0000   1.0000   1.0000   1.0000   1.0000
     1.0000   1.0000   1.0000   1.0000   1.0000   1.0000   1.0000   1.0000
     1.0000   1.0000   1.0000   1.0000   1.0000   1.0000   1.0000   1.0000
     1.0000   1.0000   1.0000   1.0000   1.0000   1.0000   1.0000   1.0000
     1.0000   1.0000   1.0000   1.0000   1.0000   1.0000   1.0000   1.0000
     1.0000   1.0000   1.0000   1.0000   1.0000   1.0000   1.0000   1.0000
     1.0000   1.0000   1.0000   1.0000   1.0000   1.0000   1.0000   1.0000
     1.0000   1.0000   1.0000   1.0000   1.0000   1.0000   1.0000   1.0000
     1.0000   1.0000   1.0000   1.0000   1.0000   1.0000   1.0000   1.0000
     1.0000   1.0000   1.0000   1.0000   1.0000   1.0000   1.0000   1.0000
     1.0000   1.0000   1.0000   1.0000   1.0000   1.0000   1.0000   1.0000
     1.0000   1.0000   1.0000   1.0000   1.0000   1.0000   1.0000   1.0000
     1.0000   1.0000   1.0000   1.0000   1.0000   1.0000   1.0000   1.0000
     1.0000   1.0000   1.0000   1.0000   1.0000   1.0000   1.0000   1.0000
     1.0000   1.0000   1.0000   1.0000   1.0000   1.0000   1.0000   1.0000
     1.0000   1.0000   1.0000   1.0000   1.0000   1.0000   1.0000   1.0000
     1.0000   1.0000   1.0000   1.0000   1.0000   1.0000   1.0000   1.0000
     1.0000   1.0000   1.0000   1.0000   1.0000   1.0000   1.0000   1.0000
     1.0000   1.0000   1.0000   1.0000   1.0000   1.0000   1.0000   1.0000
     1.0000   1.0000   1.0000   1.0000   1.0000   1.0000   1.0000   1.0000
     1.0000   1.0000   1.0000   1.0000   1.0000   1.0000   1.0000   1.0000
     1.0000   1.0000   1.0000   1.0000   1.0000   1.0000   1.0000   1.0000
     1.0000   1.0000   1.0000   1.0000   1.0000   1.0000   1.0000   1.0000
     1.0000   1.0000   1.0000   1.0000   1.0000   1.0000   1.0000   1.0000
     1.0000   1.0000   1.0000   1.0000   1.0000   1.0000   1.0000   1.0000
     1.0000   1.0000   1.0000   1.0000   1.0000   1.0000   1.0000   1.0000
     1.0000   1.0000   1.0000   1.0000   1.0000   1.0000   1.0000   1.0000
     1.0000   1.0000   1.0000   1.0000   1.0000   1.0000   1.0000   1.0000
     1.0000   1.0000   1.0000   1.0000   1.0000   1.0000   1.0000   1.0000
     1.0000   1.0000   1.0000   1.0000   1.0000   1.0000   1.0000   1.0000
     1.0000   1.0000   1.0000   1.0000   1.0000   1.0000   1.0000   1.0000
     1.0000   1.0000   1.0000   1.0000   1.0000   1.0000   1.0000   1.0000
     1.0000   1.0000   1.0000   1.0000   1.0034   1.0034   1.0675   1.0675
     1.0675   1.0675   0.0000   0.0000   0.0000   0.0000   0.0000   0.0000
     0.0000   0.0000   0.0000   0.0000   0.0000   0.0000   0.0000   0.0000
     0.0000   0.0000   0.0000   0.0000   0.0000   0.0000   0.0000   0.0000
     0.0000   0.0000   0.0000   0.0000   0.0000   0.0000   0.0000   0.0000
     0.0000   0.0000   0.0000   0.0000   0.0000   0.0000   0.0000   0.0000
     0.0000   0.0000   0.0000   0.0000   0.0000   0.0000   0.0000   0.0000
     0.0000   0.0000   0.0000   0.0000   0.0000   0.0000   0.0000   0.0000
     0.0000   0.0000   0.0000   0.0000   0.0000   0.0000   0.0000   0.0000
     0.0000   0.0000   0.0000   0.0000   0.0000   0.0000   0.0000   0.0000
     0.0000   0.0000   0.0000   0.0000   0.0000   0.0000   0.0000   0.0000
     0.0000   0.0000   0.0000   0.0000   0.0000   0.0000   0.0000   0.0000
     0.0000   0.0000   0.0000   0.0000   0.0000   0.0000   0.0000   0.0000

          k = 0.2500 0.1443 0.0000 ( 64808 PWs)   bands (ev):

  -125.0312-125.0303-125.0299-125.0299-125.0292-125.0292-125.0289-125.0283
  -125.0283-125.0280-125.0279-125.0279-125.0279-125.0279-125.0276-125.0276
  -124.8522-124.8522-124.8513-124.8513-124.8509-124.8509-124.8509-124.8509
  -124.8502-124.8502-124.8502-124.8502-124.8500-124.8499-124.8493-124.8493
  -124.8493-124.8493-124.8490-124.8490-124.8489-124.8489-124.8489-124.8489
  -124.8489-124.8489-124.8489-124.8489-124.8486-124.8486-124.8486-124.8486
   -79.1965 -79.1965 -79.1959 -79.1919 -79.1919 -79.1910 -79.1910 -79.1891
   -79.1891 -79.1862 -79.1830 -79.1830 -79.1806 -79.1803 -79.1803 -79.1795
   -79.1790 -79.1790 -79.1783 -79.1783 -79.1780 -79.1772 -79.1772 -79.1769
   -79.1767 -79.1767 -79.1767 -79.1767 -79.1764 -79.1764 -79.1762 -79.1762
   -79.1759 -79.1759 -79.1735 -79.1735 -79.1723 -79.1714 -79.1714 -79.1703
   -79.1677 -79.1674 -79.1674 -79.1655 -79.1654 -79.1641 -79.1626 -79.1615
   -79.0143 -79.0143 -79.0143 -79.0143 -79.0137 -79.0137 -79.0098 -79.0098
   -79.0097 -79.0097 -79.0096 -79.0094 -79.0089 -79.0089 -79.0088 -79.0088
   -79.0085 -79.0084 -79.0081 -79.0081 -79.0080 -79.0080 -79.0073 -79.0073
   -79.0073 -79.0073 -79.0070 -79.0070 -79.0070 -79.0070 -79.0069 -79.0069
   -79.0063 -79.0063 -79.0063 -79.0063 -79.0060 -79.0060 -79.0059 -79.0059
   -79.0059 -79.0059 -79.0059 -79.0058 -79.0058 -79.0058 -79.0056 -79.0056
   -79.0055 -79.0055 -79.0040 -79.0040 -79.0008 -79.0008 -79.0008 -79.0008
   -78.9981 -78.9981 -78.9981 -78.9981 -78.9941 -78.9941 -78.9940 -78.9940
   -78.9938 -78.9938 -78.9938 -78.9938 -78.9914 -78.9914 -78.9914 -78.9914
   -78.9902 -78.9902 -78.9893 -78.9893 -78.9892 -78.9892 -78.9882 -78.9881
   -78.9856 -78.9856 -78.9853 -78.9853 -78.9853 -78.9853 -78.9834 -78.9834
   -78.9833 -78.9833 -78.9820 -78.9820 -78.9805 -78.9804 -78.9795 -78.9794
    -8.4769  -7.5934  -7.2861  -7.2214  -7.2214  -7.0052  -6.8631  -6.8369
    -6.8369  -6.8174  -6.8166  -6.8166  -6.6861  -6.6752  -6.6700  -6.6700
    -6.6493  -6.6488  -6.6244  -6.6244  -6.5713  -6.5607  -6.5506  -6.5506
    -6.5335  -6.5335  -6.5257  -6.5257  -6.5111  -6.5111  -6.4957  -6.4915
    -6.4915  -6.4899  -6.4899  -6.4892  -6.4892  -6.4687  -6.4687  -6.4572
    -6.4572  -6.4317  -6.4316  -6.3895  -6.3895  -6.3778  -6.3778  -6.3605
    -6.3605  -6.3537  -6.3045  -6.3000  -6.3000  -6.2963  -6.2963  -6.2940
    -6.2940  -6.2554  -6.2554  -6.2365  -6.2325  -6.2040  -6.2040  -6.1974
    -6.1974  -6.1961  -6.1961  -6.1955  -6.1955  -6.1931  -6.1856  -6.1856
    -6.1794  -6.1794  -6.1595  -6.1595  -6.1588  -6.1588  -6.1539  -6.1292
    -6.1042  -6.1042  -6.1015  -6.1007  -6.1007  -6.0794  -6.0794  -6.0760
    -6.0760  -6.0642  -6.0564  -6.0437  -6.0437  -6.0224  -6.0224  -6.0207
    -6.0207  -5.9466  -5.9466  -5.9341  -5.9341  -5.9305  -5.9266  -5.9243
    -5.9233  -5.9200  -5.9200  -5.9007  -5.8973  -5.8973  -5.8964  -5.8964
    -5.8778  -5.8778  -5.8758  -5.8643  -5.8565  -5.8531  -5.8531  -5.8449
    -5.8231  -5.8231  -5.8171  -5.8171  -5.7954  -5.7914  -5.7800  -5.7800
    -5.7757  -5.7757  -5.7674  -5.7674  -5.7567  -5.7567  -5.7560  -5.7560
    -5.7457  -5.7286  -5.7286  -5.7206  -5.7206  -5.7159  -5.7086  -5.7086
    -5.6942  -5.6931  -5.6931  -5.6927  -5.6927  -5.6842  -5.6842  -5.6752
    -5.6752  -5.6724  -5.6724  -5.6663  -5.6514  -5.6514  -5.6450  -5.6247
    -5.6209  -5.6209  -5.6154  -5.6154  -5.6037  -5.6037  -5.6022  -5.6022
    -5.5971  -5.5936  -5.5872  -5.5872  -5.5862  -5.5520  -5.5493  -5.5466
    -5.5466  -5.5390  -5.5390  -5.5340  -5.5340  -5.5306  -5.5306  -5.5247
    -5.5247  -5.5207  -5.5146  -5.5125  -5.5125  -5.5048  -5.5048  -5.4978
    -5.4978  -5.4786  -5.4786  -5.4426  -5.4422  -5.4372  -5.4372  -5.4358
    -5.4358  -5.4351  -5.4351  -5.4273  -5.4273  -5.4138  -5.4119  -5.4118
    -5.4118  -5.4059  -5.4031  -5.3986  -5.3885  -5.3885  -5.3837  -5.3837
    -5.3772  -5.3720  -5.3720  -5.3649  -5.3543  -5.3543  -5.3501  -5.3421
    -5.3293  -5.3245  -5.3245  -5.3195  -5.2977  -5.2977  -5.2878  -5.2878
    -5.2857  -5.2857  -5.2769  -5.2712  -5.2712  -5.2618  -5.2618  -5.1247
    -5.1247  -5.1175  -5.1175  -5.1116  -5.1116  -5.0937  -5.0930  -4.9288
    -4.9125  -4.6211  -4.6211  -3.8652  -3.8652  -3.4644  -3.3691  -3.3691
    -3.3507  -2.6578  -2.2855  -2.2855  -2.1966  -1.9958  -1.9958  -1.9563
    -1.9563  -1.4979  -1.4979  -1.2663  -1.2663  -1.0997  -0.7800  -0.5473
    -0.5473  -0.5459  -0.5459  -0.5394   0.0388   0.0388   0.2867   0.2867
     0.5838   0.5838   0.6467   0.8977   0.9133   0.9133   1.1970   1.1970
     1.5749   1.5749   2.2400   2.2400   2.6693   2.7179   2.7179   2.7347
     2.7978   2.7978   2.9695   2.9695   3.2293   3.5620   3.7129   3.7129
     3.9336   3.9336   4.1210   4.1989   4.1989   4.5649   4.5649   4.8184
     4.8184   4.8583   4.8583   5.1759   5.1759   5.1772   5.1772   5.1828
     5.3721   5.4344   5.4344   5.5811   5.6592   5.8065   5.8065   5.8162
     6.0851   6.1191   6.1191   6.2910   6.3101   6.3257   6.3257   6.5053
     6.5350   6.5350   6.6096   6.6096   6.7343   6.7498   6.7498   7.0269
     7.0269   7.0998   7.0998   7.1817   7.1817   7.2348   7.3282   7.3282
     7.4035   7.4203   7.4203   7.4688   7.4688   7.6600   7.6600   7.6713
     7.6713   7.6943   7.6943   7.7451   7.8508   7.8508   7.9705   7.9705
     8.0471   8.0471   8.1252   8.3168   8.3174   8.4760   8.6317   8.6317
     8.7037   8.7037   8.7060   8.8245   8.8245   8.8364   8.8364   8.8515

     occupation numbers 
     1.0000   1.0000   1.0000   1.0000   1.0000   1.0000   1.0000   1.0000
     1.0000   1.0000   1.0000   1.0000   1.0000   1.0000   1.0000   1.0000
     1.0000   1.0000   1.0000   1.0000   1.0000   1.0000   1.0000   1.0000
     1.0000   1.0000   1.0000   1.0000   1.0000   1.0000   1.0000   1.0000
     1.0000   1.0000   1.0000   1.0000   1.0000   1.0000   1.0000   1.0000
     1.0000   1.0000   1.0000   1.0000   1.0000   1.0000   1.0000   1.0000
     1.0000   1.0000   1.0000   1.0000   1.0000   1.0000   1.0000   1.0000
     1.0000   1.0000   1.0000   1.0000   1.0000   1.0000   1.0000   1.0000
     1.0000   1.0000   1.0000   1.0000   1.0000   1.0000   1.0000   1.0000
     1.0000   1.0000   1.0000   1.0000   1.0000   1.0000   1.0000   1.0000
     1.0000   1.0000   1.0000   1.0000   1.0000   1.0000   1.0000   1.0000
     1.0000   1.0000   1.0000   1.0000   1.0000   1.0000   1.0000   1.0000
     1.0000   1.0000   1.0000   1.0000   1.0000   1.0000   1.0000   1.0000
     1.0000   1.0000   1.0000   1.0000   1.0000   1.0000   1.0000   1.0000
     1.0000   1.0000   1.0000   1.0000   1.0000   1.0000   1.0000   1.0000
     1.0000   1.0000   1.0000   1.0000   1.0000   1.0000   1.0000   1.0000
     1.0000   1.0000   1.0000   1.0000   1.0000   1.0000   1.0000   1.0000
     1.0000   1.0000   1.0000   1.0000   1.0000   1.0000   1.0000   1.0000
     1.0000   1.0000   1.0000   1.0000   1.0000   1.0000   1.0000   1.0000
     1.0000   1.0000   1.0000   1.0000   1.0000   1.0000   1.0000   1.0000
     1.0000   1.0000   1.0000   1.0000   1.0000   1.0000   1.0000   1.0000
     1.0000   1.0000   1.0000   1.0000   1.0000   1.0000   1.0000   1.0000
     1.0000   1.0000   1.0000   1.0000   1.0000   1.0000   1.0000   1.0000
     1.0000   1.0000   1.0000   1.0000   1.0000   1.0000   1.0000   1.0000
     1.0000   1.0000   1.0000   1.0000   1.0000   1.0000   1.0000   1.0000
     1.0000   1.0000   1.0000   1.0000   1.0000   1.0000   1.0000   1.0000
     1.0000   1.0000   1.0000   1.0000   1.0000   1.0000   1.0000   1.0000
     1.0000   1.0000   1.0000   1.0000   1.0000   1.0000   1.0000   1.0000
     1.0000   1.0000   1.0000   1.0000   1.0000   1.0000   1.0000   1.0000
     1.0000   1.0000   1.0000   1.0000   1.0000   1.0000   1.0000   1.0000
     1.0000   1.0000   1.0000   1.0000   1.0000   1.0000   1.0000   1.0000
     1.0000   1.0000   1.0000   1.0000   1.0000   1.0000   1.0000   1.0000
     1.0000   1.0000   1.0000   1.0000   1.0000   1.0000   1.0000   1.0000
     1.0000   1.0000   1.0000   1.0000   1.0000   1.0000   1.0000   1.0000
     1.0000   1.0000   1.0000   1.0000   1.0000   1.0000   1.0000   1.0000
     1.0000   1.0000   1.0000   1.0000   1.0000   1.0000   1.0000   1.0000
     1.0000   1.0000   1.0000   1.0000   1.0000   1.0000   1.0000   1.0000
     1.0000   1.0000   1.0000   1.0000   1.0000   1.0000   1.0000   1.0000
     1.0000   1.0000   1.0000   1.0000   1.0000   1.0000   1.0000   1.0000
     1.0000   1.0000   1.0000   1.0000   1.0000   1.0000   1.0000   1.0000
     1.0000   1.0000   1.0000   1.0000   1.0000   1.0000   1.0000   1.0000
     1.0000   1.0000   1.0000   1.0000   1.0000   1.0000   1.0000   1.0000
     1.0000   1.0000   1.0000   1.0000   1.0000   1.0000   1.0000   1.0000
     1.0000   1.0000   1.0000   1.0000   1.0000   1.0000   1.0000   1.0000
     1.0000   1.0000   1.0000   1.0000   1.0000   1.0000   1.0000   1.0000
     1.0000   1.0000   1.0000   1.0000   1.0000   1.0000   1.0000   1.0000
     1.0000   1.0000   1.0000   1.0000   1.0000   1.0000   1.0000   1.0000
     1.0000   1.0000   1.0000   1.0000   1.0000   1.0000   1.0000   1.0000
     1.0000   1.0000   1.0000   1.0000   1.0000   1.0000   1.0000   1.0000
     1.0000   1.0000   1.0000   1.0000   1.0000   1.0000   1.0000   1.0000
     1.0000   1.0000   1.0000   1.0000   1.0000   1.0000   1.0000   1.0000
     1.0000   1.0000   1.0000   1.0000   1.0000   1.0000   1.0000   1.0000
     1.0000   1.0000   1.0000   1.0000   1.0000   1.0000   1.0000   1.0000
     1.0000   1.0000   1.0000   1.0000   1.0000   1.0000   1.0000   1.0000
     1.0000   1.0000   1.0000   1.0000   1.0000   1.0000   1.0000   1.0000
     1.0000   1.0000   1.0000   1.0000   1.0000   1.0000   1.0000   1.0000
     1.0000   1.0000   1.0000   1.0000   1.0000   1.0000   1.0000   1.0000
     1.0000   1.0000   1.0000   1.0000   1.0000   1.0000   1.0000   1.0000
     1.0000   1.0000   1.0000   1.0000   1.0000   1.0000   1.0000   1.0000
     1.0000   1.0000   1.0000   1.0000   1.0000   1.0000   1.0000   1.0000
     0.0000   0.0000   0.0000   0.0000   0.0000   0.0000   0.0000   0.0000
     0.0000   0.0000   0.0000   0.0000   0.0000   0.0000   0.0000   0.0000
     0.0000   0.0000   0.0000   0.0000   0.0000   0.0000   0.0000   0.0000
     0.0000   0.0000   0.0000   0.0000   0.0000   0.0000   0.0000   0.0000
     0.0000   0.0000   0.0000   0.0000   0.0000   0.0000   0.0000   0.0000
     0.0000   0.0000   0.0000   0.0000   0.0000   0.0000   0.0000   0.0000
     0.0000   0.0000   0.0000   0.0000   0.0000   0.0000   0.0000   0.0000
     0.0000   0.0000   0.0000   0.0000   0.0000   0.0000   0.0000   0.0000
     0.0000   0.0000   0.0000   0.0000   0.0000   0.0000   0.0000   0.0000
     0.0000   0.0000   0.0000   0.0000   0.0000   0.0000   0.0000   0.0000
     0.0000   0.0000   0.0000   0.0000   0.0000   0.0000   0.0000   0.0000
     0.0000   0.0000   0.0000   0.0000   0.0000   0.0000   0.0000   0.0000

          k = 0.2500 0.4330 0.0000 ( 64876 PWs)   bands (ev):

  -125.0310-125.0305-125.0305-125.0294-125.0294-125.0288-125.0286-125.0286
  -125.0282-125.0282-125.0281-125.0281-125.0277-125.0277-125.0276-125.0275
  -124.8520-124.8520-124.8515-124.8515-124.8515-124.8515-124.8504-124.8504
  -124.8504-124.8504-124.8498-124.8498-124.8496-124.8496-124.8496-124.8496
  -124.8492-124.8492-124.8492-124.8492-124.8491-124.8491-124.8491-124.8491
  -124.8488-124.8487-124.8487-124.8487-124.8487-124.8486-124.8485-124.8485
   -79.1956 -79.1939 -79.1939 -79.1934 -79.1934 -79.1913 -79.1913 -79.1892
   -79.1892 -79.1887 -79.1852 -79.1844 -79.1807 -79.1807 -79.1803 -79.1797
   -79.1797 -79.1784 -79.1784 -79.1778 -79.1776 -79.1776 -79.1772 -79.1772
   -79.1771 -79.1771 -79.1770 -79.1770 -79.1766 -79.1765 -79.1765 -79.1763
   -79.1739 -79.1721 -79.1721 -79.1706 -79.1706 -79.1706 -79.1699 -79.1699
   -79.1692 -79.1692 -79.1677 -79.1677 -79.1652 -79.1636 -79.1636 -79.1623
   -79.0134 -79.0134 -79.0118 -79.0118 -79.0117 -79.0117 -79.0112 -79.0112
   -79.0112 -79.0112 -79.0093 -79.0091 -79.0091 -79.0091 -79.0091 -79.0091
   -79.0088 -79.0088 -79.0086 -79.0086 -79.0075 -79.0075 -79.0074 -79.0074
   -79.0070 -79.0070 -79.0070 -79.0070 -79.0069 -79.0069 -79.0067 -79.0067
   -79.0066 -79.0066 -79.0066 -79.0066 -79.0063 -79.0062 -79.0062 -79.0062
   -79.0061 -79.0061 -79.0061 -79.0061 -79.0057 -79.0057 -79.0057 -79.0056
   -79.0056 -79.0056 -79.0054 -79.0054 -79.0031 -79.0030 -79.0023 -79.0022
   -78.9986 -78.9986 -78.9986 -78.9986 -78.9951 -78.9951 -78.9951 -78.9951
   -78.9918 -78.9917 -78.9900 -78.9899 -78.9899 -78.9899 -78.9885 -78.9885
   -78.9885 -78.9885 -78.9885 -78.9885 -78.9878 -78.9878 -78.9878 -78.9878
   -78.9871 -78.9871 -78.9871 -78.9871 -78.9857 -78.9857 -78.9856 -78.9856
   -78.9831 -78.9830 -78.9816 -78.9816 -78.9815 -78.9815 -78.9802 -78.9801
    -8.2431  -7.7963  -7.7963  -7.0974  -6.8898  -6.8050  -6.8050  -6.7779
    -6.7779  -6.7771  -6.7771  -6.7633  -6.7633  -6.7338  -6.7022  -6.7022
    -6.6639  -6.6639  -6.6332  -6.6332  -6.5982  -6.5948  -6.5948  -6.5700
    -6.5700  -6.5661  -6.5661  -6.5515  -6.5515  -6.5337  -6.5337  -6.5293
    -6.5060  -6.5060  -6.4758  -6.4758  -6.4521  -6.4521  -6.4469  -6.4335
    -6.4335  -6.4232  -6.4106  -6.3955  -6.3955  -6.3859  -6.3859  -6.3830
    -6.3830  -6.3829  -6.3641  -6.3540  -6.3540  -6.2881  -6.2881  -6.2843
    -6.2794  -6.2794  -6.2615  -6.2605  -6.2592  -6.2592  -6.2448  -6.2446
    -6.2446  -6.2315  -6.2315  -6.2246  -6.2188  -6.2128  -6.2128  -6.2069
    -6.2069  -6.1856  -6.1856  -6.1523  -6.1523  -6.1329  -6.1305  -6.1252
    -6.1252  -6.1182  -6.0958  -6.0958  -6.0844  -6.0844  -6.0777  -6.0710
    -6.0417  -6.0417  -6.0296  -6.0296  -6.0270  -6.0076  -6.0076  -5.9964
    -5.9790  -5.9774  -5.9774  -5.9770  -5.9670  -5.9670  -5.9578  -5.9578
    -5.9557  -5.9557  -5.9432  -5.9328  -5.9297  -5.8921  -5.8874  -5.8874
    -5.8807  -5.8793  -5.8793  -5.8743  -5.8725  -5.8725  -5.8597  -5.8518
    -5.8518  -5.8310  -5.8310  -5.8230  -5.8230  -5.8182  -5.8181  -5.8077
    -5.8077  -5.7997  -5.7997  -5.7964  -5.7819  -5.7679  -5.7679  -5.7575
    -5.7421  -5.7421  -5.7319  -5.7319  -5.7315  -5.7298  -5.6887  -5.6887
    -5.6819  -5.6819  -5.6713  -5.6713  -5.6403  -5.6384  -5.6384  -5.6364
    -5.6364  -5.6275  -5.6112  -5.6112  -5.6045  -5.6029  -5.6029  -5.5789
    -5.5789  -5.5782  -5.5716  -5.5716  -5.5650  -5.5650  -5.5650  -5.5650
    -5.5641  -5.5641  -5.5582  -5.5582  -5.5467  -5.5467  -5.5342  -5.5342
    -5.5331  -5.5311  -5.5311  -5.5249  -5.5249  -5.5245  -5.4953  -5.4953
    -5.4918  -5.4918  -5.4882  -5.4870  -5.4865  -5.4673  -5.4673  -5.4662
    -5.4659  -5.4659  -5.4549  -5.4478  -5.4478  -5.4392  -5.4392  -5.4383
    -5.4383  -5.4365  -5.4365  -5.4265  -5.4265  -5.4257  -5.4257  -5.4175
    -5.4175  -5.4097  -5.4065  -5.4065  -5.3954  -5.3952  -5.3952  -5.3875
    -5.3811  -5.3716  -5.3716  -5.3601  -5.3511  -5.3511  -5.3444  -5.3428
    -5.3420  -5.3420  -5.3212  -5.3083  -5.3083  -5.2934  -5.2934  -5.2633
    -5.2633  -5.2619  -5.2587  -5.2587  -5.2534  -5.2534  -5.2449  -5.2146
    -5.1741  -5.1741  -5.1709  -5.1709  -5.1253  -5.1253  -5.0457  -5.0457
    -4.4332  -4.2092  -4.2092  -4.0279  -4.0279  -3.2202  -3.2202  -3.1806
    -3.1296  -2.8522  -2.8522  -2.8341  -2.8341  -2.7652  -2.7652  -1.7809
    -1.7809  -1.6847  -1.6847  -1.3983  -1.3983  -0.8277  -0.4582  -0.4582
    -0.3863  -0.3863  -0.2961  -0.2285   0.3179   0.3633   0.3633   0.4414
     0.4414   0.7184   0.7184   0.8040   0.9851   0.9851   1.1125   1.4401
     1.4401   1.9894   1.9894   2.5460   2.5670   2.8461   2.9993   3.1156
     3.3505   3.3505   3.3791   3.3791   3.4528   3.4604   3.4604   3.5936
     3.5936   3.6868   3.8991   3.8991   4.3888   4.3888   4.4065   4.4407
     4.4592   4.4592   4.5919   4.5919   4.8938   4.9512   5.1515   5.1515
     5.2285   5.2285   5.4086   5.4613   5.4613   5.4768   5.4768   5.6020
     5.8599   5.8599   6.0615   6.0615   6.0986   6.1382   6.1382   6.5419
     6.5508   6.5508   6.6598   6.6607   6.6607   6.7302   6.9643   7.0045
     7.0045   7.0132   7.0132   7.0201   7.0566   7.0566   7.1795   7.1795
     7.1890   7.1890   7.2077   7.2077   7.2313   7.2313   7.4372   7.4372
     8.0889   8.2252   8.2252   8.3450   8.3744   8.3780   8.3780   8.5174
     8.5174   8.5476   8.5649   8.5982   8.5982   8.6200   8.6200   8.6735
     8.6937   8.6937   8.6989   8.7655   8.7975   8.7975   9.0075   9.0075

     occupation numbers 
     1.0000   1.0000   1.0000   1.0000   1.0000   1.0000   1.0000   1.0000
     1.0000   1.0000   1.0000   1.0000   1.0000   1.0000   1.0000   1.0000
     1.0000   1.0000   1.0000   1.0000   1.0000   1.0000   1.0000   1.0000
     1.0000   1.0000   1.0000   1.0000   1.0000   1.0000   1.0000   1.0000
     1.0000   1.0000   1.0000   1.0000   1.0000   1.0000   1.0000   1.0000
     1.0000   1.0000   1.0000   1.0000   1.0000   1.0000   1.0000   1.0000
     1.0000   1.0000   1.0000   1.0000   1.0000   1.0000   1.0000   1.0000
     1.0000   1.0000   1.0000   1.0000   1.0000   1.0000   1.0000   1.0000
     1.0000   1.0000   1.0000   1.0000   1.0000   1.0000   1.0000   1.0000
     1.0000   1.0000   1.0000   1.0000   1.0000   1.0000   1.0000   1.0000
     1.0000   1.0000   1.0000   1.0000   1.0000   1.0000   1.0000   1.0000
     1.0000   1.0000   1.0000   1.0000   1.0000   1.0000   1.0000   1.0000
     1.0000   1.0000   1.0000   1.0000   1.0000   1.0000   1.0000   1.0000
     1.0000   1.0000   1.0000   1.0000   1.0000   1.0000   1.0000   1.0000
     1.0000   1.0000   1.0000   1.0000   1.0000   1.0000   1.0000   1.0000
     1.0000   1.0000   1.0000   1.0000   1.0000   1.0000   1.0000   1.0000
     1.0000   1.0000   1.0000   1.0000   1.0000   1.0000   1.0000   1.0000
     1.0000   1.0000   1.0000   1.0000   1.0000   1.0000   1.0000   1.0000
     1.0000   1.0000   1.0000   1.0000   1.0000   1.0000   1.0000   1.0000
     1.0000   1.0000   1.0000   1.0000   1.0000   1.0000   1.0000   1.0000
     1.0000   1.0000   1.0000   1.0000   1.0000   1.0000   1.0000   1.0000
     1.0000   1.0000   1.0000   1.0000   1.0000   1.0000   1.0000   1.0000
     1.0000   1.0000   1.0000   1.0000   1.0000   1.0000   1.0000   1.0000
     1.0000   1.0000   1.0000   1.0000   1.0000   1.0000   1.0000   1.0000
     1.0000   1.0000   1.0000   1.0000   1.0000   1.0000   1.0000   1.0000
     1.0000   1.0000   1.0000   1.0000   1.0000   1.0000   1.0000   1.0000
     1.0000   1.0000   1.0000   1.0000   1.0000   1.0000   1.0000   1.0000
     1.0000   1.0000   1.0000   1.0000   1.0000   1.0000   1.0000   1.0000
     1.0000   1.0000   1.0000   1.0000   1.0000   1.0000   1.0000   1.0000
     1.0000   1.0000   1.0000   1.0000   1.0000   1.0000   1.0000   1.0000
     1.0000   1.0000   1.0000   1.0000   1.0000   1.0000   1.0000   1.0000
     1.0000   1.0000   1.0000   1.0000   1.0000   1.0000   1.0000   1.0000
     1.0000   1.0000   1.0000   1.0000   1.0000   1.0000   1.0000   1.0000
     1.0000   1.0000   1.0000   1.0000   1.0000   1.0000   1.0000   1.0000
     1.0000   1.0000   1.0000   1.0000   1.0000   1.0000   1.0000   1.0000
     1.0000   1.0000   1.0000   1.0000   1.0000   1.0000   1.0000   1.0000
     1.0000   1.0000   1.0000   1.0000   1.0000   1.0000   1.0000   1.0000
     1.0000   1.0000   1.0000   1.0000   1.0000   1.0000   1.0000   1.0000
     1.0000   1.0000   1.0000   1.0000   1.0000   1.0000   1.0000   1.0000
     1.0000   1.0000   1.0000   1.0000   1.0000   1.0000   1.0000   1.0000
     1.0000   1.0000   1.0000   1.0000   1.0000   1.0000   1.0000   1.0000
     1.0000   1.0000   1.0000   1.0000   1.0000   1.0000   1.0000   1.0000
     1.0000   1.0000   1.0000   1.0000   1.0000   1.0000   1.0000   1.0000
     1.0000   1.0000   1.0000   1.0000   1.0000   1.0000   1.0000   1.0000
     1.0000   1.0000   1.0000   1.0000   1.0000   1.0000   1.0000   1.0000
     1.0000   1.0000   1.0000   1.0000   1.0000   1.0000   1.0000   1.0000
     1.0000   1.0000   1.0000   1.0000   1.0000   1.0000   1.0000   1.0000
     1.0000   1.0000   1.0000   1.0000   1.0000   1.0000   1.0000   1.0000
     1.0000   1.0000   1.0000   1.0000   1.0000   1.0000   1.0000   1.0000
     1.0000   1.0000   1.0000   1.0000   1.0000   1.0000   1.0000   1.0000
     1.0000   1.0000   1.0000   1.0000   1.0000   1.0000   1.0000   1.0000
     1.0000   1.0000   1.0000   1.0000   1.0000   1.0000   1.0000   1.0000
     1.0000   1.0000   1.0000   1.0000   1.0000   1.0000   1.0000   1.0000
     1.0000   1.0000   1.0000   1.0000   1.0000   1.0000   1.0000   1.0000
     1.0000   1.0000   1.0000   1.0000   1.0000   1.0000   1.0000   1.0000
     1.0000   1.0000   1.0000   1.0000   1.0000   1.0000   1.0000   1.0000
     1.0000   1.0000   1.0000   1.0000   1.0000   1.0000   1.0000   1.0000
     1.0000   1.0000   1.0000   1.0000   1.0000   1.0000   1.0000   1.0000
     1.0000   1.0000   1.0000   1.0000   1.0000   1.0000   1.0000   1.0000
     1.0000   1.0000   1.0000   1.0000   1.0000   1.0000   1.0000   0.3474
     0.3474   0.0000   0.0000   0.0000   0.0000   0.0000   0.0000   0.0000
     0.0000   0.0000   0.0000   0.0000   0.0000   0.0000   0.0000   0.0000
     0.0000   0.0000   0.0000   0.0000   0.0000   0.0000   0.0000   0.0000
     0.0000   0.0000   0.0000   0.0000   0.0000   0.0000   0.0000   0.0000
     0.0000   0.0000   0.0000   0.0000   0.0000   0.0000   0.0000   0.0000
     0.0000   0.0000   0.0000   0.0000   0.0000   0.0000   0.0000   0.0000
     0.0000   0.0000   0.0000   0.0000   0.0000   0.0000   0.0000   0.0000
     0.0000   0.0000   0.0000   0.0000   0.0000   0.0000   0.0000   0.0000
     0.0000   0.0000   0.0000   0.0000   0.0000   0.0000   0.0000   0.0000
     0.0000   0.0000   0.0000   0.0000   0.0000   0.0000   0.0000   0.0000
     0.0000   0.0000   0.0000   0.0000   0.0000   0.0000   0.0000   0.0000
     0.0000   0.0000   0.0000   0.0000   0.0000   0.0000   0.0000   0.0000

          k = 0.2500-0.4330 0.0000 ( 64876 PWs)   bands (ev):

  -125.0310-125.0305-125.0305-125.0294-125.0294-125.0288-125.0286-125.0286
  -125.0282-125.0282-125.0281-125.0281-125.0277-125.0277-125.0276-125.0275
  -124.8520-124.8520-124.8515-124.8515-124.8515-124.8515-124.8504-124.8504
  -124.8504-124.8504-124.8498-124.8498-124.8496-124.8496-124.8496-124.8496
  -124.8492-124.8492-124.8492-124.8492-124.8491-124.8491-124.8491-124.8491
  -124.8488-124.8487-124.8487-124.8487-124.8487-124.8486-124.8485-124.8485
   -79.1956 -79.1939 -79.1939 -79.1934 -79.1934 -79.1913 -79.1913 -79.1892
   -79.1892 -79.1887 -79.1852 -79.1844 -79.1807 -79.1807 -79.1803 -79.1797
   -79.1797 -79.1784 -79.1784 -79.1778 -79.1776 -79.1776 -79.1772 -79.1772
   -79.1771 -79.1771 -79.1770 -79.1770 -79.1766 -79.1765 -79.1765 -79.1763
[...]
     1.0000   1.0000   1.0000   1.0000   1.0000   1.0000   1.0000   1.0000
     1.0000   1.0000   1.0000   1.0000   1.0000   1.0000   1.0000   1.0000
     1.0000   1.0000   1.0000   1.0000   1.0000   1.0000   1.0000   1.0000
     1.0000   1.0000   1.0000   1.0000   1.0000   1.0000   1.0000   1.0000
     1.0000   1.0000   1.0000   1.0000   1.0000   1.0000   1.0000   1.0000
     1.0000   1.0000   1.0000   1.0000   1.0000   1.0000   1.0000   1.0000
     1.0000   1.0000   1.0000   1.0000   1.0000   1.0000   1.0000   1.0000
     1.0000   1.0000   1.0000   1.0000   1.0000   1.0000   1.0000   1.0000
     1.0000   1.0000   1.0000   1.0000   1.0000   1.0000   1.0000   1.0000
     1.0000   1.0000   1.0000   1.0000   1.0000   1.0000   1.0000   1.0000
     1.0000   1.0000   1.0000   1.0000   1.0000   1.0000   1.0000   1.0000
     1.0000   1.0000   1.0000   1.0000   1.0000   1.0000   1.0000   1.0000
     1.0000   1.0000   1.0000   1.0000   1.0000   1.0000   1.0000   1.0000
     1.0000   1.0000   1.0000   1.0000   1.0000   1.0000   1.0000   1.0000
     1.0000   1.0000   1.0000   1.0000   1.0000   1.0000   1.0000   1.0000
     1.0000   1.0000   1.0000   1.0000   1.0000   1.0000   1.0000   1.0000
     1.0000   1.0000   1.0000   1.0000   1.0000   1.0000   1.0000   1.0000
     1.0000   1.0000   1.0000   1.0000   1.0000   1.0000   1.0000   1.0000
     1.0000   1.0000   1.0000   1.0000   1.0000   1.0000   1.0000   1.0000
     1.0000   1.0000   1.0000   1.0000   1.0000   1.0000   1.0000   1.0000
     1.0000   1.0000   1.0000   1.0000   1.0000   1.0000   1.0000   1.0000
     1.0000   1.0000   1.0000   1.0000   1.0000   1.0000   1.0000   1.0000
     1.0000   1.0000   1.0000   1.0000   1.0000   1.0000   1.0000   1.0000
     1.0000   1.0000   1.0000   1.0000   1.0000   1.0000   1.0000   1.0000
     1.0000   1.0000   1.0000   1.0000   1.0000   1.0000   1.0000   1.0000
     1.0000   1.0000   1.0000   1.0000   1.0000   1.0000   1.0000   1.0000
     1.0000   1.0000   1.0000   1.0000   1.0000   1.0000   1.0000   1.0000
     1.0000   1.0000   1.0000   1.0000   1.0000   1.0000   1.0000   1.0000
     1.0000   1.0000   1.0000   1.0000   1.0000   1.0000   1.0000   1.0000
     1.0000   1.0000   1.0000   1.0000   1.0000   1.0000   1.0000   1.0000
     1.0000   1.0000   1.0000   1.0000   1.0000   1.0000   1.0000   1.0000
     1.0000   1.0000   1.0000   1.0000   1.0000   1.0000   1.0000   1.0000
     1.0000   1.0000   1.0000   1.0000   1.0000   1.0000   1.0000   1.0000
     1.0000   1.0000   1.0000   1.0000   1.0000   1.0000   1.0000   1.0000
     1.0000   1.0000   1.0000   1.0000   1.0000   1.0000   1.0000   1.0000
     1.0000   1.0000   1.0000   1.0000   1.0000   1.0000   1.0000   1.0000
     1.0000   1.0000   1.0000   1.0000   1.0000   1.0000   1.0000   1.0000
     1.0000   1.0000   1.0000   1.0000   1.0000   1.0000   1.0000   1.0000
     1.0000   1.0000   1.0000   1.0000   1.0000   1.0000   1.0000   1.0000
     1.0000   1.0000   1.0000   1.0000   1.0000   1.0000   1.0000   1.0000
     1.0000   1.0000   1.0000   1.0000   1.0000   1.0000   1.0000   0.3475
     0.3474   0.0000   0.0000   0.0000   0.0000   0.0000   0.0000   0.0000
     0.0000   0.0000   0.0000   0.0000   0.0000   0.0000   0.0000   0.0000
     0.0000   0.0000   0.0000   0.0000   0.0000   0.0000   0.0000   0.0000
     0.0000   0.0000   0.0000   0.0000   0.0000   0.0000   0.0000   0.0000
     0.0000   0.0000   0.0000   0.0000   0.0000   0.0000   0.0000   0.0000
     0.0000   0.0000   0.0000   0.0000   0.0000   0.0000   0.0000   0.0000
     0.0000   0.0000   0.0000   0.0000   0.0000   0.0000   0.0000   0.0000
     0.0000   0.0000   0.0000   0.0000   0.0000   0.0000   0.0000   0.0000
     0.0000   0.0000   0.0000   0.0000   0.0000   0.0000   0.0000   0.0000
     0.0000   0.0000   0.0000   0.0000   0.0000   0.0000   0.0000   0.0000
     0.0000   0.0000   0.0000   0.0000   0.0000   0.0000   0.0000   0.0000
     0.0000   0.0000   0.0000   0.0000   0.0000   0.0000   0.0000   0.0000

          k =-0.5000-0.8660 0.0000 ( 64842 PWs)   bands (ev):

  -125.0308-125.0308-125.0300-125.0300-125.0288-125.0287-125.0287-125.0287
  -125.0284-125.0284-125.0279-125.0279-125.0279-125.0279-125.0275-125.0275
  -124.8519-124.8519-124.8518-124.8518-124.8510-124.8510-124.8510-124.8510
  -124.8498-124.8498-124.8498-124.8498-124.8497-124.8497-124.8497-124.8497
  -124.8494-124.8494-124.8494-124.8494-124.8489-124.8489-124.8489-124.8489
  -124.8489-124.8489-124.8489-124.8489-124.8485-124.8485-124.8485-124.8485
   -79.1945 -79.1945 -79.1945 -79.1945 -79.1920 -79.1920 -79.1910 -79.1910
   -79.1865 -79.1865 -79.1864 -79.1864 -79.1815 -79.1815 -79.1801 -79.1801
   -79.1791 -79.1791 -79.1777 -79.1777 -79.1777 -79.1777 -79.1773 -79.1773
   -79.1767 -79.1767 -79.1767 -79.1767 -79.1763 -79.1763 -79.1750 -79.1749
   -79.1734 -79.1734 -79.1734 -79.1734 -79.1701 -79.1701 -79.1701 -79.1701
   -79.1692 -79.1692 -79.1665 -79.1665 -79.1655 -79.1655 -79.1626 -79.1626
   -79.0123 -79.0123 -79.0123 -79.0123 -79.0123 -79.0123 -79.0123 -79.0122
   -79.0098 -79.0098 -79.0098 -79.0098 -79.0092 -79.0092 -79.0090 -79.0090
   -79.0088 -79.0088 -79.0088 -79.0088 -79.0082 -79.0082 -79.0081 -79.0081
   -79.0068 -79.0068 -79.0068 -79.0068 -79.0068 -79.0068 -79.0068 -79.0068
   -79.0064 -79.0064 -79.0064 -79.0064 -79.0059 -79.0059 -79.0059 -79.0059
   -79.0058 -79.0058 -79.0058 -79.0058 -79.0055 -79.0055 -79.0054 -79.0054
   -79.0043 -79.0043 -79.0043 -79.0043 -79.0043 -79.0043 -79.0043 -79.0043
   -78.9994 -78.9994 -78.9994 -78.9994 -78.9928 -78.9928 -78.9928 -78.9928
   -78.9913 -78.9913 -78.9913 -78.9913 -78.9913 -78.9913 -78.9912 -78.9912
   -78.9880 -78.9880 -78.9880 -78.9880 -78.9879 -78.9879 -78.9879 -78.9879
   -78.9871 -78.9871 -78.9871 -78.9871 -78.9844 -78.9844 -78.9843 -78.9843
   -78.9834 -78.9834 -78.9834 -78.9833 -78.9805 -78.9805 -78.9805 -78.9804
    -8.1290  -8.1290  -7.2903  -7.2903  -7.0113  -7.0113  -6.8392  -6.8392
    -6.8251  -6.8251  -6.7148  -6.7148  -6.7148  -6.7148  -6.6332  -6.6332
    -6.6149  -6.6149  -6.6149  -6.6149  -6.6097  -6.6097  -6.5816  -6.5816
    -6.5816  -6.5816  -6.5266  -6.5266  -6.5140  -6.5140  -6.5140  -6.5140
    -6.4883  -6.4883  -6.4606  -6.4606  -6.4606  -6.4606  -6.4429  -6.4429
    -6.4429  -6.4429  -6.4394  -6.4394  -6.4208  -6.4208  -6.4054  -6.4054
    -6.4054  -6.4054  -6.3925  -6.3925  -6.2912  -6.2912  -6.2778  -6.2778
    -6.2778  -6.2778  -6.2733  -6.2733  -6.2664  -6.2664  -6.2535  -6.2535
    -6.2535  -6.2535  -6.2126  -6.2126  -6.2029  -6.2029  -6.2029  -6.2029
    -6.1796  -6.1796  -6.1783  -6.1783  -6.1360  -6.1360  -6.1240  -6.1240
    -6.0980  -6.0980  -6.0845  -6.0845  -6.0657  -6.0657  -6.0657  -6.0657
    -6.0329  -6.0329  -6.0329  -6.0329  -6.0285  -6.0284  -6.0183  -6.0183
    -6.0087  -6.0087  -6.0051  -6.0051  -5.9730  -5.9730  -5.9730  -5.9730
    -5.9725  -5.9725  -5.9332  -5.9332  -5.9231  -5.9231  -5.8985  -5.8985
    -5.8914  -5.8914  -5.8457  -5.8457  -5.8457  -5.8457  -5.7999  -5.7999
    -5.7915  -5.7915  -5.7915  -5.7915  -5.7883  -5.7883  -5.7752  -5.7752
    -5.7728  -5.7728  -5.7698  -5.7698  -5.7541  -5.7541  -5.7541  -5.7541
    -5.7504  -5.7504  -5.7504  -5.7504  -5.7485  -5.7485  -5.7321  -5.7321
    -5.7321  -5.7321  -5.7213  -5.7213  -5.6618  -5.6617  -5.6600  -5.6600
    -5.6467  -5.6467  -5.6270  -5.6270  -5.6269  -5.6269  -5.6116  -5.6116
    -5.6023  -5.6023  -5.5885  -5.5885  -5.5885  -5.5885  -5.5779  -5.5778
    -5.5571  -5.5570  -5.5231  -5.5231  -5.5148  -5.5148  -5.5148  -5.5148
    -5.5077  -5.5077  -5.5074  -5.5074  -5.5071  -5.5071  -5.5071  -5.5071
    -5.4829  -5.4829  -5.4829  -5.4829  -5.4777  -5.4777  -5.4746  -5.4746
    -5.4683  -5.4683  -5.4664  -5.4664  -5.4482  -5.4482  -5.4482  -5.4482
    -5.4373  -5.4373  -5.4373  -5.4373  -5.4270  -5.4270  -5.4063  -5.4063
    -5.3974  -5.3974  -5.3917  -5.3917  -5.3917  -5.3917  -5.3913  -5.3913
    -5.3908  -5.3908  -5.3903  -5.3903  -5.3653  -5.3653  -5.3558  -5.3558
    -5.3404  -5.3404  -5.3404  -5.3404  -5.3105  -5.3105  -5.3105  -5.3105
    -5.2417  -5.2417  -5.2417  -5.2417  -5.2179  -5.2179  -5.2179  -5.2179
    -5.2152  -5.2152  -5.1896  -5.1896  -5.1867  -5.1867  -4.6848  -4.6848
    -4.3951  -4.3951  -4.3951  -4.3951  -3.7037  -3.7037  -3.0954  -3.0954
    -3.0462  -3.0462  -3.0462  -3.0462  -2.3753  -2.3753  -2.2246  -2.2246
    -1.7323  -1.7323  -1.7323  -1.7323  -0.7379  -0.7379  -0.7379  -0.7379
    -0.3104  -0.3104  -0.3104  -0.3104  -0.0772  -0.0772   0.0311   0.0311
     1.0489   1.0489   1.0627   1.0627   1.3616   1.3616   1.3913   1.3913
     1.3913   1.3913   2.2387   2.2387   2.9221   2.9221   2.9221   2.9221
     3.1155   3.1155   3.1155   3.1155   3.3372   3.3372   3.5644   3.5644
     3.8820   3.8820   3.8820   3.8820   4.0126   4.0126   4.2832   4.2832
     4.4558   4.4558   4.7639   4.7639   4.8831   4.8831   5.5006   5.5006
     5.5215   5.5215   5.7169   5.7169   5.8154   5.8154   5.9427   5.9427
     5.9427   5.9427   6.0000   6.0000   6.0000   6.0000   6.1633   6.1633
     6.1633   6.1633   6.4233   6.4233   6.5749   6.5749   6.6353   6.6353
     6.6577   6.6577   6.8426   6.8426   6.8762   6.8762   7.0382   7.0382
     7.0382   7.0382   7.5804   7.5804   7.7402   7.7402   8.0772   8.0772
     8.0929   8.0929   8.0929   8.0929   8.2945   8.2945   8.4685   8.4685
     8.4685   8.4685   8.6347   8.6347   8.6347   8.6347   8.6627   8.6627
     8.7538   8.7538   8.8100   8.8100   9.0099   9.0099   9.0099   9.0099

     occupation numbers 
     1.0000   1.0000   1.0000   1.0000   1.0000   1.0000   1.0000   1.0000
     1.0000   1.0000   1.0000   1.0000   1.0000   1.0000   1.0000   1.0000
     1.0000   1.0000   1.0000   1.0000   1.0000   1.0000   1.0000   1.0000
     1.0000   1.0000   1.0000   1.0000   1.0000   1.0000   1.0000   1.0000
     1.0000   1.0000   1.0000   1.0000   1.0000   1.0000   1.0000   1.0000
     1.0000   1.0000   1.0000   1.0000   1.0000   1.0000   1.0000   1.0000
     1.0000   1.0000   1.0000   1.0000   1.0000   1.0000   1.0000   1.0000
     1.0000   1.0000   1.0000   1.0000   1.0000   1.0000   1.0000   1.0000
     1.0000   1.0000   1.0000   1.0000   1.0000   1.0000   1.0000   1.0000
     1.0000   1.0000   1.0000   1.0000   1.0000   1.0000   1.0000   1.0000
     1.0000   1.0000   1.0000   1.0000   1.0000   1.0000   1.0000   1.0000
     1.0000   1.0000   1.0000   1.0000   1.0000   1.0000   1.0000   1.0000
     1.0000   1.0000   1.0000   1.0000   1.0000   1.0000   1.0000   1.0000
     1.0000   1.0000   1.0000   1.0000   1.0000   1.0000   1.0000   1.0000
     1.0000   1.0000   1.0000   1.0000   1.0000   1.0000   1.0000   1.0000
     1.0000   1.0000   1.0000   1.0000   1.0000   1.0000   1.0000   1.0000
     1.0000   1.0000   1.0000   1.0000   1.0000   1.0000   1.0000   1.0000
     1.0000   1.0000   1.0000   1.0000   1.0000   1.0000   1.0000   1.0000
     1.0000   1.0000   1.0000   1.0000   1.0000   1.0000   1.0000   1.0000
     1.0000   1.0000   1.0000   1.0000   1.0000   1.0000   1.0000   1.0000
     1.0000   1.0000   1.0000   1.0000   1.0000   1.0000   1.0000   1.0000
     1.0000   1.0000   1.0000   1.0000   1.0000   1.0000   1.0000   1.0000
     1.0000   1.0000   1.0000   1.0000   1.0000   1.0000   1.0000   1.0000
     1.0000   1.0000   1.0000   1.0000   1.0000   1.0000   1.0000   1.0000
     1.0000   1.0000   1.0000   1.0000   1.0000   1.0000   1.0000   1.0000
     1.0000   1.0000   1.0000   1.0000   1.0000   1.0000   1.0000   1.0000
     1.0000   1.0000   1.0000   1.0000   1.0000   1.0000   1.0000   1.0000
     1.0000   1.0000   1.0000   1.0000   1.0000   1.0000   1.0000   1.0000
     1.0000   1.0000   1.0000   1.0000   1.0000   1.0000   1.0000   1.0000
     1.0000   1.0000   1.0000   1.0000   1.0000   1.0000   1.0000   1.0000
     1.0000   1.0000   1.0000   1.0000   1.0000   1.0000   1.0000   1.0000
     1.0000   1.0000   1.0000   1.0000   1.0000   1.0000   1.0000   1.0000
     1.0000   1.0000   1.0000   1.0000   1.0000   1.0000   1.0000   1.0000
     1.0000   1.0000   1.0000   1.0000   1.0000   1.0000   1.0000   1.0000
     1.0000   1.0000   1.0000   1.0000   1.0000   1.0000   1.0000   1.0000
     1.0000   1.0000   1.0000   1.0000   1.0000   1.0000   1.0000   1.0000
     1.0000   1.0000   1.0000   1.0000   1.0000   1.0000   1.0000   1.0000
     1.0000   1.0000   1.0000   1.0000   1.0000   1.0000   1.0000   1.0000
     1.0000   1.0000   1.0000   1.0000   1.0000   1.0000   1.0000   1.0000
     1.0000   1.0000   1.0000   1.0000   1.0000   1.0000   1.0000   1.0000
     1.0000   1.0000   1.0000   1.0000   1.0000   1.0000   1.0000   1.0000
     1.0000   1.0000   1.0000   1.0000   1.0000   1.0000   1.0000   1.0000
     1.0000   1.0000   1.0000   1.0000   1.0000   1.0000   1.0000   1.0000
     1.0000   1.0000   1.0000   1.0000   1.0000   1.0000   1.0000   1.0000
     1.0000   1.0000   1.0000   1.0000   1.0000   1.0000   1.0000   1.0000
     1.0000   1.0000   1.0000   1.0000   1.0000   1.0000   1.0000   1.0000
     1.0000   1.0000   1.0000   1.0000   1.0000   1.0000   1.0000   1.0000
     1.0000   1.0000   1.0000   1.0000   1.0000   1.0000   1.0000   1.0000
     1.0000   1.0000   1.0000   1.0000   1.0000   1.0000   1.0000   1.0000
     1.0000   1.0000   1.0000   1.0000   1.0000   1.0000   1.0000   1.0000
     1.0000   1.0000   1.0000   1.0000   1.0000   1.0000   1.0000   1.0000
     1.0000   1.0000   1.0000   1.0000   1.0000   1.0000   1.0000   1.0000
     1.0000   1.0000   1.0000   1.0000   1.0000   1.0000   1.0000   1.0000
     1.0000   1.0000   1.0000   1.0000   1.0000   1.0000   1.0000   1.0000
     1.0000   1.0000   1.0000   1.0000   1.0000   1.0000   1.0000   1.0000
     1.0000   1.0000   1.0000   1.0000   1.0000   1.0000   1.0000   1.0000
     1.0000   1.0000   1.0000   1.0000   1.0000   1.0000   1.0000   1.0000
     1.0000   1.0000   1.0000   1.0000   1.0000   1.0000   1.0000   1.0000
     1.0000   1.0000   1.0000   1.0000   1.0000   1.0000   1.0000   1.0000
     1.0000   1.0000   1.0000   1.0000   1.0034   1.0034   1.0675   1.0675
     1.0675   1.0675   0.0000   0.0000   0.0000   0.0000   0.0000   0.0000
     0.0000   0.0000   0.0000   0.0000   0.0000   0.0000   0.0000   0.0000
     0.0000   0.0000   0.0000   0.0000   0.0000   0.0000   0.0000   0.0000
     0.0000   0.0000   0.0000   0.0000   0.0000   0.0000   0.0000   0.0000
     0.0000   0.0000   0.0000   0.0000   0.0000   0.0000   0.0000   0.0000
     0.0000   0.0000   0.0000   0.0000   0.0000   0.0000   0.0000   0.0000
     0.0000   0.0000   0.0000   0.0000   0.0000   0.0000   0.0000   0.0000
     0.0000   0.0000   0.0000   0.0000   0.0000   0.0000   0.0000   0.0000
     0.0000   0.0000   0.0000   0.0000   0.0000   0.0000   0.0000   0.0000
     0.0000   0.0000   0.0000   0.0000   0.0000   0.0000   0.0000   0.0000
     0.0000   0.0000   0.0000   0.0000   0.0000   0.0000   0.0000   0.0000
     0.0000   0.0000   0.0000   0.0000   0.0000   0.0000   0.0000   0.0000

     the Fermi energy is     1.4379 ev

!    total energy              =  -22154.25242920 Ry
     estimated scf accuracy    <       0.00000003 Ry
     smearing contrib. (-TS)   =      -0.00005425 Ry
     internal energy E=F+TS    =  -22154.25237495 Ry

     The total energy is F=E-TS. E is the sum of the following terms:
     one-electron contribution = -144866.72633721 Ry
     hartree contribution      =   72367.37278600 Ry
     xc contribution           =   -2024.14676744 Ry
     ewald contribution        =   52369.24794370 Ry

     convergence has been achieved in  12 iterations

     Writing all to output data dir ./tmp/Zn002.save/ :
     XML data file, charge density, pseudopotentials, collected wavefunctions

     init_run     :    114.72s CPU    115.46s WALL (       1 calls)
     electrons    :   5459.13s CPU   5497.95s WALL (       1 calls)

     Called by init_run:
     wfcinit      :    113.42s CPU    114.11s WALL (       1 calls)
     wfcinit:atom :      0.08s CPU      0.13s WALL (      10 calls)
     wfcinit:wfcr :    112.28s CPU    112.85s WALL (      10 calls)
     potinit      :      0.08s CPU      0.09s WALL (       1 calls)
     hinit0       :      0.04s CPU      0.04s WALL (       1 calls)

     Called by electrons:
     c_bands      :   5079.15s CPU   5115.51s WALL (      13 calls)
     sum_band     :    368.45s CPU    370.52s WALL (      13 calls)
     v_of_rho     :      0.89s CPU      0.93s WALL (      13 calls)
     v_h          :      0.06s CPU      0.07s WALL (      13 calls)
     v_xc         :      0.83s CPU      0.86s WALL (      13 calls)
     newd         :     11.35s CPU     11.66s WALL (      13 calls)
     mix_rho      :      0.11s CPU      0.12s WALL (      13 calls)

     Called by c_bands:
     init_us_2    :      5.08s CPU      5.11s WALL (     270 calls)
     cegterg      :   5068.85s CPU   5105.06s WALL (     130 calls)

     Called by sum_band:
     sum_band:wei :      0.06s CPU      0.06s WALL (      13 calls)
     sum_band:loo :    356.93s CPU    358.65s WALL (      13 calls)
     sum_band:buf :      1.11s CPU      1.13s WALL (     130 calls)
     sum_band:ini :      2.46s CPU      2.46s WALL (     130 calls)
     sum_band:cal :    305.88s CPU    307.21s WALL (     130 calls)
     sum_band:bec :      2.65s CPU      2.65s WALL (     130 calls)
     addusdens    :     11.19s CPU     11.52s WALL (      13 calls)
                                        0.00s GPU  (      13 calls)
     addusd:skk   :      0.10s CPU      0.12s WALL (      13 calls)
                                        0.00s GPU  (      13 calls)

     Called by *egterg:
     cdiaghg      :    327.58s CPU    340.22s WALL (     718 calls)
     cegterg:over :    794.98s CPU    797.55s WALL (     598 calls)
     cegterg:upda :    352.10s CPU    354.20s WALL (     598 calls)
     cegterg:last :   1216.13s CPU   1223.66s WALL (     259 calls)
     cdiaghg:chol :     20.94s CPU     21.00s WALL (     718 calls)
     cdiaghg:inve :      3.32s CPU      3.33s WALL (     718 calls)
     cdiaghg:para :     85.91s CPU     87.47s WALL (    1436 calls)
     h_psi        :   1589.23s CPU   1596.77s WALL (     738 calls)
     s_psi        :    648.73s CPU    650.26s WALL (     738 calls)
     g_psi        :      0.69s CPU      0.69s WALL (     598 calls)

     Called by h_psi:
     h_psi:calbec :    728.43s CPU    731.67s WALL (     738 calls)
     vloc_psi     :    204.95s CPU    206.57s WALL (     738 calls)
     add_vuspsi   :    653.89s CPU    655.47s WALL (     738 calls)

     General routines
     calbec       :   1034.31s CPU   1038.88s WALL (     868 calls)
     fft          :      0.64s CPU      0.71s WALL (     167 calls)
     ffts         :      0.02s CPU      0.03s WALL (      26 calls)
     fftw         :    218.35s CPU    219.98s WALL (  431296 calls)
     interpolate  :      0.05s CPU      0.06s WALL (      13 calls)

     Parallel routines

     PWSCF        :      1h32m CPU      1h33m WALL


   This run was terminated on:  17:51:26  26Mar2025            

=------------------------------------------------------------------------------=
   JOB DONE.
=------------------------------------------------------------------------------=
Note: The following floating-point exceptions are signalling: IEEE_DENORMAL
Note: The following floating-point exceptions are signalling: IEEE_DENORMAL
Note: The following floating-point exceptions are signalling: IEEE_DENORMAL
Note: The following floating-point exceptions are signalling: IEEE_DENORMAL
Note: The following floating-point exceptions are signalling: IEEE_DENORMAL
Note: The following floating-point exceptions are signalling: IEEE_DENORMAL
Note: The following floating-point exceptions are signalling: IEEE_DENORMAL
Note: The following floating-point exceptions are signalling: IEEE_DENORMAL
Note: The following floating-point exceptions are signalling: IEEE_DENORMAL
Note: The following floating-point exceptions are signalling: IEEE_DENORMAL
Note: The following floating-point exceptions are signalling: IEEE_DENORMAL
Note: The following floating-point exceptions are signalling: IEEE_DENORMAL
