--------------------------------------------------------------------------
By default, for Open MPI 4.0 and later, infiniband ports on a device
are not used by default.  The intent is to use UCX for these devices.
You can override this policy by setting the btl_openib_allow_ib MCA parameter
to true.

  Local host:              psid03
  Local adapter:           mlx5_0
  Local port:              1

--------------------------------------------------------------------------
--------------------------------------------------------------------------
WARNING: There was an error initializing an OpenFabrics device.

  Local host:   psid03
  Local device: mlx5_0
--------------------------------------------------------------------------

     Program PWSCF v.7.3.1 starts on 22Mar2025 at 15:30:14 

     This program is part of the open-source Quantum ESPRESSO suite
     for quantum simulation of materials; please cite
         "P. Giannozzi et al., J. Phys.:Condens. Matter 21 395502 (2009);
         "P. Giannozzi et al., J. Phys.:Condens. Matter 29 465901 (2017);
         "P. Giannozzi et al., J. Chem. Phys. 152 154105 (2020);
          URL http://www.quantum-espresso.org", 
     in publications or presentations arising from this work. More details at
     http://www.quantum-espresso.org/quote

     Parallel version (MPI), running on    16 processors

     MPI processes distributed on     1 nodes
     99822 MiB available memory on the printing compute node when the environment starts

     Waiting for input...
     Reading input from standard input
Warning: card &CELL ignored
Warning: card   CELL_DOFREE = 'ALL' ignored
Warning: card / ignored

     Current dimensions of program PWSCF are:
     Max number of different atomic species (ntypx) = 10
     Max number of k-points (npk) =  40000
     Max angular momentum in pseudopotentials (lmaxx) =  4
     file C.pbe-n-kjpaw_psl.1.0.0.UPF: wavefunction(s)  2S 2P renormalized

     R & G space division:  proc/nbgrp/npool/nimage =      16
     Subspace diagonalization in iterative solution of the eigenvalue problem:
     one sub-group per band group will be used
     custom distributed-memory algorithm (size of sub-group:  4*  4 procs)


     Parallelization info
     --------------------
     sticks:   dense  smooth     PW     G-vecs:    dense   smooth      PW
     Min         202     202     53                21070    21070    2943
     Max         203     203     54                21080    21080    2952
     Sum        3241    3241    859               337189   337189   47187

     Using Slab Decomposition



     bravais-lattice index     =            0
     lattice parameter (alat)  =      19.7617  a.u.
     unit-cell volume          =   15176.5939 (a.u.)^3
     number of atoms/cell      =           79
     number of atomic types    =            4
     number of electrons       =      1324.00
     number of Kohn-Sham states=          794
     kinetic-energy cutoff     =      30.0000  Ry
     charge density cutoff     =     120.0000  Ry
     scf convergence threshold =      7.3E-07
     mixing beta               =       0.7000
     number of iterations used =            8  plain     mixing
     Exchange-correlation= PBE
                           (   1   4   3   4   0   0   0)

     celldm(1)=  19.761696  celldm(2)=   0.000000  celldm(3)=   0.000000
     celldm(4)=   0.000000  celldm(5)=   0.000000  celldm(6)=   0.000000

     crystal axes: (cart. coord. in units of alat)
               a(1) = (   1.000000   0.000000   0.000000 )  
               a(2) = (  -0.500000   0.866025   0.000000 )  
               a(3) = (   0.000000   0.000000   2.270759 )  

     reciprocal axes: (cart. coord. in units 2 pi/alat)
               b(1) = (  1.000000  0.577350 -0.000000 )  
               b(2) = (  0.000000  1.154701  0.000000 )  
               b(3) = (  0.000000 -0.000000  0.440381 )  


     PseudoPot. # 1 for Zn read from file:
     /home/ys/qepseudo/SSSP_1.3.0_PBE_efficiency/Zn_pbe_v1.uspp.F.UPF
     MD5 check sum: df62231357ef9e81f77b2b3087fa5675
     Pseudo is Ultrasoft, Zval = 20.0
     Generated by new atomic code, or converted to UPF format
     Using radial grid of  943 points,  6 beta functions with: 
                l(1) =   0
                l(2) =   0
                l(3) =   1
                l(4) =   1
                l(5) =   2
                l(6) =   2
     Q(r) pseudized with  8 coefficients,  rinner =    1.100   1.100   1.100
                                                       1.100   1.100

     PseudoPot. # 2 for C  read from file:
     /home/ys/qepseudo/SSSP_1.3.0_PBE_efficiency/C.pbe-n-kjpaw_psl.1.0.0.UPF
     MD5 check sum: 5d2aebdfa2cae82b50a7e79e9516da0f
     Pseudo is Projector augmented-wave + core cor, Zval =  4.0
     Generated using "atomic" code by A. Dal Corso  v.5.1
     Shape of augmentation charge: PSQ
     Using radial grid of 1073 points,  4 beta functions with: 
                l(1) =   0
                l(2) =   0
                l(3) =   1
                l(4) =   1
     Q(r) pseudized with 0 coefficients 


     PseudoPot. # 3 for N  read from file:
     /home/ys/qepseudo/SSSP_1.3.0_PBE_efficiency/N.pbe-n-radius_5.UPF
     MD5 check sum: 16739722b17309cd8fe442a2ace49922
     Pseudo is Ultrasoft + core correction, Zval =  5.0
     Generated using "atomic" code by A. Dal Corso  v.5.1
     Using radial grid of 1085 points,  4 beta functions with: 
                l(1) =   0
                l(2) =   0
                l(3) =   1
                l(4) =   1
     Q(r) pseudized with 0 coefficients 


     PseudoPot. # 4 for H  read from file:
     /home/ys/qepseudo/SSSP_1.3.0_PBE_efficiency/H.pbe-rrkjus_psl.1.0.0.UPF
     MD5 check sum: f52b6d4d1c606e5624b1dc7b2218f220
     Pseudo is Ultrasoft, Zval =  1.0
     Generated using "atomic" code by A. Dal Corso  v.5.1
     Using radial grid of  929 points,  2 beta functions with: 
                l(1) =   0
                l(2) =   0
     Q(r) pseudized with 0 coefficients 


     atomic species   valence    mass     pseudopotential
     Zn               20.00    65.38000     Zn( 1.00)
     C                 4.00    12.01070     C ( 1.00)
     N                 5.00    14.00670     N ( 1.00)
     H                 1.00     1.00800     H ( 1.00)

     No symmetry found


                                    s                        frac. trans.

      isym =  1     identity                                     

 cryst.   s( 1) = (     1          0          0      )
                  (     0          1          0      )
                  (     0          0          1      )

 cart.    s( 1) = (  1.0000000  0.0000000  0.0000000 )
                  (  0.0000000  1.0000000  0.0000000 )
                  (  0.0000000  0.0000000  1.0000000 )


   Cartesian axes

     site n.     atom                  positions (alat units)
         1        Zn     tau(   1) = (  -0.0000000   0.1443376   0.1164999  )
         2        Zn     tau(   2) = (   0.5000000   0.1443376   0.1164999  )
         3        Zn     tau(   3) = (   0.0001063   0.1443772   0.5902127  )
         4        Zn     tau(   4) = (   0.4998958   0.1443643   0.5917156  )
         5        Zn     tau(   5) = (  -0.1250000   0.3608439   0.1164999  )
         6        Zn     tau(   6) = (   0.3750000   0.3608439   0.1164999  )
         7        Zn     tau(   7) = (  -0.1249761   0.3609302   0.5908726  )
         8        Zn     tau(   8) = (   0.3749642   0.3608477   0.5913644  )
         9        Zn     tau(   9) = (  -0.2500000   0.5773503   0.1164999  )
        10        Zn     tau(  10) = (   0.2500000   0.5773503   0.1164999  )
        11        Zn     tau(  11) = (  -0.2499911   0.5773738   0.5915504  )
        12        Zn     tau(  12) = (   0.2499824   0.5772583   0.5907382  )
        13        Zn     tau(  13) = (  -0.3750000   0.7938566   0.1164999  )
        14        Zn     tau(  14) = (   0.1250000   0.7938566   0.1164999  )
        15        Zn     tau(  15) = (  -0.3749161   0.7938269   0.5909604  )
        16        Zn     tau(  16) = (   0.1249053   0.7937898   0.5911170  )
        17        Zn     tau(  17) = (   0.2500000   0.1443376   0.1164999  )
        18        Zn     tau(  18) = (   0.7500000   0.1443376   0.1164999  )
        19        Zn     tau(  19) = (   0.2499566   0.1443139   0.5910485  )
        20        Zn     tau(  20) = (   0.7500401   0.1444360   0.5909256  )
        21        Zn     tau(  21) = (   0.1250000   0.3608439   0.1164999  )
        22        Zn     tau(  22) = (   0.6250000   0.3608439   0.1164999  )
        23        Zn     tau(  23) = (   0.1249684   0.3608327   0.5904686  )
        24        Zn     tau(  24) = (   0.6250220   0.3609386   0.5917101  )
        25        Zn     tau(  25) = (  -0.0000000   0.5773503   0.1164999  )
        26        Zn     tau(  26) = (   0.5000000   0.5773503   0.1164999  )
        27        Zn     tau(  27) = (  -0.0000983   0.5773031   0.5910657  )
        28        Zn     tau(  28) = (   0.5000885   0.5773473   0.5912976  )
        29        Zn     tau(  29) = (  -0.1250000   0.7938566   0.1164999  )
        30        Zn     tau(  30) = (   0.3750000   0.7938566   0.1164999  )
        31        Zn     tau(  31) = (  -0.1251014   0.7937984   0.5915674  )
        32        Zn     tau(  32) = (   0.3751324   0.7938157   0.5904624  )
        33        Zn     tau(  33) = (   0.1250000   0.0721688   0.3494996  )
        34        Zn     tau(  34) = (   0.6250000   0.0721688   0.3494996  )
        35        Zn     tau(  35) = (   0.1248704   0.0720543   0.8322872  )
        36        Zn     tau(  36) = (   0.6249662   0.0722631   0.8328120  )
        37        Zn     tau(  37) = (   0.0000000   0.2886751   0.3494996  )
        38        Zn     tau(  38) = (   0.5000000   0.2886751   0.3494996  )
        39        Zn     tau(  39) = (  -0.0001124   0.2887197   0.8323736  )
        40        Zn     tau(  40) = (   0.5000283   0.2886949   0.8337690  )
        41        Zn     tau(  41) = (  -0.1250000   0.5051815   0.3494996  )
        42        Zn     tau(  42) = (   0.3750000   0.5051815   0.3494996  )
        43        Zn     tau(  43) = (  -0.1249832   0.5052069   0.8329413  )
        44        Zn     tau(  44) = (   0.3751430   0.5054781   0.8266636  )
        45        Zn     tau(  45) = (  -0.2500000   0.7216878   0.3494996  )
        46        Zn     tau(  46) = (   0.2500000   0.7216878   0.3494996  )
        47        Zn     tau(  47) = (  -0.2499807   0.7217075   0.8330514  )
        48        Zn     tau(  48) = (   0.2498824   0.7218414   0.8325409  )
        49        Zn     tau(  49) = (   0.3750000   0.0721688   0.3494996  )
        50        Zn     tau(  50) = (   0.8750000   0.0721688   0.3494996  )
        51        Zn     tau(  51) = (   0.3750270   0.0721156   0.8331918  )
        52        Zn     tau(  52) = (   0.8749280   0.0722305   0.8320964  )
        53        Zn     tau(  53) = (   0.2500000   0.2886751   0.3494996  )
        54        Zn     tau(  54) = (   0.7500000   0.2886751   0.3494996  )
        55        Zn     tau(  55) = (   0.2498616   0.2884031   0.8275225  )
        56        Zn     tau(  56) = (   0.7499870   0.2887253   0.8329144  )
        57        Zn     tau(  57) = (   0.1250000   0.5051815   0.3494996  )
        58        Zn     tau(  58) = (   0.6250000   0.5051815   0.3494996  )
        59        Zn     tau(  59) = (   0.1248788   0.5052943   0.8329085  )
        60        Zn     tau(  60) = (   0.6250977   0.5052298   0.8331912  )
        61        Zn     tau(  61) = (   0.0000000   0.7216878   0.3494996  )
        62        Zn     tau(  62) = (   0.5000000   0.7216878   0.3494996  )
        63        Zn     tau(  63) = (   0.0000181   0.7217422   0.8329106  )
        64        Zn     tau(  64) = (   0.5000134   0.7218815   0.8324438  )
        65        C      tau(  65) = (   0.3338913   0.4086714   1.7082713  )
        66        C      tau(  66) = (   0.3299463   0.4087103   1.5718571  )
        67        C      tau(  67) = (   0.2638685   0.3122948   1.5044679  )
        68        C      tau(  68) = (   0.3904633   0.5064655   1.5013839  )
        69        C      tau(  69) = (   0.3854315   0.5078884   1.3690900  )
        70        C      tau(  70) = (   0.2588418   0.3133157   1.3718345  )
        71        C      tau(  71) = (   0.3191216   0.4115028   1.3010016  )
        72        N      tau(  72) = (   0.3370654   0.4094098   1.8205488  )
        73        N      tau(  73) = (   0.3137105   0.4135168   1.1704857  )
        74        H      tau(  74) = (   0.3568680   0.4838861   1.1192130  )
        75        H      tau(  75) = (   0.2662672   0.3451063   1.1203705  )
        76        H      tau(  76) = (   0.2165898   0.2357330   1.5578041  )
        77        H      tau(  77) = (   0.4416929   0.5820615   1.5523766  )
        78        H      tau(  78) = (   0.4329958   0.5847339   1.3161421  )
        79        H      tau(  79) = (   0.2070538   0.2375425   1.3214015  )

   Crystallographic axes

     site n.     atom                  positions (cryst. coord.)
         1        Zn     tau(   1) = (  0.0833333  0.1666667  0.0513044  )
         2        Zn     tau(   2) = (  0.5833333  0.1666667  0.0513044  )
         3        Zn     tau(   3) = (  0.0834625  0.1667124  0.2599187  )
         4        Zn     tau(   4) = (  0.5832446  0.1666976  0.2605806  )
         5        Zn     tau(   5) = (  0.0833333  0.4166667  0.0513044  )
         6        Zn     tau(   6) = (  0.5833333  0.4166667  0.0513044  )
         7        Zn     tau(   7) = (  0.0834070  0.4167663  0.2602093  )
         8        Zn     tau(   8) = (  0.5832997  0.4166711  0.2604259  )
         9        Zn     tau(   9) = (  0.0833333  0.6666667  0.0513044  )
        10        Zn     tau(  10) = (  0.5833333  0.6666667  0.0513044  )
        11        Zn     tau(  11) = (  0.0833558  0.6666938  0.2605078  )
        12        Zn     tau(  12) = (  0.5832626  0.6665605  0.2601501  )
        13        Zn     tau(  13) = (  0.0833333  0.9166667  0.0513044  )
        14        Zn     tau(  14) = (  0.5833333  0.9166667  0.0513044  )
        15        Zn     tau(  15) = (  0.0834001  0.9166324  0.2602480  )
        16        Zn     tau(  16) = (  0.5832000  0.9165895  0.2603170  )
        17        Zn     tau(  17) = (  0.3333333  0.1666667  0.0513044  )
        18        Zn     tau(  18) = (  0.8333333  0.1666667  0.0513044  )
        19        Zn     tau(  19) = (  0.3332763  0.1666393  0.2602868  )
        20        Zn     tau(  20) = (  0.8334303  0.1667804  0.2602327  )
        21        Zn     tau(  21) = (  0.3333333  0.4166667  0.0513044  )
        22        Zn     tau(  22) = (  0.8333333  0.4166667  0.0513044  )
        23        Zn     tau(  23) = (  0.3332952  0.4166537  0.2600314  )
        24        Zn     tau(  24) = (  0.8334099  0.4167759  0.2605781  )
        25        Zn     tau(  25) = (  0.3333333  0.6666667  0.0513044  )
        26        Zn     tau(  26) = (  0.8333333  0.6666667  0.0513044  )
        27        Zn     tau(  27) = (  0.3332078  0.6666122  0.2602944  )
        28        Zn     tau(  28) = (  0.8334201  0.6666632  0.2603965  )
        29        Zn     tau(  29) = (  0.3333333  0.9166667  0.0513044  )
        30        Zn     tau(  30) = (  0.8333333  0.9166667  0.0513044  )
        31        Zn     tau(  31) = (  0.3331983  0.9165994  0.2605153  )
        32        Zn     tau(  32) = (  0.8334421  0.9166194  0.2600287  )
        33        Zn     tau(  33) = (  0.1666667  0.0833333  0.1539131  )
        34        Zn     tau(  34) = (  0.6666667  0.0833333  0.1539131  )
        35        Zn     tau(  35) = (  0.1664710  0.0832011  0.3665238  )
        36        Zn     tau(  36) = (  0.6666873  0.0834422  0.3667549  )
        37        Zn     tau(  37) = (  0.1666667  0.3333333  0.1539131  )
        38        Zn     tau(  38) = (  0.6666667  0.3333333  0.1539131  )
        39        Zn     tau(  39) = (  0.1665799  0.3333847  0.3665619  )
        40        Zn     tau(  40) = (  0.6667064  0.3333561  0.3671764  )
        41        Zn     tau(  41) = (  0.1666667  0.5833333  0.1539131  )
        42        Zn     tau(  42) = (  0.6666667  0.5833333  0.1539131  )
        43        Zn     tau(  43) = (  0.1666982  0.5833627  0.3668119  )
        44        Zn     tau(  44) = (  0.6669809  0.5836758  0.3640473  )
        45        Zn     tau(  45) = (  0.1666667  0.8333333  0.1539131  )
        46        Zn     tau(  46) = (  0.6666667  0.8333333  0.1539131  )
        47        Zn     tau(  47) = (  0.1666973  0.8333560  0.3668604  )
        48        Zn     tau(  48) = (  0.6666377  0.8335107  0.3666355  )
        49        Zn     tau(  49) = (  0.4166667  0.0833333  0.1539131  )
        50        Zn     tau(  50) = (  0.9166667  0.0833333  0.1539131  )
        51        Zn     tau(  51) = (  0.4166629  0.0832719  0.3669222  )
        52        Zn     tau(  52) = (  0.9166302  0.0834045  0.3664398  )
        53        Zn     tau(  53) = (  0.4166667  0.3333333  0.1539131  )
        54        Zn     tau(  54) = (  0.9166667  0.3333333  0.1539131  )
        55        Zn     tau(  55) = (  0.4163712  0.3330192  0.3644255  )
        56        Zn     tau(  56) = (  0.9166827  0.3333913  0.3668001  )
        57        Zn     tau(  57) = (  0.4166667  0.5833333  0.1539131  )
        58        Zn     tau(  58) = (  0.9166667  0.5833333  0.1539131  )
        59        Zn     tau(  59) = (  0.4166106  0.5834636  0.3667974  )
        60        Zn     tau(  60) = (  0.9167923  0.5833891  0.3669219  )
        61        Zn     tau(  61) = (  0.4166667  0.8333333  0.1539131  )
        62        Zn     tau(  62) = (  0.9166667  0.8333333  0.1539131  )
        63        Zn     tau(  63) = (  0.4167161  0.8333961  0.3667984  )
        64        Zn     tau(  64) = (  0.9167919  0.8335569  0.3665928  )
        65        C      tau(  65) = (  0.5698379  0.4718931  0.7522909  )
        66        C      tau(  66) = (  0.5659153  0.4719381  0.6922167  )
        67        C      tau(  67) = (  0.4441719  0.3606069  0.6625397  )
        68        C      tau(  68) = (  0.6828713  0.5848160  0.6611816  )
        69        C      tau(  69) = (  0.6786610  0.5864590  0.6029218  )
        70        C      tau(  70) = (  0.4397347  0.3617858  0.6041304  )
        71        C      tau(  71) = (  0.5567029  0.4751625  0.5729369  )
        72        N      tau(  72) = (  0.5734382  0.4727457  0.8017359  )
        73        N      tau(  73) = (  0.5524546  0.4774881  0.5154602  )
        74        H      tau(  74) = (  0.6362397  0.5587436  0.4928806  )
        75        H      tau(  75) = (  0.4655144  0.3984944  0.4933904  )
        76        H      tau(  76) = (  0.3526903  0.2722010  0.6860280  )
        77        H      tau(  77) = (  0.7777462  0.6721067  0.6836378  )
        78        H      tau(  78) = (  0.7705920  0.6751926  0.5796046  )
        79        H      tau(  79) = (  0.3441990  0.2742905  0.5819207  )

     number of k points=     5  Marzari-Vanderbilt smearing, width (Ry)=  0.0200
                       cart. coord. in units 2pi/alat
        k(    1) = (   0.0000000   0.0000000   0.0000000), wk =   0.2222222
        k(    2) = (   0.0000000   0.3849002   0.0000000), wk =   0.4444444
        k(    3) = (   0.3333333   0.1924501   0.0000000), wk =   0.4444444
        k(    4) = (   0.3333333   0.5773503   0.0000000), wk =   0.4444444
        k(    5) = (   0.3333333  -0.1924501   0.0000000), wk =   0.4444444

                       cryst. coord.
        k(    1) = (   0.0000000   0.0000000   0.0000000), wk =   0.2222222
        k(    2) = (   0.0000000   0.3333333   0.0000000), wk =   0.4444444
        k(    3) = (   0.3333333   0.0000000   0.0000000), wk =   0.4444444
        k(    4) = (   0.3333333   0.3333333   0.0000000), wk =   0.4444444
        k(    5) = (   0.3333333  -0.3333333   0.0000000), wk =   0.4444444

     Dense  grid:   337189 G-vectors     FFT dimensions: (  72,  72, 160)

     Dynamical RAM for                 wfc:      31.89 MB

     Dynamical RAM for     wfc (w. buffer):     191.33 MB

     Dynamical RAM for           str. fact:       1.29 MB

     Dynamical RAM for           local pot:       0.00 MB

     Dynamical RAM for          nlocal pot:      49.64 MB

     Dynamical RAM for                qrad:       3.52 MB

     Dynamical RAM for          rho,v,vnew:       2.15 MB

     Dynamical RAM for               rhoin:       0.72 MB

     Dynamical RAM for            rho*nmix:       5.15 MB

     Dynamical RAM for           G-vectors:       1.37 MB

     Dynamical RAM for          h,s,v(r/c):       7.21 MB

     Dynamical RAM for          <psi|beta>:      14.97 MB

     Dynamical RAM for                 psi:      63.78 MB

     Dynamical RAM for                hpsi:      63.78 MB

     Dynamical RAM for                spsi:      63.78 MB

     Dynamical RAM for      wfcinit/wfcrot:      87.69 MB

     Dynamical RAM for           addusdens:      80.39 MB

     Dynamical RAM for          addusforce:     121.32 MB

     Dynamical RAM for         addusstress:      64.63 MB

     Estimated static dynamical RAM per process >     253.59 MB

     Estimated max dynamical RAM per process >     472.26 MB

     Estimated total dynamical RAM >       7.38 GB

     Check: negative core charge=   -0.000055

     Initial potential from superposition of free atoms

     starting charge    1323.9906, renormalised to    1324.0000

     negative rho (up, down):  6.793E-03 0.000E+00
     Starting wfcs are  874 randomized atomic wfcs
[psid03:06899] 15 more processes have sent help message help-mpi-btl-openib.txt / ib port not selected
[psid03:06899] Set MCA parameter "orte_base_help_aggregate" to 0 to see all help / error messages
[psid03:06899] 15 more processes have sent help message help-mpi-btl-openib.txt / error in device init
     Checking if some PAW data can be deallocated... 
       PAW data deallocated on   13 nodes for type:  2

     total cpu time spent up to now is      144.8 secs

     Self-consistent Calculation

     iteration #  1     ecut=    30.00 Ry     beta= 0.70
     Davidson diagonalization with overlap

---- Real-time Memory Report at c_bands before calling an iterative solver
           351 MiB given to the printing process from OS
             0 MiB allocation reported by mallinfo(arena+hblkhd)
         91033 MiB available memory on the node where the printing process lives
------------------
     ethr =  1.00E-02,  avg # of iterations =  7.2

     Threshold (ethr) on eigenvalues was too large:
     Diagonalizing with lowered threshold

     Davidson diagonalization with overlap

---- Real-time Memory Report at c_bands before calling an iterative solver
           508 MiB given to the printing process from OS
             0 MiB allocation reported by mallinfo(arena+hblkhd)
         90349 MiB available memory on the node where the printing process lives
------------------
     ethr =  9.22E-04,  avg # of iterations =  1.4

     negative rho (up, down):  3.735E-02 0.000E+00

     total cpu time spent up to now is     1123.0 secs

     total energy              =  -29703.39617161 Ry
     estimated scf accuracy    <      12.42493541 Ry

     iteration #  2     ecut=    30.00 Ry     beta= 0.70
     Davidson diagonalization with overlap

---- Real-time Memory Report at c_bands before calling an iterative solver
           508 MiB given to the printing process from OS
             0 MiB allocation reported by mallinfo(arena+hblkhd)
         89827 MiB available memory on the node where the printing process lives
------------------
     ethr =  9.38E-04,  avg # of iterations = 10.8

     negative rho (up, down):  3.487E-02 0.000E+00

     total cpu time spent up to now is     1921.5 secs

     total energy              =  -29666.58608490 Ry
     estimated scf accuracy    <     800.30306291 Ry

     iteration #  3     ecut=    30.00 Ry     beta= 0.70
     Davidson diagonalization with overlap

---- Real-time Memory Report at c_bands before calling an iterative solver
           514 MiB given to the printing process from OS
             0 MiB allocation reported by mallinfo(arena+hblkhd)
         90159 MiB available memory on the node where the printing process lives
------------------
     ethr =  9.38E-04,  avg # of iterations = 10.2

     negative rho (up, down):  2.404E-02 0.000E+00

     total cpu time spent up to now is     3106.2 secs

     total energy              =  -29703.08640581 Ry
     estimated scf accuracy    <      98.92556070 Ry

     iteration #  4     ecut=    30.00 Ry     beta= 0.70
     Davidson diagonalization with overlap

---- Real-time Memory Report at c_bands before calling an iterative solver
           514 MiB given to the printing process from OS
             0 MiB allocation reported by mallinfo(arena+hblkhd)
         91634 MiB available memory on the node where the printing process lives
------------------
     ethr =  9.38E-04,  avg # of iterations =  8.4

     negative rho (up, down):  1.485E-02 0.000E+00

     total cpu time spent up to now is     3671.5 secs

     total energy              =  -29704.99720383 Ry
     estimated scf accuracy    <     149.28991199 Ry

     iteration #  5     ecut=    30.00 Ry     beta= 0.70
     Davidson diagonalization with overlap

---- Real-time Memory Report at c_bands before calling an iterative solver
           514 MiB given to the printing process from OS
             0 MiB allocation reported by mallinfo(arena+hblkhd)
         91634 MiB available memory on the node where the printing process lives
------------------
     ethr =  9.38E-04,  avg # of iterations =  6.6

     negative rho (up, down):  1.486E-02 0.000E+00

     total cpu time spent up to now is     4196.3 secs

     total energy              =  -29711.45914667 Ry
     estimated scf accuracy    <       5.65174615 Ry

     iteration #  6     ecut=    30.00 Ry     beta= 0.70
     Davidson diagonalization with overlap

---- Real-time Memory Report at c_bands before calling an iterative solver
           514 MiB given to the printing process from OS
             0 MiB allocation reported by mallinfo(arena+hblkhd)
         91625 MiB available memory on the node where the printing process lives
------------------
     ethr =  4.27E-04,  avg # of iterations =  3.8

     negative rho (up, down):  2.140E-02 0.000E+00

     total cpu time spent up to now is     4673.3 secs

     total energy              =  -29711.99335995 Ry
     estimated scf accuracy    <       0.21238916 Ry

     iteration #  7     ecut=    30.00 Ry     beta= 0.70
     Davidson diagonalization with overlap

---- Real-time Memory Report at c_bands before calling an iterative solver
           514 MiB given to the printing process from OS
             0 MiB allocation reported by mallinfo(arena+hblkhd)
         91609 MiB available memory on the node where the printing process lives
------------------
     ethr =  1.60E-05,  avg # of iterations = 17.6

     negative rho (up, down):  2.884E-02 0.000E+00

     total cpu time spent up to now is     5258.2 secs

     total energy              =  -29712.00055907 Ry
     estimated scf accuracy    <       0.06485910 Ry

     iteration #  8     ecut=    30.00 Ry     beta= 0.70
     Davidson diagonalization with overlap

---- Real-time Memory Report at c_bands before calling an iterative solver
           515 MiB given to the printing process from OS
             0 MiB allocation reported by mallinfo(arena+hblkhd)
         91585 MiB available memory on the node where the printing process lives
------------------
     c_bands:  3 eigenvalues not converged
     c_bands:  2 eigenvalues not converged
     ethr =  4.90E-06,  avg # of iterations = 18.8

     negative rho (up, down):  3.339E-02 0.000E+00

     total cpu time spent up to now is     5934.7 secs

     total energy              =  -29712.00047329 Ry
     estimated scf accuracy    <       0.05694588 Ry

     iteration #  9     ecut=    30.00 Ry     beta= 0.70
     Davidson diagonalization with overlap

---- Real-time Memory Report at c_bands before calling an iterative solver
           516 MiB given to the printing process from OS
             0 MiB allocation reported by mallinfo(arena+hblkhd)
         90064 MiB available memory on the node where the printing process lives
------------------
     ethr =  4.30E-06,  avg # of iterations =  4.6

     negative rho (up, down):  3.457E-02 0.000E+00

     total cpu time spent up to now is     6435.4 secs

     total energy              =  -29712.00475941 Ry
     estimated scf accuracy    <       0.04443446 Ry

     iteration # 10     ecut=    30.00 Ry     beta= 0.70
     Davidson diagonalization with overlap

---- Real-time Memory Report at c_bands before calling an iterative solver
           517 MiB given to the printing process from OS
             0 MiB allocation reported by mallinfo(arena+hblkhd)
         89543 MiB available memory on the node where the printing process lives
------------------
     ethr =  3.36E-06,  avg # of iterations =  5.2

     negative rho (up, down):  3.503E-02 0.000E+00

     total cpu time spent up to now is     6913.6 secs

     total energy              =  -29712.00796148 Ry
     estimated scf accuracy    <       0.01481537 Ry

     iteration # 11     ecut=    30.00 Ry     beta= 0.70
     Davidson diagonalization with overlap

---- Real-time Memory Report at c_bands before calling an iterative solver
           518 MiB given to the printing process from OS
             0 MiB allocation reported by mallinfo(arena+hblkhd)
         89522 MiB available memory on the node where the printing process lives
------------------
     c_bands:  2 eigenvalues not converged
     ethr =  1.12E-06,  avg # of iterations = 14.0

     negative rho (up, down):  4.040E-02 0.000E+00

     total cpu time spent up to now is     7399.6 secs

     total energy              =  -29712.00073138 Ry
     estimated scf accuracy    <       0.01225011 Ry

     iteration # 12     ecut=    30.00 Ry     beta= 0.70
     Davidson diagonalization with overlap

---- Real-time Memory Report at c_bands before calling an iterative solver
           518 MiB given to the printing process from OS
             0 MiB allocation reported by mallinfo(arena+hblkhd)
         90984 MiB available memory on the node where the printing process lives
------------------
     c_bands:  1 eigenvalues not converged
     ethr =  9.25E-07,  avg # of iterations = 16.2

     negative rho (up, down):  3.748E-02 0.000E+00

     total cpu time spent up to now is     7991.6 secs

     total energy              =  -29712.00099173 Ry
     estimated scf accuracy    <       0.00858041 Ry

     iteration # 13     ecut=    30.00 Ry     beta= 0.70
     Davidson diagonalization with overlap

---- Real-time Memory Report at c_bands before calling an iterative solver
           518 MiB given to the printing process from OS
             0 MiB allocation reported by mallinfo(arena+hblkhd)
         89519 MiB available memory on the node where the printing process lives
------------------
     ethr =  6.48E-07,  avg # of iterations =  3.0

     negative rho (up, down):  3.768E-02 0.000E+00

     total cpu time spent up to now is     8467.5 secs

     total energy              =  -29711.99855450 Ry
     estimated scf accuracy    <       0.01065589 Ry

     iteration # 14     ecut=    30.00 Ry     beta= 0.70
     Davidson diagonalization with overlap

---- Real-time Memory Report at c_bands before calling an iterative solver
           518 MiB given to the printing process from OS
             0 MiB allocation reported by mallinfo(arena+hblkhd)
         90011 MiB available memory on the node where the printing process lives
------------------
     ethr =  6.48E-07,  avg # of iterations =  8.2

     negative rho (up, down):  3.657E-02 0.000E+00

     total cpu time spent up to now is     8979.1 secs

     total energy              =  -29711.99598778 Ry
     estimated scf accuracy    <       0.10928162 Ry

     iteration # 15     ecut=    30.00 Ry     beta= 0.70
     Davidson diagonalization with overlap

---- Real-time Memory Report at c_bands before calling an iterative solver
           518 MiB given to the printing process from OS
             0 MiB allocation reported by mallinfo(arena+hblkhd)
         90008 MiB available memory on the node where the printing process lives
------------------
     ethr =  6.48E-07,  avg # of iterations =  6.4

     negative rho (up, down):  3.627E-02 0.000E+00

     total cpu time spent up to now is     9471.4 secs

     total energy              =  -29712.00188729 Ry
     estimated scf accuracy    <       0.00043273 Ry

     iteration # 16     ecut=    30.00 Ry     beta= 0.70
     Davidson diagonalization with overlap

---- Real-time Memory Report at c_bands before calling an iterative solver
           518 MiB given to the printing process from OS
             0 MiB allocation reported by mallinfo(arena+hblkhd)
         90008 MiB available memory on the node where the printing process lives
------------------
     ethr =  3.27E-08,  avg # of iterations =  2.0

     negative rho (up, down):  3.609E-02 0.000E+00

     total cpu time spent up to now is    10003.5 secs

     total energy              =  -29712.00193354 Ry
     estimated scf accuracy    <       0.00041174 Ry

     iteration # 17     ecut=    30.00 Ry     beta= 0.70
     Davidson diagonalization with overlap

---- Real-time Memory Report at c_bands before calling an iterative solver
           518 MiB given to the printing process from OS
             0 MiB allocation reported by mallinfo(arena+hblkhd)
         89513 MiB available memory on the node where the printing process lives
------------------
     ethr =  3.11E-08,  avg # of iterations =  2.0

     negative rho (up, down):  3.584E-02 0.000E+00

     total cpu time spent up to now is    10454.2 secs

     total energy              =  -29712.00198900 Ry
     estimated scf accuracy    <       0.00009287 Ry

     iteration # 18     ecut=    30.00 Ry     beta= 0.70
     Davidson diagonalization with overlap

---- Real-time Memory Report at c_bands before calling an iterative solver
           518 MiB given to the printing process from OS
             0 MiB allocation reported by mallinfo(arena+hblkhd)
         89514 MiB available memory on the node where the printing process lives
------------------
     ethr =  7.01E-09,  avg # of iterations =  2.0

     negative rho (up, down):  3.571E-02 0.000E+00

     total cpu time spent up to now is    10908.5 secs

     total energy              =  -29712.00199918 Ry
     estimated scf accuracy    <       0.00001288 Ry

     iteration # 19     ecut=    30.00 Ry     beta= 0.70
     Davidson diagonalization with overlap

---- Real-time Memory Report at c_bands before calling an iterative solver
           518 MiB given to the printing process from OS
             0 MiB allocation reported by mallinfo(arena+hblkhd)
         89511 MiB available memory on the node where the printing process lives
------------------
     ethr =  9.73E-10,  avg # of iterations =  2.0

     negative rho (up, down):  3.567E-02 0.000E+00

     total cpu time spent up to now is    11370.0 secs

     total energy              =  -29712.00200108 Ry
     estimated scf accuracy    <       0.00000136 Ry

     iteration # 20     ecut=    30.00 Ry     beta= 0.70
     Davidson diagonalization with overlap

---- Real-time Memory Report at c_bands before calling an iterative solver
           518 MiB given to the printing process from OS
             0 MiB allocation reported by mallinfo(arena+hblkhd)
         89512 MiB available memory on the node where the printing process lives
------------------
     ethr =  1.03E-10,  avg # of iterations =  3.0

     negative rho (up, down):  3.566E-02 0.000E+00

     total cpu time spent up to now is    11861.4 secs

     total energy              =  -29712.00200114 Ry
     estimated scf accuracy    <       0.00000160 Ry

     iteration # 21     ecut=    30.00 Ry     beta= 0.70
     Davidson diagonalization with overlap

---- Real-time Memory Report at c_bands before calling an iterative solver
           518 MiB given to the printing process from OS
             0 MiB allocation reported by mallinfo(arena+hblkhd)
         89514 MiB available memory on the node where the printing process lives
------------------
     ethr =  1.03E-10,  avg # of iterations =  2.0

     negative rho (up, down):  3.563E-02 0.000E+00

     total cpu time spent up to now is    12314.0 secs

     End of self-consistent calculation

          k = 0.0000 0.0000 0.0000 ( 42115 PWs)   bands (ev):

  -123.0057-123.0032-123.0031-123.0029-123.0023-123.0021-123.0016-123.0013
  -123.0001-122.9990-122.9988-122.9987-122.9983-122.9980-122.9977-122.9975
  -122.9734-122.9680-122.9671-122.9664-122.9659-122.9588-122.9571-122.9564
  -122.9550-122.9538-122.9531-122.9526-122.9521-122.9518-122.9514-122.9507
  -122.8147-122.8097-122.8016-122.7992-122.7986-122.7984-122.7980-122.7978
  -122.7973-122.7972-122.7970-122.7967-122.7964-122.7962-122.7958-122.7954
  -122.7946-122.7929-122.7824-122.7804-122.7787-122.7779-122.7773-122.7764
  -122.7758-122.7752-122.7750-122.7739-122.7733-122.7730-122.7728-122.7727
   -77.1136 -77.1132 -77.1132 -77.1047 -77.1045 -77.1036 -77.1034 -77.1033
   -77.1031 -77.0918 -77.0904 -77.0901 -77.0896 -77.0894 -77.0890 -77.0886
   -77.0884 -77.0862 -77.0859 -77.0859 -77.0857 -77.0851 -77.0849 -77.0846
   -77.0845 -77.0819 -77.0817 -77.0816 -77.0807 -77.0803 -77.0802 -77.0787
   -77.0786 -77.0783 -77.0781 -77.0773 -77.0771 -77.0770 -77.0756 -77.0754
   -77.0750 -77.0739 -77.0734 -77.0732 -77.0726 -77.0725 -77.0724 -77.0722
   -77.0720 -77.0718 -77.0710 -77.0648 -77.0629 -77.0609 -77.0605 -77.0597
   -77.0592 -77.0590 -77.0538 -77.0529 -77.0526 -77.0518 -77.0457 -77.0450
   -77.0447 -77.0433 -77.0429 -77.0427 -77.0412 -77.0409 -77.0403 -77.0400
   -77.0393 -77.0392 -77.0388 -77.0383 -77.0379 -77.0379 -77.0375 -77.0373
   -77.0369 -77.0356 -77.0347 -77.0337 -77.0323 -77.0319 -77.0314 -77.0299
   -77.0284 -77.0279 -77.0276 -77.0267 -77.0259 -77.0256 -77.0255 -77.0244
   -76.9097 -76.9082 -76.9075 -76.9072 -76.9054 -76.9047 -76.9013 -76.8983
   -76.8981 -76.8974 -76.8973 -76.8972 -76.8970 -76.8963 -76.8944 -76.8933
   -76.8924 -76.8922 -76.8919 -76.8914 -76.8912 -76.8910 -76.8908 -76.8906
   -76.8905 -76.8903 -76.8897 -76.8893 -76.8888 -76.8884 -76.8870 -76.8829
   -76.8818 -76.8796 -76.8771 -76.8763 -76.8760 -76.8757 -76.8752 -76.8751
   -76.8748 -76.8747 -76.8742 -76.8740 -76.8735 -76.8728 -76.8727 -76.8721
   -76.8721 -76.8718 -76.8715 -76.8712 -76.8711 -76.8707 -76.8703 -76.8701
   -76.8701 -76.8699 -76.8695 -76.8693 -76.8684 -76.8680 -76.8678 -76.8677
   -76.8676 -76.8675 -76.8674 -76.8670 -76.8668 -76.8665 -76.8661 -76.8658
   -76.8649 -76.8648 -76.8643 -76.8633 -76.8617 -76.8534 -76.8533 -76.8528
   -76.8525 -76.8515 -76.8512 -76.8506 -76.8499 -76.8492 -76.8476 -76.8469
   -76.8461 -76.8458 -76.8452 -76.8449 -76.8441 -76.8438 -76.8437 -76.8428
   -15.5976 -14.1518 -13.3233 -10.9429 -10.8615  -7.9736  -7.6624  -6.4555
    -5.7485  -5.6687  -5.2949  -5.2514  -4.9732  -4.8960  -4.8801  -4.8788
    -4.8743  -4.8724  -4.8700  -4.8694  -4.7239  -4.7239  -4.7238  -4.6729
    -4.6723  -4.6717  -4.5519  -4.5485  -4.5440  -4.5433  -4.5431  -4.5428
    -4.5361  -4.5355  -4.5353  -4.4653  -4.4639  -4.4622  -4.3919  -4.3912
    -4.3907  -4.3901  -4.3898  -4.3897  -4.3669  -4.3668  -4.3667  -4.3258
    -4.3222  -4.3199  -4.3191  -4.3183  -4.3164  -4.3159  -4.3150  -4.3148
    -4.3133  -4.3124  -4.3122  -4.2997  -4.2995  -4.2993  -4.2690  -4.2689
    -4.2681  -4.2677  -4.2670  -4.2669  -4.2262  -4.2259  -4.2246  -4.2233
    -4.2224  -4.2222  -4.1646  -4.1395  -4.1357  -4.1320  -4.1315  -4.1310
    -4.1308  -4.1300  -4.1298  -4.1296  -4.1290  -4.1283  -4.1282  -4.0877
    -4.0860  -4.0857  -4.0847  -4.0834  -4.0832  -4.0824  -4.0797  -4.0791
    -4.0761  -4.0752  -4.0743  -4.0731  -4.0723  -4.0719  -4.0387  -4.0367
    -4.0347  -4.0322  -4.0307  -4.0304  -3.9990  -3.9987  -3.9983  -3.9947
    -3.9935  -3.9919  -3.9609  -3.9608  -3.9497  -3.9492  -3.9484  -3.9467
    -3.9455  -3.9452  -3.9440  -3.9428  -3.9428  -3.9385  -3.9370  -3.9358
    -3.9352  -3.9348  -3.9347  -3.9230  -3.9119  -3.9116  -3.8805  -3.8797
    -3.8788  -3.8776  -3.8766  -3.8762  -3.8618  -3.8602  -3.8584  -3.8578
    -3.8570  -3.8569  -3.8242  -3.8229  -3.8223  -3.8214  -3.8210  -3.8208
    -3.7911  -3.7893  -3.7885  -3.7883  -3.7881  -3.7873  -3.7509  -3.7508
    -3.7277  -3.7277  -3.7223  -3.7215  -3.7210  -3.7202  -3.7200  -3.7196
    -3.6856  -3.6853  -3.6850  -3.6758  -3.6747  -3.6745  -3.6720  -3.6714
    -3.6700  -3.6527  -3.6514  -3.6510  -3.6487  -3.6477  -3.6467  -3.6237
    -3.6206  -3.6194  -3.6188  -3.6183  -3.6151  -3.6145  -3.6143  -3.6140
    -3.6140  -3.6139  -3.6139  -3.6031  -3.6031  -3.6023  -3.6018  -3.6008
    -3.6007  -3.5997  -3.5993  -3.5991  -3.5954  -3.5952  -3.5936  -3.5932
    -3.5920  -3.5915  -3.5895  -3.5876  -3.5873  -3.5868  -3.5861  -3.5835
    -3.5672  -3.5670  -3.5666  -3.5662  -3.5655  -3.5654  -3.5298  -3.5295
    -3.5279  -3.5178  -3.5159  -3.5156  -3.5150  -3.5139  -3.5120  -3.5119
    -3.5117  -3.5115  -3.5094  -3.5084  -3.5075  -3.4722  -3.4722  -3.4537
    -3.4528  -3.4519  -3.4517  -3.4504  -3.4496  -3.4487  -3.4470  -3.4466
    -3.4440  -3.4434  -3.4426  -3.4422  -3.4411  -3.4407  -3.4399  -3.4397
    -3.4388  -3.4325  -3.4319  -3.4318  -3.4311  -3.4306  -3.4304  -3.3747
    -3.3746  -3.3672  -3.3665  -3.3664  -3.3342  -3.3339  -3.3336  -3.3333
    -3.3332  -3.3329  -3.3309  -3.3307  -3.3296  -3.3209  -3.3198  -3.3185
    -3.3156  -3.3144  -3.3141  -3.3135  -3.3133  -3.3119  -3.2929  -3.2928
    -3.2927  -3.2896  -3.2879  -3.2864  -3.2863  -3.2856  -3.2853  -3.2594
    -3.2590  -3.2589  -3.2571  -3.2570  -3.2567  -3.2438  -3.2436  -3.2434
    -3.2413  -3.2409  -3.2407  -3.2358  -3.2338  -3.2325  -3.2129  -3.2128
    -3.1994  -3.1989  -3.1638  -3.1584  -3.1583  -3.1579  -3.1578  -3.1574
    -3.1558  -3.1493  -3.1492  -3.1483  -3.1481  -3.1470  -3.1342  -3.1272
    -3.1271  -3.1270  -3.0850  -3.0846  -3.0842  -3.0236  -2.9948  -2.9206
    -2.9205  -2.9203  -2.9048  -2.9029  -2.9009  -2.8709  -2.8678  -2.8643
    -2.8617  -2.8605  -2.8594  -2.5977  -2.0892  -1.8659  -1.4564  -1.4556
    -1.4535  -1.4513  -1.4509  -1.4460  -0.9917  -0.9307  -0.7312  -0.1247
     0.0085   0.0103   0.0125   0.0134   0.0141   0.0150   0.2977   0.4371
     0.4420   0.4423   0.4431   0.4447   0.4477   0.5366   0.8479   0.8503
     0.8558   0.8573   0.8580   0.8596   1.1842   1.2630   1.3125   1.3131
     1.3134   1.8708   1.8738   1.8765   2.2233   2.2251   2.2279   2.2737
     2.2746   2.2750   2.2754   2.2760   2.2770   2.4673   2.4690   2.4705
     2.6648   3.4646   3.4683   3.4809   3.4847   3.4856   3.4940   3.9666
     3.9696   3.9707   3.9739   3.9764   3.9786   4.1348   4.5590   4.5621
     4.5642   4.8430   4.8448   4.8470   5.6762   5.6777   5.6790   5.9564
     5.9730   5.9865   6.0030   6.0085   6.0174   6.1928   6.2459   6.3949
     6.5809   6.5870   6.5932   6.8619   7.0702   7.3134   7.3338   7.3412
     7.3460   7.3473   7.3536   7.5685   7.5694   7.5717   7.5725   7.5755
     7.5764   7.5846   7.7322   7.7330   7.7359   7.7379   7.7395   7.7405
     7.7900   7.9117   7.9723   8.0085   8.0962   8.1833   8.4507   8.4562
     8.4615   8.4621   8.4650   8.4670   8.4699   8.4937   8.5139   8.5259
     8.5370   8.5397   8.5414   8.5450   8.5461   8.5470   8.6114   8.6402
     8.6710   8.6859   8.6907   8.7154   8.7667   8.7934   8.8552   8.8868
     8.9109   9.2072   9.3684   9.3741   9.4362   9.4982   9.5453   9.5600
     9.5987   9.6135   9.9582   9.9592   9.9853   9.9873   9.9889   9.9959
    10.0365  10.0417  10.0430  10.0463  10.0512  10.0534  10.1046  10.1214
    10.1385  10.2250  10.2316  10.2722  10.2856  10.4426  10.4440  10.4803
    10.5050  10.6132  10.6311  10.7336  10.7379  10.7416  10.8792  11.1939
    11.2456  11.2752  11.2843  11.2897  11.3610  11.4067  11.4083  11.4145
    11.4170  11.4446

     occupation numbers 
     1.0000   1.0000   1.0000   1.0000   1.0000   1.0000   1.0000   1.0000
     1.0000   1.0000   1.0000   1.0000   1.0000   1.0000   1.0000   1.0000
     1.0000   1.0000   1.0000   1.0000   1.0000   1.0000   1.0000   1.0000
     1.0000   1.0000   1.0000   1.0000   1.0000   1.0000   1.0000   1.0000
     1.0000   1.0000   1.0000   1.0000   1.0000   1.0000   1.0000   1.0000
     1.0000   1.0000   1.0000   1.0000   1.0000   1.0000   1.0000   1.0000
     1.0000   1.0000   1.0000   1.0000   1.0000   1.0000   1.0000   1.0000
     1.0000   1.0000   1.0000   1.0000   1.0000   1.0000   1.0000   1.0000
     1.0000   1.0000   1.0000   1.0000   1.0000   1.0000   1.0000   1.0000
     1.0000   1.0000   1.0000   1.0000   1.0000   1.0000   1.0000   1.0000
     1.0000   1.0000   1.0000   1.0000   1.0000   1.0000   1.0000   1.0000
     1.0000   1.0000   1.0000   1.0000   1.0000   1.0000   1.0000   1.0000
     1.0000   1.0000   1.0000   1.0000   1.0000   1.0000   1.0000   1.0000
     1.0000   1.0000   1.0000   1.0000   1.0000   1.0000   1.0000   1.0000
     1.0000   1.0000   1.0000   1.0000   1.0000   1.0000   1.0000   1.0000
     1.0000   1.0000   1.0000   1.0000   1.0000   1.0000   1.0000   1.0000
     1.0000   1.0000   1.0000   1.0000   1.0000   1.0000   1.0000   1.0000
     1.0000   1.0000   1.0000   1.0000   1.0000   1.0000   1.0000   1.0000
     1.0000   1.0000   1.0000   1.0000   1.0000   1.0000   1.0000   1.0000
     1.0000   1.0000   1.0000   1.0000   1.0000   1.0000   1.0000   1.0000
     1.0000   1.0000   1.0000   1.0000   1.0000   1.0000   1.0000   1.0000
     1.0000   1.0000   1.0000   1.0000   1.0000   1.0000   1.0000   1.0000
     1.0000   1.0000   1.0000   1.0000   1.0000   1.0000   1.0000   1.0000
     1.0000   1.0000   1.0000   1.0000   1.0000   1.0000   1.0000   1.0000
     1.0000   1.0000   1.0000   1.0000   1.0000   1.0000   1.0000   1.0000
     1.0000   1.0000   1.0000   1.0000   1.0000   1.0000   1.0000   1.0000
     1.0000   1.0000   1.0000   1.0000   1.0000   1.0000   1.0000   1.0000
     1.0000   1.0000   1.0000   1.0000   1.0000   1.0000   1.0000   1.0000
     1.0000   1.0000   1.0000   1.0000   1.0000   1.0000   1.0000   1.0000
     1.0000   1.0000   1.0000   1.0000   1.0000   1.0000   1.0000   1.0000
     1.0000   1.0000   1.0000   1.0000   1.0000   1.0000   1.0000   1.0000
     1.0000   1.0000   1.0000   1.0000   1.0000   1.0000   1.0000   1.0000
     1.0000   1.0000   1.0000   1.0000   1.0000   1.0000   1.0000   1.0000
     1.0000   1.0000   1.0000   1.0000   1.0000   1.0000   1.0000   1.0000
     1.0000   1.0000   1.0000   1.0000   1.0000   1.0000   1.0000   1.0000
     1.0000   1.0000   1.0000   1.0000   1.0000   1.0000   1.0000   1.0000
     1.0000   1.0000   1.0000   1.0000   1.0000   1.0000   1.0000   1.0000
     1.0000   1.0000   1.0000   1.0000   1.0000   1.0000   1.0000   1.0000
     1.0000   1.0000   1.0000   1.0000   1.0000   1.0000   1.0000   1.0000
     1.0000   1.0000   1.0000   1.0000   1.0000   1.0000   1.0000   1.0000
     1.0000   1.0000   1.0000   1.0000   1.0000   1.0000   1.0000   1.0000
     1.0000   1.0000   1.0000   1.0000   1.0000   1.0000   1.0000   1.0000
     1.0000   1.0000   1.0000   1.0000   1.0000   1.0000   1.0000   1.0000
     1.0000   1.0000   1.0000   1.0000   1.0000   1.0000   1.0000   1.0000
     1.0000   1.0000   1.0000   1.0000   1.0000   1.0000   1.0000   1.0000
     1.0000   1.0000   1.0000   1.0000   1.0000   1.0000   1.0000   1.0000
     1.0000   1.0000   1.0000   1.0000   1.0000   1.0000   1.0000   1.0000
     1.0000   1.0000   1.0000   1.0000   1.0000   1.0000   1.0000   1.0000
     1.0000   1.0000   1.0000   1.0000   1.0000   1.0000   1.0000   1.0000
     1.0000   1.0000   1.0000   1.0000   1.0000   1.0000   1.0000   1.0000
     1.0000   1.0000   1.0000   1.0000   1.0000   1.0000   1.0000   1.0000
     1.0000   1.0000   1.0000   1.0000   1.0000   1.0000   1.0000   1.0000
     1.0000   1.0000   1.0000   1.0000   1.0000   1.0000   1.0000   1.0000
     1.0000   1.0000   1.0000   1.0000   1.0000   1.0000   1.0000   1.0000
     1.0000   1.0000   1.0000   1.0000   1.0000   1.0000   1.0000   1.0000
     1.0000   1.0000   1.0000   1.0000   1.0000   1.0000   1.0000   1.0000
     1.0000   1.0000   1.0000   1.0000   1.0000   1.0000   1.0000   1.0000
     1.0000   1.0000   1.0000   1.0000   1.0000   1.0000   1.0000   1.0000
     1.0000   1.0000   1.0000   1.0000   1.0000   1.0000   1.0000   1.0000
     1.0000   1.0000   1.0000   1.0000   1.0000   1.0000   1.0000   1.0000
     1.0000   1.0000   1.0000   1.0000   1.0000   1.0000   1.0000   1.0000
     1.0000   1.0000   1.0000   1.0000   1.0000   1.0000   1.0000   1.0000
     1.0000   1.0000   1.0000   1.0000   1.0000   1.0000   1.0000   1.0000
     1.0000   1.0000   1.0000   1.0000   1.0000   1.0000   1.0000   1.0000
     1.0000   1.0000   1.0000   1.0000   1.0000   1.0000   1.0000   1.0000
     1.0000   1.0000   1.0000   1.0000   1.0000   1.0000   1.0000   1.0000
     1.0000   1.0000   1.0000   1.0000   1.0000   1.0000   1.0000   1.0000
     1.0000   1.0000   1.0000   1.0000   1.0000   1.0000   1.0000   1.0000
     1.0000   1.0000   1.0000   1.0000   1.0000   1.0000   1.0000   1.0000
     1.0000   1.0000   1.0000   1.0000   1.0000   1.0000   1.0000   1.0000
     1.0000   1.0000   1.0000   1.0000   1.0000   1.0000   1.0000   1.0000
     1.0000   1.0000   1.0000   1.0000   1.0000   1.0000   1.0000   1.0000
     1.0000   1.0000   1.0000   1.0000   1.0000   1.0000   1.0000   1.0000
     1.0000   1.0000   1.0000   1.0000   1.0000   1.0000   1.0000   1.0000
     1.0000   1.0000   1.0000   1.0000   1.0000   1.0000   1.0000   1.0000
     1.0000   1.0000   1.0000   1.0000   1.0000   1.0000   1.0000   1.0000
     1.0000   1.0000   1.0000   1.0000   1.0000   1.0000   1.0000   1.0000
     1.0000   1.0000   1.0000   1.0000   1.0000   1.0000   1.0000   1.0000
     1.0000   1.0000   1.0000   1.0000   1.0000   1.0000   1.0000   1.0000
     1.0000   1.0000   1.0000   1.0000   1.0000   1.0000   1.0000   1.0000
     1.0000   1.0000   1.0000   1.0000   1.0000   1.0000   1.0000   1.0000
     1.0000   1.0000   1.0000   1.0000   1.0000   1.0000   1.0000   1.0000
     1.0000   1.0340   1.0351   1.0390   1.0402   1.0405   1.0432   0.5762
     0.5679   0.5649   0.5559   0.5491   0.5430   0.1859   0.0005   0.0004
     0.0004   0.0000   0.0000   0.0000   0.0000   0.0000   0.0000   0.0000
     0.0000   0.0000   0.0000   0.0000   0.0000   0.0000   0.0000   0.0000
     0.0000   0.0000   0.0000   0.0000   0.0000   0.0000   0.0000   0.0000
     0.0000   0.0000   0.0000   0.0000   0.0000   0.0000   0.0000   0.0000
     0.0000   0.0000   0.0000   0.0000   0.0000   0.0000   0.0000   0.0000
     0.0000   0.0000   0.0000   0.0000   0.0000   0.0000   0.0000   0.0000
     0.0000   0.0000   0.0000   0.0000   0.0000   0.0000   0.0000   0.0000
     0.0000   0.0000   0.0000   0.0000   0.0000   0.0000   0.0000   0.0000
     0.0000   0.0000   0.0000   0.0000   0.0000   0.0000   0.0000   0.0000
     0.0000   0.0000   0.0000   0.0000   0.0000   0.0000   0.0000   0.0000
     0.0000   0.0000   0.0000   0.0000   0.0000   0.0000   0.0000   0.0000
     0.0000   0.0000   0.0000   0.0000   0.0000   0.0000   0.0000   0.0000
     0.0000   0.0000   0.0000   0.0000   0.0000   0.0000   0.0000   0.0000
     0.0000   0.0000   0.0000   0.0000   0.0000   0.0000   0.0000   0.0000
     0.0000   0.0000   0.0000   0.0000   0.0000   0.0000   0.0000   0.0000
     0.0000   0.0000

          k = 0.0000 0.3849 0.0000 ( 42150 PWs)   bands (ev):

  -123.0046-123.0035-123.0033-123.0029-123.0025-123.0024-123.0020-123.0016
  -122.9998-122.9993-122.9991-122.9988-122.9985-122.9984-122.9981-122.9978
  -122.9734-122.9678-122.9673-122.9667-122.9661-122.9588-122.9571-122.9568
  -122.9549-122.9539-122.9534-122.9528-122.9523-122.9520-122.9517-122.9510
  -122.8148-122.8099-122.8006-122.7994-122.7988-122.7986-122.7983-122.7979
  -122.7977-122.7974-122.7972-122.7970-122.7968-122.7966-122.7960-122.7956
  -122.7949-122.7932-122.7823-122.7804-122.7786-122.7780-122.7776-122.7765
  -122.7761-122.7755-122.7752-122.7739-122.7736-122.7733-122.7732-122.7730
   -77.1123 -77.1121 -77.1089 -77.1058 -77.1058 -77.1048 -77.1041 -77.0983
   -77.0981 -77.0934 -77.0918 -77.0913 -77.0911 -77.0899 -77.0898 -77.0897
   -77.0895 -77.0891 -77.0886 -77.0880 -77.0878 -77.0875 -77.0868 -77.0864
   -77.0861 -77.0854 -77.0849 -77.0845 -77.0842 -77.0839 -77.0838 -77.0837
   -77.0808 -77.0800 -77.0790 -77.0779 -77.0765 -77.0761 -77.0741 -77.0737
   -77.0728 -77.0726 -77.0723 -77.0712 -77.0710 -77.0708 -77.0706 -77.0701
   -77.0692 -77.0689 -77.0681 -77.0653 -77.0637 -77.0626 -77.0596 -77.0594
   -77.0560 -77.0547 -77.0540 -77.0538 -77.0524 -77.0521 -77.0519 -77.0493
   -77.0472 -77.0460 -77.0451 -77.0444 -77.0439 -77.0438 -77.0428 -77.0417
   -77.0414 -77.0404 -77.0399 -77.0398 -77.0389 -77.0388 -77.0385 -77.0379
   -77.0374 -77.0368 -77.0366 -77.0345 -77.0331 -77.0325 -77.0316 -77.0294
   -77.0283 -77.0267 -77.0265 -77.0255 -77.0250 -77.0234 -77.0228 -77.0221
   -76.9101 -76.9064 -76.9061 -76.9056 -76.9049 -76.9024 -76.9013 -76.8995
   -76.8993 -76.8986 -76.8983 -76.8968 -76.8949 -76.8942 -76.8939 -76.8927
   -76.8924 -76.8921 -76.8920 -76.8920 -76.8915 -76.8912 -76.8911 -76.8909
   -76.8905 -76.8902 -76.8899 -76.8895 -76.8892 -76.8881 -76.8872 -76.8867
   -76.8837 -76.8837 -76.8818 -76.8814 -76.8814 -76.8811 -76.8778 -76.8775
   -76.8773 -76.8772 -76.8758 -76.8752 -76.8744 -76.8740 -76.8736 -76.8731
   -76.8729 -76.8725 -76.8722 -76.8719 -76.8716 -76.8712 -76.8711 -76.8704
   -76.8698 -76.8696 -76.8693 -76.8691 -76.8688 -76.8679 -76.8676 -76.8674
   -76.8669 -76.8668 -76.8667 -76.8664 -76.8661 -76.8653 -76.8651 -76.8649
   -76.8642 -76.8639 -76.8634 -76.8622 -76.8620 -76.8618 -76.8605 -76.8581
   -76.8562 -76.8557 -76.8530 -76.8518 -76.8499 -76.8493 -76.8477 -76.8468
   -76.8457 -76.8445 -76.8439 -76.8434 -76.8431 -76.8412 -76.8411 -76.8400
   -15.5976 -14.1518 -13.3233 -10.9429 -10.8616  -7.9738  -7.6627  -6.2433
    -5.7490  -5.6372  -5.4721  -5.2953  -5.2512  -5.0987  -5.0957  -4.9462
    -4.8368  -4.7826  -4.6939  -4.6558  -4.6557  -4.6471  -4.6399  -4.6016
    -4.6011  -4.5783  -4.5773  -4.5719  -4.5690  -4.5669  -4.5482  -4.5032
    -4.4971  -4.4843  -4.4842  -4.4580  -4.4567  -4.4551  -4.4543  -4.4325
    -4.4230  -4.4085  -4.4079  -4.3940  -4.3936  -4.3789  -4.3780  -4.3678
    -4.3677  -4.3617  -4.3566  -4.3564  -4.3369  -4.3352  -4.3345  -4.3319
    -4.3316  -4.3204  -4.3203  -4.2967  -4.2957  -4.2922  -4.2884  -4.2857
    -4.2854  -4.2713  -4.2682  -4.2680  -4.2584  -4.2578  -4.2529  -4.2517
    -4.2509  -4.2201  -4.2200  -4.2173  -4.2153  -4.1965  -4.1958  -4.1918
    -4.1904  -4.1873  -4.1864  -4.1854  -4.1438  -4.1424  -4.1370  -4.1367
    -4.1356  -4.1168  -4.1138  -4.1115  -4.1110  -4.0964  -4.0961  -4.0903
    -4.0710  -4.0695  -4.0686  -4.0658  -4.0632  -4.0625  -4.0584  -4.0577
    -4.0563  -4.0344  -4.0332  -4.0303  -4.0293  -4.0272  -4.0230  -4.0198
    -4.0177  -4.0162  -4.0146  -4.0058  -4.0051  -3.9957  -3.9942  -3.9926
    -3.9813  -3.9538  -3.9505  -3.9470  -3.9414  -3.9305  -3.9289  -3.9256
    -3.9250  -3.9236  -3.9155  -3.9142  -3.9131  -3.9091  -3.9081  -3.9057
    -3.8884  -3.8877  -3.8843  -3.8838  -3.8649  -3.8639  -3.8586  -3.8464
    -3.8370  -3.8362  -3.8340  -3.8267  -3.8256  -3.8114  -3.8095  -3.8026
    -3.8003  -3.7994  -3.7972  -3.7859  -3.7743  -3.7740  -3.7722  -3.7619
    -3.7593  -3.7577  -3.7519  -3.7477  -3.7452  -3.7431  -3.7424  -3.7406
    -3.7170  -3.7165  -3.7135  -3.7101  -3.7094  -3.6981  -3.6922  -3.6916
    -3.6877  -3.6737  -3.6735  -3.6612  -3.6607  -3.6408  -3.6399  -3.6389
    -3.6376  -3.6374  -3.6317  -3.6296  -3.6288  -3.6254  -3.6251  -3.6141
    -3.6136  -3.6079  -3.6076  -3.6017  -3.6009  -3.5940  -3.5924  -3.5871
    -3.5869  -3.5796  -3.5785  -3.5756  -3.5726  -3.5712  -3.5702  -3.5687
    -3.5572  -3.5556  -3.5553  -3.5432  -3.5411  -3.5364  -3.5353  -3.5331
    -3.5265  -3.5255  -3.5230  -3.5212  -3.5201  -3.5189  -3.5169  -3.5146
    -3.5114  -3.4968  -3.4956  -3.4953  -3.4945  -3.4937  -3.4928  -3.4898
    -3.4887  -3.4879  -3.4823  -3.4647  -3.4622  -3.4613  -3.4565  -3.4547
    -3.4418  -3.4402  -3.4284  -3.4280  -3.4083  -3.4053  -3.4041  -3.4034
    -3.4017  -3.4008  -3.3997  -3.3988  -3.3930  -3.3917  -3.3909  -3.3901
    -3.3832  -3.3830  -3.3814  -3.3763  -3.3756  -3.3703  -3.3699  -3.3682
    -3.3666  -3.3634  -3.3623  -3.3613  -3.3605  -3.3603  -3.3509  -3.3416
    -3.3412  -3.3385  -3.3382  -3.3240  -3.3194  -3.3191  -3.3113  -3.3107
    -3.3089  -3.3064  -3.3059  -3.2886  -3.2808  -3.2799  -3.2780  -3.2772
    -3.2734  -3.2726  -3.2724  -3.2717  -3.2713  -3.2663  -3.2642  -3.2637
    -3.2560  -3.2552  -3.2536  -3.2509  -3.2473  -3.2462  -3.2432  -3.2427
    -3.2415  -3.2414  -3.2342  -3.2251  -3.2240  -3.2207  -3.2205  -3.2201
    -3.2171  -3.2015  -3.2000  -3.1999  -3.1819  -3.1653  -3.1647  -3.1639
    -3.1636  -3.1500  -3.1415  -3.1410  -3.1408  -3.1393  -3.1357  -3.1288
    -3.1258  -3.1236  -3.1116  -3.0357  -3.0322  -3.0187  -3.0150  -3.0149
    -2.9979  -2.9975  -2.9770  -2.9593  -2.8298  -2.8285  -2.7607  -2.5987
    -2.4637  -2.2796  -2.1410  -2.1367  -2.0885  -1.8691  -1.7858  -1.7771
    -1.6557  -1.6531  -1.6256  -0.9333  -0.8656  -0.8597  -0.8386  -0.7342
    -0.6838  -0.6800  -0.6212  -0.3773  -0.1276  -0.1246   0.1108   0.1114
     0.1646   0.1648   0.2182   0.2974   0.5240   0.5720   0.5761   0.6622
     0.6624   1.0040   1.0043   1.1689   1.1702   1.2626   1.4598   1.4633
     1.4712   1.6225   1.6967   2.1043   2.1079   2.2637   2.3467   2.3492
     2.3996   2.4016   2.6364   2.6527   2.6785   2.9480   2.9548   3.0049
     3.0156   3.0804   3.0810   3.1409   3.9501   3.9510   4.2473   4.2488
     4.3426   4.3912   4.3951   4.5446   4.5488   4.7839   4.7845   4.9730
     5.0373   5.1453   5.1967   5.1971   5.5858   5.5953   5.6295   5.6296
     5.6977   5.7036   5.7819   5.7848   5.7879   5.8981   5.8989   6.2049
     6.2555   6.2592   6.3441   6.3446   6.3817   6.3993   6.6576   6.7916
     6.8032   6.9779   7.0502   7.0505   7.0994   7.2119   7.2145   7.2643
     7.3189   7.3276   7.3347   7.3923   7.5344   7.5553   7.5584   7.5890
     7.7743   7.8942   7.9410   7.9480   7.9656   7.9680   7.9812   7.9855
     8.1244   8.1287   8.1420   8.1450   8.2025   8.3241   8.3927   8.4143
     8.5174   8.5300   8.5324   8.5560   8.7426   8.7692   8.7850   8.8160
     8.8838   8.9774   9.1048   9.1586   9.1707   9.1845   9.2603   9.2728
     9.3256   9.3756   9.4044   9.4814   9.4977   9.5513   9.6284   9.6512
     9.6567   9.6756   9.7406   9.7694   9.7813   9.8383   9.9185  10.0020
    10.0108  10.0978  10.1211  10.1603  10.2171  10.2443  10.2598  10.2887
    10.3121  10.3908  10.4182  10.4414  10.5846  10.6107  10.6452  10.6869
    10.7211  10.8302  10.8794  10.8818  10.9096  10.9822  11.0368  11.0879
    11.1172  11.1240  11.1324  11.1392  11.1699  11.1845  11.1963  11.2303
    11.3779  11.4643

     occupation numbers 
     1.0000   1.0000   1.0000   1.0000   1.0000   1.0000   1.0000   1.0000
     1.0000   1.0000   1.0000   1.0000   1.0000   1.0000   1.0000   1.0000
     1.0000   1.0000   1.0000   1.0000   1.0000   1.0000   1.0000   1.0000
     1.0000   1.0000   1.0000   1.0000   1.0000   1.0000   1.0000   1.0000
     1.0000   1.0000   1.0000   1.0000   1.0000   1.0000   1.0000   1.0000
     1.0000   1.0000   1.0000   1.0000   1.0000   1.0000   1.0000   1.0000
     1.0000   1.0000   1.0000   1.0000   1.0000   1.0000   1.0000   1.0000
     1.0000   1.0000   1.0000   1.0000   1.0000   1.0000   1.0000   1.0000
     1.0000   1.0000   1.0000   1.0000   1.0000   1.0000   1.0000   1.0000
     1.0000   1.0000   1.0000   1.0000   1.0000   1.0000   1.0000   1.0000
     1.0000   1.0000   1.0000   1.0000   1.0000   1.0000   1.0000   1.0000
     1.0000   1.0000   1.0000   1.0000   1.0000   1.0000   1.0000   1.0000
     1.0000   1.0000   1.0000   1.0000   1.0000   1.0000   1.0000   1.0000
     1.0000   1.0000   1.0000   1.0000   1.0000   1.0000   1.0000   1.0000
     1.0000   1.0000   1.0000   1.0000   1.0000   1.0000   1.0000   1.0000
     1.0000   1.0000   1.0000   1.0000   1.0000   1.0000   1.0000   1.0000
     1.0000   1.0000   1.0000   1.0000   1.0000   1.0000   1.0000   1.0000
     1.0000   1.0000   1.0000   1.0000   1.0000   1.0000   1.0000   1.0000
     1.0000   1.0000   1.0000   1.0000   1.0000   1.0000   1.0000   1.0000
     1.0000   1.0000   1.0000   1.0000   1.0000   1.0000   1.0000   1.0000
     1.0000   1.0000   1.0000   1.0000   1.0000   1.0000   1.0000   1.0000
     1.0000   1.0000   1.0000   1.0000   1.0000   1.0000   1.0000   1.0000
     1.0000   1.0000   1.0000   1.0000   1.0000   1.0000   1.0000   1.0000
     1.0000   1.0000   1.0000   1.0000   1.0000   1.0000   1.0000   1.0000
     1.0000   1.0000   1.0000   1.0000   1.0000   1.0000   1.0000   1.0000
     1.0000   1.0000   1.0000   1.0000   1.0000   1.0000   1.0000   1.0000
     1.0000   1.0000   1.0000   1.0000   1.0000   1.0000   1.0000   1.0000
     1.0000   1.0000   1.0000   1.0000   1.0000   1.0000   1.0000   1.0000
     1.0000   1.0000   1.0000   1.0000   1.0000   1.0000   1.0000   1.0000
     1.0000   1.0000   1.0000   1.0000   1.0000   1.0000   1.0000   1.0000
     1.0000   1.0000   1.0000   1.0000   1.0000   1.0000   1.0000   1.0000
     1.0000   1.0000   1.0000   1.0000   1.0000   1.0000   1.0000   1.0000
     1.0000   1.0000   1.0000   1.0000   1.0000   1.0000   1.0000   1.0000
     1.0000   1.0000   1.0000   1.0000   1.0000   1.0000   1.0000   1.0000
     1.0000   1.0000   1.0000   1.0000   1.0000   1.0000   1.0000   1.0000
     1.0000   1.0000   1.0000   1.0000   1.0000   1.0000   1.0000   1.0000
     1.0000   1.0000   1.0000   1.0000   1.0000   1.0000   1.0000   1.0000
     1.0000   1.0000   1.0000   1.0000   1.0000   1.0000   1.0000   1.0000
     1.0000   1.0000   1.0000   1.0000   1.0000   1.0000   1.0000   1.0000
     1.0000   1.0000   1.0000   1.0000   1.0000   1.0000   1.0000   1.0000
     1.0000   1.0000   1.0000   1.0000   1.0000   1.0000   1.0000   1.0000
     1.0000   1.0000   1.0000   1.0000   1.0000   1.0000   1.0000   1.0000
     1.0000   1.0000   1.0000   1.0000   1.0000   1.0000   1.0000   1.0000
     1.0000   1.0000   1.0000   1.0000   1.0000   1.0000   1.0000   1.0000
     1.0000   1.0000   1.0000   1.0000   1.0000   1.0000   1.0000   1.0000
     1.0000   1.0000   1.0000   1.0000   1.0000   1.0000   1.0000   1.0000
     1.0000   1.0000   1.0000   1.0000   1.0000   1.0000   1.0000   1.0000
     1.0000   1.0000   1.0000   1.0000   1.0000   1.0000   1.0000   1.0000
     1.0000   1.0000   1.0000   1.0000   1.0000   1.0000   1.0000   1.0000
     1.0000   1.0000   1.0000   1.0000   1.0000   1.0000   1.0000   1.0000
     1.0000   1.0000   1.0000   1.0000   1.0000   1.0000   1.0000   1.0000
     1.0000   1.0000   1.0000   1.0000   1.0000   1.0000   1.0000   1.0000
     1.0000   1.0000   1.0000   1.0000   1.0000   1.0000   1.0000   1.0000
     1.0000   1.0000   1.0000   1.0000   1.0000   1.0000   1.0000   1.0000
     1.0000   1.0000   1.0000   1.0000   1.0000   1.0000   1.0000   1.0000
     1.0000   1.0000   1.0000   1.0000   1.0000   1.0000   1.0000   1.0000
     1.0000   1.0000   1.0000   1.0000   1.0000   1.0000   1.0000   1.0000
     1.0000   1.0000   1.0000   1.0000   1.0000   1.0000   1.0000   1.0000
     1.0000   1.0000   1.0000   1.0000   1.0000   1.0000   1.0000   1.0000
     1.0000   1.0000   1.0000   1.0000   1.0000   1.0000   1.0000   1.0000
     1.0000   1.0000   1.0000   1.0000   1.0000   1.0000   1.0000   1.0000
     1.0000   1.0000   1.0000   1.0000   1.0000   1.0000   1.0000   1.0000
     1.0000   1.0000   1.0000   1.0000   1.0000   1.0000   1.0000   1.0000
     1.0000   1.0000   1.0000   1.0000   1.0000   1.0000   1.0000   1.0000
     1.0000   1.0000   1.0000   1.0000   1.0000   1.0000   1.0000   1.0000
     1.0000   1.0000   1.0000   1.0000   1.0000   1.0000   1.0000   1.0000
     1.0000   1.0000   1.0000   1.0000   1.0000   1.0000   1.0000   1.0000
     1.0000   1.0000   1.0000   1.0000   1.0000   1.0000   1.0000   1.0000
     1.0000   1.0000   1.0000   1.0000   1.0000   1.0000   1.0000   1.0000
     1.0000   1.0000   1.0000   1.0000   1.0000   1.0000   1.0000   1.0000
     1.0000   1.0000   1.0000   1.0000   1.0000   1.0000   1.0000   1.0000
     1.0000   1.0000   1.0000   1.0000   1.0000   1.0000   1.0000   1.0000
     1.0000   1.0000   1.0000   1.0000   1.0000   1.0000   1.0000   1.0000
     1.0000   1.0000   1.0000   1.0000   1.0000   1.0000   1.0000   1.0000
     1.0000   1.0000   1.0000   1.0000   1.0000   1.0000   1.0000   1.0000
     1.0000   1.0000   1.0000   1.0000   1.0000   1.0000   1.0000   1.0000
     1.0000   1.0000   1.0000   1.0000   1.0000   1.0000   1.0000   1.0000
     1.0000   1.0000   1.0000   1.0000   1.0000   1.0000   1.0000   1.0000
     1.0000   1.0000   1.0000   1.0000   1.0000   1.0000   1.0000   1.0000
     1.0000   1.0000   1.0000   1.0000   1.0000   1.0000   1.0000   1.0000
     1.0000   1.0000   1.0000   1.0000   1.0000   1.0000   1.0000   1.0000
     1.0000   1.0000   1.0000   1.0000   1.0000   1.0000   1.0000   1.0000
     1.0000   1.0001   1.0001   1.0004   0.6217   0.6193   0.0595   0.0584
     0.0176   0.0087   0.0082   0.0006   0.0006   0.0000   0.0000   0.0000
     0.0000   0.0000   0.0000   0.0000   0.0000   0.0000   0.0000   0.0000
     0.0000   0.0000   0.0000   0.0000   0.0000   0.0000   0.0000   0.0000
     0.0000   0.0000   0.0000   0.0000   0.0000   0.0000   0.0000   0.0000
     0.0000   0.0000   0.0000   0.0000   0.0000   0.0000   0.0000   0.0000
     0.0000   0.0000   0.0000   0.0000   0.0000   0.0000   0.0000   0.0000
     0.0000   0.0000   0.0000   0.0000   0.0000   0.0000   0.0000   0.0000
     0.0000   0.0000   0.0000   0.0000   0.0000   0.0000   0.0000   0.0000
     0.0000   0.0000   0.0000   0.0000   0.0000   0.0000   0.0000   0.0000
     0.0000   0.0000   0.0000   0.0000   0.0000   0.0000   0.0000   0.0000
     0.0000   0.0000   0.0000   0.0000   0.0000   0.0000   0.0000   0.0000
     0.0000   0.0000   0.0000   0.0000   0.0000   0.0000   0.0000   0.0000
     0.0000   0.0000   0.0000   0.0000   0.0000   0.0000   0.0000   0.0000
     0.0000   0.0000   0.0000   0.0000   0.0000   0.0000   0.0000   0.0000
     0.0000   0.0000   0.0000   0.0000   0.0000   0.0000   0.0000   0.0000
     0.0000   0.0000   0.0000   0.0000   0.0000   0.0000   0.0000   0.0000
     0.0000   0.0000

          k = 0.3333 0.1925 0.0000 ( 42150 PWs)   bands (ev):

  -123.0046-123.0035-123.0033-123.0029-123.0025-123.0024-123.0020-123.0016
  -122.9998-122.9993-122.9991-122.9988-122.9986-122.9984-122.9980-122.9979
  -122.9734-122.9678-122.9673-122.9667-122.9661-122.9588-122.9572-122.9567
  -122.9549-122.9540-122.9534-122.9528-122.9523-122.9519-122.9518-122.9510
  -122.8148-122.8099-122.8006-122.7994-122.7988-122.7986-122.7983-122.7979
  -122.7977-122.7974-122.7972-122.7970-122.7967-122.7965-122.7961-122.7956
  -122.7949-122.7932-122.7823-122.7804-122.7786-122.7780-122.7776-122.7765
  -122.7761-122.7755-122.7752-122.7739-122.7736-122.7733-122.7732-122.7730
   -77.1123 -77.1121 -77.1089 -77.1058 -77.1057 -77.1049 -77.1041 -77.0983
   -77.0981 -77.0934 -77.0918 -77.0914 -77.0911 -77.0899 -77.0899 -77.0897
   -77.0894 -77.0891 -77.0886 -77.0880 -77.0878 -77.0875 -77.0868 -77.0865
   -77.0861 -77.0853 -77.0849 -77.0845 -77.0842 -77.0840 -77.0838 -77.0836
   -77.0808 -77.0799 -77.0790 -77.0779 -77.0765 -77.0761 -77.0741 -77.0735
   -77.0728 -77.0725 -77.0723 -77.0712 -77.0711 -77.0709 -77.0705 -77.0702
   -77.0691 -77.0689 -77.0681 -77.0654 -77.0641 -77.0625 -77.0598 -77.0594
   -77.0555 -77.0545 -77.0542 -77.0534 -77.0528 -77.0520 -77.0518 -77.0495
   -77.0470 -77.0459 -77.0453 -77.0443 -77.0437 -77.0434 -77.0431 -77.0420
   -77.0415 -77.0403 -77.0399 -77.0395 -77.0391 -77.0389 -77.0385 -77.0383
   -77.0372 -77.0368 -77.0367 -77.0347 -77.0331 -77.0326 -77.0316 -77.0293
   -77.0281 -77.0266 -77.0260 -77.0257 -77.0251 -77.0236 -77.0229 -77.0221
   -76.9101 -76.9065 -76.9062 -76.9054 -76.9051 -76.9024 -76.9013 -76.8994
   -76.8993 -76.8986 -76.8983 -76.8968 -76.8950 -76.8942 -76.8939 -76.8928
   -76.8924 -76.8921 -76.8920 -76.8920 -76.8915 -76.8913 -76.8911 -76.8908
   -76.8905 -76.8903 -76.8900 -76.8894 -76.8889 -76.8883 -76.8872 -76.8866
   -76.8838 -76.8837 -76.8819 -76.8815 -76.8814 -76.8811 -76.8778 -76.8774
   -76.8773 -76.8771 -76.8758 -76.8752 -76.8743 -76.8741 -76.8736 -76.8733
   -76.8726 -76.8724 -76.8721 -76.8719 -76.8715 -76.8712 -76.8711 -76.8704
   -76.8698 -76.8696 -76.8693 -76.8691 -76.8690 -76.8679 -76.8676 -76.8673
   -76.8670 -76.8669 -76.8667 -76.8663 -76.8661 -76.8653 -76.8651 -76.8648
   -76.8643 -76.8638 -76.8634 -76.8621 -76.8620 -76.8618 -76.8605 -76.8583
   -76.8562 -76.8559 -76.8528 -76.8519 -76.8499 -76.8492 -76.8476 -76.8468
   -76.8457 -76.8444 -76.8438 -76.8435 -76.8432 -76.8414 -76.8410 -76.8400
   -15.5976 -14.1518 -13.3233 -10.9429 -10.8616  -7.9739  -7.6626  -6.2433
    -5.7489  -5.6373  -5.4722  -5.2953  -5.2512  -5.0988  -5.0956  -4.9462
    -4.8368  -4.7825  -4.6939  -4.6558  -4.6558  -4.6470  -4.6400  -4.6016
    -4.6012  -4.5782  -4.5772  -4.5720  -4.5690  -4.5668  -4.5482  -4.5032
    -4.4971  -4.4843  -4.4842  -4.4581  -4.4569  -4.4550  -4.4543  -4.4325
    -4.4230  -4.4084  -4.4080  -4.3939  -4.3937  -4.3789  -4.3779  -4.3678
    -4.3676  -4.3617  -4.3566  -4.3565  -4.3368  -4.3352  -4.3346  -4.3319
    -4.3316  -4.3204  -4.3203  -4.2967  -4.2956  -4.2922  -4.2882  -4.2858
    -4.2855  -4.2711  -4.2682  -4.2680  -4.2585  -4.2578  -4.2530  -4.2516
    -4.2509  -4.2201  -4.2200  -4.2174  -4.2152  -4.1965  -4.1960  -4.1917
    -4.1903  -4.1874  -4.1862  -4.1854  -4.1437  -4.1425  -4.1370  -4.1367
    -4.1356  -4.1167  -4.1137  -4.1117  -4.1110  -4.0964  -4.0962  -4.0903
    -4.0711  -4.0695  -4.0686  -4.0658  -4.0632  -4.0624  -4.0584  -4.0577
    -4.0563  -4.0345  -4.0332  -4.0302  -4.0295  -4.0271  -4.0231  -4.0198
    -4.0176  -4.0164  -4.0146  -4.0057  -4.0051  -3.9957  -3.9942  -3.9926
    -3.9813  -3.9538  -3.9506  -3.9469  -3.9414  -3.9305  -3.9290  -3.9255
    -3.9247  -3.9236  -3.9155  -3.9143  -3.9133  -3.9091  -3.9081  -3.9058
    -3.8883  -3.8878  -3.8843  -3.8838  -3.8649  -3.8638  -3.8586  -3.8465
    -3.8371  -3.8362  -3.8340  -3.8267  -3.8255  -3.8114  -3.8094  -3.8027
    -3.8002  -3.7995  -3.7972  -3.7859  -3.7743  -3.7740  -3.7722  -3.7619
    -3.7591  -3.7577  -3.7517  -3.7478  -3.7452  -3.7432  -3.7423  -3.7406
    -3.7170  -3.7165  -3.7136  -3.7101  -3.7094  -3.6981  -3.6922  -3.6915
    -3.6876  -3.6737  -3.6735  -3.6612  -3.6607  -3.6407  -3.6401  -3.6388
    -3.6377  -3.6374  -3.6318  -3.6296  -3.6287  -3.6254  -3.6251  -3.6142
    -3.6136  -3.6079  -3.6075  -3.6017  -3.6009  -3.5940  -3.5923  -3.5871
    -3.5869  -3.5796  -3.5785  -3.5756  -3.5727  -3.5711  -3.5702  -3.5686
    -3.5572  -3.5555  -3.5554  -3.5432  -3.5410  -3.5364  -3.5354  -3.5330
    -3.5265  -3.5255  -3.5231  -3.5211  -3.5200  -3.5188  -3.5171  -3.5146
    -3.5113  -3.4968  -3.4956  -3.4953  -3.4945  -3.4938  -3.4928  -3.4899
    -3.4888  -3.4879  -3.4823  -3.4647  -3.4623  -3.4613  -3.4565  -3.4547
    -3.4418  -3.4401  -3.4283  -3.4282  -3.4083  -3.4053  -3.4040  -3.4034
    -3.4017  -3.4008  -3.3996  -3.3987  -3.3931  -3.3916  -3.3910  -3.3901
    -3.3831  -3.3830  -3.3814  -3.3762  -3.3755  -3.3703  -3.3699  -3.3683
    -3.3665  -3.3635  -3.3623  -3.3613  -3.3606  -3.3602  -3.3510  -3.3416
    -3.3411  -3.3384  -3.3383  -3.3240  -3.3194  -3.3191  -3.3113  -3.3106
    -3.3089  -3.3064  -3.3059  -3.2887  -3.2808  -3.2798  -3.2781  -3.2772
    -3.2734  -3.2726  -3.2724  -3.2718  -3.2714  -3.2663  -3.2643  -3.2637
    -3.2560  -3.2552  -3.2537  -3.2507  -3.2472  -3.2462  -3.2433  -3.2428
    -3.2415  -3.2413  -3.2342  -3.2251  -3.2239  -3.2208  -3.2206  -3.2201
    -3.2172  -3.2015  -3.1999  -3.1999  -3.1820  -3.1654  -3.1647  -3.1637
    -3.1635  -3.1496  -3.1415  -3.1411  -3.1408  -3.1391  -3.1354  -3.1289
    -3.1258  -3.1241  -3.1116  -3.0357  -3.0324  -3.0189  -3.0150  -3.0149
    -2.9979  -2.9975  -2.9770  -2.9593  -2.8298  -2.8284  -2.7606  -2.5986
    -2.4637  -2.2795  -2.1411  -2.1367  -2.0885  -1.8694  -1.7858  -1.7771
    -1.6558  -1.6530  -1.6256  -0.9330  -0.8660  -0.8595  -0.8387  -0.7341
    -0.6838  -0.6799  -0.6212  -0.3773  -0.1276  -0.1247   0.1108   0.1112
     0.1646   0.1648   0.2182   0.2974   0.5241   0.5722   0.5757   0.6622
     0.6623   1.0041   1.0043   1.1691   1.1701   1.2623   1.4598   1.4633
     1.4712   1.6225   1.6968   2.1041   2.1080   2.2639   2.3468   2.3493
     2.3994   2.4015   2.6354   2.6527   2.6788   2.9477   2.9550   3.0040
     3.0171   3.0803   3.0812   3.1408   3.9501   3.9511   4.2470   4.2491
     4.3424   4.3908   4.3957   4.5444   4.5489   4.7840   4.7844   4.9730
     5.0374   5.1453   5.1968   5.1969   5.5873   5.5932   5.6294   5.6296
     5.6968   5.7044   5.7815   5.7852   5.7878   5.8982   5.8988   6.2086
     6.2554   6.2589   6.3441   6.3446   6.3819   6.3953   6.6572   6.7922
     6.8048   6.9769   7.0496   7.0507   7.0997   7.2118   7.2145   7.2634
     7.3192   7.3277   7.3333   7.3913   7.5329   7.5552   7.5601   7.5817
     7.7626   7.8953   7.9407   7.9488   7.9653   7.9693   7.9827   7.9851
     8.1242   8.1292   8.1414   8.1444   8.2052   8.2994   8.3912   8.4463
     8.5198   8.5309   8.5333   8.5517   8.7427   8.7702   8.7835   8.8157
     8.8857   8.9968   9.1383   9.1569   9.1720   9.2018   9.2613   9.2741
     9.3209   9.3787   9.4066   9.4926   9.5088   9.5624   9.6331   9.6526
     9.6566   9.6781   9.7231   9.7681   9.7792   9.8225   9.8997   9.9826
     9.9997  10.0888  10.1173  10.1508  10.2082  10.2510  10.2706  10.2894
    10.3175  10.3860  10.4176  10.4445  10.5769  10.6189  10.6483  10.6827
    10.7385  10.7774  10.8783  10.8820  10.9253  10.9935  11.0453  11.0797
    11.1212  11.1280  11.1316  11.1418  11.1738  11.1786  11.1931  11.2436
    11.3458  11.4837

     occupation numbers 
     1.0000   1.0000   1.0000   1.0000   1.0000   1.0000   1.0000   1.0000
     1.0000   1.0000   1.0000   1.0000   1.0000   1.0000   1.0000   1.0000
     1.0000   1.0000   1.0000   1.0000   1.0000   1.0000   1.0000   1.0000
     1.0000   1.0000   1.0000   1.0000   1.0000   1.0000   1.0000   1.0000
     1.0000   1.0000   1.0000   1.0000   1.0000   1.0000   1.0000   1.0000
     1.0000   1.0000   1.0000   1.0000   1.0000   1.0000   1.0000   1.0000
     1.0000   1.0000   1.0000   1.0000   1.0000   1.0000   1.0000   1.0000
     1.0000   1.0000   1.0000   1.0000   1.0000   1.0000   1.0000   1.0000
     1.0000   1.0000   1.0000   1.0000   1.0000   1.0000   1.0000   1.0000
     1.0000   1.0000   1.0000   1.0000   1.0000   1.0000   1.0000   1.0000
     1.0000   1.0000   1.0000   1.0000   1.0000   1.0000   1.0000   1.0000
     1.0000   1.0000   1.0000   1.0000   1.0000   1.0000   1.0000   1.0000
     1.0000   1.0000   1.0000   1.0000   1.0000   1.0000   1.0000   1.0000
     1.0000   1.0000   1.0000   1.0000   1.0000   1.0000   1.0000   1.0000
     1.0000   1.0000   1.0000   1.0000   1.0000   1.0000   1.0000   1.0000
     1.0000   1.0000   1.0000   1.0000   1.0000   1.0000   1.0000   1.0000
     1.0000   1.0000   1.0000   1.0000   1.0000   1.0000   1.0000   1.0000
     1.0000   1.0000   1.0000   1.0000   1.0000   1.0000   1.0000   1.0000
     1.0000   1.0000   1.0000   1.0000   1.0000   1.0000   1.0000   1.0000
     1.0000   1.0000   1.0000   1.0000   1.0000   1.0000   1.0000   1.0000
     1.0000   1.0000   1.0000   1.0000   1.0000   1.0000   1.0000   1.0000
     1.0000   1.0000   1.0000   1.0000   1.0000   1.0000   1.0000   1.0000
     1.0000   1.0000   1.0000   1.0000   1.0000   1.0000   1.0000   1.0000
     1.0000   1.0000   1.0000   1.0000   1.0000   1.0000   1.0000   1.0000
     1.0000   1.0000   1.0000   1.0000   1.0000   1.0000   1.0000   1.0000
     1.0000   1.0000   1.0000   1.0000   1.0000   1.0000   1.0000   1.0000
     1.0000   1.0000   1.0000   1.0000   1.0000   1.0000   1.0000   1.0000
     1.0000   1.0000   1.0000   1.0000   1.0000   1.0000   1.0000   1.0000
     1.0000   1.0000   1.0000   1.0000   1.0000   1.0000   1.0000   1.0000
     1.0000   1.0000   1.0000   1.0000   1.0000   1.0000   1.0000   1.0000
     1.0000   1.0000   1.0000   1.0000   1.0000   1.0000   1.0000   1.0000
     1.0000   1.0000   1.0000   1.0000   1.0000   1.0000   1.0000   1.0000
     1.0000   1.0000   1.0000   1.0000   1.0000   1.0000   1.0000   1.0000
     1.0000   1.0000   1.0000   1.0000   1.0000   1.0000   1.0000   1.0000
     1.0000   1.0000   1.0000   1.0000   1.0000   1.0000   1.0000   1.0000
     1.0000   1.0000   1.0000   1.0000   1.0000   1.0000   1.0000   1.0000
     1.0000   1.0000   1.0000   1.0000   1.0000   1.0000   1.0000   1.0000
     1.0000   1.0000   1.0000   1.0000   1.0000   1.0000   1.0000   1.0000
     1.0000   1.0000   1.0000   1.0000   1.0000   1.0000   1.0000   1.0000
     1.0000   1.0000   1.0000   1.0000   1.0000   1.0000   1.0000   1.0000
     1.0000   1.0000   1.0000   1.0000   1.0000   1.0000   1.0000   1.0000
     1.0000   1.0000   1.0000   1.0000   1.0000   1.0000   1.0000   1.0000
     1.0000   1.0000   1.0000   1.0000   1.0000   1.0000   1.0000   1.0000
     1.0000   1.0000   1.0000   1.0000   1.0000   1.0000   1.0000   1.0000
     1.0000   1.0000   1.0000   1.0000   1.0000   1.0000   1.0000   1.0000
     1.0000   1.0000   1.0000   1.0000   1.0000   1.0000   1.0000   1.0000
     1.0000   1.0000   1.0000   1.0000   1.0000   1.0000   1.0000   1.0000
     1.0000   1.0000   1.0000   1.0000   1.0000   1.0000   1.0000   1.0000
     1.0000   1.0000   1.0000   1.0000   1.0000   1.0000   1.0000   1.0000
     1.0000   1.0000   1.0000   1.0000   1.0000   1.0000   1.0000   1.0000
     1.0000   1.0000   1.0000   1.0000   1.0000   1.0000   1.0000   1.0000
     1.0000   1.0000   1.0000   1.0000   1.0000   1.0000   1.0000   1.0000
     1.0000   1.0000   1.0000   1.0000   1.0000   1.0000   1.0000   1.0000
     1.0000   1.0000   1.0000   1.0000   1.0000   1.0000   1.0000   1.0000
     1.0000   1.0000   1.0000   1.0000   1.0000   1.0000   1.0000   1.0000
     1.0000   1.0000   1.0000   1.0000   1.0000   1.0000   1.0000   1.0000
     1.0000   1.0000   1.0000   1.0000   1.0000   1.0000   1.0000   1.0000
     1.0000   1.0000   1.0000   1.0000   1.0000   1.0000   1.0000   1.0000
     1.0000   1.0000   1.0000   1.0000   1.0000   1.0000   1.0000   1.0000
     1.0000   1.0000   1.0000   1.0000   1.0000   1.0000   1.0000   1.0000
     1.0000   1.0000   1.0000   1.0000   1.0000   1.0000   1.0000   1.0000
     1.0000   1.0000   1.0000   1.0000   1.0000   1.0000   1.0000   1.0000
     1.0000   1.0000   1.0000   1.0000   1.0000   1.0000   1.0000   1.0000
     1.0000   1.0000   1.0000   1.0000   1.0000   1.0000   1.0000   1.0000
     1.0000   1.0000   1.0000   1.0000   1.0000   1.0000   1.0000   1.0000
     1.0000   1.0000   1.0000   1.0000   1.0000   1.0000   1.0000   1.0000
     1.0000   1.0000   1.0000   1.0000   1.0000   1.0000   1.0000   1.0000
     1.0000   1.0000   1.0000   1.0000   1.0000   1.0000   1.0000   1.0000
     1.0000   1.0000   1.0000   1.0000   1.0000   1.0000   1.0000   1.0000
     1.0000   1.0000   1.0000   1.0000   1.0000   1.0000   1.0000   1.0000
     1.0000   1.0000   1.0000   1.0000   1.0000   1.0000   1.0000   1.0000
     1.0000   1.0000   1.0000   1.0000   1.0000   1.0000   1.0000   1.0000
     1.0000   1.0000   1.0000   1.0000   1.0000   1.0000   1.0000   1.0000
     1.0000   1.0000   1.0000   1.0000   1.0000   1.0000   1.0000   1.0000
     1.0000   1.0000   1.0000   1.0000   1.0000   1.0000   1.0000   1.0000
     1.0000   1.0000   1.0000   1.0000   1.0000   1.0000   1.0000   1.0000
     1.0000   1.0000   1.0000   1.0000   1.0000   1.0000   1.0000   1.0000
[...]
     atom   74 type  4   force =     0.00000000    0.00000000    0.00000000
     atom   75 type  4   force =     0.00000000    0.00000000    0.00000000
     atom   76 type  4   force =     0.00000000    0.00000000    0.00000000
     atom   77 type  4   force =     0.00000000    0.00000000    0.00000000
     atom   78 type  4   force =     0.00000000    0.00000000    0.00000000
     atom   79 type  4   force =     0.00000000    0.00000000    0.00000000
     The Hubbard contrib.    to forces
     atom    1 type  1   force =     0.00000000    0.00000000    0.00000000
     atom    2 type  1   force =     0.00000000    0.00000000    0.00000000
     atom    3 type  1   force =     0.00000000    0.00000000    0.00000000
     atom    4 type  1   force =     0.00000000    0.00000000    0.00000000
     atom    5 type  1   force =     0.00000000    0.00000000    0.00000000
     atom    6 type  1   force =     0.00000000    0.00000000    0.00000000
     atom    7 type  1   force =     0.00000000    0.00000000    0.00000000
     atom    8 type  1   force =     0.00000000    0.00000000    0.00000000
     atom    9 type  1   force =     0.00000000    0.00000000    0.00000000
     atom   10 type  1   force =     0.00000000    0.00000000    0.00000000
     atom   11 type  1   force =     0.00000000    0.00000000    0.00000000
     atom   12 type  1   force =     0.00000000    0.00000000    0.00000000
     atom   13 type  1   force =     0.00000000    0.00000000    0.00000000
     atom   14 type  1   force =     0.00000000    0.00000000    0.00000000
     atom   15 type  1   force =     0.00000000    0.00000000    0.00000000
     atom   16 type  1   force =     0.00000000    0.00000000    0.00000000
     atom   17 type  1   force =     0.00000000    0.00000000    0.00000000
     atom   18 type  1   force =     0.00000000    0.00000000    0.00000000
     atom   19 type  1   force =     0.00000000    0.00000000    0.00000000
     atom   20 type  1   force =     0.00000000    0.00000000    0.00000000
     atom   21 type  1   force =     0.00000000    0.00000000    0.00000000
     atom   22 type  1   force =     0.00000000    0.00000000    0.00000000
     atom   23 type  1   force =     0.00000000    0.00000000    0.00000000
     atom   24 type  1   force =     0.00000000    0.00000000    0.00000000
     atom   25 type  1   force =     0.00000000    0.00000000    0.00000000
     atom   26 type  1   force =     0.00000000    0.00000000    0.00000000
     atom   27 type  1   force =     0.00000000    0.00000000    0.00000000
     atom   28 type  1   force =     0.00000000    0.00000000    0.00000000
     atom   29 type  1   force =     0.00000000    0.00000000    0.00000000
     atom   30 type  1   force =     0.00000000    0.00000000    0.00000000
     atom   31 type  1   force =     0.00000000    0.00000000    0.00000000
     atom   32 type  1   force =     0.00000000    0.00000000    0.00000000
     atom   33 type  1   force =     0.00000000    0.00000000    0.00000000
     atom   34 type  1   force =     0.00000000    0.00000000    0.00000000
     atom   35 type  1   force =     0.00000000    0.00000000    0.00000000
     atom   36 type  1   force =     0.00000000    0.00000000    0.00000000
     atom   37 type  1   force =     0.00000000    0.00000000    0.00000000
     atom   38 type  1   force =     0.00000000    0.00000000    0.00000000
     atom   39 type  1   force =     0.00000000    0.00000000    0.00000000
     atom   40 type  1   force =     0.00000000    0.00000000    0.00000000
     atom   41 type  1   force =     0.00000000    0.00000000    0.00000000
     atom   42 type  1   force =     0.00000000    0.00000000    0.00000000
     atom   43 type  1   force =     0.00000000    0.00000000    0.00000000
     atom   44 type  1   force =     0.00000000    0.00000000    0.00000000
     atom   45 type  1   force =     0.00000000    0.00000000    0.00000000
     atom   46 type  1   force =     0.00000000    0.00000000    0.00000000
     atom   47 type  1   force =     0.00000000    0.00000000    0.00000000
     atom   48 type  1   force =     0.00000000    0.00000000    0.00000000
     atom   49 type  1   force =     0.00000000    0.00000000    0.00000000
     atom   50 type  1   force =     0.00000000    0.00000000    0.00000000
     atom   51 type  1   force =     0.00000000    0.00000000    0.00000000
     atom   52 type  1   force =     0.00000000    0.00000000    0.00000000
     atom   53 type  1   force =     0.00000000    0.00000000    0.00000000
     atom   54 type  1   force =     0.00000000    0.00000000    0.00000000
     atom   55 type  1   force =     0.00000000    0.00000000    0.00000000
     atom   56 type  1   force =     0.00000000    0.00000000    0.00000000
     atom   57 type  1   force =     0.00000000    0.00000000    0.00000000
     atom   58 type  1   force =     0.00000000    0.00000000    0.00000000
     atom   59 type  1   force =     0.00000000    0.00000000    0.00000000
     atom   60 type  1   force =     0.00000000    0.00000000    0.00000000
     atom   61 type  1   force =     0.00000000    0.00000000    0.00000000
     atom   62 type  1   force =     0.00000000    0.00000000    0.00000000
     atom   63 type  1   force =     0.00000000    0.00000000    0.00000000
     atom   64 type  1   force =     0.00000000    0.00000000    0.00000000
     atom   65 type  2   force =     0.00000000    0.00000000    0.00000000
     atom   66 type  2   force =     0.00000000    0.00000000    0.00000000
     atom   67 type  2   force =     0.00000000    0.00000000    0.00000000
     atom   68 type  2   force =     0.00000000    0.00000000    0.00000000
     atom   69 type  2   force =     0.00000000    0.00000000    0.00000000
     atom   70 type  2   force =     0.00000000    0.00000000    0.00000000
     atom   71 type  2   force =     0.00000000    0.00000000    0.00000000
     atom   72 type  3   force =     0.00000000    0.00000000    0.00000000
     atom   73 type  3   force =     0.00000000    0.00000000    0.00000000
     atom   74 type  4   force =     0.00000000    0.00000000    0.00000000
     atom   75 type  4   force =     0.00000000    0.00000000    0.00000000
     atom   76 type  4   force =     0.00000000    0.00000000    0.00000000
     atom   77 type  4   force =     0.00000000    0.00000000    0.00000000
     atom   78 type  4   force =     0.00000000    0.00000000    0.00000000
     atom   79 type  4   force =     0.00000000    0.00000000    0.00000000
     The SCF correction term to forces
     atom    1 type  1   force =    -0.00040385   -0.00028521    0.00081323
     atom    2 type  1   force =     0.00040300   -0.00064328    0.00060081
     atom    3 type  1   force =    -0.00066382   -0.00050351   -0.00017029
     atom    4 type  1   force =     0.00067349   -0.00106956   -0.00004947
     atom    5 type  1   force =    -0.00028682   -0.00004398    0.00082178
     atom    6 type  1   force =     0.00026891   -0.00024975    0.00002062
     atom    7 type  1   force =    -0.00044380   -0.00013176   -0.00012661
     atom    8 type  1   force =     0.00043232   -0.00041281    0.00010282
     atom    9 type  1   force =     0.00030879    0.00023076    0.00089066
     atom   10 type  1   force =    -0.00030160    0.00066919    0.00022305
     atom   11 type  1   force =     0.00045935    0.00039397   -0.00018350
     atom   12 type  1   force =    -0.00046057    0.00115670    0.00003953
     atom   13 type  1   force =     0.00019198   -0.00001150    0.00086795
     atom   14 type  1   force =    -0.00019254    0.00032258    0.00080700
     atom   15 type  1   force =     0.00026173    0.00001609   -0.00021586
     atom   16 type  1   force =    -0.00025456    0.00053614   -0.00011593
     atom   17 type  1   force =    -0.00018101   -0.00083110    0.00049435
     atom   18 type  1   force =     0.00017356   -0.00009196    0.00093123
     atom   19 type  1   force =    -0.00035571   -0.00139883   -0.00005965
     atom   20 type  1   force =     0.00033949   -0.00016660   -0.00017318
     atom   21 type  1   force =    -0.00074032   -0.00017502    0.00027612
     atom   22 type  1   force =     0.00076217   -0.00011888    0.00056059
     atom   23 type  1   force =    -0.00126369   -0.00036450    0.00001666
     atom   24 type  1   force =     0.00128781   -0.00020115   -0.00003724
     atom   25 type  1   force =    -0.00064262    0.00035961    0.00070529
     atom   26 type  1   force =     0.00063044    0.00055760    0.00040046
     atom   27 type  1   force =    -0.00106881    0.00058592   -0.00009574
     atom   28 type  1   force =     0.00105634    0.00098268   -0.00003041
     atom   29 type  1   force =    -0.00005294   -0.00028712    0.00092938
     atom   30 type  1   force =     0.00005585    0.00059891    0.00076521
     atom   31 type  1   force =    -0.00013560   -0.00044209   -0.00019594
     atom   32 type  1   force =     0.00013284    0.00101693   -0.00014862
     atom   33 type  1   force =    -0.00036405   -0.00076346   -0.00039478
     atom   34 type  1   force =     0.00037284   -0.00025970   -0.00042594
     atom   35 type  1   force =    -0.00024170   -0.00044544   -0.00059299
     atom   36 type  1   force =     0.00024001   -0.00015491   -0.00060368
     atom   37 type  1   force =    -0.00103849   -0.00045740   -0.00048398
     atom   38 type  1   force =     0.00106724   -0.00074748   -0.00068719
     atom   39 type  1   force =    -0.00068103   -0.00027000   -0.00046610
     atom   40 type  1   force =     0.00070123   -0.00048448   -0.00010856
     atom   41 type  1   force =    -0.00043341    0.00030230   -0.00041562
     atom   42 type  1   force =     0.00042811    0.00073182   -0.00076151
     atom   43 type  1   force =    -0.00025540    0.00015213   -0.00063265
     atom   44 type  1   force =     0.00027820    0.00048145    0.00011246
     atom   45 type  1   force =     0.00023024   -0.00000960   -0.00032738
     atom   46 type  1   force =    -0.00023739    0.00120499   -0.00052931
     atom   47 type  1   force =     0.00016940   -0.00001936   -0.00077236
     atom   48 type  1   force =    -0.00017735    0.00076574   -0.00040361
     atom   49 type  1   force =     0.00009935   -0.00120493   -0.00049137
     atom   50 type  1   force =    -0.00010765    0.00016055   -0.00032958
     atom   51 type  1   force =     0.00010929   -0.00073363   -0.00048219
     atom   52 type  1   force =    -0.00010896    0.00012521   -0.00071562
     atom   53 type  1   force =    -0.00051391   -0.00092046   -0.00072816
     atom   54 type  1   force =     0.00049701   -0.00026935   -0.00042142
     atom   55 type  1   force =    -0.00033422   -0.00059566    0.00004494
     atom   56 type  1   force =     0.00030738   -0.00017847   -0.00060097
     atom   57 type  1   force =    -0.00119270    0.00058208   -0.00068939
     atom   58 type  1   force =     0.00119121    0.00047107   -0.00052660
     atom   59 type  1   force =    -0.00076862    0.00038055   -0.00012583
     atom   60 type  1   force =     0.00074450    0.00024052   -0.00041534
     atom   61 type  1   force =    -0.00056478    0.00030081   -0.00041992
     atom   62 type  1   force =     0.00057241    0.00087982   -0.00043378
     atom   63 type  1   force =    -0.00031326    0.00019336   -0.00063823
     atom   64 type  1   force =     0.00032079    0.00054415   -0.00053446
     atom   65 type  2   force =     0.00000469    0.00000068    0.00016607
     atom   66 type  2   force =    -0.00000434    0.00000179   -0.00012563
     atom   67 type  2   force =    -0.00006210   -0.00008526   -0.00014189
     atom   68 type  2   force =     0.00005104    0.00008858   -0.00014614
     atom   69 type  2   force =    -0.00001843   -0.00002429   -0.00004996
     atom   70 type  2   force =     0.00001435    0.00002617   -0.00005145
     atom   71 type  2   force =     0.00000203    0.00000056    0.00004537
     atom   72 type  3   force =     0.00000624    0.00000146    0.00021025
     atom   73 type  3   force =     0.00000314   -0.00000077    0.00015881
     atom   74 type  4   force =     0.00000355    0.00000591    0.00002160
     atom   75 type  4   force =    -0.00000383   -0.00000561    0.00002126
     atom   76 type  4   force =    -0.00000843   -0.00001229   -0.00001153
     atom   77 type  4   force =     0.00000737    0.00001220   -0.00001220
     atom   78 type  4   force =    -0.00000730   -0.00001135    0.00000603
     atom   79 type  4   force =     0.00000728    0.00001090    0.00000525

     Total force =     0.030951     Total SCF correction =     0.007596
     SCF correction compared to forces is large: reduce conv_thr to get better values


     Computing stress (Cartesian axis) and pressure


     negative rho (up, down):  3.563E-02 0.000E+00
          total   stress  (Ry/bohr**3)                   (kbar)     P=     -306.90
  -0.00208460  -0.00000082  -0.00000023         -306.66       -0.12       -0.03
  -0.00000082  -0.00208514  -0.00000025           -0.12     -306.73       -0.04
  -0.00000023  -0.00000025  -0.00208907           -0.03       -0.04     -307.31

     kinetic stress (kbar)  17261.68    -31.04     -2.83
                              -31.04  17234.32      1.31
                               -2.83      1.31  17280.71

     local   stress (kbar)**********   -841.23   -106.86
                             -841.23**********     42.94
                             -106.86     42.941454636.07

     nonloc. stress (kbar)  -1886.03      1.92      0.26
                                1.92  -1884.33     -0.09
                                0.26     -0.09  -1942.60

     hartree stress (kbar) 756013.13    317.36     41.99
                              317.36 756294.70    -16.56
                               41.99    -16.56-680474.59

     exc-cor stress (kbar)  -8416.96      1.45      0.14
                                1.45  -8415.68     -0.06
                                0.14     -0.06  -8424.17

     corecor stress (kbar)    -80.44     -0.69     -0.07
                               -0.69    -81.03      0.03
                               -0.07      0.03    -81.85

     ewald   stress (kbar) 675560.58    552.10     67.34
                              552.10 676049.51    -27.60
                               67.34    -27.60-781300.88

     hubbard stress (kbar)      0.00      0.00      0.00
                                0.00      0.00      0.00
                                0.00      0.00      0.00

     DFT-D   stress (kbar)      0.00      0.00      0.00
                                0.00      0.00      0.00
                                0.00      0.00      0.00

     XDM     stress (kbar)      0.00      0.00      0.00
                                0.00      0.00      0.00
                                0.00      0.00      0.00

     dft-nl  stress (kbar)      0.00      0.00      0.00
                                0.00      0.00      0.00
                                0.00      0.00      0.00

     TS-vdW  stress (kbar)      0.00      0.00      0.00
                                0.00      0.00      0.00
                                0.00      0.00      0.00

     MDB     stress (kbar)      0.00      0.00      0.00
                                0.00      0.00      0.00
                                0.00      0.00      0.00

     3D-RISM stress (kbar)      0.00      0.00      0.00
                                0.00      0.00      0.00
                                0.00      0.00      0.00


     Writing all to output data dir ./tmp/Zn002_4x4x2_primitive_14Avacumn_bridgesite_upright_parallel_ABN.save/ :
     XML data file, charge density, pseudopotentials, collected wavefunctions

     init_run     :    143.43s CPU    144.64s WALL (       1 calls)
     electrons    :  12066.50s CPU  12169.26s WALL (       1 calls)
     forces       :    108.25s CPU    108.71s WALL (       1 calls)
     stress       :    334.46s CPU    335.55s WALL (       1 calls)

     Called by init_run:
     wfcinit      :    142.38s CPU    143.55s WALL (       1 calls)
     wfcinit:atom :      0.06s CPU      0.10s WALL (       5 calls)
     wfcinit:wfcr :    141.36s CPU    142.46s WALL (       5 calls)
     potinit      :      0.21s CPU      0.22s WALL (       1 calls)
     hinit0       :      0.07s CPU      0.08s WALL (       1 calls)

     Called by electrons:
     c_bands      :  11341.86s CPU  11435.64s WALL (      22 calls)
     sum_band     :    706.03s CPU    714.62s WALL (      22 calls)
     v_of_rho     :      0.75s CPU      0.79s WALL (      22 calls)
     v_h          :      0.04s CPU      0.04s WALL (      22 calls)
     v_xc         :      0.78s CPU      0.82s WALL (      24 calls)
     newd         :     14.84s CPU     15.18s WALL (      22 calls)
     PAW_pot      :      3.68s CPU      3.70s WALL (      22 calls)
     mix_rho      :      0.17s CPU      0.17s WALL (      22 calls)

     Called by c_bands:
     init_us_2    :      5.58s CPU      5.61s WALL (     235 calls)
     cegterg      :  11327.03s CPU  11420.68s WALL (     110 calls)

     Called by sum_band:
     sum_band:wei :      0.09s CPU      0.09s WALL (      22 calls)
     sum_band:loo :    694.21s CPU    702.46s WALL (      22 calls)
     sum_band:buf :      1.12s CPU      1.15s WALL (     110 calls)
     sum_band:ini :      2.62s CPU      2.63s WALL (     110 calls)
     sum_band:cal :    637.25s CPU    639.48s WALL (     110 calls)
     sum_band:bec :      4.30s CPU      4.31s WALL (     110 calls)
     addusdens    :     11.45s CPU     11.78s WALL (      22 calls)
                                        0.00s GPU  (      22 calls)
     addusd:skk   :      0.13s CPU      0.13s WALL (      88 calls)
                                        0.00s GPU  (      88 calls)

     Called by *egterg:
     cdiaghg      :   1096.33s CPU   1127.25s WALL (     882 calls)
     cegterg:over :   1822.06s CPU   1827.04s WALL (     777 calls)
     cegterg:upda :    878.16s CPU    881.66s WALL (     777 calls)
     cegterg:last :   2687.10s CPU   2696.37s WALL (     233 calls)
     cdiaghg:chol :     76.31s CPU     76.50s WALL (     882 calls)
     cdiaghg:inve :     17.28s CPU     17.33s WALL (     882 calls)
     cdiaghg:para :    394.52s CPU    401.19s WALL (    1764 calls)
     h_psi        :   3134.81s CPU   3173.49s WALL (     892 calls)
     s_psi        :   1295.47s CPU   1298.58s WALL (     892 calls)
     g_psi        :      1.08s CPU      1.08s WALL (     777 calls)

     Called by h_psi:
     h_psi:calbec :   1576.15s CPU   1581.79s WALL (     892 calls)
     vloc_psi     :    235.25s CPU    263.57s WALL (     892 calls)
     add_vuspsi   :   1321.44s CPU   1324.66s WALL (     892 calls)

     General routines
     calbec       :   2346.61s CPU   2354.98s WALL (    1027 calls)
     fft          :      0.45s CPU      0.51s WALL (     268 calls)
     ffts         :      0.03s CPU      0.03s WALL (      22 calls)
     fftw         :    258.02s CPU    289.57s WALL (  508764 calls)

     Parallel routines

     PAW routines
     PAW_pot      :      3.68s CPU      3.70s WALL (      22 calls)

     PWSCF        :      3h30m CPU      3h32m WALL


   This run was terminated on:  19: 2:56  22Mar2025            

=------------------------------------------------------------------------------=
   JOB DONE.
=------------------------------------------------------------------------------=
Note: The following floating-point exceptions are signalling: IEEE_DENORMAL
Note: The following floating-point exceptions are signalling: IEEE_DENORMAL
Note: The following floating-point exceptions are signalling: IEEE_DENORMAL
Note: The following floating-point exceptions are signalling: IEEE_DENORMAL
Note: The following floating-point exceptions are signalling: IEEE_DENORMAL
Note: The following floating-point exceptions are signalling: IEEE_DENORMAL
Note: The following floating-point exceptions are signalling: IEEE_DENORMAL
