--------------------------------------------------------------------------
By default, for Open MPI 4.0 and later, infiniband ports on a device
are not used by default.  The intent is to use UCX for these devices.
You can override this policy by setting the btl_openib_allow_ib MCA parameter
to true.

  Local host:              psid03
  Local adapter:           mlx5_0
  Local port:              1

--------------------------------------------------------------------------
--------------------------------------------------------------------------
WARNING: There was an error initializing an OpenFabrics device.

  Local host:   psid03
  Local device: mlx5_0
--------------------------------------------------------------------------

     Program PWSCF v.7.3.1 starts on 22Mar2025 at 15:29:50 

     This program is part of the open-source Quantum ESPRESSO suite
     for quantum simulation of materials; please cite
         "P. Giannozzi et al., J. Phys.:Condens. Matter 21 395502 (2009);
         "P. Giannozzi et al., J. Phys.:Condens. Matter 29 465901 (2017);
         "P. Giannozzi et al., J. Chem. Phys. 152 154105 (2020);
          URL http://www.quantum-espresso.org", 
     in publications or presentations arising from this work. More details at
     http://www.quantum-espresso.org/quote

     Parallel version (MPI), running on    16 processors

     MPI processes distributed on     1 nodes
     102817 MiB available memory on the printing compute node when the environment starts

     Waiting for input...
     Reading input from standard input
Warning: card &CELL ignored
Warning: card   CELL_DOFREE = 'ALL' ignored
Warning: card / ignored

     Current dimensions of program PWSCF are:
     Max number of different atomic species (ntypx) = 10
     Max number of k-points (npk) =  40000
     Max angular momentum in pseudopotentials (lmaxx) =  4
     file C.pbe-n-kjpaw_psl.1.0.0.UPF: wavefunction(s)  2S 2P renormalized

     R & G space division:  proc/nbgrp/npool/nimage =      16
     Subspace diagonalization in iterative solution of the eigenvalue problem:
     one sub-group per band group will be used
     custom distributed-memory algorithm (size of sub-group:  4*  4 procs)


     Parallelization info
     --------------------
     sticks:   dense  smooth     PW     G-vecs:    dense   smooth      PW
     Min         202     202     53                21070    21070    2943
     Max         203     203     54                21080    21080    2952
     Sum        3241    3241    859               337189   337189   47187

     Using Slab Decomposition



     bravais-lattice index     =            0
     lattice parameter (alat)  =      19.7617  a.u.
     unit-cell volume          =   15176.5939 (a.u.)^3
     number of atoms/cell      =           79
     number of atomic types    =            4
     number of electrons       =      1324.00
     number of Kohn-Sham states=          794
     kinetic-energy cutoff     =      30.0000  Ry
     charge density cutoff     =     120.0000  Ry
     scf convergence threshold =      7.3E-07
     mixing beta               =       0.7000
     number of iterations used =            8  plain     mixing
     Exchange-correlation= PBE
                           (   1   4   3   4   0   0   0)

     celldm(1)=  19.761696  celldm(2)=   0.000000  celldm(3)=   0.000000
     celldm(4)=   0.000000  celldm(5)=   0.000000  celldm(6)=   0.000000

     crystal axes: (cart. coord. in units of alat)
               a(1) = (   1.000000   0.000000   0.000000 )  
               a(2) = (  -0.500000   0.866025   0.000000 )  
               a(3) = (   0.000000   0.000000   2.270759 )  

     reciprocal axes: (cart. coord. in units 2 pi/alat)
               b(1) = (  1.000000  0.577350 -0.000000 )  
               b(2) = (  0.000000  1.154701  0.000000 )  
               b(3) = (  0.000000 -0.000000  0.440381 )  


     PseudoPot. # 1 for Zn read from file:
     /home/ys/qepseudo/SSSP_1.3.0_PBE_efficiency/Zn_pbe_v1.uspp.F.UPF
     MD5 check sum: df62231357ef9e81f77b2b3087fa5675
     Pseudo is Ultrasoft, Zval = 20.0
     Generated by new atomic code, or converted to UPF format
     Using radial grid of  943 points,  6 beta functions with: 
                l(1) =   0
                l(2) =   0
                l(3) =   1
                l(4) =   1
                l(5) =   2
                l(6) =   2
     Q(r) pseudized with  8 coefficients,  rinner =    1.100   1.100   1.100
                                                       1.100   1.100

     PseudoPot. # 2 for C  read from file:
     /home/ys/qepseudo/SSSP_1.3.0_PBE_efficiency/C.pbe-n-kjpaw_psl.1.0.0.UPF
     MD5 check sum: 5d2aebdfa2cae82b50a7e79e9516da0f
     Pseudo is Projector augmented-wave + core cor, Zval =  4.0
     Generated using "atomic" code by A. Dal Corso  v.5.1
     Shape of augmentation charge: PSQ
     Using radial grid of 1073 points,  4 beta functions with: 
                l(1) =   0
                l(2) =   0
                l(3) =   1
                l(4) =   1
     Q(r) pseudized with 0 coefficients 


     PseudoPot. # 3 for N  read from file:
     /home/ys/qepseudo/SSSP_1.3.0_PBE_efficiency/N.pbe-n-radius_5.UPF
     MD5 check sum: 16739722b17309cd8fe442a2ace49922
     Pseudo is Ultrasoft + core correction, Zval =  5.0
     Generated using "atomic" code by A. Dal Corso  v.5.1
     Using radial grid of 1085 points,  4 beta functions with: 
                l(1) =   0
                l(2) =   0
                l(3) =   1
                l(4) =   1
     Q(r) pseudized with 0 coefficients 


     PseudoPot. # 4 for H  read from file:
     /home/ys/qepseudo/SSSP_1.3.0_PBE_efficiency/H.pbe-rrkjus_psl.1.0.0.UPF
     MD5 check sum: f52b6d4d1c606e5624b1dc7b2218f220
     Pseudo is Ultrasoft, Zval =  1.0
     Generated using "atomic" code by A. Dal Corso  v.5.1
     Using radial grid of  929 points,  2 beta functions with: 
                l(1) =   0
                l(2) =   0
     Q(r) pseudized with 0 coefficients 


     atomic species   valence    mass     pseudopotential
     Zn               20.00    65.38000     Zn( 1.00)
     C                 4.00    12.01070     C ( 1.00)
     N                 5.00    14.00670     N ( 1.00)
     H                 1.00     1.00800     H ( 1.00)

     No symmetry found


                                    s                        frac. trans.

      isym =  1     identity                                     

 cryst.   s( 1) = (     1          0          0      )
                  (     0          1          0      )
                  (     0          0          1      )

 cart.    s( 1) = (  1.0000000  0.0000000  0.0000000 )
                  (  0.0000000  1.0000000  0.0000000 )
                  (  0.0000000  0.0000000  1.0000000 )


   Cartesian axes

     site n.     atom                  positions (alat units)
         1        Zn     tau(   1) = (  -0.0000000   0.1443376   0.1164999  )
         2        Zn     tau(   2) = (   0.5000000   0.1443376   0.1164999  )
         3        Zn     tau(   3) = (   0.0001063   0.1443772   0.5902127  )
         4        Zn     tau(   4) = (   0.4998958   0.1443643   0.5917156  )
         5        Zn     tau(   5) = (  -0.1250000   0.3608439   0.1164999  )
         6        Zn     tau(   6) = (   0.3750000   0.3608439   0.1164999  )
         7        Zn     tau(   7) = (  -0.1249761   0.3609302   0.5908726  )
         8        Zn     tau(   8) = (   0.3749642   0.3608477   0.5913644  )
         9        Zn     tau(   9) = (  -0.2500000   0.5773503   0.1164999  )
        10        Zn     tau(  10) = (   0.2500000   0.5773503   0.1164999  )
        11        Zn     tau(  11) = (  -0.2499911   0.5773738   0.5915504  )
        12        Zn     tau(  12) = (   0.2499824   0.5772583   0.5907382  )
        13        Zn     tau(  13) = (  -0.3750000   0.7938566   0.1164999  )
        14        Zn     tau(  14) = (   0.1250000   0.7938566   0.1164999  )
        15        Zn     tau(  15) = (  -0.3749161   0.7938269   0.5909604  )
        16        Zn     tau(  16) = (   0.1249053   0.7937898   0.5911170  )
        17        Zn     tau(  17) = (   0.2500000   0.1443376   0.1164999  )
        18        Zn     tau(  18) = (   0.7500000   0.1443376   0.1164999  )
        19        Zn     tau(  19) = (   0.2499566   0.1443139   0.5910485  )
        20        Zn     tau(  20) = (   0.7500401   0.1444360   0.5909256  )
        21        Zn     tau(  21) = (   0.1250000   0.3608439   0.1164999  )
        22        Zn     tau(  22) = (   0.6250000   0.3608439   0.1164999  )
        23        Zn     tau(  23) = (   0.1249684   0.3608327   0.5904686  )
        24        Zn     tau(  24) = (   0.6250220   0.3609386   0.5917101  )
        25        Zn     tau(  25) = (  -0.0000000   0.5773503   0.1164999  )
        26        Zn     tau(  26) = (   0.5000000   0.5773503   0.1164999  )
        27        Zn     tau(  27) = (  -0.0000983   0.5773031   0.5910657  )
        28        Zn     tau(  28) = (   0.5000885   0.5773473   0.5912976  )
        29        Zn     tau(  29) = (  -0.1250000   0.7938566   0.1164999  )
        30        Zn     tau(  30) = (   0.3750000   0.7938566   0.1164999  )
        31        Zn     tau(  31) = (  -0.1251014   0.7937984   0.5915674  )
        32        Zn     tau(  32) = (   0.3751324   0.7938157   0.5904624  )
        33        Zn     tau(  33) = (   0.1250000   0.0721688   0.3494996  )
        34        Zn     tau(  34) = (   0.6250000   0.0721688   0.3494996  )
        35        Zn     tau(  35) = (   0.1248879   0.0718532   0.8329060  )
        36        Zn     tau(  36) = (   0.6248090   0.0717583   0.8328049  )
        37        Zn     tau(  37) = (   0.0000000   0.2886751   0.3494996  )
        38        Zn     tau(  38) = (   0.5000000   0.2886751   0.3494996  )
        39        Zn     tau(  39) = (  -0.0001280   0.2882322   0.8325392  )
        40        Zn     tau(  40) = (   0.5000317   0.2882198   0.8299154  )
        41        Zn     tau(  41) = (  -0.1250000   0.5051815   0.3494996  )
        42        Zn     tau(  42) = (   0.3750000   0.5051815   0.3494996  )
        43        Zn     tau(  43) = (  -0.1251048   0.5047623   0.8328278  )
        44        Zn     tau(  44) = (   0.3750239   0.5052482   0.8296160  )
        45        Zn     tau(  45) = (  -0.2500000   0.7216878   0.3494996  )
        46        Zn     tau(  46) = (   0.2500000   0.7216878   0.3494996  )
        47        Zn     tau(  47) = (  -0.2501801   0.7214512   0.8331201  )
        48        Zn     tau(  48) = (   0.2499162   0.7216594   0.8327801  )
        49        Zn     tau(  49) = (   0.3750000   0.0721688   0.3494996  )
        50        Zn     tau(  50) = (   0.8750000   0.0721688   0.3494996  )
        51        Zn     tau(  51) = (   0.3747553   0.0716765   0.8331842  )
        52        Zn     tau(  52) = (   0.8749606   0.0720007   0.8324611  )
        53        Zn     tau(  53) = (   0.2500000   0.2886751   0.3494996  )
        54        Zn     tau(  54) = (   0.7500000   0.2886751   0.3494996  )
        55        Zn     tau(  55) = (   0.2496057   0.2878936   0.8304187  )
        56        Zn     tau(  56) = (   0.7499715   0.2884205   0.8328317  )
        57        Zn     tau(  57) = (   0.1250000   0.5051815   0.3494996  )
        58        Zn     tau(  58) = (   0.6250000   0.5051815   0.3494996  )
        59        Zn     tau(  59) = (   0.1246732   0.5049557   0.8297126  )
        60        Zn     tau(  60) = (   0.6250091   0.5051114   0.8332599  )
        61        Zn     tau(  61) = (   0.0000000   0.7216878   0.3494996  )
        62        Zn     tau(  62) = (   0.5000000   0.7216878   0.3494996  )
        63        Zn     tau(  63) = (  -0.0001939   0.7213528   0.8328797  )
        64        Zn     tau(  64) = (   0.4999119   0.7216710   0.8329577  )
        65        C      tau(  65) = (   0.3121632   0.4311113   1.6964342  )
        66        C      tau(  66) = (   0.3122896   0.4204090   1.5604959  )
        67        C      tau(  67) = (   0.4138005   0.3587948   1.4966485  )
        68        C      tau(  68) = (   0.2104919   0.4698859   1.4871331  )
        69        C      tau(  69) = (   0.2096482   0.4579993   1.3552399  )
        70        C      tau(  70) = (   0.4131239   0.3470413   1.3647054  )
        71        C      tau(  71) = (   0.3111834   0.3962412   1.2910151  )
        72        N      tau(  72) = (   0.3121978   0.4390811   1.8084500  )
        73        N      tau(  73) = (   0.3078497   0.3790063   1.1605640  )
        74        H      tau(  74) = (   0.2477278   0.4345804   1.1075559  )
        75        H      tau(  75) = (   0.3906677   0.3561011   1.1145264  )
        76        H      tau(  76) = (   0.4933030   0.3197881   1.5522512  )
        77        H      tau(  77) = (   0.1308241   0.5172172   1.5356201  )
        78        H      tau(  78) = (   0.1291686   0.4962579   1.3001987  )
        79        H      tau(  79) = (   0.4927366   0.2987888   1.3166715  )

   Crystallographic axes

     site n.     atom                  positions (cryst. coord.)
         1        Zn     tau(   1) = (  0.0833333  0.1666667  0.0513044  )
         2        Zn     tau(   2) = (  0.5833333  0.1666667  0.0513044  )
         3        Zn     tau(   3) = (  0.0834625  0.1667124  0.2599187  )
         4        Zn     tau(   4) = (  0.5832446  0.1666976  0.2605806  )
         5        Zn     tau(   5) = (  0.0833333  0.4166667  0.0513044  )
         6        Zn     tau(   6) = (  0.5833333  0.4166667  0.0513044  )
         7        Zn     tau(   7) = (  0.0834070  0.4167663  0.2602093  )
         8        Zn     tau(   8) = (  0.5832997  0.4166711  0.2604259  )
         9        Zn     tau(   9) = (  0.0833333  0.6666667  0.0513044  )
        10        Zn     tau(  10) = (  0.5833333  0.6666667  0.0513044  )
        11        Zn     tau(  11) = (  0.0833558  0.6666938  0.2605078  )
        12        Zn     tau(  12) = (  0.5832626  0.6665605  0.2601501  )
        13        Zn     tau(  13) = (  0.0833333  0.9166667  0.0513044  )
        14        Zn     tau(  14) = (  0.5833333  0.9166667  0.0513044  )
        15        Zn     tau(  15) = (  0.0834001  0.9166324  0.2602480  )
        16        Zn     tau(  16) = (  0.5832000  0.9165895  0.2603170  )
        17        Zn     tau(  17) = (  0.3333333  0.1666667  0.0513044  )
        18        Zn     tau(  18) = (  0.8333333  0.1666667  0.0513044  )
        19        Zn     tau(  19) = (  0.3332763  0.1666393  0.2602868  )
        20        Zn     tau(  20) = (  0.8334303  0.1667804  0.2602327  )
        21        Zn     tau(  21) = (  0.3333333  0.4166667  0.0513044  )
        22        Zn     tau(  22) = (  0.8333333  0.4166667  0.0513044  )
        23        Zn     tau(  23) = (  0.3332952  0.4166537  0.2600314  )
        24        Zn     tau(  24) = (  0.8334099  0.4167759  0.2605781  )
        25        Zn     tau(  25) = (  0.3333333  0.6666667  0.0513044  )
        26        Zn     tau(  26) = (  0.8333333  0.6666667  0.0513044  )
        27        Zn     tau(  27) = (  0.3332078  0.6666122  0.2602944  )
        28        Zn     tau(  28) = (  0.8334201  0.6666632  0.2603965  )
        29        Zn     tau(  29) = (  0.3333333  0.9166667  0.0513044  )
        30        Zn     tau(  30) = (  0.8333333  0.9166667  0.0513044  )
        31        Zn     tau(  31) = (  0.3331983  0.9165994  0.2605153  )
        32        Zn     tau(  32) = (  0.8334421  0.9166194  0.2600287  )
        33        Zn     tau(  33) = (  0.1666667  0.0833333  0.1539131  )
        34        Zn     tau(  34) = (  0.6666667  0.0833333  0.1539131  )
        35        Zn     tau(  35) = (  0.1663724  0.0829690  0.3667963  )
        36        Zn     tau(  36) = (  0.6662387  0.0828594  0.3667518  )
        37        Zn     tau(  37) = (  0.1666667  0.3333333  0.1539131  )
        38        Zn     tau(  38) = (  0.6666667  0.3333333  0.1539131  )
        39        Zn     tau(  39) = (  0.1662829  0.3328219  0.3666348  )
        40        Zn     tau(  40) = (  0.6664355  0.3328075  0.3654793  )
        41        Zn     tau(  41) = (  0.1666667  0.5833333  0.1539131  )
        42        Zn     tau(  42) = (  0.6666667  0.5833333  0.1539131  )
        43        Zn     tau(  43) = (  0.1663199  0.5828493  0.3667619  )
        44        Zn     tau(  44) = (  0.6667291  0.5834104  0.3653475  )
        45        Zn     tau(  45) = (  0.1666667  0.8333333  0.1539131  )
        46        Zn     tau(  46) = (  0.6666667  0.8333333  0.1539131  )
        47        Zn     tau(  47) = (  0.1663499  0.8330600  0.3668906  )
        48        Zn     tau(  48) = (  0.6665664  0.8333005  0.3667409  )
        49        Zn     tau(  49) = (  0.4166667  0.0833333  0.1539131  )
        50        Zn     tau(  50) = (  0.9166667  0.0833333  0.1539131  )
        51        Zn     tau(  51) = (  0.4161377  0.0827649  0.3669188  )
        52        Zn     tau(  52) = (  0.9165303  0.0831393  0.3666004  )
        53        Zn     tau(  53) = (  0.4166667  0.3333333  0.1539131  )
        54        Zn     tau(  54) = (  0.9166667  0.3333333  0.1539131  )
        55        Zn     tau(  55) = (  0.4158211  0.3324309  0.3657010  )
        56        Zn     tau(  56) = (  0.9164911  0.3330393  0.3667636  )
        57        Zn     tau(  57) = (  0.4166667  0.5833333  0.1539131  )
        58        Zn     tau(  58) = (  0.9166667  0.5833333  0.1539131  )
        59        Zn     tau(  59) = (  0.4162095  0.5830726  0.3653900  )
        60        Zn     tau(  60) = (  0.9166353  0.5832523  0.3669522  )
        61        Zn     tau(  61) = (  0.4166667  0.8333333  0.1539131  )
        62        Zn     tau(  62) = (  0.9166667  0.8333333  0.1539131  )
        63        Zn     tau(  63) = (  0.4162793  0.8329464  0.3667847  )
        64        Zn     tau(  64) = (  0.9165688  0.8333139  0.3668191  )
        65        C      tau(  65) = (  0.5610654  0.4978045  0.7470781  )
        66        C      tau(  66) = (  0.5550128  0.4854465  0.6872134  )
        67        C      tau(  67) = (  0.6209508  0.4143005  0.6590962  )
        68        C      tau(  68) = (  0.4817806  0.5425775  0.6549058  )
        69        C      tau(  69) = (  0.4740742  0.5288520  0.5968225  )
        70        C      tau(  70) = (  0.6134882  0.4007287  0.6009909  )
        71        C      tau(  71) = (  0.5399533  0.4575400  0.5685391  )
        72        N      tau(  72) = (  0.5657014  0.5070072  0.7964078  )
        73        N      tau(  73) = (  0.5266691  0.4376388  0.5110908  )
        74        H      tau(  74) = (  0.4986330  0.5018103  0.4877471  )
        75        H      tau(  75) = (  0.5962628  0.4111902  0.4908167  )
        76        H      tau(  76) = (  0.6779328  0.3692595  0.6835826  )
        77        H      tau(  77) = (  0.4294396  0.5972310  0.6762586  )
        78        H      tau(  78) = (  0.4156833  0.5730293  0.5725833  )
        79        H      tau(  79) = (  0.6652423  0.3450115  0.5798377  )

     number of k points=     5  Marzari-Vanderbilt smearing, width (Ry)=  0.0200
                       cart. coord. in units 2pi/alat
        k(    1) = (   0.0000000   0.0000000   0.0000000), wk =   0.2222222
        k(    2) = (   0.0000000   0.3849002   0.0000000), wk =   0.4444444
        k(    3) = (   0.3333333   0.1924501   0.0000000), wk =   0.4444444
        k(    4) = (   0.3333333   0.5773503   0.0000000), wk =   0.4444444
        k(    5) = (   0.3333333  -0.1924501   0.0000000), wk =   0.4444444

                       cryst. coord.
        k(    1) = (   0.0000000   0.0000000   0.0000000), wk =   0.2222222
        k(    2) = (   0.0000000   0.3333333   0.0000000), wk =   0.4444444
        k(    3) = (   0.3333333   0.0000000   0.0000000), wk =   0.4444444
        k(    4) = (   0.3333333   0.3333333   0.0000000), wk =   0.4444444
        k(    5) = (   0.3333333  -0.3333333   0.0000000), wk =   0.4444444

     Dense  grid:   337189 G-vectors     FFT dimensions: (  72,  72, 160)

     Dynamical RAM for                 wfc:      31.89 MB

     Dynamical RAM for     wfc (w. buffer):     191.33 MB

     Dynamical RAM for           str. fact:       1.29 MB

     Dynamical RAM for           local pot:       0.00 MB

     Dynamical RAM for          nlocal pot:      49.64 MB

     Dynamical RAM for                qrad:       3.52 MB

     Dynamical RAM for          rho,v,vnew:       2.15 MB

     Dynamical RAM for               rhoin:       0.72 MB

     Dynamical RAM for            rho*nmix:       5.15 MB

     Dynamical RAM for           G-vectors:       1.37 MB

     Dynamical RAM for          h,s,v(r/c):       7.21 MB

     Dynamical RAM for          <psi|beta>:      14.97 MB

     Dynamical RAM for                 psi:      63.78 MB

     Dynamical RAM for                hpsi:      63.78 MB

     Dynamical RAM for                spsi:      63.78 MB

     Dynamical RAM for      wfcinit/wfcrot:      87.69 MB

     Dynamical RAM for           addusdens:      80.39 MB

     Dynamical RAM for          addusforce:     121.32 MB

     Dynamical RAM for         addusstress:      64.63 MB

     Estimated static dynamical RAM per process >     253.59 MB

     Estimated max dynamical RAM per process >     472.26 MB

     Estimated total dynamical RAM >       7.38 GB

     Check: negative core charge=   -0.000056

     Initial potential from superposition of free atoms

     starting charge    1323.9906, renormalised to    1324.0000

     negative rho (up, down):  6.773E-03 0.000E+00
     Starting wfcs are  874 randomized atomic wfcs
[psid03:06779] 15 more processes have sent help message help-mpi-btl-openib.txt / ib port not selected
[psid03:06779] Set MCA parameter "orte_base_help_aggregate" to 0 to see all help / error messages
[psid03:06779] 15 more processes have sent help message help-mpi-btl-openib.txt / error in device init
     Checking if some PAW data can be deallocated... 
       PAW data deallocated on   13 nodes for type:  2

     total cpu time spent up to now is      140.3 secs

     Self-consistent Calculation

     iteration #  1     ecut=    30.00 Ry     beta= 0.70
     Davidson diagonalization with overlap

---- Real-time Memory Report at c_bands before calling an iterative solver
           352 MiB given to the printing process from OS
             0 MiB allocation reported by mallinfo(arena+hblkhd)
         93240 MiB available memory on the node where the printing process lives
------------------
     ethr =  1.00E-02,  avg # of iterations =  7.0

     Threshold (ethr) on eigenvalues was too large:
     Diagonalizing with lowered threshold

     Davidson diagonalization with overlap

---- Real-time Memory Report at c_bands before calling an iterative solver
           508 MiB given to the printing process from OS
             0 MiB allocation reported by mallinfo(arena+hblkhd)
         89853 MiB available memory on the node where the printing process lives
------------------
     ethr =  9.19E-04,  avg # of iterations =  1.6

     negative rho (up, down):  3.728E-02 0.000E+00

     total cpu time spent up to now is     1097.5 secs

     total energy              =  -29703.42524884 Ry
     estimated scf accuracy    <      12.39728224 Ry

     iteration #  2     ecut=    30.00 Ry     beta= 0.70
     Davidson diagonalization with overlap

---- Real-time Memory Report at c_bands before calling an iterative solver
           508 MiB given to the printing process from OS
             0 MiB allocation reported by mallinfo(arena+hblkhd)
         89848 MiB available memory on the node where the printing process lives
------------------
     ethr =  9.36E-04,  avg # of iterations = 14.0

     negative rho (up, down):  3.481E-02 0.000E+00

     total cpu time spent up to now is     1911.3 secs

     total energy              =  -29666.42865836 Ry
     estimated scf accuracy    <     804.61481602 Ry

     iteration #  3     ecut=    30.00 Ry     beta= 0.70
     Davidson diagonalization with overlap

---- Real-time Memory Report at c_bands before calling an iterative solver
           514 MiB given to the printing process from OS
             0 MiB allocation reported by mallinfo(arena+hblkhd)
         89662 MiB available memory on the node where the printing process lives
------------------
     ethr =  9.36E-04,  avg # of iterations = 10.2

     negative rho (up, down):  2.498E-02 0.000E+00

     total cpu time spent up to now is     3124.4 secs

     total energy              =  -29702.75797031 Ry
     estimated scf accuracy    <     107.01766562 Ry

     iteration #  4     ecut=    30.00 Ry     beta= 0.70
     Davidson diagonalization with overlap

---- Real-time Memory Report at c_bands before calling an iterative solver
           515 MiB given to the printing process from OS
             0 MiB allocation reported by mallinfo(arena+hblkhd)
         92738 MiB available memory on the node where the printing process lives
------------------
     ethr =  9.36E-04,  avg # of iterations =  8.0

     negative rho (up, down):  1.378E-02 0.000E+00

     total cpu time spent up to now is     3689.4 secs

     total energy              =  -29705.12927303 Ry
     estimated scf accuracy    <     144.00404785 Ry

     iteration #  5     ecut=    30.00 Ry     beta= 0.70
     Davidson diagonalization with overlap

---- Real-time Memory Report at c_bands before calling an iterative solver
           515 MiB given to the printing process from OS
             0 MiB allocation reported by mallinfo(arena+hblkhd)
         92737 MiB available memory on the node where the printing process lives
------------------
     ethr =  9.36E-04,  avg # of iterations =  6.8

     negative rho (up, down):  1.366E-02 0.000E+00

     total cpu time spent up to now is     4215.3 secs

     total energy              =  -29711.45569939 Ry
     estimated scf accuracy    <       5.61890502 Ry

     iteration #  6     ecut=    30.00 Ry     beta= 0.70
     Davidson diagonalization with overlap

---- Real-time Memory Report at c_bands before calling an iterative solver
           515 MiB given to the printing process from OS
             0 MiB allocation reported by mallinfo(arena+hblkhd)
         92729 MiB available memory on the node where the printing process lives
------------------
     ethr =  4.24E-04,  avg # of iterations =  4.0

     negative rho (up, down):  2.057E-02 0.000E+00

     total cpu time spent up to now is     4690.8 secs

     total energy              =  -29711.99332188 Ry
     estimated scf accuracy    <       0.20769424 Ry

     iteration #  7     ecut=    30.00 Ry     beta= 0.70
     Davidson diagonalization with overlap

---- Real-time Memory Report at c_bands before calling an iterative solver
           515 MiB given to the printing process from OS
             0 MiB allocation reported by mallinfo(arena+hblkhd)
         92714 MiB available memory on the node where the printing process lives
------------------
     ethr =  1.57E-05,  avg # of iterations = 17.4

     negative rho (up, down):  2.851E-02 0.000E+00

     total cpu time spent up to now is     5276.4 secs

     total energy              =  -29712.00037068 Ry
     estimated scf accuracy    <       0.06562476 Ry

     iteration #  8     ecut=    30.00 Ry     beta= 0.70
     Davidson diagonalization with overlap

---- Real-time Memory Report at c_bands before calling an iterative solver
           515 MiB given to the printing process from OS
             0 MiB allocation reported by mallinfo(arena+hblkhd)
         92690 MiB available memory on the node where the printing process lives
------------------
     ethr =  4.96E-06,  avg # of iterations =  7.6

     negative rho (up, down):  3.333E-02 0.000E+00

     total cpu time spent up to now is     5836.8 secs

     total energy              =  -29712.00047404 Ry
     estimated scf accuracy    <       0.05813602 Ry

     iteration #  9     ecut=    30.00 Ry     beta= 0.70
     Davidson diagonalization with overlap

---- Real-time Memory Report at c_bands before calling an iterative solver
           516 MiB given to the printing process from OS
             0 MiB allocation reported by mallinfo(arena+hblkhd)
         89582 MiB available memory on the node where the printing process lives
------------------
     ethr =  4.39E-06,  avg # of iterations =  3.0

     negative rho (up, down):  3.458E-02 0.000E+00

     total cpu time spent up to now is     6323.0 secs

     total energy              =  -29712.00494644 Ry
     estimated scf accuracy    <       0.04588226 Ry

     iteration # 10     ecut=    30.00 Ry     beta= 0.70
     Davidson diagonalization with overlap

---- Real-time Memory Report at c_bands before calling an iterative solver
           517 MiB given to the printing process from OS
             0 MiB allocation reported by mallinfo(arena+hblkhd)
         89557 MiB available memory on the node where the printing process lives
------------------
     ethr =  3.47E-06,  avg # of iterations =  5.8

     negative rho (up, down):  3.503E-02 0.000E+00

     total cpu time spent up to now is     6804.8 secs

     total energy              =  -29712.00843154 Ry
     estimated scf accuracy    <       0.01409371 Ry

     iteration # 11     ecut=    30.00 Ry     beta= 0.70
     Davidson diagonalization with overlap

---- Real-time Memory Report at c_bands before calling an iterative solver
           518 MiB given to the printing process from OS
             0 MiB allocation reported by mallinfo(arena+hblkhd)
         89522 MiB available memory on the node where the printing process lives
------------------
     c_bands:  3 eigenvalues not converged
     c_bands:  2 eigenvalues not converged
     ethr =  1.06E-06,  avg # of iterations = 13.0

     negative rho (up, down):  4.016E-02 0.000E+00

     total cpu time spent up to now is     7291.9 secs

     total energy              =  -29712.00158671 Ry
     estimated scf accuracy    <       0.01165953 Ry

     iteration # 12     ecut=    30.00 Ry     beta= 0.70
     Davidson diagonalization with overlap

---- Real-time Memory Report at c_bands before calling an iterative solver
           518 MiB given to the printing process from OS
             0 MiB allocation reported by mallinfo(arena+hblkhd)
         89521 MiB available memory on the node where the printing process lives
------------------
     c_bands:  2 eigenvalues not converged
     ethr =  8.81E-07,  avg # of iterations = 14.6

     negative rho (up, down):  3.759E-02 0.000E+00

     total cpu time spent up to now is     7867.4 secs

     total energy              =  -29712.00185734 Ry
     estimated scf accuracy    <       0.00874672 Ry

     iteration # 13     ecut=    30.00 Ry     beta= 0.70
     Davidson diagonalization with overlap

---- Real-time Memory Report at c_bands before calling an iterative solver
           518 MiB given to the printing process from OS
             0 MiB allocation reported by mallinfo(arena+hblkhd)
         89518 MiB available memory on the node where the printing process lives
------------------
     c_bands:  2 eigenvalues not converged
     ethr =  6.61E-07,  avg # of iterations =  6.4

     negative rho (up, down):  3.736E-02 0.000E+00

     total cpu time spent up to now is     8355.8 secs

     total energy              =  -29711.99934615 Ry
     estimated scf accuracy    <       0.01011373 Ry

     iteration # 14     ecut=    30.00 Ry     beta= 0.70
     Davidson diagonalization with overlap

---- Real-time Memory Report at c_bands before calling an iterative solver
           518 MiB given to the printing process from OS
             0 MiB allocation reported by mallinfo(arena+hblkhd)
         89516 MiB available memory on the node where the printing process lives
------------------
     ethr =  6.61E-07,  avg # of iterations =  8.4

     negative rho (up, down):  3.648E-02 0.000E+00

     total cpu time spent up to now is     8870.1 secs

     total energy              =  -29711.99607022 Ry
     estimated scf accuracy    <       0.12372672 Ry

     iteration # 15     ecut=    30.00 Ry     beta= 0.70
     Davidson diagonalization with overlap

---- Real-time Memory Report at c_bands before calling an iterative solver
           518 MiB given to the printing process from OS
             0 MiB allocation reported by mallinfo(arena+hblkhd)
         89515 MiB available memory on the node where the printing process lives
------------------
     ethr =  6.61E-07,  avg # of iterations =  6.4

     negative rho (up, down):  3.613E-02 0.000E+00

     total cpu time spent up to now is     9365.0 secs

     total energy              =  -29712.00273189 Ry
     estimated scf accuracy    <       0.00038540 Ry

     iteration # 16     ecut=    30.00 Ry     beta= 0.70
     Davidson diagonalization with overlap

---- Real-time Memory Report at c_bands before calling an iterative solver
           518 MiB given to the printing process from OS
             0 MiB allocation reported by mallinfo(arena+hblkhd)
         89513 MiB available memory on the node where the printing process lives
------------------
     ethr =  2.91E-08,  avg # of iterations =  2.0

     negative rho (up, down):  3.596E-02 0.000E+00

     total cpu time spent up to now is     9896.9 secs

     total energy              =  -29712.00277656 Ry
     estimated scf accuracy    <       0.00030242 Ry

     iteration # 17     ecut=    30.00 Ry     beta= 0.70
     Davidson diagonalization with overlap

---- Real-time Memory Report at c_bands before calling an iterative solver
           518 MiB given to the printing process from OS
             0 MiB allocation reported by mallinfo(arena+hblkhd)
         91492 MiB available memory on the node where the printing process lives
------------------
     ethr =  2.28E-08,  avg # of iterations =  2.0

     negative rho (up, down):  3.571E-02 0.000E+00

     total cpu time spent up to now is    10349.0 secs

     total energy              =  -29712.00281967 Ry
     estimated scf accuracy    <       0.00008253 Ry

     iteration # 18     ecut=    30.00 Ry     beta= 0.70
     Davidson diagonalization with overlap

---- Real-time Memory Report at c_bands before calling an iterative solver
           518 MiB given to the printing process from OS
             0 MiB allocation reported by mallinfo(arena+hblkhd)
         89515 MiB available memory on the node where the printing process lives
------------------
     ethr =  6.23E-09,  avg # of iterations =  2.0

     negative rho (up, down):  3.560E-02 0.000E+00

     total cpu time spent up to now is    10801.5 secs

     total energy              =  -29712.00282849 Ry
     estimated scf accuracy    <       0.00001205 Ry

     iteration # 19     ecut=    30.00 Ry     beta= 0.70
     Davidson diagonalization with overlap

---- Real-time Memory Report at c_bands before calling an iterative solver
           519 MiB given to the printing process from OS
             0 MiB allocation reported by mallinfo(arena+hblkhd)
         89514 MiB available memory on the node where the printing process lives
------------------
     ethr =  9.10E-10,  avg # of iterations =  2.0

     negative rho (up, down):  3.556E-02 0.000E+00

     total cpu time spent up to now is    11259.0 secs

     total energy              =  -29712.00283025 Ry
     estimated scf accuracy    <       0.00000138 Ry

     iteration # 20     ecut=    30.00 Ry     beta= 0.70
     Davidson diagonalization with overlap

---- Real-time Memory Report at c_bands before calling an iterative solver
           519 MiB given to the printing process from OS
             0 MiB allocation reported by mallinfo(arena+hblkhd)
         89514 MiB available memory on the node where the printing process lives
------------------
     ethr =  1.04E-10,  avg # of iterations =  3.0

     negative rho (up, down):  3.555E-02 0.000E+00

     total cpu time spent up to now is    11747.4 secs

     total energy              =  -29712.00283030 Ry
     estimated scf accuracy    <       0.00000175 Ry

     iteration # 21     ecut=    30.00 Ry     beta= 0.70
     Davidson diagonalization with overlap

---- Real-time Memory Report at c_bands before calling an iterative solver
           519 MiB given to the printing process from OS
             0 MiB allocation reported by mallinfo(arena+hblkhd)
         89513 MiB available memory on the node where the printing process lives
------------------
     ethr =  1.04E-10,  avg # of iterations =  2.0

     negative rho (up, down):  3.552E-02 0.000E+00

     total cpu time spent up to now is    12203.2 secs

     End of self-consistent calculation

          k = 0.0000 0.0000 0.0000 ( 42115 PWs)   bands (ev):

  -123.0001-122.9980-122.9970-122.9963-122.9961-122.9958-122.9955-122.9953
  -122.9951-122.9949-122.9946-122.9945-122.9938-122.9936-122.9930-122.9927
  -122.9648-122.9616-122.9604-122.9565-122.9553-122.9544-122.9534-122.9519
  -122.9505-122.9493-122.9485-122.9478-122.9477-122.9471-122.9470-122.9468
  -122.7967-122.7946-122.7941-122.7938-122.7935-122.7934-122.7934-122.7930
  -122.7929-122.7925-122.7925-122.7924-122.7916-122.7913-122.7912-122.7907
  -122.7900-122.7894-122.7890-122.7814-122.7734-122.7719-122.7710-122.7708
  -122.7705-122.7704-122.7695-122.7692-122.7684-122.7678-122.7671-122.7657
   -77.1081 -77.1079 -77.1078 -77.0991 -77.0989 -77.0985 -77.0984 -77.0982
   -77.0979 -77.0863 -77.0849 -77.0836 -77.0835 -77.0829 -77.0826 -77.0822
   -77.0822 -77.0819 -77.0817 -77.0816 -77.0814 -77.0808 -77.0804 -77.0797
   -77.0796 -77.0763 -77.0761 -77.0759 -77.0755 -77.0752 -77.0751 -77.0731
   -77.0730 -77.0729 -77.0725 -77.0721 -77.0718 -77.0713 -77.0707 -77.0688
   -77.0683 -77.0680 -77.0680 -77.0678 -77.0676 -77.0675 -77.0672 -77.0670
   -77.0668 -77.0664 -77.0662 -77.0575 -77.0570 -77.0557 -77.0547 -77.0545
   -77.0538 -77.0506 -77.0476 -77.0464 -77.0426 -77.0412 -77.0406 -77.0394
   -77.0382 -77.0379 -77.0372 -77.0365 -77.0355 -77.0353 -77.0347 -77.0347
   -77.0342 -77.0339 -77.0336 -77.0335 -77.0334 -77.0332 -77.0326 -77.0323
   -77.0311 -77.0303 -77.0286 -77.0281 -77.0277 -77.0266 -77.0259 -77.0254
   -77.0242 -77.0236 -77.0227 -77.0220 -77.0218 -77.0212 -77.0207 -77.0200
   -76.9026 -76.9025 -76.9024 -76.8934 -76.8933 -76.8926 -76.8925 -76.8924
   -76.8923 -76.8911 -76.8903 -76.8895 -76.8891 -76.8885 -76.8884 -76.8880
   -76.8878 -76.8875 -76.8874 -76.8871 -76.8868 -76.8867 -76.8865 -76.8854
   -76.8853 -76.8853 -76.8849 -76.8847 -76.8836 -76.8834 -76.8831 -76.8816
   -76.8763 -76.8760 -76.8744 -76.8736 -76.8730 -76.8716 -76.8703 -76.8702
   -76.8699 -76.8698 -76.8694 -76.8691 -76.8683 -76.8677 -76.8673 -76.8672
   -76.8667 -76.8666 -76.8662 -76.8659 -76.8656 -76.8653 -76.8652 -76.8650
   -76.8649 -76.8649 -76.8642 -76.8640 -76.8638 -76.8632 -76.8631 -76.8625
   -76.8624 -76.8623 -76.8619 -76.8618 -76.8615 -76.8611 -76.8608 -76.8605
   -76.8604 -76.8602 -76.8593 -76.8584 -76.8569 -76.8531 -76.8523 -76.8494
   -76.8490 -76.8461 -76.8452 -76.8448 -76.8440 -76.8433 -76.8431 -76.8421
   -76.8415 -76.8407 -76.8397 -76.8392 -76.8385 -76.8382 -76.8373 -76.8370
   -15.5753 -14.2039 -13.3738 -10.9935 -10.8961  -7.9608  -7.6764  -6.4499
    -5.7943  -5.6633  -5.1738  -5.1721  -4.9673  -4.8902  -4.8724  -4.8710
    -4.8697  -4.8677  -4.8657  -4.8649  -4.7186  -4.7185  -4.7185  -4.6666
    -4.6666  -4.6665  -4.5434  -4.5426  -4.5400  -4.5384  -4.5378  -4.5372
    -4.5305  -4.5304  -4.5303  -4.4588  -4.4583  -4.4582  -4.3861  -4.3858
    -4.3853  -4.3852  -4.3850  -4.3848  -4.3616  -4.3615  -4.3615  -4.3167
    -4.3159  -4.3144  -4.3140  -4.3136  -4.3125  -4.3101  -4.3095  -4.3087
    -4.3085  -4.3076  -4.3071  -4.2940  -4.2938  -4.2936  -4.2636  -4.2633
    -4.2625  -4.2623  -4.2622  -4.2617  -4.2203  -4.2201  -4.2191  -4.2182
    -4.2171  -4.2167  -4.1592  -4.1309  -4.1291  -4.1278  -4.1258  -4.1256
    -4.1253  -4.1249  -4.1245  -4.1240  -4.1239  -4.1234  -4.1232  -4.0809
    -4.0802  -4.0798  -4.0789  -4.0786  -4.0781  -4.0754  -4.0742  -4.0735
    -4.0729  -4.0703  -4.0692  -4.0678  -4.0673  -4.0669  -4.0311  -4.0308
    -4.0285  -4.0273  -4.0269  -4.0261  -3.9930  -3.9926  -3.9920  -3.9900
    -3.9884  -3.9870  -3.9555  -3.9555  -3.9428  -3.9426  -3.9424  -3.9416
    -3.9412  -3.9405  -3.9387  -3.9379  -3.9375  -3.9324  -3.9314  -3.9308
    -3.9302  -3.9298  -3.9294  -3.9177  -3.9062  -3.9060  -3.8738  -3.8738
    -3.8730  -3.8727  -3.8722  -3.8713  -3.8555  -3.8548  -3.8532  -3.8527
    -3.8520  -3.8516  -3.8179  -3.8172  -3.8167  -3.8162  -3.8160  -3.8158
    -3.7846  -3.7841  -3.7831  -3.7829  -3.7825  -3.7825  -3.7459  -3.7459
    -3.7219  -3.7218  -3.7162  -3.7156  -3.7153  -3.7151  -3.7150  -3.7144
    -3.6798  -3.6798  -3.6798  -3.6687  -3.6682  -3.6680  -3.6671  -3.6663
    -3.6657  -3.6463  -3.6455  -3.6450  -3.6442  -3.6422  -3.6418  -3.6152
    -3.6146  -3.6135  -3.6133  -3.6131  -3.6127  -3.6094  -3.6094  -3.6092
    -3.6091  -3.6090  -3.6090  -3.5975  -3.5974  -3.5969  -3.5956  -3.5953
    -3.5950  -3.5947  -3.5944  -3.5941  -3.5899  -3.5892  -3.5882  -3.5867
    -3.5859  -3.5854  -3.5835  -3.5826  -3.5825  -3.5823  -3.5818  -3.5814
    -3.5616  -3.5616  -3.5611  -3.5610  -3.5607  -3.5604  -3.5237  -3.5235
    -3.5232  -3.5111  -3.5105  -3.5098  -3.5094  -3.5089  -3.5087  -3.5062
    -3.5059  -3.5057  -3.5046  -3.5028  -3.5025  -3.4670  -3.4669  -3.4465
    -3.4463  -3.4462  -3.4459  -3.4453  -3.4451  -3.4427  -3.4420  -3.4419
    -3.4410  -3.4390  -3.4383  -3.4363  -3.4359  -3.4356  -3.4351  -3.4340
    -3.4334  -3.4272  -3.4270  -3.4268  -3.4261  -3.4258  -3.4254  -3.3694
    -3.3691  -3.3618  -3.3614  -3.3607  -3.3293  -3.3290  -3.3287  -3.3286
    -3.3283  -3.3281  -3.3254  -3.3251  -3.3248  -3.3160  -3.3133  -3.3118
    -3.3109  -3.3089  -3.3081  -3.3080  -3.3080  -3.3074  -3.2877  -3.2874
    -3.2874  -3.2833  -3.2823  -3.2817  -3.2809  -3.2807  -3.2802  -3.2540
    -3.2538  -3.2534  -3.2525  -3.2519  -3.2516  -3.2383  -3.2382  -3.2377
    -3.2367  -3.2357  -3.2352  -3.2292  -3.2284  -3.2279  -3.2079  -3.2079
    -3.1938  -3.1934  -3.1539  -3.1532  -3.1531  -3.1529  -3.1527  -3.1526
    -3.1474  -3.1439  -3.1433  -3.1431  -3.1427  -3.1426  -3.1264  -3.1219
    -3.1219  -3.1219  -3.0790  -3.0790  -3.0789  -3.0543  -2.9899  -2.9156
    -2.9156  -2.9156  -2.8976  -2.8969  -2.8967  -2.8638  -2.8614  -2.8597
    -2.8568  -2.8555  -2.8537  -2.6383  -2.1487  -1.8543  -1.4503  -1.4494
    -1.4482  -1.4473  -1.4466  -1.4401  -0.9880  -0.9455  -0.7629  -0.1636
     0.0155   0.0163   0.0176   0.0186   0.0192   0.0200   0.2546   0.4266
     0.4467   0.4478   0.4486   0.4496   0.4531   0.5056   0.8555   0.8586
     0.8601   0.8619   0.8624   0.8638   1.1904   1.2114   1.3182   1.3185
     1.3186   1.8788   1.8793   1.8797   2.2301   2.2306   2.2312   2.2752
     2.2793   2.2799   2.2805   2.2812   2.2821   2.4730   2.4748   2.4762
     2.5598   3.4694   3.4776   3.4874   3.4886   3.4908   3.4995   3.9740
     3.9753   3.9772   3.9780   3.9800   3.9805   4.1412   4.5640   4.5664
     4.5699   4.8488   4.8500   4.8516   5.6799   5.6826   5.6838   5.9523
     5.9562   5.9964   6.0046   6.0196   6.0262   6.1874   6.2016   6.3556
     6.5884   6.5916   6.5995   6.8690   7.0721   7.3270   7.3300   7.3478
     7.3517   7.3542   7.3549   7.5757   7.5759   7.5771   7.5788   7.5797
     7.5808   7.7173   7.7386   7.7390   7.7423   7.7437   7.7449   7.7451
     7.7531   7.8657   7.9295   8.0220   8.0497   8.2080   8.4640   8.4677
     8.4700   8.4711   8.4728   8.4738   8.5024   8.5101   8.5242   8.5312
     8.5436   8.5451   8.5455   8.5478   8.5517   8.5523   8.5866   8.6253
     8.6626   8.6942   8.7235   8.7421   8.7806   8.7931   8.8052   8.8291
     8.9126   9.1899   9.2760   9.3631   9.4744   9.4928   9.5592   9.5712
     9.5959   9.6507   9.9549   9.9590   9.9896   9.9940   9.9963  10.0023
    10.0381  10.0408  10.0492  10.0505  10.0518  10.0522  10.0961  10.1323
    10.1443  10.1883  10.2675  10.2801  10.2867  10.3499  10.4168  10.4294
    10.5174  10.5496  10.6502  10.7088  10.7359  10.8163  11.0976  11.1882
    11.2625  11.2769  11.2913  11.2986  11.3665  11.3932  11.4120  11.4220
    11.4286  11.4463

     occupation numbers 
     1.0000   1.0000   1.0000   1.0000   1.0000   1.0000   1.0000   1.0000
     1.0000   1.0000   1.0000   1.0000   1.0000   1.0000   1.0000   1.0000
     1.0000   1.0000   1.0000   1.0000   1.0000   1.0000   1.0000   1.0000
     1.0000   1.0000   1.0000   1.0000   1.0000   1.0000   1.0000   1.0000
     1.0000   1.0000   1.0000   1.0000   1.0000   1.0000   1.0000   1.0000
     1.0000   1.0000   1.0000   1.0000   1.0000   1.0000   1.0000   1.0000
     1.0000   1.0000   1.0000   1.0000   1.0000   1.0000   1.0000   1.0000
     1.0000   1.0000   1.0000   1.0000   1.0000   1.0000   1.0000   1.0000
     1.0000   1.0000   1.0000   1.0000   1.0000   1.0000   1.0000   1.0000
     1.0000   1.0000   1.0000   1.0000   1.0000   1.0000   1.0000   1.0000
     1.0000   1.0000   1.0000   1.0000   1.0000   1.0000   1.0000   1.0000
     1.0000   1.0000   1.0000   1.0000   1.0000   1.0000   1.0000   1.0000
     1.0000   1.0000   1.0000   1.0000   1.0000   1.0000   1.0000   1.0000
     1.0000   1.0000   1.0000   1.0000   1.0000   1.0000   1.0000   1.0000
     1.0000   1.0000   1.0000   1.0000   1.0000   1.0000   1.0000   1.0000
     1.0000   1.0000   1.0000   1.0000   1.0000   1.0000   1.0000   1.0000
     1.0000   1.0000   1.0000   1.0000   1.0000   1.0000   1.0000   1.0000
     1.0000   1.0000   1.0000   1.0000   1.0000   1.0000   1.0000   1.0000
     1.0000   1.0000   1.0000   1.0000   1.0000   1.0000   1.0000   1.0000
     1.0000   1.0000   1.0000   1.0000   1.0000   1.0000   1.0000   1.0000
     1.0000   1.0000   1.0000   1.0000   1.0000   1.0000   1.0000   1.0000
     1.0000   1.0000   1.0000   1.0000   1.0000   1.0000   1.0000   1.0000
     1.0000   1.0000   1.0000   1.0000   1.0000   1.0000   1.0000   1.0000
     1.0000   1.0000   1.0000   1.0000   1.0000   1.0000   1.0000   1.0000
     1.0000   1.0000   1.0000   1.0000   1.0000   1.0000   1.0000   1.0000
     1.0000   1.0000   1.0000   1.0000   1.0000   1.0000   1.0000   1.0000
     1.0000   1.0000   1.0000   1.0000   1.0000   1.0000   1.0000   1.0000
     1.0000   1.0000   1.0000   1.0000   1.0000   1.0000   1.0000   1.0000
     1.0000   1.0000   1.0000   1.0000   1.0000   1.0000   1.0000   1.0000
     1.0000   1.0000   1.0000   1.0000   1.0000   1.0000   1.0000   1.0000
     1.0000   1.0000   1.0000   1.0000   1.0000   1.0000   1.0000   1.0000
     1.0000   1.0000   1.0000   1.0000   1.0000   1.0000   1.0000   1.0000
     1.0000   1.0000   1.0000   1.0000   1.0000   1.0000   1.0000   1.0000
     1.0000   1.0000   1.0000   1.0000   1.0000   1.0000   1.0000   1.0000
     1.0000   1.0000   1.0000   1.0000   1.0000   1.0000   1.0000   1.0000
     1.0000   1.0000   1.0000   1.0000   1.0000   1.0000   1.0000   1.0000
     1.0000   1.0000   1.0000   1.0000   1.0000   1.0000   1.0000   1.0000
     1.0000   1.0000   1.0000   1.0000   1.0000   1.0000   1.0000   1.0000
     1.0000   1.0000   1.0000   1.0000   1.0000   1.0000   1.0000   1.0000
     1.0000   1.0000   1.0000   1.0000   1.0000   1.0000   1.0000   1.0000
     1.0000   1.0000   1.0000   1.0000   1.0000   1.0000   1.0000   1.0000
     1.0000   1.0000   1.0000   1.0000   1.0000   1.0000   1.0000   1.0000
     1.0000   1.0000   1.0000   1.0000   1.0000   1.0000   1.0000   1.0000
     1.0000   1.0000   1.0000   1.0000   1.0000   1.0000   1.0000   1.0000
     1.0000   1.0000   1.0000   1.0000   1.0000   1.0000   1.0000   1.0000
     1.0000   1.0000   1.0000   1.0000   1.0000   1.0000   1.0000   1.0000
     1.0000   1.0000   1.0000   1.0000   1.0000   1.0000   1.0000   1.0000
     1.0000   1.0000   1.0000   1.0000   1.0000   1.0000   1.0000   1.0000
     1.0000   1.0000   1.0000   1.0000   1.0000   1.0000   1.0000   1.0000
     1.0000   1.0000   1.0000   1.0000   1.0000   1.0000   1.0000   1.0000
     1.0000   1.0000   1.0000   1.0000   1.0000   1.0000   1.0000   1.0000
     1.0000   1.0000   1.0000   1.0000   1.0000   1.0000   1.0000   1.0000
     1.0000   1.0000   1.0000   1.0000   1.0000   1.0000   1.0000   1.0000
     1.0000   1.0000   1.0000   1.0000   1.0000   1.0000   1.0000   1.0000
     1.0000   1.0000   1.0000   1.0000   1.0000   1.0000   1.0000   1.0000
     1.0000   1.0000   1.0000   1.0000   1.0000   1.0000   1.0000   1.0000
     1.0000   1.0000   1.0000   1.0000   1.0000   1.0000   1.0000   1.0000
     1.0000   1.0000   1.0000   1.0000   1.0000   1.0000   1.0000   1.0000
     1.0000   1.0000   1.0000   1.0000   1.0000   1.0000   1.0000   1.0000
     1.0000   1.0000   1.0000   1.0000   1.0000   1.0000   1.0000   1.0000
     1.0000   1.0000   1.0000   1.0000   1.0000   1.0000   1.0000   1.0000
     1.0000   1.0000   1.0000   1.0000   1.0000   1.0000   1.0000   1.0000
     1.0000   1.0000   1.0000   1.0000   1.0000   1.0000   1.0000   1.0000
     1.0000   1.0000   1.0000   1.0000   1.0000   1.0000   1.0000   1.0000
     1.0000   1.0000   1.0000   1.0000   1.0000   1.0000   1.0000   1.0000
     1.0000   1.0000   1.0000   1.0000   1.0000   1.0000   1.0000   1.0000
     1.0000   1.0000   1.0000   1.0000   1.0000   1.0000   1.0000   1.0000
     1.0000   1.0000   1.0000   1.0000   1.0000   1.0000   1.0000   1.0000
     1.0000   1.0000   1.0000   1.0000   1.0000   1.0000   1.0000   1.0000
     1.0000   1.0000   1.0000   1.0000   1.0000   1.0000   1.0000   1.0000
     1.0000   1.0000   1.0000   1.0000   1.0000   1.0000   1.0000   1.0000
     1.0000   1.0000   1.0000   1.0000   1.0000   1.0000   1.0000   1.0000
     1.0000   1.0000   1.0000   1.0000   1.0000   1.0000   1.0000   1.0000
     1.0000   1.0000   1.0000   1.0000   1.0000   1.0000   1.0000   1.0000
     1.0000   1.0000   1.0000   1.0000   1.0000   1.0000   1.0000   1.0000
     1.0000   1.0000   1.0000   1.0000   1.0000   1.0000   1.0000   1.0000
     1.0000   1.0000   1.0000   1.0000   1.0000   1.0000   1.0000   1.0000
     1.0000   1.0000   1.0000   1.0000   1.0000   1.0000   1.0000   1.0000
     1.0000   1.0000   1.0000   1.0000   1.0000   1.0000   1.0000   1.0000
     1.0000   1.0000   1.0000   1.0000   1.0000   1.0000   1.0000   1.0000
     1.0000   1.0000   1.0000   1.0000   1.0000   1.0000   1.0000   1.0000
     1.0000   1.0000   1.0000   1.0000   1.0000   1.0000   1.0000   1.0000
     1.0000   1.0339   1.0364   1.0394   1.0398   1.0405   1.0433   0.5696
     0.5660   0.5608   0.5586   0.5531   0.5517   0.1837   0.0005   0.0004
     0.0004   0.0000   0.0000   0.0000   0.0000   0.0000   0.0000   0.0000
     0.0000   0.0000   0.0000   0.0000   0.0000   0.0000   0.0000   0.0000
     0.0000   0.0000   0.0000   0.0000   0.0000   0.0000   0.0000   0.0000
     0.0000   0.0000   0.0000   0.0000   0.0000   0.0000   0.0000   0.0000
     0.0000   0.0000   0.0000   0.0000   0.0000   0.0000   0.0000   0.0000
     0.0000   0.0000   0.0000   0.0000   0.0000   0.0000   0.0000   0.0000
     0.0000   0.0000   0.0000   0.0000   0.0000   0.0000   0.0000   0.0000
     0.0000   0.0000   0.0000   0.0000   0.0000   0.0000   0.0000   0.0000
     0.0000   0.0000   0.0000   0.0000   0.0000   0.0000   0.0000   0.0000
     0.0000   0.0000   0.0000   0.0000   0.0000   0.0000   0.0000   0.0000
     0.0000   0.0000   0.0000   0.0000   0.0000   0.0000   0.0000   0.0000
     0.0000   0.0000   0.0000   0.0000   0.0000   0.0000   0.0000   0.0000
     0.0000   0.0000   0.0000   0.0000   0.0000   0.0000   0.0000   0.0000
     0.0000   0.0000   0.0000   0.0000   0.0000   0.0000   0.0000   0.0000
     0.0000   0.0000   0.0000   0.0000   0.0000   0.0000   0.0000   0.0000
     0.0000   0.0000

          k = 0.0000 0.3849 0.0000 ( 42150 PWs)   bands (ev):

  -122.9993-122.9979-122.9971-122.9966-122.9962-122.9959-122.9957-122.9954
  -122.9953-122.9952-122.9950-122.9948-122.9941-122.9939-122.9933-122.9930
  -122.9648-122.9617-122.9606-122.9565-122.9553-122.9547-122.9534-122.9521
  -122.9505-122.9495-122.9486-122.9481-122.9478-122.9474-122.9473-122.9472
  -122.7956-122.7947-122.7944-122.7940-122.7938-122.7937-122.7935-122.7933
  -122.7931-122.7928-122.7927-122.7923-122.7920-122.7916-122.7914-122.7911
  -122.7902-122.7898-122.7894-122.7816-122.7729-122.7719-122.7714-122.7710
  -122.7709-122.7707-122.7697-122.7694-122.7687-122.7681-122.7675-122.7660
   -77.1069 -77.1068 -77.1034 -77.1004 -77.1003 -77.0995 -77.0991 -77.0931
   -77.0930 -77.0881 -77.0865 -77.0853 -77.0849 -77.0847 -77.0845 -77.0839
   -77.0834 -77.0832 -77.0827 -77.0825 -77.0824 -77.0821 -77.0819 -77.0816
   -77.0814 -77.0809 -77.0806 -77.0800 -77.0791 -77.0788 -77.0787 -77.0785
   -77.0751 -77.0747 -77.0734 -77.0730 -77.0710 -77.0708 -77.0683 -77.0676
   -77.0673 -77.0670 -77.0664 -77.0663 -77.0656 -77.0654 -77.0651 -77.0642
   -77.0639 -77.0635 -77.0629 -77.0579 -77.0571 -77.0562 -77.0549 -77.0511
   -77.0505 -77.0499 -77.0479 -77.0467 -77.0453 -77.0429 -77.0426 -77.0422
   -77.0417 -77.0409 -77.0399 -77.0396 -77.0391 -77.0382 -77.0376 -77.0368
   -77.0362 -77.0357 -77.0353 -77.0346 -77.0340 -77.0337 -77.0330 -77.0327
   -77.0322 -77.0317 -77.0296 -77.0292 -77.0284 -77.0277 -77.0256 -77.0250
   -77.0237 -77.0226 -77.0217 -77.0203 -77.0201 -77.0194 -77.0181 -77.0172
   -76.9012 -76.9012 -76.8979 -76.8948 -76.8947 -76.8937 -76.8934 -76.8912
   -76.8907 -76.8902 -76.8897 -76.8893 -76.8891 -76.8886 -76.8882 -76.8880
   -76.8876 -76.8874 -76.8871 -76.8870 -76.8867 -76.8863 -76.8860 -76.8856
   -76.8854 -76.8851 -76.8847 -76.8842 -76.8837 -76.8830 -76.8823 -76.8822
   -76.8816 -76.8789 -76.8788 -76.8771 -76.8766 -76.8766 -76.8761 -76.8742
   -76.8730 -76.8727 -76.8724 -76.8718 -76.8694 -76.8690 -76.8686 -76.8682
   -76.8679 -76.8675 -76.8671 -76.8670 -76.8666 -76.8661 -76.8656 -76.8651
   -76.8649 -76.8645 -76.8642 -76.8639 -76.8637 -76.8635 -76.8624 -76.8620
   -76.8620 -76.8617 -76.8613 -76.8610 -76.8604 -76.8602 -76.8601 -76.8599
   -76.8596 -76.8591 -76.8584 -76.8579 -76.8575 -76.8571 -76.8561 -76.8548
   -76.8517 -76.8509 -76.8482 -76.8469 -76.8454 -76.8448 -76.8432 -76.8420
   -76.8413 -76.8393 -76.8388 -76.8381 -76.8367 -76.8363 -76.8345 -76.8344
   -15.5753 -14.2039 -13.3738 -10.9936 -10.8961  -7.9608  -7.6763  -6.2377
    -5.7940  -5.6316  -5.4665  -5.1742  -5.1725  -5.0919  -5.0903  -4.9399
    -4.8314  -4.7767  -4.6886  -4.6505  -4.6504  -4.6418  -4.6340  -4.5955
    -4.5954  -4.5724  -4.5722  -4.5648  -4.5636  -4.5624  -4.5431  -4.4980
    -4.4913  -4.4789  -4.4789  -4.4515  -4.4513  -4.4498  -4.4494  -4.4271
    -4.4178  -4.4027  -4.4026  -4.3886  -4.3882  -4.3734  -4.3731  -4.3624
    -4.3623  -4.3560  -4.3509  -4.3508  -4.3316  -4.3296  -4.3294  -4.3267
    -4.3265  -4.3152  -4.3151  -4.2908  -4.2905  -4.2853  -4.2842  -4.2800
    -4.2798  -4.2654  -4.2626  -4.2624  -4.2531  -4.2526  -4.2471  -4.2466
    -4.2459  -4.2145  -4.2144  -4.2111  -4.2103  -4.1900  -4.1896  -4.1863
    -4.1858  -4.1821  -4.1815  -4.1804  -4.1373  -4.1363  -4.1320  -4.1314
    -4.1310  -4.1102  -4.1095  -4.1061  -4.1059  -4.0910  -4.0909  -4.0851
    -4.0643  -4.0641  -4.0615  -4.0610  -4.0580  -4.0574  -4.0533  -4.0527
    -4.0519  -4.0285  -4.0283  -4.0243  -4.0237  -4.0218  -4.0163  -4.0155
    -4.0121  -4.0110  -4.0102  -4.0006  -3.9999  -3.9894  -3.9887  -3.9876
    -3.9760  -3.9484  -3.9435  -3.9427  -3.9356  -3.9235  -3.9227  -3.9209
    -3.9198  -3.9184  -3.9097  -3.9092  -3.9081  -3.9036  -3.9032  -3.9005
    -3.8825  -3.8817  -3.8790  -3.8787  -3.8591  -3.8589  -3.8531  -3.8413
    -3.8314  -3.8299  -3.8293  -3.8212  -3.8210  -3.8051  -3.8045  -3.7962
    -3.7957  -3.7933  -3.7930  -3.7807  -3.7689  -3.7688  -3.7673  -3.7554
    -3.7547  -3.7524  -3.7475  -3.7408  -3.7391  -3.7382  -3.7369  -3.7361
    -3.7112  -3.7111  -3.7066  -3.7062  -3.7042  -3.6932  -3.6865  -3.6863
    -3.6821  -3.6683  -3.6681  -3.6554  -3.6552  -3.6352  -3.6342  -3.6336
    -3.6324  -3.6322  -3.6248  -3.6246  -3.6229  -3.6204  -3.6202  -3.6085
    -3.6075  -3.6022  -3.6019  -3.5962  -3.5959  -3.5879  -3.5873  -3.5820
    -3.5816  -3.5737  -3.5736  -3.5704  -3.5669  -3.5660  -3.5644  -3.5642
    -3.5519  -3.5501  -3.5498  -3.5369  -3.5367  -3.5305  -3.5300  -3.5278
    -3.5208  -3.5204  -3.5175  -3.5163  -3.5152  -3.5134  -3.5109  -3.5102
    -3.5059  -3.4908  -3.4903  -3.4895  -3.4893  -3.4889  -3.4883  -3.4844
    -3.4839  -3.4828  -3.4768  -3.4592  -3.4566  -3.4565  -3.4509  -3.4501
    -3.4360  -3.4354  -3.4230  -3.4226  -3.4013  -3.3992  -3.3982  -3.3979
    -3.3965  -3.3962  -3.3942  -3.3937  -3.3876  -3.3868  -3.3862  -3.3853
    -3.3781  -3.3781  -3.3756  -3.3711  -3.3701  -3.3647  -3.3644  -3.3628
    -3.3620  -3.3579  -3.3569  -3.3565  -3.3553  -3.3549  -3.3457  -3.3366
    -3.3358  -3.3332  -3.3329  -3.3191  -3.3139  -3.3136  -3.3057  -3.3054
    -3.3032  -3.3014  -3.3009  -3.2836  -3.2748  -3.2744  -3.2726  -3.2723
    -3.2679  -3.2676  -3.2672  -3.2668  -3.2661  -3.2608  -3.2590  -3.2587
    -3.2495  -3.2493  -3.2476  -3.2461  -3.2422  -3.2410  -3.2383  -3.2380
    -3.2364  -3.2363  -3.2293  -3.2200  -3.2196  -3.2153  -3.2149  -3.2144
    -3.2119  -3.1958  -3.1948  -3.1947  -3.1767  -3.1599  -3.1595  -3.1581
    -3.1579  -3.1403  -3.1360  -3.1358  -3.1349  -3.1343  -3.1288  -3.1240
    -3.1204  -3.1171  -3.1061  -3.0543  -3.0259  -3.0252  -3.0100  -3.0100
    -2.9920  -2.9917  -2.9722  -2.9536  -2.8239  -2.8235  -2.7553  -2.6392
    -2.4583  -2.2751  -2.1507  -2.1330  -2.1308  -1.8582  -1.7805  -1.7698
    -1.6492  -1.6485  -1.6200  -0.9526  -0.8581  -0.8559  -0.8319  -0.7655
    -0.6778  -0.6760  -0.6158  -0.3721  -0.1635  -0.1230   0.1153   0.1183
     0.1702   0.1702   0.2234   0.2542   0.4769   0.5768   0.5810   0.6677
     0.6678   1.0096   1.0098   1.1737   1.1756   1.2120   1.4685   1.4689
     1.4738   1.6269   1.7013   2.1112   2.1119   2.2670   2.3493   2.3535
     2.4050   2.4067   2.5651   2.6575   2.6593   2.9562   2.9578   3.0119
     3.0168   3.0856   3.0863   3.1461   3.9550   3.9557   4.2526   4.2532
     4.3492   4.3952   4.4015   4.5515   4.5523   4.7885   4.7894   4.9787
     5.0427   5.1514   5.2010   5.2021   5.5856   5.6082   5.6345   5.6353
     5.7046   5.7081   5.7881   5.7901   5.7934   5.9016   5.9036   6.1127
     6.2606   6.2645   6.3424   6.3496   6.3509   6.4108   6.6651   6.7872
     6.8247   6.9853   7.0535   7.0558   7.0687   7.2185   7.2190   7.2690
     7.3198   7.3326   7.3401   7.3996   7.5270   7.5509   7.5629   7.6028
     7.8004   7.8594   7.9134   7.9425   7.9603   7.9730   7.9883   7.9957
     8.1310   8.1330   8.1450   8.1491   8.2479   8.3357   8.4397   8.4736
     8.5256   8.5353   8.5378   8.5934   8.7619   8.7756   8.8003   8.8113
     8.8684   8.9085   9.0047   9.1598   9.1764   9.2094   9.2709   9.2778
     9.2999   9.3826   9.4048   9.4417   9.5225   9.5321   9.6071   9.6575
     9.6608   9.6645   9.7665   9.7811   9.7871   9.8160   9.9978  10.0397
    10.0542  10.1089  10.1481  10.1691  10.1815  10.2282  10.2632  10.2888
    10.3046  10.4071  10.4294  10.4631  10.5703  10.5898  10.6031  10.6746
    10.6980  10.8396  10.8635  10.8852  10.8896  10.9873  11.0439  11.0873
    11.1214  11.1288  11.1407  11.1540  11.1621  11.1676  11.2212  11.2682
    11.3738  11.4152

     occupation numbers 
     1.0000   1.0000   1.0000   1.0000   1.0000   1.0000   1.0000   1.0000
     1.0000   1.0000   1.0000   1.0000   1.0000   1.0000   1.0000   1.0000
     1.0000   1.0000   1.0000   1.0000   1.0000   1.0000   1.0000   1.0000
     1.0000   1.0000   1.0000   1.0000   1.0000   1.0000   1.0000   1.0000
     1.0000   1.0000   1.0000   1.0000   1.0000   1.0000   1.0000   1.0000
     1.0000   1.0000   1.0000   1.0000   1.0000   1.0000   1.0000   1.0000
     1.0000   1.0000   1.0000   1.0000   1.0000   1.0000   1.0000   1.0000
     1.0000   1.0000   1.0000   1.0000   1.0000   1.0000   1.0000   1.0000
     1.0000   1.0000   1.0000   1.0000   1.0000   1.0000   1.0000   1.0000
     1.0000   1.0000   1.0000   1.0000   1.0000   1.0000   1.0000   1.0000
     1.0000   1.0000   1.0000   1.0000   1.0000   1.0000   1.0000   1.0000
     1.0000   1.0000   1.0000   1.0000   1.0000   1.0000   1.0000   1.0000
     1.0000   1.0000   1.0000   1.0000   1.0000   1.0000   1.0000   1.0000
     1.0000   1.0000   1.0000   1.0000   1.0000   1.0000   1.0000   1.0000
     1.0000   1.0000   1.0000   1.0000   1.0000   1.0000   1.0000   1.0000
     1.0000   1.0000   1.0000   1.0000   1.0000   1.0000   1.0000   1.0000
     1.0000   1.0000   1.0000   1.0000   1.0000   1.0000   1.0000   1.0000
     1.0000   1.0000   1.0000   1.0000   1.0000   1.0000   1.0000   1.0000
     1.0000   1.0000   1.0000   1.0000   1.0000   1.0000   1.0000   1.0000
     1.0000   1.0000   1.0000   1.0000   1.0000   1.0000   1.0000   1.0000
     1.0000   1.0000   1.0000   1.0000   1.0000   1.0000   1.0000   1.0000
     1.0000   1.0000   1.0000   1.0000   1.0000   1.0000   1.0000   1.0000
     1.0000   1.0000   1.0000   1.0000   1.0000   1.0000   1.0000   1.0000
     1.0000   1.0000   1.0000   1.0000   1.0000   1.0000   1.0000   1.0000
     1.0000   1.0000   1.0000   1.0000   1.0000   1.0000   1.0000   1.0000
     1.0000   1.0000   1.0000   1.0000   1.0000   1.0000   1.0000   1.0000
     1.0000   1.0000   1.0000   1.0000   1.0000   1.0000   1.0000   1.0000
     1.0000   1.0000   1.0000   1.0000   1.0000   1.0000   1.0000   1.0000
     1.0000   1.0000   1.0000   1.0000   1.0000   1.0000   1.0000   1.0000
     1.0000   1.0000   1.0000   1.0000   1.0000   1.0000   1.0000   1.0000
     1.0000   1.0000   1.0000   1.0000   1.0000   1.0000   1.0000   1.0000
     1.0000   1.0000   1.0000   1.0000   1.0000   1.0000   1.0000   1.0000
     1.0000   1.0000   1.0000   1.0000   1.0000   1.0000   1.0000   1.0000
     1.0000   1.0000   1.0000   1.0000   1.0000   1.0000   1.0000   1.0000
     1.0000   1.0000   1.0000   1.0000   1.0000   1.0000   1.0000   1.0000
     1.0000   1.0000   1.0000   1.0000   1.0000   1.0000   1.0000   1.0000
     1.0000   1.0000   1.0000   1.0000   1.0000   1.0000   1.0000   1.0000
     1.0000   1.0000   1.0000   1.0000   1.0000   1.0000   1.0000   1.0000
     1.0000   1.0000   1.0000   1.0000   1.0000   1.0000   1.0000   1.0000
     1.0000   1.0000   1.0000   1.0000   1.0000   1.0000   1.0000   1.0000
     1.0000   1.0000   1.0000   1.0000   1.0000   1.0000   1.0000   1.0000
     1.0000   1.0000   1.0000   1.0000   1.0000   1.0000   1.0000   1.0000
     1.0000   1.0000   1.0000   1.0000   1.0000   1.0000   1.0000   1.0000
     1.0000   1.0000   1.0000   1.0000   1.0000   1.0000   1.0000   1.0000
     1.0000   1.0000   1.0000   1.0000   1.0000   1.0000   1.0000   1.0000
     1.0000   1.0000   1.0000   1.0000   1.0000   1.0000   1.0000   1.0000
     1.0000   1.0000   1.0000   1.0000   1.0000   1.0000   1.0000   1.0000
     1.0000   1.0000   1.0000   1.0000   1.0000   1.0000   1.0000   1.0000
     1.0000   1.0000   1.0000   1.0000   1.0000   1.0000   1.0000   1.0000
     1.0000   1.0000   1.0000   1.0000   1.0000   1.0000   1.0000   1.0000
     1.0000   1.0000   1.0000   1.0000   1.0000   1.0000   1.0000   1.0000
     1.0000   1.0000   1.0000   1.0000   1.0000   1.0000   1.0000   1.0000
     1.0000   1.0000   1.0000   1.0000   1.0000   1.0000   1.0000   1.0000
     1.0000   1.0000   1.0000   1.0000   1.0000   1.0000   1.0000   1.0000
     1.0000   1.0000   1.0000   1.0000   1.0000   1.0000   1.0000   1.0000
     1.0000   1.0000   1.0000   1.0000   1.0000   1.0000   1.0000   1.0000
     1.0000   1.0000   1.0000   1.0000   1.0000   1.0000   1.0000   1.0000
     1.0000   1.0000   1.0000   1.0000   1.0000   1.0000   1.0000   1.0000
     1.0000   1.0000   1.0000   1.0000   1.0000   1.0000   1.0000   1.0000
     1.0000   1.0000   1.0000   1.0000   1.0000   1.0000   1.0000   1.0000
     1.0000   1.0000   1.0000   1.0000   1.0000   1.0000   1.0000   1.0000
     1.0000   1.0000   1.0000   1.0000   1.0000   1.0000   1.0000   1.0000
     1.0000   1.0000   1.0000   1.0000   1.0000   1.0000   1.0000   1.0000
     1.0000   1.0000   1.0000   1.0000   1.0000   1.0000   1.0000   1.0000
     1.0000   1.0000   1.0000   1.0000   1.0000   1.0000   1.0000   1.0000
     1.0000   1.0000   1.0000   1.0000   1.0000   1.0000   1.0000   1.0000
     1.0000   1.0000   1.0000   1.0000   1.0000   1.0000   1.0000   1.0000
     1.0000   1.0000   1.0000   1.0000   1.0000   1.0000   1.0000   1.0000
     1.0000   1.0000   1.0000   1.0000   1.0000   1.0000   1.0000   1.0000
     1.0000   1.0000   1.0000   1.0000   1.0000   1.0000   1.0000   1.0000
     1.0000   1.0000   1.0000   1.0000   1.0000   1.0000   1.0000   1.0000
     1.0000   1.0000   1.0000   1.0000   1.0000   1.0000   1.0000   1.0000
     1.0000   1.0000   1.0000   1.0000   1.0000   1.0000   1.0000   1.0000
     1.0000   1.0000   1.0000   1.0000   1.0000   1.0000   1.0000   1.0000
     1.0000   1.0000   1.0000   1.0000   1.0000   1.0000   1.0000   1.0000
     1.0000   1.0000   1.0000   1.0000   1.0000   1.0000   1.0000   1.0000
     1.0000   1.0000   1.0000   1.0000   1.0000   1.0000   1.0000   1.0000
     1.0000   1.0000   1.0000   1.0000   1.0000   1.0000   1.0000   1.0000
     1.0000   1.0000   1.0000   1.0000   1.0000   1.0000   1.0000   1.0000
     1.0000   1.0000   1.0000   1.0000   1.0000   1.0000   1.0000   1.0000
     1.0000   1.0000   1.0000   1.0000   1.0000   1.0000   1.0000   1.0000
     1.0000   1.0000   1.0000   1.0000   1.0000   1.0000   1.0000   1.0000
     1.0000   1.0001   1.0001   1.0004   0.6224   0.6202   0.0593   0.0589
     0.0173   0.0088   0.0080   0.0006   0.0006   0.0000   0.0000   0.0000
     0.0000   0.0000   0.0000   0.0000   0.0000   0.0000   0.0000   0.0000
     0.0000   0.0000   0.0000   0.0000   0.0000   0.0000   0.0000   0.0000
     0.0000   0.0000   0.0000   0.0000   0.0000   0.0000   0.0000   0.0000
     0.0000   0.0000   0.0000   0.0000   0.0000   0.0000   0.0000   0.0000
     0.0000   0.0000   0.0000   0.0000   0.0000   0.0000   0.0000   0.0000
     0.0000   0.0000   0.0000   0.0000   0.0000   0.0000   0.0000   0.0000
     0.0000   0.0000   0.0000   0.0000   0.0000   0.0000   0.0000   0.0000
     0.0000   0.0000   0.0000   0.0000   0.0000   0.0000   0.0000   0.0000
     0.0000   0.0000   0.0000   0.0000   0.0000   0.0000   0.0000   0.0000
     0.0000   0.0000   0.0000   0.0000   0.0000   0.0000   0.0000   0.0000
     0.0000   0.0000   0.0000   0.0000   0.0000   0.0000   0.0000   0.0000
     0.0000   0.0000   0.0000   0.0000   0.0000   0.0000   0.0000   0.0000
     0.0000   0.0000   0.0000   0.0000   0.0000   0.0000   0.0000   0.0000
     0.0000   0.0000   0.0000   0.0000   0.0000   0.0000   0.0000   0.0000
     0.0000   0.0000   0.0000   0.0000   0.0000   0.0000   0.0000   0.0000
     0.0000   0.0000

          k = 0.3333 0.1925 0.0000 ( 42150 PWs)   bands (ev):

  -122.9993-122.9979-122.9971-122.9965-122.9963-122.9959-122.9957-122.9955
  -122.9953-122.9952-122.9949-122.9948-122.9941-122.9939-122.9933-122.9930
  -122.9648-122.9617-122.9606-122.9565-122.9553-122.9547-122.9535-122.9521
  -122.9505-122.9494-122.9486-122.9481-122.9478-122.9475-122.9473-122.9471
  -122.7956-122.7946-122.7943-122.7940-122.7937-122.7937-122.7935-122.7933
  -122.7932-122.7928-122.7927-122.7924-122.7919-122.7916-122.7915-122.7911
  -122.7902-122.7898-122.7894-122.7816-122.7729-122.7719-122.7714-122.7710
  -122.7709-122.7707-122.7697-122.7694-122.7687-122.7680-122.7675-122.7660
   -77.1069 -77.1068 -77.1034 -77.1004 -77.1004 -77.0994 -77.0991 -77.0931
   -77.0930 -77.0881 -77.0865 -77.0854 -77.0848 -77.0846 -77.0844 -77.0840
   -77.0834 -77.0831 -77.0826 -77.0824 -77.0824 -77.0821 -77.0819 -77.0817
   -77.0815 -77.0813 -77.0801 -77.0799 -77.0791 -77.0790 -77.0787 -77.0785
   -77.0751 -77.0748 -77.0734 -77.0730 -77.0711 -77.0708 -77.0683 -77.0677
   -77.0672 -77.0669 -77.0664 -77.0661 -77.0655 -77.0653 -77.0651 -77.0644
   -77.0639 -77.0634 -77.0631 -77.0583 -77.0572 -77.0568 -77.0547 -77.0511
   -77.0502 -77.0493 -77.0478 -77.0468 -77.0454 -77.0430 -77.0427 -77.0418
   -77.0417 -77.0408 -77.0398 -77.0396 -77.0390 -77.0384 -77.0377 -77.0371
   -77.0361 -77.0357 -77.0354 -77.0343 -77.0338 -77.0334 -77.0332 -77.0330
   -77.0327 -77.0321 -77.0301 -77.0291 -77.0282 -77.0279 -77.0259 -77.0243
   -77.0233 -77.0224 -77.0215 -77.0207 -77.0202 -77.0189 -77.0181 -77.0178
   -76.9012 -76.9012 -76.8979 -76.8948 -76.8947 -76.8937 -76.8934 -76.8913
   -76.8908 -76.8900 -76.8899 -76.8894 -76.8888 -76.8885 -76.8882 -76.8879
   -76.8876 -76.8874 -76.8872 -76.8870 -76.8867 -76.8862 -76.8861 -76.8858
   -76.8855 -76.8851 -76.8846 -76.8843 -76.8835 -76.8829 -76.8825 -76.8823
   -76.8816 -76.8789 -76.8788 -76.8771 -76.8766 -76.8764 -76.8761 -76.8744
   -76.8729 -76.8726 -76.8725 -76.8719 -76.8694 -76.8689 -76.8686 -76.8682
   -76.8679 -76.8675 -76.8673 -76.8669 -76.8665 -76.8660 -76.8656 -76.8652
   -76.8647 -76.8645 -76.8642 -76.8639 -76.8637 -76.8633 -76.8629 -76.8621
   -76.8619 -76.8614 -76.8612 -76.8611 -76.8604 -76.8603 -76.8601 -76.8598
   -76.8596 -76.8591 -76.8584 -76.8578 -76.8574 -76.8571 -76.8561 -76.8549
   -76.8519 -76.8511 -76.8481 -76.8471 -76.8453 -76.8449 -76.8432 -76.8417
   -76.8412 -76.8394 -76.8387 -76.8382 -76.8367 -76.8362 -76.8347 -76.8344
   -15.5753 -14.2039 -13.3739 -10.9936 -10.8962  -7.9608  -7.6762  -6.2377
    -5.7938  -5.6317  -5.4666  -5.1741  -5.1725  -5.0918  -5.0904  -4.9400
    -4.8315  -4.7768  -4.6886  -4.6505  -4.6504  -4.6417  -4.6342  -4.5955
    -4.5954  -4.5723  -4.5721  -4.5647  -4.5637  -4.5626  -4.5431  -4.4980
    -4.4915  -4.4790  -4.4789  -4.4519  -4.4514  -4.4495  -4.4493  -4.4272
    -4.4179  -4.4027  -4.4026  -4.3885  -4.3882  -4.3734  -4.3730  -4.3624
    -4.3624  -4.3561  -4.3510  -4.3508  -4.3316  -4.3295  -4.3294  -4.3267
    -4.3265  -4.3151  -4.3151  -4.2907  -4.2905  -4.2851  -4.2839  -4.2801
    -4.2799  -4.2655  -4.2625  -4.2623  -4.2530  -4.2524  -4.2472  -4.2466
    -4.2458  -4.2146  -4.2145  -4.2110  -4.2104  -4.1901  -4.1897  -4.1863
    -4.1857  -4.1821  -4.1813  -4.1802  -4.1372  -4.1365  -4.1318  -4.1313
    -4.1308  -4.1099  -4.1093  -4.1062  -4.1060  -4.0910  -4.0909  -4.0850
    -4.0642  -4.0641  -4.0615  -4.0610  -4.0578  -4.0572  -4.0535  -4.0528
    -4.0517  -4.0286  -4.0283  -4.0243  -4.0240  -4.0219  -4.0160  -4.0156
    -4.0120  -4.0111  -4.0101  -4.0008  -3.9999  -3.9894  -3.9888  -3.9876
    -3.9760  -3.9482  -3.9436  -3.9428  -3.9356  -3.9237  -3.9229  -3.9209
    -3.9198  -3.9191  -3.9096  -3.9092  -3.9074  -3.9035  -3.9031  -3.9005
    -3.8828  -3.8825  -3.8790  -3.8786  -3.8591  -3.8590  -3.8530  -3.8408
    -3.8313  -3.8298  -3.8293  -3.8211  -3.8209  -3.8053  -3.8047  -3.7963
    -3.7956  -3.7932  -3.7928  -3.7809  -3.7688  -3.7686  -3.7673  -3.7554
    -3.7549  -3.7524  -3.7473  -3.7410  -3.7392  -3.7381  -3.7367  -3.7359
    -3.7112  -3.7110  -3.7063  -3.7058  -3.7041  -3.6932  -3.6866  -3.6864
    -3.6826  -3.6683  -3.6680  -3.6556  -3.6555  -3.6352  -3.6342  -3.6336
    -3.6322  -3.6319  -3.6251  -3.6248  -3.6236  -3.6205  -3.6202  -3.6086
    -3.6076  -3.6022  -3.6017  -3.5962  -3.5959  -3.5879  -3.5874  -3.5821
    -3.5816  -3.5739  -3.5737  -3.5704  -3.5669  -3.5661  -3.5645  -3.5642
    -3.5517  -3.5500  -3.5497  -3.5371  -3.5368  -3.5303  -3.5299  -3.5277
    -3.5206  -3.5203  -3.5175  -3.5164  -3.5150  -3.5134  -3.5110  -3.5105
    -3.5063  -3.4909  -3.4901  -3.4893  -3.4891  -3.4888  -3.4882  -3.4844
    -3.4839  -3.4828  -3.4770  -3.4591  -3.4565  -3.4563  -3.4509  -3.4502
    -3.4358  -3.4352  -3.4232  -3.4227  -3.4012  -3.3994  -3.3987  -3.3980
    -3.3961  -3.3958  -3.3944  -3.3939  -3.3876  -3.3867  -3.3861  -3.3853
    -3.3782  -3.3780  -3.3760  -3.3707  -3.3704  -3.3646  -3.3644  -3.3628
    -3.3621  -3.3574  -3.3569  -3.3566  -3.3555  -3.3551  -3.3457  -3.3367
    -3.3359  -3.3332  -3.3330  -3.3190  -3.3140  -3.3136  -3.3058  -3.3055
    -3.3031  -3.3015  -3.3010  -3.2834  -3.2749  -3.2743  -3.2725  -3.2721
    -3.2679  -3.2676  -3.2672  -3.2668  -3.2661  -3.2608  -3.2589  -3.2588
    -3.2498  -3.2492  -3.2479  -3.2462  -3.2425  -3.2413  -3.2380  -3.2378
    -3.2365  -3.2364  -3.2292  -3.2198  -3.2195  -3.2151  -3.2148  -3.2143
    -3.2118  -3.1955  -3.1947  -3.1947  -3.1767  -3.1598  -3.1595  -3.1581
    -3.1580  -3.1403  -3.1361  -3.1357  -3.1349  -3.1341  -3.1286  -3.1240
    -3.1203  -3.1175  -3.1061  -3.0543  -3.0258  -3.0251  -3.0101  -3.0100
    -2.9922  -2.9916  -2.9722  -2.9536  -2.8238  -2.8236  -2.7554  -2.6391
    -2.4582  -2.2752  -2.1508  -2.1329  -2.1309  -1.8580  -1.7804  -1.7698
    -1.6491  -1.6486  -1.6199  -0.9528  -0.8580  -0.8560  -0.8319  -0.7659
    -0.6778  -0.6761  -0.6158  -0.3721  -0.1635  -0.1229   0.1153   0.1182
     0.1702   0.1702   0.2235   0.2543   0.4771   0.5768   0.5810   0.6677
     0.6678   1.0096   1.0098   1.1738   1.1756   1.2120   1.4685   1.4689
     1.4738   1.6273   1.7013   2.1113   2.1119   2.2670   2.3494   2.3535
     2.4046   2.4066   2.5649   2.6575   2.6586   2.9564   2.9577   3.0125
     3.0168   3.0851   3.0857   3.1466   3.9547   3.9556   4.2529   4.2536
     4.3490   4.3948   4.4023   4.5521   4.5528   4.7891   4.7911   4.9788
     5.0421   5.1502   5.2012   5.2027   5.5859   5.6079   5.6349   5.6359
     5.7045   5.7077   5.7877   5.7889   5.7922   5.9022   5.9036   6.1138
     6.2602   6.2640   6.3430   6.3492   6.3512   6.4114   6.6626   6.7870
     6.8235   6.9871   7.0542   7.0550   7.0732   7.2185   7.2189   7.2687
     7.3214   7.3321   7.3398   7.4009   7.5324   7.5494   7.5636   7.6048
     7.7969   7.8593   7.9149   7.9427   7.9602   7.9760   7.9874   7.9935
     8.1314   8.1330   8.1452   8.1505   8.2415   8.3346   8.4423   8.4617
     8.5269   8.5350   8.5374   8.5864   8.7581   8.7749   8.7949   8.8104
     8.8696   8.9084   9.0139   9.1558   9.1756   9.2050   9.2713   9.2772
     9.3051   9.3785   9.4075   9.4471   9.5183   9.5290   9.6053   9.6579
     9.6603   9.6690   9.7678   9.7785   9.7907   9.8198   9.9935  10.0456
    10.0664  10.0999  10.1407  10.1646  10.1894  10.2298  10.2645  10.2883
    10.2988  10.4130  10.4255  10.4680  10.5708  10.5819  10.6052  10.6767
    10.7054  10.8456  10.8836  10.8854  10.8946  10.9737  11.0326  11.0854
    11.1213  11.1341  11.1400  11.1508  11.1586  11.1722  11.2135  11.2886
    11.3678  11.4263

     occupation numbers 
     1.0000   1.0000   1.0000   1.0000   1.0000   1.0000   1.0000   1.0000
     1.0000   1.0000   1.0000   1.0000   1.0000   1.0000   1.0000   1.0000
     1.0000   1.0000   1.0000   1.0000   1.0000   1.0000   1.0000   1.0000
     1.0000   1.0000   1.0000   1.0000   1.0000   1.0000   1.0000   1.0000
     1.0000   1.0000   1.0000   1.0000   1.0000   1.0000   1.0000   1.0000
     1.0000   1.0000   1.0000   1.0000   1.0000   1.0000   1.0000   1.0000
     1.0000   1.0000   1.0000   1.0000   1.0000   1.0000   1.0000   1.0000
     1.0000   1.0000   1.0000   1.0000   1.0000   1.0000   1.0000   1.0000
     1.0000   1.0000   1.0000   1.0000   1.0000   1.0000   1.0000   1.0000
     1.0000   1.0000   1.0000   1.0000   1.0000   1.0000   1.0000   1.0000
     1.0000   1.0000   1.0000   1.0000   1.0000   1.0000   1.0000   1.0000
     1.0000   1.0000   1.0000   1.0000   1.0000   1.0000   1.0000   1.0000
     1.0000   1.0000   1.0000   1.0000   1.0000   1.0000   1.0000   1.0000
     1.0000   1.0000   1.0000   1.0000   1.0000   1.0000   1.0000   1.0000
     1.0000   1.0000   1.0000   1.0000   1.0000   1.0000   1.0000   1.0000
     1.0000   1.0000   1.0000   1.0000   1.0000   1.0000   1.0000   1.0000
     1.0000   1.0000   1.0000   1.0000   1.0000   1.0000   1.0000   1.0000
     1.0000   1.0000   1.0000   1.0000   1.0000   1.0000   1.0000   1.0000
     1.0000   1.0000   1.0000   1.0000   1.0000   1.0000   1.0000   1.0000
     1.0000   1.0000   1.0000   1.0000   1.0000   1.0000   1.0000   1.0000
     1.0000   1.0000   1.0000   1.0000   1.0000   1.0000   1.0000   1.0000
     1.0000   1.0000   1.0000   1.0000   1.0000   1.0000   1.0000   1.0000
     1.0000   1.0000   1.0000   1.0000   1.0000   1.0000   1.0000   1.0000
     1.0000   1.0000   1.0000   1.0000   1.0000   1.0000   1.0000   1.0000
     1.0000   1.0000   1.0000   1.0000   1.0000   1.0000   1.0000   1.0000
     1.0000   1.0000   1.0000   1.0000   1.0000   1.0000   1.0000   1.0000
     1.0000   1.0000   1.0000   1.0000   1.0000   1.0000   1.0000   1.0000
     1.0000   1.0000   1.0000   1.0000   1.0000   1.0000   1.0000   1.0000
     1.0000   1.0000   1.0000   1.0000   1.0000   1.0000   1.0000   1.0000
     1.0000   1.0000   1.0000   1.0000   1.0000   1.0000   1.0000   1.0000
     1.0000   1.0000   1.0000   1.0000   1.0000   1.0000   1.0000   1.0000
     1.0000   1.0000   1.0000   1.0000   1.0000   1.0000   1.0000   1.0000
     1.0000   1.0000   1.0000   1.0000   1.0000   1.0000   1.0000   1.0000
     1.0000   1.0000   1.0000   1.0000   1.0000   1.0000   1.0000   1.0000
     1.0000   1.0000   1.0000   1.0000   1.0000   1.0000   1.0000   1.0000
     1.0000   1.0000   1.0000   1.0000   1.0000   1.0000   1.0000   1.0000
     1.0000   1.0000   1.0000   1.0000   1.0000   1.0000   1.0000   1.0000
     1.0000   1.0000   1.0000   1.0000   1.0000   1.0000   1.0000   1.0000
     1.0000   1.0000   1.0000   1.0000   1.0000   1.0000   1.0000   1.0000
     1.0000   1.0000   1.0000   1.0000   1.0000   1.0000   1.0000   1.0000
     1.0000   1.0000   1.0000   1.0000   1.0000   1.0000   1.0000   1.0000
     1.0000   1.0000   1.0000   1.0000   1.0000   1.0000   1.0000   1.0000
     1.0000   1.0000   1.0000   1.0000   1.0000   1.0000   1.0000   1.0000
     1.0000   1.0000   1.0000   1.0000   1.0000   1.0000   1.0000   1.0000
     1.0000   1.0000   1.0000   1.0000   1.0000   1.0000   1.0000   1.0000
     1.0000   1.0000   1.0000   1.0000   1.0000   1.0000   1.0000   1.0000
     1.0000   1.0000   1.0000   1.0000   1.0000   1.0000   1.0000   1.0000
     1.0000   1.0000   1.0000   1.0000   1.0000   1.0000   1.0000   1.0000
     1.0000   1.0000   1.0000   1.0000   1.0000   1.0000   1.0000   1.0000
     1.0000   1.0000   1.0000   1.0000   1.0000   1.0000   1.0000   1.0000
     1.0000   1.0000   1.0000   1.0000   1.0000   1.0000   1.0000   1.0000
     1.0000   1.0000   1.0000   1.0000   1.0000   1.0000   1.0000   1.0000
     1.0000   1.0000   1.0000   1.0000   1.0000   1.0000   1.0000   1.0000
     1.0000   1.0000   1.0000   1.0000   1.0000   1.0000   1.0000   1.0000
     1.0000   1.0000   1.0000   1.0000   1.0000   1.0000   1.0000   1.0000
     1.0000   1.0000   1.0000   1.0000   1.0000   1.0000   1.0000   1.0000
     1.0000   1.0000   1.0000   1.0000   1.0000   1.0000   1.0000   1.0000
     1.0000   1.0000   1.0000   1.0000   1.0000   1.0000   1.0000   1.0000
     1.0000   1.0000   1.0000   1.0000   1.0000   1.0000   1.0000   1.0000
     1.0000   1.0000   1.0000   1.0000   1.0000   1.0000   1.0000   1.0000
     1.0000   1.0000   1.0000   1.0000   1.0000   1.0000   1.0000   1.0000
     1.0000   1.0000   1.0000   1.0000   1.0000   1.0000   1.0000   1.0000
     1.0000   1.0000   1.0000   1.0000   1.0000   1.0000   1.0000   1.0000
     1.0000   1.0000   1.0000   1.0000   1.0000   1.0000   1.0000   1.0000
     1.0000   1.0000   1.0000   1.0000   1.0000   1.0000   1.0000   1.0000
     1.0000   1.0000   1.0000   1.0000   1.0000   1.0000   1.0000   1.0000
     1.0000   1.0000   1.0000   1.0000   1.0000   1.0000   1.0000   1.0000
     1.0000   1.0000   1.0000   1.0000   1.0000   1.0000   1.0000   1.0000
     1.0000   1.0000   1.0000   1.0000   1.0000   1.0000   1.0000   1.0000
     1.0000   1.0000   1.0000   1.0000   1.0000   1.0000   1.0000   1.0000
     1.0000   1.0000   1.0000   1.0000   1.0000   1.0000   1.0000   1.0000
     1.0000   1.0000   1.0000   1.0000   1.0000   1.0000   1.0000   1.0000
     1.0000   1.0000   1.0000   1.0000   1.0000   1.0000   1.0000   1.0000
     1.0000   1.0000   1.0000   1.0000   1.0000   1.0000   1.0000   1.0000
     1.0000   1.0000   1.0000   1.0000   1.0000   1.0000   1.0000   1.0000
     1.0000   1.0000   1.0000   1.0000   1.0000   1.0000   1.0000   1.0000
     1.0000   1.0000   1.0000   1.0000   1.0000   1.0000   1.0000   1.0000
[...]
     atom   74 type  4   force =     0.00000000    0.00000000    0.00000000
     atom   75 type  4   force =     0.00000000    0.00000000    0.00000000
     atom   76 type  4   force =     0.00000000    0.00000000    0.00000000
     atom   77 type  4   force =     0.00000000    0.00000000    0.00000000
     atom   78 type  4   force =     0.00000000    0.00000000    0.00000000
     atom   79 type  4   force =     0.00000000    0.00000000    0.00000000
     The Hubbard contrib.    to forces
     atom    1 type  1   force =     0.00000000    0.00000000    0.00000000
     atom    2 type  1   force =     0.00000000    0.00000000    0.00000000
     atom    3 type  1   force =     0.00000000    0.00000000    0.00000000
     atom    4 type  1   force =     0.00000000    0.00000000    0.00000000
     atom    5 type  1   force =     0.00000000    0.00000000    0.00000000
     atom    6 type  1   force =     0.00000000    0.00000000    0.00000000
     atom    7 type  1   force =     0.00000000    0.00000000    0.00000000
     atom    8 type  1   force =     0.00000000    0.00000000    0.00000000
     atom    9 type  1   force =     0.00000000    0.00000000    0.00000000
     atom   10 type  1   force =     0.00000000    0.00000000    0.00000000
     atom   11 type  1   force =     0.00000000    0.00000000    0.00000000
     atom   12 type  1   force =     0.00000000    0.00000000    0.00000000
     atom   13 type  1   force =     0.00000000    0.00000000    0.00000000
     atom   14 type  1   force =     0.00000000    0.00000000    0.00000000
     atom   15 type  1   force =     0.00000000    0.00000000    0.00000000
     atom   16 type  1   force =     0.00000000    0.00000000    0.00000000
     atom   17 type  1   force =     0.00000000    0.00000000    0.00000000
     atom   18 type  1   force =     0.00000000    0.00000000    0.00000000
     atom   19 type  1   force =     0.00000000    0.00000000    0.00000000
     atom   20 type  1   force =     0.00000000    0.00000000    0.00000000
     atom   21 type  1   force =     0.00000000    0.00000000    0.00000000
     atom   22 type  1   force =     0.00000000    0.00000000    0.00000000
     atom   23 type  1   force =     0.00000000    0.00000000    0.00000000
     atom   24 type  1   force =     0.00000000    0.00000000    0.00000000
     atom   25 type  1   force =     0.00000000    0.00000000    0.00000000
     atom   26 type  1   force =     0.00000000    0.00000000    0.00000000
     atom   27 type  1   force =     0.00000000    0.00000000    0.00000000
     atom   28 type  1   force =     0.00000000    0.00000000    0.00000000
     atom   29 type  1   force =     0.00000000    0.00000000    0.00000000
     atom   30 type  1   force =     0.00000000    0.00000000    0.00000000
     atom   31 type  1   force =     0.00000000    0.00000000    0.00000000
     atom   32 type  1   force =     0.00000000    0.00000000    0.00000000
     atom   33 type  1   force =     0.00000000    0.00000000    0.00000000
     atom   34 type  1   force =     0.00000000    0.00000000    0.00000000
     atom   35 type  1   force =     0.00000000    0.00000000    0.00000000
     atom   36 type  1   force =     0.00000000    0.00000000    0.00000000
     atom   37 type  1   force =     0.00000000    0.00000000    0.00000000
     atom   38 type  1   force =     0.00000000    0.00000000    0.00000000
     atom   39 type  1   force =     0.00000000    0.00000000    0.00000000
     atom   40 type  1   force =     0.00000000    0.00000000    0.00000000
     atom   41 type  1   force =     0.00000000    0.00000000    0.00000000
     atom   42 type  1   force =     0.00000000    0.00000000    0.00000000
     atom   43 type  1   force =     0.00000000    0.00000000    0.00000000
     atom   44 type  1   force =     0.00000000    0.00000000    0.00000000
     atom   45 type  1   force =     0.00000000    0.00000000    0.00000000
     atom   46 type  1   force =     0.00000000    0.00000000    0.00000000
     atom   47 type  1   force =     0.00000000    0.00000000    0.00000000
     atom   48 type  1   force =     0.00000000    0.00000000    0.00000000
     atom   49 type  1   force =     0.00000000    0.00000000    0.00000000
     atom   50 type  1   force =     0.00000000    0.00000000    0.00000000
     atom   51 type  1   force =     0.00000000    0.00000000    0.00000000
     atom   52 type  1   force =     0.00000000    0.00000000    0.00000000
     atom   53 type  1   force =     0.00000000    0.00000000    0.00000000
     atom   54 type  1   force =     0.00000000    0.00000000    0.00000000
     atom   55 type  1   force =     0.00000000    0.00000000    0.00000000
     atom   56 type  1   force =     0.00000000    0.00000000    0.00000000
     atom   57 type  1   force =     0.00000000    0.00000000    0.00000000
     atom   58 type  1   force =     0.00000000    0.00000000    0.00000000
     atom   59 type  1   force =     0.00000000    0.00000000    0.00000000
     atom   60 type  1   force =     0.00000000    0.00000000    0.00000000
     atom   61 type  1   force =     0.00000000    0.00000000    0.00000000
     atom   62 type  1   force =     0.00000000    0.00000000    0.00000000
     atom   63 type  1   force =     0.00000000    0.00000000    0.00000000
     atom   64 type  1   force =     0.00000000    0.00000000    0.00000000
     atom   65 type  2   force =     0.00000000    0.00000000    0.00000000
     atom   66 type  2   force =     0.00000000    0.00000000    0.00000000
     atom   67 type  2   force =     0.00000000    0.00000000    0.00000000
     atom   68 type  2   force =     0.00000000    0.00000000    0.00000000
     atom   69 type  2   force =     0.00000000    0.00000000    0.00000000
     atom   70 type  2   force =     0.00000000    0.00000000    0.00000000
     atom   71 type  2   force =     0.00000000    0.00000000    0.00000000
     atom   72 type  3   force =     0.00000000    0.00000000    0.00000000
     atom   73 type  3   force =     0.00000000    0.00000000    0.00000000
     atom   74 type  4   force =     0.00000000    0.00000000    0.00000000
     atom   75 type  4   force =     0.00000000    0.00000000    0.00000000
     atom   76 type  4   force =     0.00000000    0.00000000    0.00000000
     atom   77 type  4   force =     0.00000000    0.00000000    0.00000000
     atom   78 type  4   force =     0.00000000    0.00000000    0.00000000
     atom   79 type  4   force =     0.00000000    0.00000000    0.00000000
     The SCF correction term to forces
     atom    1 type  1   force =    -0.00037457   -0.00034229    0.00071824
     atom    2 type  1   force =     0.00038598   -0.00057422    0.00062721
     atom    3 type  1   force =    -0.00070687   -0.00043197   -0.00017330
     atom    4 type  1   force =     0.00071198   -0.00083987   -0.00012597
     atom    5 type  1   force =    -0.00033289   -0.00004206    0.00078323
     atom    6 type  1   force =     0.00030506   -0.00020105    0.00011810
     atom    7 type  1   force =    -0.00058897   -0.00003084   -0.00019647
     atom    8 type  1   force =     0.00056658   -0.00027162    0.00007230
     atom    9 type  1   force =     0.00019551    0.00022986    0.00086496
     atom   10 type  1   force =    -0.00019705    0.00064278    0.00028017
     atom   11 type  1   force =     0.00033059    0.00022164   -0.00026343
     atom   12 type  1   force =    -0.00032804    0.00102460   -0.00001171
     atom   13 type  1   force =     0.00014252   -0.00005921    0.00081744
     atom   14 type  1   force =    -0.00015260    0.00032009    0.00078952
     atom   15 type  1   force =     0.00022425   -0.00018291   -0.00023305
     atom   16 type  1   force =    -0.00021815    0.00050146   -0.00021032
     atom   17 type  1   force =    -0.00015637   -0.00079420    0.00045412
     atom   18 type  1   force =     0.00015023   -0.00008779    0.00088550
     atom   19 type  1   force =    -0.00013443   -0.00118600   -0.00003983
     atom   20 type  1   force =     0.00012614   -0.00008692   -0.00025418
     atom   21 type  1   force =    -0.00065093   -0.00017397    0.00026826
     atom   22 type  1   force =     0.00068741   -0.00007087    0.00063796
     atom   23 type  1   force =    -0.00104380   -0.00016397    0.00001711
     atom   24 type  1   force =     0.00106975   -0.00014872   -0.00014185
     atom   25 type  1   force =    -0.00062068    0.00036136    0.00068864
     atom   26 type  1   force =     0.00061300    0.00053631    0.00047523
     atom   27 type  1   force =    -0.00095216    0.00055857   -0.00017733
     atom   28 type  1   force =     0.00093968    0.00071213   -0.00008336
     atom   29 type  1   force =    -0.00009832   -0.00025962    0.00086100
     atom   30 type  1   force =     0.00010834    0.00052270    0.00073667
     atom   31 type  1   force =    -0.00001801   -0.00044054   -0.00024734
     atom   32 type  1   force =     0.00000900    0.00076610   -0.00019609
     atom   33 type  1   force =    -0.00032899   -0.00078809   -0.00059390
     atom   34 type  1   force =     0.00032771   -0.00018207   -0.00039664
     atom   35 type  1   force =    -0.00017201   -0.00038319   -0.00040289
     atom   36 type  1   force =     0.00018125   -0.00008842   -0.00058681
     atom   37 type  1   force =    -0.00105164   -0.00034990   -0.00056664
     atom   38 type  1   force =     0.00107471   -0.00059810   -0.00060195
     atom   39 type  1   force =    -0.00057926   -0.00019608   -0.00035228
     atom   40 type  1   force =     0.00060452   -0.00035264   -0.00020295
     atom   41 type  1   force =    -0.00050421    0.00028755   -0.00039848
     atom   42 type  1   force =     0.00050165    0.00067929   -0.00068325
     atom   43 type  1   force =    -0.00027393    0.00012058   -0.00058885
     atom   44 type  1   force =     0.00029165    0.00038532    0.00003703
     atom   45 type  1   force =     0.00018716   -0.00012872   -0.00041770
     atom   46 type  1   force =    -0.00020177    0.00107573   -0.00050731
     atom   47 type  1   force =     0.00011752   -0.00006064   -0.00066450
     atom   48 type  1   force =    -0.00011971    0.00060268   -0.00037428
     atom   49 type  1   force =     0.00022342   -0.00108748   -0.00055836
     atom   50 type  1   force =    -0.00022033    0.00009924   -0.00042712
     atom   51 type  1   force =     0.00013223   -0.00056705   -0.00042088
     atom   52 type  1   force =    -0.00014019    0.00008777   -0.00059083
     atom   53 type  1   force =    -0.00031246   -0.00073738   -0.00075272
     atom   54 type  1   force =     0.00029746   -0.00018343   -0.00039151
     atom   55 type  1   force =    -0.00019111   -0.00044891    0.00006991
     atom   56 type  1   force =     0.00017453   -0.00011343   -0.00058710
     atom   57 type  1   force =    -0.00102999    0.00062078   -0.00063971
     atom   58 type  1   force =     0.00103021    0.00036223   -0.00048691
     atom   59 type  1   force =    -0.00058556    0.00033019   -0.00013407
     atom   60 type  1   force =     0.00056378    0.00016503   -0.00044286
     atom   61 type  1   force =    -0.00047903    0.00028432   -0.00040811
     atom   62 type  1   force =     0.00049239    0.00064313   -0.00052890
     atom   63 type  1   force =    -0.00024941    0.00017792   -0.00058585
     atom   64 type  1   force =     0.00024964    0.00034909   -0.00042897
     atom   65 type  2   force =    -0.00000049    0.00001231    0.00016961
     atom   66 type  2   force =    -0.00000163   -0.00001123   -0.00013434
     atom   67 type  2   force =     0.00009320   -0.00006455   -0.00014783
     atom   68 type  2   force =    -0.00009383    0.00003750   -0.00015784
     atom   69 type  2   force =     0.00003529   -0.00002307   -0.00005067
     atom   70 type  2   force =    -0.00003433    0.00001473   -0.00005716
     atom   71 type  2   force =     0.00000116    0.00000610    0.00004427
     atom   72 type  3   force =     0.00000009    0.00001503    0.00021169
     atom   73 type  3   force =     0.00000321    0.00001049    0.00016241
     atom   74 type  4   force =    -0.00000366    0.00000425    0.00002112
     atom   75 type  4   force =     0.00000619   -0.00000116    0.00001989
     atom   76 type  4   force =     0.00001236   -0.00000808   -0.00001228
     atom   77 type  4   force =    -0.00001193    0.00000519   -0.00001381
     atom   78 type  4   force =     0.00001329   -0.00000683    0.00000680
     atom   79 type  4   force =    -0.00001272    0.00000737    0.00000455

     Total force =     0.030832     Total SCF correction =     0.006852
     SCF correction compared to forces is large: reduce conv_thr to get better values


     Computing stress (Cartesian axis) and pressure


     negative rho (up, down):  3.552E-02 0.000E+00
          total   stress  (Ry/bohr**3)                   (kbar)     P=     -306.74
  -0.00208488   0.00000078  -0.00000047         -306.70        0.11       -0.07
   0.00000078  -0.00208341   0.00000063            0.11     -306.48        0.09
  -0.00000047   0.00000063  -0.00208729           -0.07        0.09     -307.05

     kinetic stress (kbar)  17229.79     27.45     -1.23
                               27.45  17264.80     -3.42
                               -1.23     -3.42  17282.02

     local   stress (kbar)**********    755.95    -69.43
                              755.95**********   -256.38
                              -69.43   -256.381455641.55

     nonloc. stress (kbar)  -1883.82     -1.82      0.24
                               -1.82  -1886.06      0.72
                                0.24      0.72  -1942.45

     hartree stress (kbar) 756827.16   -284.43     27.07
                             -284.43 756473.63    104.01
                               27.07    104.01-680976.39

     exc-cor stress (kbar)  -8415.47     -1.32      0.10
                               -1.32  -8417.15      0.28
                                0.10      0.28  -8424.20

     corecor stress (kbar)    -81.18      0.66     -0.06
                                0.66    -80.28     -0.15
                               -0.06     -0.15    -81.91

     ewald   stress (kbar) 676611.35   -496.37     43.24
                             -496.37 675990.38    155.04
                               43.24    155.04-781805.66

     hubbard stress (kbar)      0.00      0.00      0.00
                                0.00      0.00      0.00
                                0.00      0.00      0.00

     DFT-D   stress (kbar)      0.00      0.00      0.00
                                0.00      0.00      0.00
                                0.00      0.00      0.00

     XDM     stress (kbar)      0.00      0.00      0.00
                                0.00      0.00      0.00
                                0.00      0.00      0.00

     dft-nl  stress (kbar)      0.00      0.00      0.00
                                0.00      0.00      0.00
                                0.00      0.00      0.00

     TS-vdW  stress (kbar)      0.00      0.00      0.00
                                0.00      0.00      0.00
                                0.00      0.00      0.00

     MDB     stress (kbar)      0.00      0.00      0.00
                                0.00      0.00      0.00
                                0.00      0.00      0.00

     3D-RISM stress (kbar)      0.00      0.00      0.00
                                0.00      0.00      0.00
                                0.00      0.00      0.00


     Writing all to output data dir ./tmp/Zn002_4x4x2_primitive_14Avacumn_bridgesite_upright_cross_ABN.save/ :
     XML data file, charge density, pseudopotentials, collected wavefunctions

     init_run     :    138.89s CPU    140.11s WALL (       1 calls)
     electrons    :  11959.86s CPU  12062.97s WALL (       1 calls)
     forces       :    119.92s CPU    120.39s WALL (       1 calls)
     stress       :    336.09s CPU    337.20s WALL (       1 calls)

     Called by init_run:
     wfcinit      :    137.88s CPU    139.06s WALL (       1 calls)
     wfcinit:atom :      0.04s CPU      0.09s WALL (       5 calls)
     wfcinit:wfcr :    136.94s CPU    138.05s WALL (       5 calls)
     potinit      :      0.20s CPU      0.21s WALL (       1 calls)
     hinit0       :      0.06s CPU      0.07s WALL (       1 calls)

     Called by electrons:
     c_bands      :  11242.57s CPU  11336.45s WALL (      22 calls)
     sum_band     :    698.57s CPU    707.42s WALL (      22 calls)
     v_of_rho     :      0.75s CPU      0.79s WALL (      22 calls)
     v_h          :      0.04s CPU      0.04s WALL (      22 calls)
     v_xc         :      0.77s CPU      0.82s WALL (      24 calls)
     newd         :     14.94s CPU     15.27s WALL (      22 calls)
     PAW_pot      :      3.67s CPU      3.68s WALL (      22 calls)
     mix_rho      :      0.17s CPU      0.17s WALL (      22 calls)

     Called by c_bands:
     init_us_2    :      5.53s CPU      5.55s WALL (     235 calls)
     cegterg      :  11227.49s CPU  11321.27s WALL (     110 calls)

     Called by sum_band:
     sum_band:wei :      0.09s CPU      0.09s WALL (      22 calls)
     sum_band:loo :    686.66s CPU    695.18s WALL (      22 calls)
     sum_band:buf :      1.11s CPU      1.12s WALL (     110 calls)
     sum_band:ini :      2.61s CPU      2.61s WALL (     110 calls)
     sum_band:cal :    630.00s CPU    632.27s WALL (     110 calls)
     sum_band:bec :      4.29s CPU      4.30s WALL (     110 calls)
     addusdens    :     11.47s CPU     11.78s WALL (      22 calls)
                                        0.00s GPU  (      22 calls)
     addusd:skk   :      0.13s CPU      0.13s WALL (      88 calls)
                                        0.00s GPU  (      88 calls)

     Called by *egterg:
     cdiaghg      :   1022.23s CPU   1052.37s WALL (     841 calls)
     cegterg:over :   1855.34s CPU   1860.38s WALL (     736 calls)
     cegterg:upda :    876.89s CPU    880.48s WALL (     736 calls)
     cegterg:last :   2683.38s CPU   2692.74s WALL (     234 calls)
     cdiaghg:chol :     71.95s CPU     72.14s WALL (     841 calls)
     cdiaghg:inve :     15.84s CPU     15.89s WALL (     841 calls)
     cdiaghg:para :    363.75s CPU    370.10s WALL (    1682 calls)
     h_psi        :   3055.04s CPU   3094.52s WALL (     851 calls)
     s_psi        :   1310.40s CPU   1313.56s WALL (     851 calls)
     g_psi        :      1.08s CPU      1.09s WALL (     736 calls)

     Called by h_psi:
     h_psi:calbec :   1522.26s CPU   1527.84s WALL (     851 calls)
     vloc_psi     :    236.14s CPU    265.25s WALL (     851 calls)
     add_vuspsi   :   1294.76s CPU   1297.94s WALL (     851 calls)

     General routines
     calbec       :   2298.35s CPU   2306.71s WALL (     986 calls)
     fft          :      0.53s CPU      0.59s WALL (     268 calls)
     ffts         :      0.03s CPU      0.03s WALL (      22 calls)
     fftw         :    259.41s CPU    291.95s WALL (  509474 calls)

     Parallel routines

     PAW routines
     PAW_pot      :      3.67s CPU      3.68s WALL (      22 calls)

     PWSCF        :      3h29m CPU      3h31m WALL


   This run was terminated on:  19: 0:56  22Mar2025            

=------------------------------------------------------------------------------=
   JOB DONE.
=------------------------------------------------------------------------------=
Note: The following floating-point exceptions are signalling: IEEE_DENORMAL
Note: The following floating-point exceptions are signalling: IEEE_DENORMAL
Note: The following floating-point exceptions are signalling: IEEE_DENORMAL
Note: The following floating-point exceptions are signalling: IEEE_DENORMAL
Note: The following floating-point exceptions are signalling: IEEE_DENORMAL
Note: The following floating-point exceptions are signalling: IEEE_DENORMAL
Note: The following floating-point exceptions are signalling: IEEE_DENORMAL
