--------------------------------------------------------------------------
By default, for Open MPI 4.0 and later, infiniband ports on a device
are not used by default.  The intent is to use UCX for these devices.
You can override this policy by setting the btl_openib_allow_ib MCA parameter
to true.

  Local host:              psid05
  Local adapter:           mlx4_0
  Local port:              1

--------------------------------------------------------------------------
--------------------------------------------------------------------------
WARNING: There was an error initializing an OpenFabrics device.

  Local host:   psid05
  Local device: mlx4_0
--------------------------------------------------------------------------

     Program PWSCF v.7.3.1 starts on 22Mar2025 at 15:40:47 

     This program is part of the open-source Quantum ESPRESSO suite
     for quantum simulation of materials; please cite
         "P. Giannozzi et al., J. Phys.:Condens. Matter 21 395502 (2009);
         "P. Giannozzi et al., J. Phys.:Condens. Matter 29 465901 (2017);
         "P. Giannozzi et al., J. Chem. Phys. 152 154105 (2020);
          URL http://www.quantum-espresso.org", 
     in publications or presentations arising from this work. More details at
     http://www.quantum-espresso.org/quote

     Parallel version (MPI), running on    16 processors

     MPI processes distributed on     1 nodes
     91908 MiB available memory on the printing compute node when the environment starts

     Waiting for input...
     Reading input from standard input
Warning: card &CELL ignored
Warning: card   CELL_DOFREE = 'ALL' ignored
Warning: card / ignored

     Current dimensions of program PWSCF are:
     Max number of different atomic species (ntypx) = 10
     Max number of k-points (npk) =  40000
     Max angular momentum in pseudopotentials (lmaxx) =  4
     file C.pbe-n-kjpaw_psl.1.0.0.UPF: wavefunction(s)  2S 2P renormalized

     R & G space division:  proc/nbgrp/npool/nimage =      16
     Subspace diagonalization in iterative solution of the eigenvalue problem:
     one sub-group per band group will be used
     custom distributed-memory algorithm (size of sub-group:  4*  4 procs)


     Parallelization info
     --------------------
     sticks:   dense  smooth     PW     G-vecs:    dense   smooth      PW
     Min         202     202     53                21070    21070    2943
     Max         203     203     54                21080    21080    2952
     Sum        3241    3241    859               337189   337189   47187

     Using Slab Decomposition



     bravais-lattice index     =            0
     lattice parameter (alat)  =      19.7617  a.u.
     unit-cell volume          =   15176.5939 (a.u.)^3
     number of atoms/cell      =           79
     number of atomic types    =            4
     number of electrons       =      1324.00
     number of Kohn-Sham states=          794
     kinetic-energy cutoff     =      30.0000  Ry
     charge density cutoff     =     120.0000  Ry
     scf convergence threshold =      7.3E-07
     mixing beta               =       0.7000
     number of iterations used =            8  plain     mixing
     Exchange-correlation= PBE
                           (   1   4   3   4   0   0   0)

     celldm(1)=  19.761696  celldm(2)=   0.000000  celldm(3)=   0.000000
     celldm(4)=   0.000000  celldm(5)=   0.000000  celldm(6)=   0.000000

     crystal axes: (cart. coord. in units of alat)
               a(1) = (   1.000000   0.000000   0.000000 )  
               a(2) = (  -0.500000   0.866025   0.000000 )  
               a(3) = (   0.000000   0.000000   2.270759 )  

     reciprocal axes: (cart. coord. in units 2 pi/alat)
               b(1) = (  1.000000  0.577350 -0.000000 )  
               b(2) = (  0.000000  1.154701  0.000000 )  
               b(3) = (  0.000000 -0.000000  0.440381 )  


     PseudoPot. # 1 for Zn read from file:
     /home/ys/qepseudo/SSSP_1.3.0_PBE_efficiency/Zn_pbe_v1.uspp.F.UPF
     MD5 check sum: df62231357ef9e81f77b2b3087fa5675
     Pseudo is Ultrasoft, Zval = 20.0
     Generated by new atomic code, or converted to UPF format
     Using radial grid of  943 points,  6 beta functions with: 
                l(1) =   0
                l(2) =   0
                l(3) =   1
                l(4) =   1
                l(5) =   2
                l(6) =   2
     Q(r) pseudized with  8 coefficients,  rinner =    1.100   1.100   1.100
                                                       1.100   1.100

     PseudoPot. # 2 for C  read from file:
     /home/ys/qepseudo/SSSP_1.3.0_PBE_efficiency/C.pbe-n-kjpaw_psl.1.0.0.UPF
     MD5 check sum: 5d2aebdfa2cae82b50a7e79e9516da0f
     Pseudo is Projector augmented-wave + core cor, Zval =  4.0
     Generated using "atomic" code by A. Dal Corso  v.5.1
     Shape of augmentation charge: PSQ
     Using radial grid of 1073 points,  4 beta functions with: 
                l(1) =   0
                l(2) =   0
                l(3) =   1
                l(4) =   1
     Q(r) pseudized with 0 coefficients 


     PseudoPot. # 3 for N  read from file:
     /home/ys/qepseudo/SSSP_1.3.0_PBE_efficiency/N.pbe-n-radius_5.UPF
     MD5 check sum: 16739722b17309cd8fe442a2ace49922
     Pseudo is Ultrasoft + core correction, Zval =  5.0
     Generated using "atomic" code by A. Dal Corso  v.5.1
     Using radial grid of 1085 points,  4 beta functions with: 
                l(1) =   0
                l(2) =   0
                l(3) =   1
                l(4) =   1
     Q(r) pseudized with 0 coefficients 


     PseudoPot. # 4 for H  read from file:
     /home/ys/qepseudo/SSSP_1.3.0_PBE_efficiency/H.pbe-rrkjus_psl.1.0.0.UPF
     MD5 check sum: f52b6d4d1c606e5624b1dc7b2218f220
     Pseudo is Ultrasoft, Zval =  1.0
     Generated using "atomic" code by A. Dal Corso  v.5.1
     Using radial grid of  929 points,  2 beta functions with: 
                l(1) =   0
                l(2) =   0
     Q(r) pseudized with 0 coefficients 


     atomic species   valence    mass     pseudopotential
     Zn               20.00    65.38000     Zn( 1.00)
     C                 4.00    12.01070     C ( 1.00)
     N                 5.00    14.00670     N ( 1.00)
     H                 1.00     1.00800     H ( 1.00)

     No symmetry found


                                    s                        frac. trans.

      isym =  1     identity                                     

 cryst.   s( 1) = (     1          0          0      )
                  (     0          1          0      )
                  (     0          0          1      )

 cart.    s( 1) = (  1.0000000  0.0000000  0.0000000 )
                  (  0.0000000  1.0000000  0.0000000 )
                  (  0.0000000  0.0000000  1.0000000 )


   Cartesian axes

     site n.     atom                  positions (alat units)
         1        Zn     tau(   1) = (  -0.0000000   0.1443376   0.1164999  )
         2        Zn     tau(   2) = (   0.5000000   0.1443376   0.1164999  )
         3        Zn     tau(   3) = (   0.0001063   0.1443772   0.5902127  )
         4        Zn     tau(   4) = (   0.4998958   0.1443643   0.5917156  )
         5        Zn     tau(   5) = (  -0.1250000   0.3608439   0.1164999  )
         6        Zn     tau(   6) = (   0.3750000   0.3608439   0.1164999  )
         7        Zn     tau(   7) = (  -0.1249761   0.3609302   0.5908726  )
         8        Zn     tau(   8) = (   0.3749642   0.3608477   0.5913644  )
         9        Zn     tau(   9) = (  -0.2500000   0.5773503   0.1164999  )
        10        Zn     tau(  10) = (   0.2500000   0.5773503   0.1164999  )
        11        Zn     tau(  11) = (  -0.2499911   0.5773738   0.5915504  )
        12        Zn     tau(  12) = (   0.2499824   0.5772583   0.5907382  )
        13        Zn     tau(  13) = (  -0.3750000   0.7938566   0.1164999  )
        14        Zn     tau(  14) = (   0.1250000   0.7938566   0.1164999  )
        15        Zn     tau(  15) = (  -0.3749161   0.7938269   0.5909604  )
        16        Zn     tau(  16) = (   0.1249053   0.7937898   0.5911170  )
        17        Zn     tau(  17) = (   0.2500000   0.1443376   0.1164999  )
        18        Zn     tau(  18) = (   0.7500000   0.1443376   0.1164999  )
        19        Zn     tau(  19) = (   0.2499566   0.1443139   0.5910485  )
        20        Zn     tau(  20) = (   0.7500401   0.1444360   0.5909256  )
        21        Zn     tau(  21) = (   0.1250000   0.3608439   0.1164999  )
        22        Zn     tau(  22) = (   0.6250000   0.3608439   0.1164999  )
        23        Zn     tau(  23) = (   0.1249684   0.3608327   0.5904686  )
        24        Zn     tau(  24) = (   0.6250220   0.3609386   0.5917101  )
        25        Zn     tau(  25) = (  -0.0000000   0.5773503   0.1164999  )
        26        Zn     tau(  26) = (   0.5000000   0.5773503   0.1164999  )
        27        Zn     tau(  27) = (  -0.0000983   0.5773031   0.5910657  )
        28        Zn     tau(  28) = (   0.5000885   0.5773473   0.5912976  )
        29        Zn     tau(  29) = (  -0.1250000   0.7938566   0.1164999  )
        30        Zn     tau(  30) = (   0.3750000   0.7938566   0.1164999  )
        31        Zn     tau(  31) = (  -0.1251014   0.7937984   0.5915674  )
        32        Zn     tau(  32) = (   0.3751324   0.7938157   0.5904624  )
        33        Zn     tau(  33) = (   0.1250000   0.0721688   0.3494996  )
        34        Zn     tau(  34) = (   0.6250000   0.0721688   0.3494996  )
        35        Zn     tau(  35) = (   0.1250976   0.0723078   0.8327302  )
        36        Zn     tau(  36) = (   0.6253336   0.0720262   0.8325286  )
        37        Zn     tau(  37) = (   0.0000000   0.2886751   0.3494996  )
        38        Zn     tau(  38) = (   0.5000000   0.2886751   0.3494996  )
        39        Zn     tau(  39) = (   0.0002605   0.2887230   0.8324759  )
        40        Zn     tau(  40) = (   0.5000185   0.2888500   0.8222816  )
        41        Zn     tau(  41) = (  -0.1250000   0.5051815   0.3494996  )
        42        Zn     tau(  42) = (   0.3750000   0.5051815   0.3494996  )
        43        Zn     tau(  43) = (  -0.1246995   0.5052162   0.8329296  )
        44        Zn     tau(  44) = (   0.3749749   0.5053363   0.8331073  )
        45        Zn     tau(  45) = (  -0.2500000   0.7216878   0.3494996  )
        46        Zn     tau(  46) = (   0.2500000   0.7216878   0.3494996  )
        47        Zn     tau(  47) = (  -0.2498680   0.7217556   0.8328129  )
        48        Zn     tau(  48) = (   0.2502219   0.7216908   0.8325092  )
        49        Zn     tau(  49) = (   0.3750000   0.0721688   0.3494996  )
        50        Zn     tau(  50) = (   0.8750000   0.0721688   0.3494996  )
        51        Zn     tau(  51) = (   0.3749501   0.0719756   0.8310087  )
        52        Zn     tau(  52) = (   0.8752068   0.0722307   0.8324498  )
        53        Zn     tau(  53) = (   0.2500000   0.2886751   0.3494996  )
        54        Zn     tau(  54) = (   0.7500000   0.2886751   0.3494996  )
        55        Zn     tau(  55) = (   0.2500012   0.2888721   0.8330127  )
        56        Zn     tau(  56) = (   0.7504211   0.2886925   0.8325905  )
        57        Zn     tau(  57) = (   0.1250000   0.5051815   0.3494996  )
        58        Zn     tau(  58) = (   0.6250000   0.5051815   0.3494996  )
        59        Zn     tau(  59) = (   0.1252168   0.5052210   0.8326684  )
        60        Zn     tau(  60) = (   0.6252512   0.5055055   0.8316787  )
        61        Zn     tau(  61) = (   0.0000000   0.7216878   0.3494996  )
        62        Zn     tau(  62) = (   0.5000000   0.7216878   0.3494996  )
        63        Zn     tau(  63) = (   0.0002259   0.7216234   0.8330687  )
        64        Zn     tau(  64) = (   0.5000887   0.7218381   0.8327297  )
        65        C      tau(  65) = (   0.5904981   0.2283912   1.6731445  )
        66        C      tau(  66) = (   0.5698895   0.2404519   1.5391412  )
        67        C      tau(  67) = (   0.5014263   0.1458033   1.4714414  )
        68        C      tau(  68) = (   0.6172452   0.3472291   1.4714026  )
        69        C      tau(  69) = (   0.5956323   0.3596281   1.3413489  )
        70        C      tau(  70) = (   0.4800317   0.1579701   1.3413588  )
        71        C      tau(  71) = (   0.5259692   0.2655781   1.2736714  )
        72        N      tau(  72) = (   0.6074609   0.2181130   1.7836931  )
        73        N      tau(  73) = (   0.4980687   0.2814406   1.1463215  )
        74        H      tau(  74) = (   0.5495944   0.3461654   1.0946919  )
        75        H      tau(  75) = (   0.4681946   0.2042512   1.0947269  )
        76        H      tau(  76) = (   0.4649053   0.0624605   1.5229664  )
        77        H      tau(  77) = (   0.6708181   0.4209701   1.5227006  )
        78        H      tau(  78) = (   0.6319213   0.4435592   1.2902875  )
        79        H      tau(  79) = (   0.4263117   0.0839705   1.2903085  )

   Crystallographic axes

     site n.     atom                  positions (cryst. coord.)
         1        Zn     tau(   1) = (  0.0833333  0.1666667  0.0513044  )
         2        Zn     tau(   2) = (  0.5833333  0.1666667  0.0513044  )
         3        Zn     tau(   3) = (  0.0834625  0.1667124  0.2599187  )
         4        Zn     tau(   4) = (  0.5832446  0.1666976  0.2605806  )
         5        Zn     tau(   5) = (  0.0833333  0.4166667  0.0513044  )
         6        Zn     tau(   6) = (  0.5833333  0.4166667  0.0513044  )
         7        Zn     tau(   7) = (  0.0834070  0.4167663  0.2602093  )
         8        Zn     tau(   8) = (  0.5832997  0.4166711  0.2604259  )
         9        Zn     tau(   9) = (  0.0833333  0.6666667  0.0513044  )
        10        Zn     tau(  10) = (  0.5833333  0.6666667  0.0513044  )
        11        Zn     tau(  11) = (  0.0833558  0.6666938  0.2605078  )
        12        Zn     tau(  12) = (  0.5832626  0.6665605  0.2601501  )
        13        Zn     tau(  13) = (  0.0833333  0.9166667  0.0513044  )
        14        Zn     tau(  14) = (  0.5833333  0.9166667  0.0513044  )
        15        Zn     tau(  15) = (  0.0834001  0.9166324  0.2602480  )
        16        Zn     tau(  16) = (  0.5832000  0.9165895  0.2603170  )
        17        Zn     tau(  17) = (  0.3333333  0.1666667  0.0513044  )
        18        Zn     tau(  18) = (  0.8333333  0.1666667  0.0513044  )
        19        Zn     tau(  19) = (  0.3332763  0.1666393  0.2602868  )
        20        Zn     tau(  20) = (  0.8334303  0.1667804  0.2602327  )
        21        Zn     tau(  21) = (  0.3333333  0.4166667  0.0513044  )
        22        Zn     tau(  22) = (  0.8333333  0.4166667  0.0513044  )
        23        Zn     tau(  23) = (  0.3332952  0.4166537  0.2600314  )
        24        Zn     tau(  24) = (  0.8334099  0.4167759  0.2605781  )
        25        Zn     tau(  25) = (  0.3333333  0.6666667  0.0513044  )
        26        Zn     tau(  26) = (  0.8333333  0.6666667  0.0513044  )
        27        Zn     tau(  27) = (  0.3332078  0.6666122  0.2602944  )
        28        Zn     tau(  28) = (  0.8334201  0.6666632  0.2603965  )
        29        Zn     tau(  29) = (  0.3333333  0.9166667  0.0513044  )
        30        Zn     tau(  30) = (  0.8333333  0.9166667  0.0513044  )
        31        Zn     tau(  31) = (  0.3331983  0.9165994  0.2605153  )
        32        Zn     tau(  32) = (  0.8334421  0.9166194  0.2600287  )
        33        Zn     tau(  33) = (  0.1666667  0.0833333  0.1539131  )
        34        Zn     tau(  34) = (  0.6666667  0.0833333  0.1539131  )
        35        Zn     tau(  35) = (  0.1668446  0.0834939  0.3667189  )
        36        Zn     tau(  36) = (  0.6669180  0.0831686  0.3666301  )
        37        Zn     tau(  37) = (  0.1666667  0.3333333  0.1539131  )
        38        Zn     tau(  38) = (  0.6666667  0.3333333  0.1539131  )
        39        Zn     tau(  39) = (  0.1669548  0.3333886  0.3666069  )
        40        Zn     tau(  40) = (  0.6667861  0.3335352  0.3621175  )
        41        Zn     tau(  41) = (  0.1666667  0.5833333  0.1539131  )
        42        Zn     tau(  42) = (  0.6666667  0.5833333  0.1539131  )
        43        Zn     tau(  43) = (  0.1669872  0.5833734  0.3668067  )
        44        Zn     tau(  44) = (  0.6667310  0.5835121  0.3668850  )
        45        Zn     tau(  45) = (  0.1666667  0.8333333  0.1539131  )
        46        Zn     tau(  46) = (  0.6666667  0.8333333  0.1539131  )
        47        Zn     tau(  47) = (  0.1668378  0.8334115  0.3667553  )
        48        Zn     tau(  48) = (  0.6668903  0.8333368  0.3666216  )
        49        Zn     tau(  49) = (  0.4166667  0.0833333  0.1539131  )
        50        Zn     tau(  50) = (  0.9166667  0.0833333  0.1539131  )
        51        Zn     tau(  51) = (  0.4165053  0.0831103  0.3659608  )
        52        Zn     tau(  52) = (  0.9169092  0.0834049  0.3665954  )
        53        Zn     tau(  53) = (  0.4166667  0.3333333  0.1539131  )
        54        Zn     tau(  54) = (  0.9166667  0.3333333  0.1539131  )
        55        Zn     tau(  55) = (  0.4167816  0.3335608  0.3668433  )
        56        Zn     tau(  56) = (  0.9170978  0.3333533  0.3666574  )
        57        Zn     tau(  57) = (  0.4166667  0.5833333  0.1539131  )
        58        Zn     tau(  58) = (  0.9166667  0.5833333  0.1539131  )
        59        Zn     tau(  59) = (  0.4169063  0.5833790  0.3666917  )
        60        Zn     tau(  60) = (  0.9171049  0.5837075  0.3662558  )
        61        Zn     tau(  61) = (  0.4166667  0.8333333  0.1539131  )
        62        Zn     tau(  62) = (  0.9166667  0.8333333  0.1539131  )
        63        Zn     tau(  63) = (  0.4168554  0.8332590  0.3668680  )
        64        Zn     tau(  64) = (  0.9168421  0.8335068  0.3667187  )
        65        C      tau(  65) = (  0.7223598  0.2637235  0.7368218  )
        66        C      tau(  66) = (  0.7087144  0.2776499  0.6778092  )
        67        C      tau(  67) = (  0.5856058  0.1683591  0.6479955  )
        68        C      tau(  68) = (  0.8177181  0.4009456  0.6479784  )
        69        C      tau(  69) = (  0.8032637  0.4152627  0.5907051  )
        70        C      tau(  70) = (  0.5712358  0.1824081  0.5907095  )
        71        C      tau(  71) = (  0.6793007  0.3066632  0.5609012  )
        72        N      tau(  72) = (  0.7333884  0.2518551  0.7855053  )
        73        N      tau(  73) = (  0.6605585  0.3249796  0.5048187  )
        74        H      tau(  74) = (  0.7494531  0.3997174  0.4820820  )
        75        H      tau(  75) = (  0.5861191  0.2358490  0.4820974  )
        76        H      tau(  76) = (  0.5009669  0.0721231  0.6706861  )
        77        H      tau(  77) = (  0.9138653  0.4860944  0.6705691  )
        78        H      tau(  78) = (  0.8880103  0.5121780  0.5682187  )
        79        H      tau(  79) = (  0.4747921  0.0969608  0.5682279  )

     number of k points=     5  Marzari-Vanderbilt smearing, width (Ry)=  0.0200
                       cart. coord. in units 2pi/alat
        k(    1) = (   0.0000000   0.0000000   0.0000000), wk =   0.2222222
        k(    2) = (   0.0000000   0.3849002   0.0000000), wk =   0.4444444
        k(    3) = (   0.3333333   0.1924501   0.0000000), wk =   0.4444444
        k(    4) = (   0.3333333   0.5773503   0.0000000), wk =   0.4444444
        k(    5) = (   0.3333333  -0.1924501   0.0000000), wk =   0.4444444

                       cryst. coord.
        k(    1) = (   0.0000000   0.0000000   0.0000000), wk =   0.2222222
        k(    2) = (   0.0000000   0.3333333   0.0000000), wk =   0.4444444
        k(    3) = (   0.3333333   0.0000000   0.0000000), wk =   0.4444444
        k(    4) = (   0.3333333   0.3333333   0.0000000), wk =   0.4444444
        k(    5) = (   0.3333333  -0.3333333   0.0000000), wk =   0.4444444

     Dense  grid:   337189 G-vectors     FFT dimensions: (  72,  72, 160)

     Dynamical RAM for                 wfc:      31.89 MB

     Dynamical RAM for     wfc (w. buffer):     191.33 MB

     Dynamical RAM for           str. fact:       1.29 MB

     Dynamical RAM for           local pot:       0.00 MB

     Dynamical RAM for          nlocal pot:      49.64 MB

     Dynamical RAM for                qrad:       3.52 MB

     Dynamical RAM for          rho,v,vnew:       2.15 MB

     Dynamical RAM for               rhoin:       0.72 MB

     Dynamical RAM for            rho*nmix:       5.15 MB

     Dynamical RAM for           G-vectors:       1.37 MB

     Dynamical RAM for          h,s,v(r/c):       7.21 MB

     Dynamical RAM for          <psi|beta>:      14.97 MB

     Dynamical RAM for                 psi:      63.78 MB

     Dynamical RAM for                hpsi:      63.78 MB

     Dynamical RAM for                spsi:      63.78 MB

     Dynamical RAM for      wfcinit/wfcrot:      87.69 MB

     Dynamical RAM for           addusdens:      80.39 MB

     Dynamical RAM for          addusforce:     121.32 MB

     Dynamical RAM for         addusstress:      64.63 MB

     Estimated static dynamical RAM per process >     253.59 MB

     Estimated max dynamical RAM per process >     472.26 MB

     Estimated total dynamical RAM >       7.38 GB

     Check: negative core charge=   -0.000056

     Initial potential from superposition of free atoms

     starting charge    1323.9906, renormalised to    1324.0000

     negative rho (up, down):  7.088E-03 0.000E+00
     Starting wfcs are  874 randomized atomic wfcs
[psid05:261008] 15 more processes have sent help message help-mpi-btl-openib.txt / ib port not selected
[psid05:261008] Set MCA parameter "orte_base_help_aggregate" to 0 to see all help / error messages
[psid05:261008] 15 more processes have sent help message help-mpi-btl-openib.txt / error in device init
     Checking if some PAW data can be deallocated... 
       PAW data deallocated on   13 nodes for type:  2

     total cpu time spent up to now is      145.2 secs

     Self-consistent Calculation

     iteration #  1     ecut=    30.00 Ry     beta= 0.70
     Davidson diagonalization with overlap

---- Real-time Memory Report at c_bands before calling an iterative solver
           352 MiB given to the printing process from OS
             0 MiB allocation reported by mallinfo(arena+hblkhd)
         82076 MiB available memory on the node where the printing process lives
------------------
     ethr =  1.00E-02,  avg # of iterations =  7.2

     Threshold (ethr) on eigenvalues was too large:
     Diagonalizing with lowered threshold

     Davidson diagonalization with overlap

---- Real-time Memory Report at c_bands before calling an iterative solver
           508 MiB given to the printing process from OS
             0 MiB allocation reported by mallinfo(arena+hblkhd)
         82035 MiB available memory on the node where the printing process lives
------------------
     ethr =  9.21E-04,  avg # of iterations =  1.2

     negative rho (up, down):  3.721E-02 0.000E+00

     total cpu time spent up to now is     1147.4 secs

     total energy              =  -29703.40667212 Ry
     estimated scf accuracy    <      12.41643933 Ry

     iteration #  2     ecut=    30.00 Ry     beta= 0.70
     Davidson diagonalization with overlap

---- Real-time Memory Report at c_bands before calling an iterative solver
           510 MiB given to the printing process from OS
             0 MiB allocation reported by mallinfo(arena+hblkhd)
         82030 MiB available memory on the node where the printing process lives
------------------
     ethr =  9.38E-04,  avg # of iterations = 10.4

     negative rho (up, down):  3.476E-02 0.000E+00

     total cpu time spent up to now is     1985.2 secs

     total energy              =  -29666.13634532 Ry
     estimated scf accuracy    <     813.50625189 Ry

     iteration #  3     ecut=    30.00 Ry     beta= 0.70
     Davidson diagonalization with overlap

---- Real-time Memory Report at c_bands before calling an iterative solver
           520 MiB given to the printing process from OS
             0 MiB allocation reported by mallinfo(arena+hblkhd)
         81916 MiB available memory on the node where the printing process lives
------------------
     ethr =  9.38E-04,  avg # of iterations =  9.6

     negative rho (up, down):  2.613E-02 0.000E+00

     total cpu time spent up to now is     3238.9 secs

     total energy              =  -29702.32202195 Ry
     estimated scf accuracy    <     119.21915895 Ry

     iteration #  4     ecut=    30.00 Ry     beta= 0.70
     Davidson diagonalization with overlap

---- Real-time Memory Report at c_bands before calling an iterative solver
           520 MiB given to the printing process from OS
             0 MiB allocation reported by mallinfo(arena+hblkhd)
         80778 MiB available memory on the node where the printing process lives
------------------
     ethr =  9.38E-04,  avg # of iterations =  8.8

     negative rho (up, down):  1.326E-02 0.000E+00

     total cpu time spent up to now is     3841.9 secs

     total energy              =  -29705.40784592 Ry
     estimated scf accuracy    <     133.40301840 Ry

     iteration #  5     ecut=    30.00 Ry     beta= 0.70
     Davidson diagonalization with overlap

---- Real-time Memory Report at c_bands before calling an iterative solver
           520 MiB given to the printing process from OS
             0 MiB allocation reported by mallinfo(arena+hblkhd)
         81863 MiB available memory on the node where the printing process lives
------------------
     ethr =  9.38E-04,  avg # of iterations =  7.0

     negative rho (up, down):  1.313E-02 0.000E+00

     total cpu time spent up to now is     4402.6 secs

     total energy              =  -29711.46920820 Ry
     estimated scf accuracy    <       5.52445939 Ry

     iteration #  6     ecut=    30.00 Ry     beta= 0.70
     Davidson diagonalization with overlap

---- Real-time Memory Report at c_bands before calling an iterative solver
           520 MiB given to the printing process from OS
             0 MiB allocation reported by mallinfo(arena+hblkhd)
         81838 MiB available memory on the node where the printing process lives
------------------
     ethr =  4.17E-04,  avg # of iterations =  3.0

     negative rho (up, down):  2.017E-02 0.000E+00

     total cpu time spent up to now is     4901.7 secs

     total energy              =  -29711.99213036 Ry
     estimated scf accuracy    <       0.20517814 Ry

     iteration #  7     ecut=    30.00 Ry     beta= 0.70
     Davidson diagonalization with overlap

---- Real-time Memory Report at c_bands before calling an iterative solver
           520 MiB given to the printing process from OS
             0 MiB allocation reported by mallinfo(arena+hblkhd)
         81811 MiB available memory on the node where the printing process lives
------------------
     c_bands:  1 eigenvalues not converged
     ethr =  1.55E-05,  avg # of iterations = 16.4

     negative rho (up, down):  2.830E-02 0.000E+00

     total cpu time spent up to now is     5505.6 secs

     total energy              =  -29711.99910478 Ry
     estimated scf accuracy    <       0.07131408 Ry

     iteration #  8     ecut=    30.00 Ry     beta= 0.70
     Davidson diagonalization with overlap

---- Real-time Memory Report at c_bands before calling an iterative solver
           520 MiB given to the printing process from OS
             0 MiB allocation reported by mallinfo(arena+hblkhd)
         80676 MiB available memory on the node where the printing process lives
------------------
     c_bands:  1 eigenvalues not converged
     ethr =  5.39E-06,  avg # of iterations = 13.6

     negative rho (up, down):  3.336E-02 0.000E+00

     total cpu time spent up to now is     6100.8 secs

     total energy              =  -29711.99935450 Ry
     estimated scf accuracy    <       0.05999391 Ry

     iteration #  9     ecut=    30.00 Ry     beta= 0.70
     Davidson diagonalization with overlap

---- Real-time Memory Report at c_bands before calling an iterative solver
           520 MiB given to the printing process from OS
             0 MiB allocation reported by mallinfo(arena+hblkhd)
         78677 MiB available memory on the node where the printing process lives
------------------
     c_bands:  2 eigenvalues not converged
     ethr =  4.53E-06,  avg # of iterations =  6.4

     negative rho (up, down):  3.471E-02 0.000E+00

     total cpu time spent up to now is     6628.5 secs

     total energy              =  -29712.00370619 Ry
     estimated scf accuracy    <       0.04813910 Ry

     iteration # 10     ecut=    30.00 Ry     beta= 0.70
     Davidson diagonalization with overlap

---- Real-time Memory Report at c_bands before calling an iterative solver
           520 MiB given to the printing process from OS
             0 MiB allocation reported by mallinfo(arena+hblkhd)
         78634 MiB available memory on the node where the printing process lives
------------------
     ethr =  3.64E-06,  avg # of iterations =  4.4

     negative rho (up, down):  3.523E-02 0.000E+00

     total cpu time spent up to now is     7131.0 secs

     total energy              =  -29712.00732899 Ry
     estimated scf accuracy    <       0.01484231 Ry

     iteration # 11     ecut=    30.00 Ry     beta= 0.70
     Davidson diagonalization with overlap

---- Real-time Memory Report at c_bands before calling an iterative solver
           521 MiB given to the printing process from OS
             0 MiB allocation reported by mallinfo(arena+hblkhd)
         78616 MiB available memory on the node where the printing process lives
------------------
     c_bands:  1 eigenvalues not converged
     ethr =  1.12E-06,  avg # of iterations = 12.6

     negative rho (up, down):  4.058E-02 0.000E+00

     total cpu time spent up to now is     7642.8 secs

     total energy              =  -29712.00026175 Ry
     estimated scf accuracy    <       0.01222566 Ry

     iteration # 12     ecut=    30.00 Ry     beta= 0.70
     Davidson diagonalization with overlap

---- Real-time Memory Report at c_bands before calling an iterative solver
           521 MiB given to the printing process from OS
             0 MiB allocation reported by mallinfo(arena+hblkhd)
         78614 MiB available memory on the node where the printing process lives
------------------
     ethr =  9.23E-07,  avg # of iterations = 16.0

     negative rho (up, down):  3.822E-02 0.000E+00

     total cpu time spent up to now is     8252.3 secs

     total energy              =  -29712.00051030 Ry
     estimated scf accuracy    <       0.00952724 Ry

     iteration # 13     ecut=    30.00 Ry     beta= 0.70
     Davidson diagonalization with overlap

---- Real-time Memory Report at c_bands before calling an iterative solver
           521 MiB given to the printing process from OS
             0 MiB allocation reported by mallinfo(arena+hblkhd)
         80068 MiB available memory on the node where the printing process lives
------------------
     ethr =  7.20E-07,  avg # of iterations =  2.8

     negative rho (up, down):  3.736E-02 0.000E+00

     total cpu time spent up to now is     8745.3 secs

     total energy              =  -29711.99808309 Ry
     estimated scf accuracy    <       0.00917425 Ry

     iteration # 14     ecut=    30.00 Ry     beta= 0.70
     Davidson diagonalization with overlap

---- Real-time Memory Report at c_bands before calling an iterative solver
           521 MiB given to the printing process from OS
             0 MiB allocation reported by mallinfo(arena+hblkhd)
         78610 MiB available memory on the node where the printing process lives
------------------
     ethr =  6.93E-07,  avg # of iterations = 11.0

     negative rho (up, down):  3.665E-02 0.000E+00

     total cpu time spent up to now is     9306.5 secs

     total energy              =  -29711.99379620 Ry
     estimated scf accuracy    <       0.14264066 Ry

     iteration # 15     ecut=    30.00 Ry     beta= 0.70
     Davidson diagonalization with overlap

---- Real-time Memory Report at c_bands before calling an iterative solver
           521 MiB given to the printing process from OS
             0 MiB allocation reported by mallinfo(arena+hblkhd)
         80582 MiB available memory on the node where the printing process lives
------------------
     ethr =  6.93E-07,  avg # of iterations =  8.0

     negative rho (up, down):  3.633E-02 0.000E+00

     total cpu time spent up to now is     9837.3 secs

     total energy              =  -29712.00144589 Ry
     estimated scf accuracy    <       0.00035806 Ry

     iteration # 16     ecut=    30.00 Ry     beta= 0.70
     Davidson diagonalization with overlap

---- Real-time Memory Report at c_bands before calling an iterative solver
           521 MiB given to the printing process from OS
             0 MiB allocation reported by mallinfo(arena+hblkhd)
         80579 MiB available memory on the node where the printing process lives
------------------
     ethr =  2.70E-08,  avg # of iterations =  3.0

     negative rho (up, down):  3.614E-02 0.000E+00

     total cpu time spent up to now is    10404.2 secs

     total energy              =  -29712.00149324 Ry
     estimated scf accuracy    <       0.00028529 Ry

     iteration # 17     ecut=    30.00 Ry     beta= 0.70
     Davidson diagonalization with overlap

---- Real-time Memory Report at c_bands before calling an iterative solver
           521 MiB given to the printing process from OS
             0 MiB allocation reported by mallinfo(arena+hblkhd)
         78609 MiB available memory on the node where the printing process lives
------------------
     ethr =  2.15E-08,  avg # of iterations =  2.0

     negative rho (up, down):  3.588E-02 0.000E+00

     total cpu time spent up to now is    10876.8 secs

     total energy              =  -29712.00153306 Ry
     estimated scf accuracy    <       0.00008411 Ry

     iteration # 18     ecut=    30.00 Ry     beta= 0.70
     Davidson diagonalization with overlap

---- Real-time Memory Report at c_bands before calling an iterative solver
           522 MiB given to the printing process from OS
             0 MiB allocation reported by mallinfo(arena+hblkhd)
         78606 MiB available memory on the node where the printing process lives
------------------
     ethr =  6.35E-09,  avg # of iterations =  2.0

     negative rho (up, down):  3.575E-02 0.000E+00

     total cpu time spent up to now is    11350.5 secs

     total energy              =  -29712.00154197 Ry
     estimated scf accuracy    <       0.00001325 Ry

     iteration # 19     ecut=    30.00 Ry     beta= 0.70
     Davidson diagonalization with overlap

---- Real-time Memory Report at c_bands before calling an iterative solver
           522 MiB given to the printing process from OS
             0 MiB allocation reported by mallinfo(arena+hblkhd)
         78607 MiB available memory on the node where the printing process lives
------------------
     ethr =  1.00E-09,  avg # of iterations =  2.0

     negative rho (up, down):  3.571E-02 0.000E+00

     total cpu time spent up to now is    11828.2 secs

     total energy              =  -29712.00154389 Ry
     estimated scf accuracy    <       0.00000157 Ry

     iteration # 20     ecut=    30.00 Ry     beta= 0.70
     Davidson diagonalization with overlap

---- Real-time Memory Report at c_bands before calling an iterative solver
           522 MiB given to the printing process from OS
             0 MiB allocation reported by mallinfo(arena+hblkhd)
         78608 MiB available memory on the node where the printing process lives
------------------
     ethr =  1.19E-10,  avg # of iterations =  3.0

     negative rho (up, down):  3.570E-02 0.000E+00

     total cpu time spent up to now is    12331.8 secs

     total energy              =  -29712.00154397 Ry
     estimated scf accuracy    <       0.00000188 Ry

     iteration # 21     ecut=    30.00 Ry     beta= 0.70
     Davidson diagonalization with overlap

---- Real-time Memory Report at c_bands before calling an iterative solver
           522 MiB given to the printing process from OS
             0 MiB allocation reported by mallinfo(arena+hblkhd)
         78606 MiB available memory on the node where the printing process lives
------------------
     ethr =  1.19E-10,  avg # of iterations =  2.2

     negative rho (up, down):  3.567E-02 0.000E+00

     total cpu time spent up to now is    12802.2 secs

     End of self-consistent calculation

          k = 0.0000 0.0000 0.0000 ( 42115 PWs)   bands (ev):

  -123.0298-123.0270-123.0263-123.0260-123.0259-123.0258-123.0256-123.0254
  -123.0253-123.0252-123.0249-123.0248-123.0247-123.0246-123.0246-123.0243
  -123.0027-123.0018-122.9964-122.9865-122.9851-122.9844-122.9839-122.9822
  -122.9809-122.9805-122.9800-122.9795-122.9792-122.9783-122.9781-122.9777
  -122.8599-122.8271-122.8249-122.8244-122.8242-122.8235-122.8227-122.8227
  -122.8224-122.8221-122.8219-122.8218-122.8216-122.8214-122.8207-122.8200
  -122.8197-122.8194-122.8192-122.8071-122.8060-122.8044-122.8019-122.8010
  -122.8009-122.8002-122.7990-122.7983-122.7980-122.7976-122.7974-122.7969
   -77.1382 -77.1382 -77.1378 -77.1291 -77.1290 -77.1287 -77.1287 -77.1285
   -77.1284 -77.1158 -77.1137 -77.1131 -77.1130 -77.1127 -77.1127 -77.1124
   -77.1124 -77.1123 -77.1122 -77.1120 -77.1118 -77.1117 -77.1115 -77.1114
   -77.1113 -77.1062 -77.1060 -77.1058 -77.1058 -77.1057 -77.1055 -77.1040
   -77.1029 -77.1029 -77.1028 -77.1026 -77.1026 -77.1025 -77.1012 -77.1012
   -77.1011 -77.1001 -77.0986 -77.0985 -77.0982 -77.0981 -77.0980 -77.0979
   -77.0978 -77.0977 -77.0976 -77.0902 -77.0890 -77.0885 -77.0881 -77.0876
   -77.0869 -77.0860 -77.0859 -77.0824 -77.0746 -77.0731 -77.0725 -77.0711
   -77.0704 -77.0702 -77.0700 -77.0681 -77.0678 -77.0671 -77.0665 -77.0662
   -77.0659 -77.0658 -77.0654 -77.0646 -77.0644 -77.0643 -77.0639 -77.0623
   -77.0617 -77.0606 -77.0600 -77.0597 -77.0584 -77.0579 -77.0570 -77.0568
   -77.0551 -77.0541 -77.0539 -77.0535 -77.0526 -77.0524 -77.0520 -77.0512
   -76.9553 -76.9451 -76.9436 -76.9325 -76.9325 -76.9323 -76.9235 -76.9232
   -76.9227 -76.9226 -76.9224 -76.9221 -76.9199 -76.9191 -76.9187 -76.9185
   -76.9179 -76.9171 -76.9166 -76.9165 -76.9160 -76.9159 -76.9158 -76.9156
   -76.9155 -76.9150 -76.9147 -76.9144 -76.9137 -76.9135 -76.9133 -76.9110
   -76.9107 -76.9076 -76.9060 -76.9027 -76.9023 -76.9018 -76.9015 -76.9005
   -76.9003 -76.9002 -76.9000 -76.8997 -76.8994 -76.8983 -76.8980 -76.8973
   -76.8972 -76.8971 -76.8969 -76.8962 -76.8960 -76.8957 -76.8955 -76.8953
   -76.8952 -76.8950 -76.8948 -76.8936 -76.8930 -76.8929 -76.8929 -76.8927
   -76.8924 -76.8923 -76.8922 -76.8920 -76.8919 -76.8915 -76.8914 -76.8909
   -76.8907 -76.8905 -76.8903 -76.8892 -76.8875 -76.8821 -76.8803 -76.8788
   -76.8785 -76.8777 -76.8767 -76.8762 -76.8744 -76.8744 -76.8725 -76.8725
   -76.8712 -76.8704 -76.8700 -76.8694 -76.8691 -76.8683 -76.8679 -76.8674
   -15.5655 -14.1645 -13.3332 -10.9706 -10.8583  -7.9399  -7.6532  -6.4821
    -5.7604  -5.6970  -5.1688  -5.1640  -4.9965  -4.9210  -4.9077  -4.9005
    -4.8994  -4.8987  -4.8977  -4.8976  -4.7491  -4.7490  -4.7489  -4.7001
    -4.6987  -4.6982  -4.5826  -4.5734  -4.5707  -4.5699  -4.5684  -4.5680
    -4.5618  -4.5612  -4.5606  -4.4919  -4.4906  -4.4878  -4.4182  -4.4162
    -4.4159  -4.4156  -4.4152  -4.4149  -4.3923  -4.3921  -4.3919  -4.3550
    -4.3484  -4.3471  -4.3450  -4.3446  -4.3429  -4.3410  -4.3400  -4.3399
    -4.3391  -4.3385  -4.3381  -4.3269  -4.3260  -4.3260  -4.2949  -4.2948
    -4.2936  -4.2931  -4.2924  -4.2923  -4.2528  -4.2526  -4.2506  -4.2491
    -4.2484  -4.2479  -4.1902  -4.1712  -4.1605  -4.1585  -4.1572  -4.1564
    -4.1560  -4.1556  -4.1554  -4.1550  -4.1550  -4.1543  -4.1541  -4.1170
    -4.1145  -4.1116  -4.1097  -4.1094  -4.1089  -4.1083  -4.1073  -4.1046
    -4.1026  -4.1004  -4.0999  -4.0984  -4.0975  -4.0969  -4.0666  -4.0651
    -4.0590  -4.0572  -4.0566  -4.0562  -4.0269  -4.0256  -4.0253  -4.0203
    -4.0188  -4.0174  -3.9859  -3.9858  -3.9766  -3.9754  -3.9751  -3.9732
    -3.9719  -3.9715  -3.9707  -3.9680  -3.9670  -3.9651  -3.9623  -3.9619
    -3.9611  -3.9608  -3.9605  -3.9484  -3.9382  -3.9380  -3.9074  -3.9067
    -3.9044  -3.9032  -3.9027  -3.9018  -3.8891  -3.8857  -3.8835  -3.8831
    -3.8823  -3.8822  -3.8514  -3.8484  -3.8481  -3.8478  -3.8466  -3.8464
    -3.8177  -3.8152  -3.8147  -3.8141  -3.8139  -3.8134  -3.7760  -3.7760
    -3.7547  -3.7545  -3.7482  -3.7475  -3.7469  -3.7466  -3.7450  -3.7449
    -3.7122  -3.7120  -3.7105  -3.7030  -3.7023  -3.7019  -3.6970  -3.6969
    -3.6951  -3.6798  -3.6792  -3.6760  -3.6749  -3.6733  -3.6726  -3.6509
    -3.6470  -3.6462  -3.6432  -3.6427  -3.6406  -3.6396  -3.6396  -3.6393
    -3.6393  -3.6392  -3.6390  -3.6293  -3.6290  -3.6286  -3.6276  -3.6269
    -3.6257  -3.6254  -3.6252  -3.6246  -3.6222  -3.6212  -3.6204  -3.6196
    -3.6178  -3.6176  -3.6155  -3.6133  -3.6131  -3.6110  -3.6106  -3.6078
    -3.5920  -3.5918  -3.5917  -3.5913  -3.5912  -3.5910  -3.5566  -3.5565
    -3.5540  -3.5438  -3.5425  -3.5423  -3.5406  -3.5386  -3.5383  -3.5382
    -3.5381  -3.5366  -3.5353  -3.5341  -3.5331  -3.4978  -3.4977  -3.4817
    -3.4802  -3.4784  -3.4766  -3.4763  -3.4749  -3.4743  -3.4730  -3.4705
    -3.4696  -3.4691  -3.4687  -3.4679  -3.4674  -3.4667  -3.4655  -3.4645
    -3.4640  -3.4581  -3.4574  -3.4568  -3.4566  -3.4560  -3.4557  -3.4008
    -3.4006  -3.3927  -3.3924  -3.3920  -3.3596  -3.3592  -3.3590  -3.3587
    -3.3584  -3.3580  -3.3567  -3.3566  -3.3552  -3.3480  -3.3474  -3.3449
    -3.3414  -3.3401  -3.3396  -3.3387  -3.3383  -3.3374  -3.3187  -3.3184
    -3.3181  -3.3147  -3.3134  -3.3120  -3.3117  -3.3114  -3.3112  -3.2855
    -3.2852  -3.2843  -3.2825  -3.2822  -3.2817  -3.2698  -3.2695  -3.2691
    -3.2668  -3.2664  -3.2659  -3.2608  -3.2593  -3.2580  -3.2382  -3.2381
    -3.2253  -3.2245  -3.1842  -3.1838  -3.1837  -3.1836  -3.1830  -3.1828
    -3.1759  -3.1754  -3.1750  -3.1745  -3.1733  -3.1733  -3.1522  -3.1522
    -3.1520  -3.1117  -3.1109  -3.1105  -3.1043  -3.0329  -3.0125  -2.9458
    -2.9457  -2.9456  -2.9318  -2.9299  -2.9263  -2.8995  -2.8914  -2.8910
    -2.8877  -2.8836  -2.8835  -2.6265  -2.1271  -1.8214  -1.4803  -1.4798
    -1.4789  -1.4787  -1.4778  -1.4601  -1.0134  -0.9187  -0.7418  -0.1244
    -0.0206  -0.0162  -0.0139  -0.0124  -0.0110  -0.0105   0.2969   0.4088
     0.4160   0.4178   0.4197   0.4203   0.4269   0.5328   0.8184   0.8223
     0.8278   0.8311   0.8326   0.8334   1.1616   1.2374   1.2862   1.2869
     1.2872   1.8426   1.8480   1.8500   2.1953   2.1968   2.2026   2.2468
     2.2478   2.2489   2.2495   2.2514   2.2535   2.4369   2.4404   2.4429
     2.6152   3.4397   3.4476   3.4561   3.4607   3.4613   3.4737   3.9422
     3.9437   3.9442   3.9462   3.9522   3.9582   4.1165   4.5340   4.5361
     4.5399   4.8177   4.8197   4.8202   5.6508   5.6526   5.6547   5.9196
     5.9299   5.9673   5.9836   5.9941   6.0124   6.2152   6.2241   6.3873
     6.5583   6.5628   6.5649   6.8857   7.0897   7.2944   7.3039   7.3098
     7.3153   7.3244   7.3327   7.5417   7.5430   7.5461   7.5481   7.5492
     7.5496   7.6143   7.7051   7.7055   7.7118   7.7123   7.7129   7.7143
     7.8333   7.9144   8.0003   8.0243   8.1289   8.1889   8.4281   8.4289
     8.4326   8.4361   8.4439   8.4453   8.4636   8.4839   8.4875   8.5074
     8.5092   8.5144   8.5177   8.5189   8.5213   8.5220   8.6211   8.6607
     8.6728   8.7187   8.7219   8.7680   8.7828   8.7942   8.8611   8.9268
     8.9456   9.2065   9.3307   9.3781   9.4357   9.5040   9.5178   9.5285
     9.5742   9.6431   9.9149   9.9449   9.9594   9.9620   9.9631   9.9718
    10.0056  10.0100  10.0166  10.0196  10.0200  10.0320  10.0969  10.0981
    10.1133  10.2133  10.2431  10.3339  10.3987  10.4122  10.4897  10.4980
    10.5178  10.6144  10.6461  10.7114  10.7376  10.7898  11.0030  11.1699
    11.2178  11.2613  11.2891  11.3389  11.3403  11.3788  11.3839  11.3864
    11.3907  11.4098

     occupation numbers 
     1.0000   1.0000   1.0000   1.0000   1.0000   1.0000   1.0000   1.0000
     1.0000   1.0000   1.0000   1.0000   1.0000   1.0000   1.0000   1.0000
     1.0000   1.0000   1.0000   1.0000   1.0000   1.0000   1.0000   1.0000
     1.0000   1.0000   1.0000   1.0000   1.0000   1.0000   1.0000   1.0000
     1.0000   1.0000   1.0000   1.0000   1.0000   1.0000   1.0000   1.0000
     1.0000   1.0000   1.0000   1.0000   1.0000   1.0000   1.0000   1.0000
     1.0000   1.0000   1.0000   1.0000   1.0000   1.0000   1.0000   1.0000
     1.0000   1.0000   1.0000   1.0000   1.0000   1.0000   1.0000   1.0000
     1.0000   1.0000   1.0000   1.0000   1.0000   1.0000   1.0000   1.0000
     1.0000   1.0000   1.0000   1.0000   1.0000   1.0000   1.0000   1.0000
     1.0000   1.0000   1.0000   1.0000   1.0000   1.0000   1.0000   1.0000
     1.0000   1.0000   1.0000   1.0000   1.0000   1.0000   1.0000   1.0000
     1.0000   1.0000   1.0000   1.0000   1.0000   1.0000   1.0000   1.0000
     1.0000   1.0000   1.0000   1.0000   1.0000   1.0000   1.0000   1.0000
     1.0000   1.0000   1.0000   1.0000   1.0000   1.0000   1.0000   1.0000
     1.0000   1.0000   1.0000   1.0000   1.0000   1.0000   1.0000   1.0000
     1.0000   1.0000   1.0000   1.0000   1.0000   1.0000   1.0000   1.0000
     1.0000   1.0000   1.0000   1.0000   1.0000   1.0000   1.0000   1.0000
     1.0000   1.0000   1.0000   1.0000   1.0000   1.0000   1.0000   1.0000
     1.0000   1.0000   1.0000   1.0000   1.0000   1.0000   1.0000   1.0000
     1.0000   1.0000   1.0000   1.0000   1.0000   1.0000   1.0000   1.0000
     1.0000   1.0000   1.0000   1.0000   1.0000   1.0000   1.0000   1.0000
     1.0000   1.0000   1.0000   1.0000   1.0000   1.0000   1.0000   1.0000
     1.0000   1.0000   1.0000   1.0000   1.0000   1.0000   1.0000   1.0000
     1.0000   1.0000   1.0000   1.0000   1.0000   1.0000   1.0000   1.0000
     1.0000   1.0000   1.0000   1.0000   1.0000   1.0000   1.0000   1.0000
     1.0000   1.0000   1.0000   1.0000   1.0000   1.0000   1.0000   1.0000
     1.0000   1.0000   1.0000   1.0000   1.0000   1.0000   1.0000   1.0000
     1.0000   1.0000   1.0000   1.0000   1.0000   1.0000   1.0000   1.0000
     1.0000   1.0000   1.0000   1.0000   1.0000   1.0000   1.0000   1.0000
     1.0000   1.0000   1.0000   1.0000   1.0000   1.0000   1.0000   1.0000
     1.0000   1.0000   1.0000   1.0000   1.0000   1.0000   1.0000   1.0000
     1.0000   1.0000   1.0000   1.0000   1.0000   1.0000   1.0000   1.0000
     1.0000   1.0000   1.0000   1.0000   1.0000   1.0000   1.0000   1.0000
     1.0000   1.0000   1.0000   1.0000   1.0000   1.0000   1.0000   1.0000
     1.0000   1.0000   1.0000   1.0000   1.0000   1.0000   1.0000   1.0000
     1.0000   1.0000   1.0000   1.0000   1.0000   1.0000   1.0000   1.0000
     1.0000   1.0000   1.0000   1.0000   1.0000   1.0000   1.0000   1.0000
     1.0000   1.0000   1.0000   1.0000   1.0000   1.0000   1.0000   1.0000
     1.0000   1.0000   1.0000   1.0000   1.0000   1.0000   1.0000   1.0000
     1.0000   1.0000   1.0000   1.0000   1.0000   1.0000   1.0000   1.0000
     1.0000   1.0000   1.0000   1.0000   1.0000   1.0000   1.0000   1.0000
     1.0000   1.0000   1.0000   1.0000   1.0000   1.0000   1.0000   1.0000
     1.0000   1.0000   1.0000   1.0000   1.0000   1.0000   1.0000   1.0000
     1.0000   1.0000   1.0000   1.0000   1.0000   1.0000   1.0000   1.0000
     1.0000   1.0000   1.0000   1.0000   1.0000   1.0000   1.0000   1.0000
     1.0000   1.0000   1.0000   1.0000   1.0000   1.0000   1.0000   1.0000
     1.0000   1.0000   1.0000   1.0000   1.0000   1.0000   1.0000   1.0000
     1.0000   1.0000   1.0000   1.0000   1.0000   1.0000   1.0000   1.0000
     1.0000   1.0000   1.0000   1.0000   1.0000   1.0000   1.0000   1.0000
     1.0000   1.0000   1.0000   1.0000   1.0000   1.0000   1.0000   1.0000
     1.0000   1.0000   1.0000   1.0000   1.0000   1.0000   1.0000   1.0000
     1.0000   1.0000   1.0000   1.0000   1.0000   1.0000   1.0000   1.0000
     1.0000   1.0000   1.0000   1.0000   1.0000   1.0000   1.0000   1.0000
     1.0000   1.0000   1.0000   1.0000   1.0000   1.0000   1.0000   1.0000
     1.0000   1.0000   1.0000   1.0000   1.0000   1.0000   1.0000   1.0000
     1.0000   1.0000   1.0000   1.0000   1.0000   1.0000   1.0000   1.0000
     1.0000   1.0000   1.0000   1.0000   1.0000   1.0000   1.0000   1.0000
     1.0000   1.0000   1.0000   1.0000   1.0000   1.0000   1.0000   1.0000
     1.0000   1.0000   1.0000   1.0000   1.0000   1.0000   1.0000   1.0000
     1.0000   1.0000   1.0000   1.0000   1.0000   1.0000   1.0000   1.0000
     1.0000   1.0000   1.0000   1.0000   1.0000   1.0000   1.0000   1.0000
     1.0000   1.0000   1.0000   1.0000   1.0000   1.0000   1.0000   1.0000
     1.0000   1.0000   1.0000   1.0000   1.0000   1.0000   1.0000   1.0000
     1.0000   1.0000   1.0000   1.0000   1.0000   1.0000   1.0000   1.0000
     1.0000   1.0000   1.0000   1.0000   1.0000   1.0000   1.0000   1.0000
     1.0000   1.0000   1.0000   1.0000   1.0000   1.0000   1.0000   1.0000
     1.0000   1.0000   1.0000   1.0000   1.0000   1.0000   1.0000   1.0000
     1.0000   1.0000   1.0000   1.0000   1.0000   1.0000   1.0000   1.0000
     1.0000   1.0000   1.0000   1.0000   1.0000   1.0000   1.0000   1.0000
     1.0000   1.0000   1.0000   1.0000   1.0000   1.0000   1.0000   1.0000
     1.0000   1.0000   1.0000   1.0000   1.0000   1.0000   1.0000   1.0000
     1.0000   1.0000   1.0000   1.0000   1.0000   1.0000   1.0000   1.0000
     1.0000   1.0000   1.0000   1.0000   1.0000   1.0000   1.0000   1.0000
     1.0000   1.0000   1.0000   1.0000   1.0000   1.0000   1.0000   1.0000
     1.0000   1.0000   1.0000   1.0000   1.0000   1.0000   1.0000   1.0000
     1.0000   1.0000   1.0000   1.0000   1.0000   1.0000   1.0000   1.0000
     1.0000   1.0000   1.0000   1.0000   1.0000   1.0000   1.0000   1.0000
     1.0000   1.0000   1.0000   1.0000   1.0000   1.0000   1.0000   1.0000
     1.0000   1.0000   1.0000   1.0000   1.0000   1.0000   1.0000   1.0000
     1.0000   1.0000   1.0000   1.0000   1.0000   1.0000   1.0000   1.0000
     1.0000   1.0000   1.0000   1.0000   1.0000   1.0000   1.0000   1.0000
     1.0000   1.0340   1.0363   1.0390   1.0404   1.0406   1.0447   0.5749
     0.5708   0.5695   0.5638   0.5472   0.5309   0.1754   0.0005   0.0004
     0.0004   0.0000   0.0000   0.0000   0.0000   0.0000   0.0000   0.0000
     0.0000   0.0000   0.0000   0.0000   0.0000   0.0000   0.0000   0.0000
     0.0000   0.0000   0.0000   0.0000   0.0000   0.0000   0.0000   0.0000
     0.0000   0.0000   0.0000   0.0000   0.0000   0.0000   0.0000   0.0000
     0.0000   0.0000   0.0000   0.0000   0.0000   0.0000   0.0000   0.0000
     0.0000   0.0000   0.0000   0.0000   0.0000   0.0000   0.0000   0.0000
     0.0000   0.0000   0.0000   0.0000   0.0000   0.0000   0.0000   0.0000
     0.0000   0.0000   0.0000   0.0000   0.0000   0.0000   0.0000   0.0000
     0.0000   0.0000   0.0000   0.0000   0.0000   0.0000   0.0000   0.0000
     0.0000   0.0000   0.0000   0.0000   0.0000   0.0000   0.0000   0.0000
     0.0000   0.0000   0.0000   0.0000   0.0000   0.0000   0.0000   0.0000
     0.0000   0.0000   0.0000   0.0000   0.0000   0.0000   0.0000   0.0000
     0.0000   0.0000   0.0000   0.0000   0.0000   0.0000   0.0000   0.0000
     0.0000   0.0000   0.0000   0.0000   0.0000   0.0000   0.0000   0.0000
     0.0000   0.0000   0.0000   0.0000   0.0000   0.0000   0.0000   0.0000
     0.0000   0.0000

          k = 0.0000 0.3849 0.0000 ( 42150 PWs)   bands (ev):

  -123.0285-123.0271-123.0264-123.0262-123.0261-123.0258-123.0257-123.0255
  -123.0255-123.0253-123.0253-123.0251-123.0251-123.0250-123.0249-123.0247
  -123.0026-123.0021-122.9966-122.9864-122.9851-122.9845-122.9843-122.9821
  -122.9811-122.9806-122.9801-122.9798-122.9794-122.9786-122.9783-122.9780
  -122.8601-122.8261-122.8251-122.8247-122.8245-122.8234-122.8229-122.8228
  -122.8225-122.8224-122.8221-122.8220-122.8219-122.8218-122.8209-122.8202
  -122.8199-122.8197-122.8196-122.8069-122.8064-122.8044-122.8018-122.8012
  -122.8010-122.8006-122.7990-122.7985-122.7983-122.7979-122.7978-122.7972
   -77.1371 -77.1369 -77.1334 -77.1307 -77.1304 -77.1296 -77.1295 -77.1233
   -77.1233 -77.1183 -77.1155 -77.1151 -77.1148 -77.1148 -77.1147 -77.1142
   -77.1137 -77.1128 -77.1127 -77.1127 -77.1125 -77.1123 -77.1121 -77.1120
   -77.1118 -77.1118 -77.1113 -77.1109 -77.1101 -77.1100 -77.1088 -77.1087
   -77.1052 -77.1051 -77.1039 -77.1036 -77.1020 -77.1011 -77.1009 -77.1000
   -77.0984 -77.0981 -77.0975 -77.0974 -77.0971 -77.0967 -77.0958 -77.0949
   -77.0948 -77.0944 -77.0944 -77.0910 -77.0897 -77.0888 -77.0886 -77.0880
   -77.0862 -77.0831 -77.0824 -77.0814 -77.0783 -77.0766 -77.0741 -77.0731
   -77.0727 -77.0716 -77.0711 -77.0706 -77.0700 -77.0698 -77.0685 -77.0682
   -77.0676 -77.0671 -77.0664 -77.0656 -77.0654 -77.0651 -77.0649 -77.0640
   -77.0639 -77.0635 -77.0620 -77.0607 -77.0591 -77.0589 -77.0572 -77.0557
   -77.0544 -77.0534 -77.0525 -77.0523 -77.0512 -77.0499 -77.0492 -77.0489
   -76.9556 -76.9452 -76.9439 -76.9314 -76.9313 -76.9278 -76.9246 -76.9246
   -76.9238 -76.9235 -76.9205 -76.9202 -76.9198 -76.9189 -76.9183 -76.9177
   -76.9173 -76.9172 -76.9170 -76.9167 -76.9164 -76.9162 -76.9158 -76.9156
   -76.9153 -76.9150 -76.9148 -76.9146 -76.9140 -76.9130 -76.9125 -76.9123
   -76.9117 -76.9107 -76.9090 -76.9089 -76.9067 -76.9066 -76.9063 -76.9042
   -76.9029 -76.9028 -76.9025 -76.9018 -76.9017 -76.8999 -76.8992 -76.8989
   -76.8982 -76.8977 -76.8973 -76.8971 -76.8963 -76.8961 -76.8958 -76.8954
   -76.8951 -76.8947 -76.8946 -76.8943 -76.8935 -76.8931 -76.8926 -76.8924
   -76.8921 -76.8919 -76.8917 -76.8913 -76.8911 -76.8909 -76.8906 -76.8902
   -76.8893 -76.8890 -76.8884 -76.8880 -76.8873 -76.8872 -76.8862 -76.8842
   -76.8830 -76.8812 -76.8794 -76.8774 -76.8755 -76.8746 -76.8736 -76.8722
   -76.8710 -76.8693 -76.8689 -76.8684 -76.8678 -76.8662 -76.8656 -76.8646
   -15.5655 -14.1645 -13.3333 -10.9707 -10.8583  -7.9399  -7.6534  -6.2699
    -5.7605  -5.6640  -5.5006  -5.1718  -5.1644  -5.1217  -5.1212  -4.9715
    -4.8615  -4.8080  -4.7190  -4.6811  -4.6809  -4.6727  -4.6664  -4.6285
    -4.6275  -4.6050  -4.6028  -4.5988  -4.5948  -4.5933  -4.5735  -4.5289
    -4.5234  -4.5103  -4.5099  -4.4840  -4.4819  -4.4812  -4.4806  -4.4591
    -4.4483  -4.4346  -4.4339  -4.4209  -4.4195  -4.4045  -4.4033  -4.3932
    -4.3930  -4.3883  -4.3827  -4.3823  -4.3628  -4.3609  -4.3605  -4.3574
    -4.3572  -4.3458  -4.3457  -4.3231  -4.3212  -4.3192  -4.3146  -4.3115
    -4.3114  -4.2986  -4.2956  -4.2948  -4.2852  -4.2843  -4.2782  -4.2767
    -4.2763  -4.2464  -4.2457  -4.2441  -4.2414  -4.2243  -4.2218  -4.2181
    -4.2160  -4.2133  -4.2121  -4.2112  -4.1720  -4.1685  -4.1632  -4.1622
    -4.1614  -4.1441  -4.1394  -4.1373  -4.1369  -4.1218  -4.1215  -4.1161
    -4.0985  -4.0974  -4.0943  -4.0916  -4.0897  -4.0889  -4.0839  -4.0830
    -4.0817  -4.0606  -4.0586  -4.0565  -4.0554  -4.0525  -4.0495  -4.0454
    -4.0445  -4.0414  -4.0403  -4.0317  -4.0309  -4.0223  -4.0203  -4.0185
    -4.0063  -3.9806  -3.9771  -3.9729  -3.9674  -3.9576  -3.9560  -3.9511
    -3.9509  -3.9490  -3.9414  -3.9397  -3.9392  -3.9346  -3.9336  -3.9308
    -3.9149  -3.9138  -3.9104  -3.9099  -3.8909  -3.8897  -3.8850  -3.8725
    -3.8630  -3.8626  -3.8598  -3.8525  -3.8509  -3.8379  -3.8356  -3.8289
    -3.8259  -3.8252  -3.8225  -3.8118  -3.8001  -3.7993  -3.7974  -3.7881
    -3.7850  -3.7828  -3.7784  -3.7740  -3.7710  -3.7692  -3.7681  -3.7665
    -3.7425  -3.7421  -3.7400  -3.7362  -3.7351  -3.7233  -3.7181  -3.7173
    -3.7134  -3.7003  -3.6993  -3.6874  -3.6868  -3.6667  -3.6664  -3.6645
    -3.6638  -3.6630  -3.6581  -3.6554  -3.6545  -3.6507  -3.6504  -3.6406
    -3.6397  -3.6348  -3.6329  -3.6273  -3.6264  -3.6197  -3.6182  -3.6131
    -3.6125  -3.6056  -3.6043  -3.6012  -3.5982  -3.5975  -3.5956  -3.5951
    -3.5829  -3.5817  -3.5810  -3.5703  -3.5666  -3.5626  -3.5612  -3.5592
    -3.5531  -3.5519  -3.5493  -3.5467  -3.5458  -3.5451  -3.5422  -3.5404
    -3.5371  -3.5233  -3.5219  -3.5211  -3.5201  -3.5193  -3.5180  -3.5156
    -3.5140  -3.5133  -3.5076  -3.4906  -3.4877  -3.4872  -3.4822  -3.4803
    -3.4680  -3.4662  -3.4546  -3.4535  -3.4364  -3.4303  -3.4298  -3.4284
    -3.4277  -3.4265  -3.4253  -3.4243  -3.4190  -3.4174  -3.4161  -3.4154
    -3.4086  -3.4083  -3.4072  -3.4018  -3.4014  -3.3962  -3.3956  -3.3938
    -3.3919  -3.3892  -3.3879  -3.3866  -3.3860  -3.3856  -3.3761  -3.3675
    -3.3670  -3.3642  -3.3636  -3.3494  -3.3454  -3.3447  -3.3368  -3.3361
    -3.3350  -3.3321  -3.3315  -3.3141  -3.3084  -3.3053  -3.3028  -3.3022
    -3.2990  -3.2984  -3.2978  -3.2975  -3.2969  -3.2920  -3.2898  -3.2890
    -3.2822  -3.2806  -3.2799  -3.2765  -3.2721  -3.2716  -3.2686  -3.2684
    -3.2668  -3.2666  -3.2596  -3.2506  -3.2498  -3.2465  -3.2461  -3.2458
    -3.2424  -3.2272  -3.2251  -3.2250  -3.2069  -3.1904  -3.1903  -3.1898
    -3.1895  -3.1679  -3.1672  -3.1663  -3.1660  -3.1651  -3.1541  -3.1523
    -3.1515  -3.1378  -3.1029  -3.0611  -3.0556  -3.0402  -3.0401  -3.0252
    -3.0230  -3.0205  -3.0023  -2.9856  -2.8559  -2.8541  -2.7849  -2.6271
    -2.4899  -2.3044  -2.1693  -2.1636  -2.1248  -1.8448  -1.8106  -1.7761
    -1.6823  -1.6788  -1.6521  -0.9254  -0.8940  -0.8845  -0.8602  -0.7488
    -0.7080  -0.6999  -0.6474  -0.3998  -0.1521  -0.1244   0.0859   0.0884
     0.1383   0.1385   0.1911   0.2966   0.5091   0.5476   0.5568   0.6357
     0.6366   0.9767   0.9769   1.1447   1.1470   1.2365   1.4317   1.4359
     1.4492   1.5972   1.6726   2.0772   2.0820   2.2400   2.3211   2.3250
     2.3716   2.3764   2.5853   2.6265   2.6500   2.9180   2.9283   2.9830
     2.9942   3.0533   3.0567   3.1163   3.9226   3.9285   4.2200   4.2231
     4.3232   4.3662   4.3731   4.5173   4.5228   4.7568   4.7586   4.9534
     5.0135   5.1195   5.1714   5.1722   5.5615   5.5763   5.6030   5.6041
     5.6711   5.6786   5.7554   5.7588   5.7619   5.8722   5.8738   6.1636
     6.2290   6.2347   6.3169   6.3174   6.3717   6.4167   6.6316   6.7744
     6.7877   6.9963   7.0250   7.0301   7.1236   7.1850   7.1884   7.2705
     7.2969   7.3049   7.3217   7.3664   7.5156   7.5312   7.5770   7.6294
     7.7742   7.8954   7.9165   7.9356   7.9462   7.9555   7.9625   7.9900
     8.0951   8.1023   8.1160   8.1209   8.2256   8.3238   8.4129   8.4733
     8.4980   8.5069   8.5081   8.5742   8.7301   8.7506   8.7900   8.8262
     8.8898   8.9975   9.1135   9.1487   9.1630   9.1946   9.2371   9.2504
     9.3410   9.3573   9.3979   9.5048   9.5245   9.5563   9.6206   9.6341
     9.6407   9.6736   9.7360   9.7546   9.7891   9.8338   9.9398   9.9845
    10.0248  10.0808  10.0981  10.1565  10.2084  10.2412  10.2643  10.2856
    10.3303  10.3776  10.4009  10.4632  10.5779  10.6018  10.6352  10.6924
    10.7564  10.8425  10.8545  10.8584  10.9233  10.9843  11.0218  11.0833
    11.0990  11.1073  11.1126  11.1237  11.1465  11.1563  11.1835  11.2525
    11.3676  11.4782

     occupation numbers 
     1.0000   1.0000   1.0000   1.0000   1.0000   1.0000   1.0000   1.0000
     1.0000   1.0000   1.0000   1.0000   1.0000   1.0000   1.0000   1.0000
     1.0000   1.0000   1.0000   1.0000   1.0000   1.0000   1.0000   1.0000
     1.0000   1.0000   1.0000   1.0000   1.0000   1.0000   1.0000   1.0000
     1.0000   1.0000   1.0000   1.0000   1.0000   1.0000   1.0000   1.0000
     1.0000   1.0000   1.0000   1.0000   1.0000   1.0000   1.0000   1.0000
     1.0000   1.0000   1.0000   1.0000   1.0000   1.0000   1.0000   1.0000
     1.0000   1.0000   1.0000   1.0000   1.0000   1.0000   1.0000   1.0000
     1.0000   1.0000   1.0000   1.0000   1.0000   1.0000   1.0000   1.0000
     1.0000   1.0000   1.0000   1.0000   1.0000   1.0000   1.0000   1.0000
     1.0000   1.0000   1.0000   1.0000   1.0000   1.0000   1.0000   1.0000
     1.0000   1.0000   1.0000   1.0000   1.0000   1.0000   1.0000   1.0000
     1.0000   1.0000   1.0000   1.0000   1.0000   1.0000   1.0000   1.0000
     1.0000   1.0000   1.0000   1.0000   1.0000   1.0000   1.0000   1.0000
     1.0000   1.0000   1.0000   1.0000   1.0000   1.0000   1.0000   1.0000
     1.0000   1.0000   1.0000   1.0000   1.0000   1.0000   1.0000   1.0000
     1.0000   1.0000   1.0000   1.0000   1.0000   1.0000   1.0000   1.0000
     1.0000   1.0000   1.0000   1.0000   1.0000   1.0000   1.0000   1.0000
     1.0000   1.0000   1.0000   1.0000   1.0000   1.0000   1.0000   1.0000
     1.0000   1.0000   1.0000   1.0000   1.0000   1.0000   1.0000   1.0000
     1.0000   1.0000   1.0000   1.0000   1.0000   1.0000   1.0000   1.0000
     1.0000   1.0000   1.0000   1.0000   1.0000   1.0000   1.0000   1.0000
     1.0000   1.0000   1.0000   1.0000   1.0000   1.0000   1.0000   1.0000
     1.0000   1.0000   1.0000   1.0000   1.0000   1.0000   1.0000   1.0000
     1.0000   1.0000   1.0000   1.0000   1.0000   1.0000   1.0000   1.0000
     1.0000   1.0000   1.0000   1.0000   1.0000   1.0000   1.0000   1.0000
     1.0000   1.0000   1.0000   1.0000   1.0000   1.0000   1.0000   1.0000
     1.0000   1.0000   1.0000   1.0000   1.0000   1.0000   1.0000   1.0000
     1.0000   1.0000   1.0000   1.0000   1.0000   1.0000   1.0000   1.0000
     1.0000   1.0000   1.0000   1.0000   1.0000   1.0000   1.0000   1.0000
     1.0000   1.0000   1.0000   1.0000   1.0000   1.0000   1.0000   1.0000
     1.0000   1.0000   1.0000   1.0000   1.0000   1.0000   1.0000   1.0000
     1.0000   1.0000   1.0000   1.0000   1.0000   1.0000   1.0000   1.0000
     1.0000   1.0000   1.0000   1.0000   1.0000   1.0000   1.0000   1.0000
     1.0000   1.0000   1.0000   1.0000   1.0000   1.0000   1.0000   1.0000
     1.0000   1.0000   1.0000   1.0000   1.0000   1.0000   1.0000   1.0000
     1.0000   1.0000   1.0000   1.0000   1.0000   1.0000   1.0000   1.0000
     1.0000   1.0000   1.0000   1.0000   1.0000   1.0000   1.0000   1.0000
     1.0000   1.0000   1.0000   1.0000   1.0000   1.0000   1.0000   1.0000
     1.0000   1.0000   1.0000   1.0000   1.0000   1.0000   1.0000   1.0000
     1.0000   1.0000   1.0000   1.0000   1.0000   1.0000   1.0000   1.0000
     1.0000   1.0000   1.0000   1.0000   1.0000   1.0000   1.0000   1.0000
     1.0000   1.0000   1.0000   1.0000   1.0000   1.0000   1.0000   1.0000
     1.0000   1.0000   1.0000   1.0000   1.0000   1.0000   1.0000   1.0000
     1.0000   1.0000   1.0000   1.0000   1.0000   1.0000   1.0000   1.0000
     1.0000   1.0000   1.0000   1.0000   1.0000   1.0000   1.0000   1.0000
     1.0000   1.0000   1.0000   1.0000   1.0000   1.0000   1.0000   1.0000
     1.0000   1.0000   1.0000   1.0000   1.0000   1.0000   1.0000   1.0000
     1.0000   1.0000   1.0000   1.0000   1.0000   1.0000   1.0000   1.0000
     1.0000   1.0000   1.0000   1.0000   1.0000   1.0000   1.0000   1.0000
     1.0000   1.0000   1.0000   1.0000   1.0000   1.0000   1.0000   1.0000
     1.0000   1.0000   1.0000   1.0000   1.0000   1.0000   1.0000   1.0000
     1.0000   1.0000   1.0000   1.0000   1.0000   1.0000   1.0000   1.0000
     1.0000   1.0000   1.0000   1.0000   1.0000   1.0000   1.0000   1.0000
     1.0000   1.0000   1.0000   1.0000   1.0000   1.0000   1.0000   1.0000
     1.0000   1.0000   1.0000   1.0000   1.0000   1.0000   1.0000   1.0000
     1.0000   1.0000   1.0000   1.0000   1.0000   1.0000   1.0000   1.0000
     1.0000   1.0000   1.0000   1.0000   1.0000   1.0000   1.0000   1.0000
     1.0000   1.0000   1.0000   1.0000   1.0000   1.0000   1.0000   1.0000
     1.0000   1.0000   1.0000   1.0000   1.0000   1.0000   1.0000   1.0000
     1.0000   1.0000   1.0000   1.0000   1.0000   1.0000   1.0000   1.0000
     1.0000   1.0000   1.0000   1.0000   1.0000   1.0000   1.0000   1.0000
     1.0000   1.0000   1.0000   1.0000   1.0000   1.0000   1.0000   1.0000
     1.0000   1.0000   1.0000   1.0000   1.0000   1.0000   1.0000   1.0000
     1.0000   1.0000   1.0000   1.0000   1.0000   1.0000   1.0000   1.0000
     1.0000   1.0000   1.0000   1.0000   1.0000   1.0000   1.0000   1.0000
     1.0000   1.0000   1.0000   1.0000   1.0000   1.0000   1.0000   1.0000
     1.0000   1.0000   1.0000   1.0000   1.0000   1.0000   1.0000   1.0000
     1.0000   1.0000   1.0000   1.0000   1.0000   1.0000   1.0000   1.0000
     1.0000   1.0000   1.0000   1.0000   1.0000   1.0000   1.0000   1.0000
     1.0000   1.0000   1.0000   1.0000   1.0000   1.0000   1.0000   1.0000
     1.0000   1.0000   1.0000   1.0000   1.0000   1.0000   1.0000   1.0000
     1.0000   1.0000   1.0000   1.0000   1.0000   1.0000   1.0000   1.0000
     1.0000   1.0000   1.0000   1.0000   1.0000   1.0000   1.0000   1.0000
     1.0000   1.0000   1.0000   1.0000   1.0000   1.0000   1.0000   1.0000
     1.0000   1.0000   1.0000   1.0000   1.0000   1.0000   1.0000   1.0000
     1.0000   1.0000   1.0000   1.0000   1.0000   1.0000   1.0000   1.0000
     1.0000   1.0000   1.0000   1.0000   1.0000   1.0000   1.0000   1.0000
     1.0000   1.0000   1.0000   1.0000   1.0000   1.0000   1.0000   1.0000
     1.0000   1.0000   1.0000   1.0000   1.0000   1.0000   1.0000   1.0000
     1.0000   1.0000   1.0000   1.0000   1.0000   1.0000   1.0000   1.0000
     1.0000   1.0000   1.0000   1.0000   1.0000   1.0000   1.0000   1.0000
     1.0000   1.0001   1.0001   1.0004   0.6292   0.6130   0.0612   0.0591
     0.0163   0.0087   0.0078   0.0006   0.0006   0.0000   0.0000   0.0000
     0.0000   0.0000   0.0000   0.0000   0.0000   0.0000   0.0000   0.0000
     0.0000   0.0000   0.0000   0.0000   0.0000   0.0000   0.0000   0.0000
     0.0000   0.0000   0.0000   0.0000   0.0000   0.0000   0.0000   0.0000
     0.0000   0.0000   0.0000   0.0000   0.0000   0.0000   0.0000   0.0000
     0.0000   0.0000   0.0000   0.0000   0.0000   0.0000   0.0000   0.0000
     0.0000   0.0000   0.0000   0.0000   0.0000   0.0000   0.0000   0.0000
     0.0000   0.0000   0.0000   0.0000   0.0000   0.0000   0.0000   0.0000
     0.0000   0.0000   0.0000   0.0000   0.0000   0.0000   0.0000   0.0000
     0.0000   0.0000   0.0000   0.0000   0.0000   0.0000   0.0000   0.0000
     0.0000   0.0000   0.0000   0.0000   0.0000   0.0000   0.0000   0.0000
     0.0000   0.0000   0.0000   0.0000   0.0000   0.0000   0.0000   0.0000
     0.0000   0.0000   0.0000   0.0000   0.0000   0.0000   0.0000   0.0000
     0.0000   0.0000   0.0000   0.0000   0.0000   0.0000   0.0000   0.0000
     0.0000   0.0000   0.0000   0.0000   0.0000   0.0000   0.0000   0.0000
     0.0000   0.0000   0.0000   0.0000   0.0000   0.0000   0.0000   0.0000
     0.0000   0.0000

          k = 0.3333 0.1925 0.0000 ( 42150 PWs)   bands (ev):

  -123.0285-123.0271-123.0265-123.0261-123.0260-123.0259-123.0258-123.0256
  -123.0254-123.0253-123.0253-123.0252-123.0251-123.0250-123.0249-123.0247
  -123.0026-123.0021-122.9966-122.9864-122.9851-122.9846-122.9843-122.9821
  -122.9811-122.9806-122.9801-122.9798-122.9794-122.9787-122.9783-122.9780
  -122.8601-122.8261-122.8251-122.8247-122.8245-122.8234-122.8229-122.8227
  -122.8225-122.8224-122.8221-122.8220-122.8219-122.8218-122.8209-122.8201
  -122.8199-122.8198-122.8196-122.8069-122.8064-122.8044-122.8018-122.8012
  -122.8010-122.8006-122.7990-122.7985-122.7983-122.7979-122.7978-122.7972
   -77.1371 -77.1369 -77.1334 -77.1307 -77.1304 -77.1297 -77.1295 -77.1233
   -77.1233 -77.1183 -77.1156 -77.1150 -77.1149 -77.1148 -77.1147 -77.1142
   -77.1137 -77.1129 -77.1127 -77.1127 -77.1125 -77.1122 -77.1121 -77.1120
   -77.1118 -77.1118 -77.1112 -77.1109 -77.1102 -77.1100 -77.1088 -77.1087
   -77.1052 -77.1050 -77.1038 -77.1036 -77.1020 -77.1011 -77.1009 -77.0999
   -77.0984 -77.0981 -77.0975 -77.0974 -77.0971 -77.0967 -77.0958 -77.0949
   -77.0948 -77.0944 -77.0943 -77.0913 -77.0901 -77.0888 -77.0884 -77.0880
   -77.0864 -77.0829 -77.0822 -77.0810 -77.0783 -77.0766 -77.0739 -77.0729
   -77.0726 -77.0716 -77.0707 -77.0706 -77.0703 -77.0701 -77.0685 -77.0685
   -77.0677 -77.0671 -77.0663 -77.0659 -77.0654 -77.0652 -77.0645 -77.0643
   -77.0640 -77.0636 -77.0620 -77.0607 -77.0593 -77.0589 -77.0572 -77.0555
   -77.0540 -77.0529 -77.0524 -77.0519 -77.0517 -77.0503 -77.0495 -77.0486
   -76.9556 -76.9452 -76.9439 -76.9314 -76.9313 -76.9278 -76.9246 -76.9246
   -76.9238 -76.9235 -76.9206 -76.9201 -76.9198 -76.9187 -76.9183 -76.9178
   -76.9173 -76.9173 -76.9171 -76.9168 -76.9164 -76.9162 -76.9158 -76.9156
   -76.9153 -76.9149 -76.9146 -76.9143 -76.9140 -76.9131 -76.9125 -76.9123
   -76.9119 -76.9108 -76.9089 -76.9089 -76.9067 -76.9066 -76.9063 -76.9041
   -76.9029 -76.9027 -76.9025 -76.9018 -76.9017 -76.8999 -76.8992 -76.8990
   -76.8983 -76.8977 -76.8973 -76.8971 -76.8964 -76.8961 -76.8958 -76.8954
   -76.8949 -76.8947 -76.8946 -76.8943 -76.8935 -76.8931 -76.8926 -76.8923
   -76.8921 -76.8920 -76.8918 -76.8914 -76.8911 -76.8909 -76.8906 -76.8902
   -76.8893 -76.8890 -76.8884 -76.8880 -76.8873 -76.8872 -76.8862 -76.8841
   -76.8831 -76.8812 -76.8794 -76.8774 -76.8754 -76.8747 -76.8736 -76.8722
   -76.8711 -76.8692 -76.8690 -76.8684 -76.8677 -76.8662 -76.8656 -76.8646
   -15.5655 -14.1645 -13.3333 -10.9707 -10.8583  -7.9399  -7.6534  -6.2699
    -5.7605  -5.6640  -5.5007  -5.1716  -5.1644  -5.1217  -5.1212  -4.9714
    -4.8615  -4.8080  -4.7190  -4.6811  -4.6809  -4.6725  -4.6666  -4.6286
    -4.6276  -4.6049  -4.6028  -4.5989  -4.5949  -4.5933  -4.5735  -4.5289
    -4.5233  -4.5102  -4.5099  -4.4842  -4.4822  -4.4809  -4.4805  -4.4590
    -4.4483  -4.4346  -4.4340  -4.4209  -4.4196  -4.4045  -4.4033  -4.3932
    -4.3930  -4.3882  -4.3828  -4.3823  -4.3626  -4.3610  -4.3605  -4.3574
    -4.3572  -4.3458  -4.3457  -4.3231  -4.3212  -4.3191  -4.3145  -4.3117
    -4.3116  -4.2984  -4.2956  -4.2949  -4.2852  -4.2842  -4.2782  -4.2767
    -4.2763  -4.2465  -4.2457  -4.2440  -4.2415  -4.2243  -4.2219  -4.2180
    -4.2159  -4.2134  -4.2120  -4.2112  -4.1721  -4.1686  -4.1632  -4.1622
    -4.1615  -4.1438  -4.1395  -4.1375  -4.1369  -4.1218  -4.1215  -4.1161
    -4.0986  -4.0974  -4.0943  -4.0916  -4.0898  -4.0890  -4.0840  -4.0829
    -4.0817  -4.0606  -4.0586  -4.0565  -4.0555  -4.0525  -4.0494  -4.0454
    -4.0445  -4.0415  -4.0403  -4.0317  -4.0308  -4.0223  -4.0203  -4.0185
    -4.0063  -3.9806  -3.9771  -3.9728  -3.9674  -3.9576  -3.9559  -3.9511
    -3.9506  -3.9490  -3.9413  -3.9399  -3.9394  -3.9347  -3.9336  -3.9308
    -3.9147  -3.9138  -3.9104  -3.9098  -3.8909  -3.8898  -3.8850  -3.8727
    -3.8631  -3.8626  -3.8598  -3.8526  -3.8508  -3.8377  -3.8356  -3.8289
    -3.8259  -3.8252  -3.8225  -3.8118  -3.8002  -3.7994  -3.7974  -3.7880
    -3.7849  -3.7828  -3.7784  -3.7740  -3.7711  -3.7692  -3.7682  -3.7665
    -3.7426  -3.7422  -3.7402  -3.7362  -3.7352  -3.7233  -3.7180  -3.7173
    -3.7131  -3.7003  -3.6992  -3.6873  -3.6867  -3.6668  -3.6663  -3.6645
    -3.6638  -3.6630  -3.6581  -3.6553  -3.6542  -3.6508  -3.6504  -3.6406
    -3.6397  -3.6349  -3.6330  -3.6272  -3.6265  -3.6197  -3.6181  -3.6132
    -3.6124  -3.6056  -3.6042  -3.6012  -3.5982  -3.5975  -3.5956  -3.5949
    -3.5829  -3.5818  -3.5810  -3.5703  -3.5666  -3.5627  -3.5614  -3.5593
    -3.5531  -3.5520  -3.5493  -3.5467  -3.5457  -3.5451  -3.5423  -3.5403
    -3.5369  -3.5234  -3.5218  -3.5213  -3.5201  -3.5195  -3.5181  -3.5156
    -3.5141  -3.5133  -3.5076  -3.4907  -3.4878  -3.4872  -3.4822  -3.4802
    -3.4680  -3.4662  -3.4545  -3.4535  -3.4365  -3.4301  -3.4296  -3.4285
    -3.4276  -3.4265  -3.4253  -3.4242  -3.4192  -3.4175  -3.4161  -3.4155
    -3.4086  -3.4083  -3.4071  -3.4017  -3.4014  -3.3962  -3.3956  -3.3938
    -3.3919  -3.3894  -3.3878  -3.3866  -3.3860  -3.3855  -3.3762  -3.3674
    -3.3669  -3.3642  -3.3636  -3.3495  -3.3454  -3.3446  -3.3367  -3.3360
    -3.3350  -3.3320  -3.3314  -3.3142  -3.3084  -3.3053  -3.3029  -3.3022
    -3.2989  -3.2984  -3.2978  -3.2976  -3.2969  -3.2921  -3.2898  -3.2889
    -3.2821  -3.2806  -3.2797  -3.2764  -3.2720  -3.2714  -3.2686  -3.2684
    -3.2669  -3.2667  -3.2597  -3.2506  -3.2498  -3.2467  -3.2463  -3.2460
    -3.2424  -3.2274  -3.2251  -3.2250  -3.2069  -3.1904  -3.1903  -3.1897
    -3.1894  -3.1680  -3.1673  -3.1663  -3.1660  -3.1650  -3.1541  -3.1523
    -3.1514  -3.1378  -3.1029  -3.0612  -3.0557  -3.0402  -3.0401  -3.0252
    -3.0230  -3.0204  -3.0023  -2.9856  -2.8559  -2.8541  -2.7849  -2.6271
    -2.4899  -2.3043  -2.1694  -2.1636  -2.1248  -1.8447  -1.8107  -1.7762
    -1.6823  -1.6788  -1.6521  -0.9254  -0.8940  -0.8845  -0.8602  -0.7488
    -0.7080  -0.6999  -0.6474  -0.3998  -0.1521  -0.1244   0.0858   0.0884
     0.1383   0.1385   0.1910   0.2966   0.5091   0.5476   0.5568   0.6356
     0.6366   0.9767   0.9769   1.1447   1.1470   1.2365   1.4317   1.4359
     1.4492   1.5971   1.6727   2.0772   2.0820   2.2400   2.3210   2.3251
     2.3717   2.3764   2.5853   2.6269   2.6501   2.9179   2.9283   2.9831
     2.9940   3.0535   3.0570   3.1161   3.9226   3.9286   4.2200   4.2229
     4.3232   4.3660   4.3731   4.5171   4.5226   4.7566   4.7579   4.9535
     5.0137   5.1200   5.1713   5.1720   5.5614   5.5763   5.6030   5.6040
     5.6711   5.6786   5.7560   5.7587   5.7627   5.8721   5.8735   6.1633
     6.2294   6.2348   6.3167   6.3174   6.3718   6.4172   6.6324   6.7739
     6.7878   6.9968   7.0252   7.0298   7.1235   7.1849   7.1885   7.2706
     7.2966   7.3049   7.3219   7.3672   7.5157   7.5309   7.5761   7.6299
     7.7751   7.8938   7.9168   7.9346   7.9456   7.9553   7.9635   7.9906
     8.0950   8.1024   8.1159   8.1194   8.2248   8.3259   8.4117   8.4713
     8.4998   8.5073   8.5081   8.5757   8.7315   8.7512   8.7911   8.8260
     8.8896   8.9963   9.1125   9.1455   9.1622   9.1939   9.2402   9.2510
     9.3394   9.3565   9.3988   9.5047   9.5230   9.5556   9.6218   9.6349
     9.6405   9.6717   9.7362   9.7541   9.7897   9.8347   9.9381   9.9845
    10.0248  10.0835  10.0984  10.1584  10.2086  10.2430  10.2647  10.2859
    10.3293  10.3764  10.4026  10.4638  10.5757  10.5995  10.6344  10.6918
    10.7561  10.8455  10.8549  10.8600  10.9241  10.9814  11.0201  11.0840
    11.0984  11.1060  11.1125  11.1238  11.1470  11.1565  11.1838  11.2519
    11.3685  11.4772

     occupation numbers 
     1.0000   1.0000   1.0000   1.0000   1.0000   1.0000   1.0000   1.0000
     1.0000   1.0000   1.0000   1.0000   1.0000   1.0000   1.0000   1.0000
     1.0000   1.0000   1.0000   1.0000   1.0000   1.0000   1.0000   1.0000
     1.0000   1.0000   1.0000   1.0000   1.0000   1.0000   1.0000   1.0000
     1.0000   1.0000   1.0000   1.0000   1.0000   1.0000   1.0000   1.0000
     1.0000   1.0000   1.0000   1.0000   1.0000   1.0000   1.0000   1.0000
     1.0000   1.0000   1.0000   1.0000   1.0000   1.0000   1.0000   1.0000
     1.0000   1.0000   1.0000   1.0000   1.0000   1.0000   1.0000   1.0000
     1.0000   1.0000   1.0000   1.0000   1.0000   1.0000   1.0000   1.0000
     1.0000   1.0000   1.0000   1.0000   1.0000   1.0000   1.0000   1.0000
     1.0000   1.0000   1.0000   1.0000   1.0000   1.0000   1.0000   1.0000
     1.0000   1.0000   1.0000   1.0000   1.0000   1.0000   1.0000   1.0000
     1.0000   1.0000   1.0000   1.0000   1.0000   1.0000   1.0000   1.0000
     1.0000   1.0000   1.0000   1.0000   1.0000   1.0000   1.0000   1.0000
     1.0000   1.0000   1.0000   1.0000   1.0000   1.0000   1.0000   1.0000
     1.0000   1.0000   1.0000   1.0000   1.0000   1.0000   1.0000   1.0000
     1.0000   1.0000   1.0000   1.0000   1.0000   1.0000   1.0000   1.0000
     1.0000   1.0000   1.0000   1.0000   1.0000   1.0000   1.0000   1.0000
     1.0000   1.0000   1.0000   1.0000   1.0000   1.0000   1.0000   1.0000
     1.0000   1.0000   1.0000   1.0000   1.0000   1.0000   1.0000   1.0000
     1.0000   1.0000   1.0000   1.0000   1.0000   1.0000   1.0000   1.0000
     1.0000   1.0000   1.0000   1.0000   1.0000   1.0000   1.0000   1.0000
     1.0000   1.0000   1.0000   1.0000   1.0000   1.0000   1.0000   1.0000
     1.0000   1.0000   1.0000   1.0000   1.0000   1.0000   1.0000   1.0000
     1.0000   1.0000   1.0000   1.0000   1.0000   1.0000   1.0000   1.0000
     1.0000   1.0000   1.0000   1.0000   1.0000   1.0000   1.0000   1.0000
     1.0000   1.0000   1.0000   1.0000   1.0000   1.0000   1.0000   1.0000
     1.0000   1.0000   1.0000   1.0000   1.0000   1.0000   1.0000   1.0000
     1.0000   1.0000   1.0000   1.0000   1.0000   1.0000   1.0000   1.0000
     1.0000   1.0000   1.0000   1.0000   1.0000   1.0000   1.0000   1.0000
     1.0000   1.0000   1.0000   1.0000   1.0000   1.0000   1.0000   1.0000
     1.0000   1.0000   1.0000   1.0000   1.0000   1.0000   1.0000   1.0000
     1.0000   1.0000   1.0000   1.0000   1.0000   1.0000   1.0000   1.0000
     1.0000   1.0000   1.0000   1.0000   1.0000   1.0000   1.0000   1.0000
     1.0000   1.0000   1.0000   1.0000   1.0000   1.0000   1.0000   1.0000
     1.0000   1.0000   1.0000   1.0000   1.0000   1.0000   1.0000   1.0000
     1.0000   1.0000   1.0000   1.0000   1.0000   1.0000   1.0000   1.0000
     1.0000   1.0000   1.0000   1.0000   1.0000   1.0000   1.0000   1.0000
     1.0000   1.0000   1.0000   1.0000   1.0000   1.0000   1.0000   1.0000
     1.0000   1.0000   1.0000   1.0000   1.0000   1.0000   1.0000   1.0000
     1.0000   1.0000   1.0000   1.0000   1.0000   1.0000   1.0000   1.0000
     1.0000   1.0000   1.0000   1.0000   1.0000   1.0000   1.0000   1.0000
     1.0000   1.0000   1.0000   1.0000   1.0000   1.0000   1.0000   1.0000
     1.0000   1.0000   1.0000   1.0000   1.0000   1.0000   1.0000   1.0000
     1.0000   1.0000   1.0000   1.0000   1.0000   1.0000   1.0000   1.0000
     1.0000   1.0000   1.0000   1.0000   1.0000   1.0000   1.0000   1.0000
     1.0000   1.0000   1.0000   1.0000   1.0000   1.0000   1.0000   1.0000
     1.0000   1.0000   1.0000   1.0000   1.0000   1.0000   1.0000   1.0000
     1.0000   1.0000   1.0000   1.0000   1.0000   1.0000   1.0000   1.0000
     1.0000   1.0000   1.0000   1.0000   1.0000   1.0000   1.0000   1.0000
     1.0000   1.0000   1.0000   1.0000   1.0000   1.0000   1.0000   1.0000
     1.0000   1.0000   1.0000   1.0000   1.0000   1.0000   1.0000   1.0000
     1.0000   1.0000   1.0000   1.0000   1.0000   1.0000   1.0000   1.0000
     1.0000   1.0000   1.0000   1.0000   1.0000   1.0000   1.0000   1.0000
     1.0000   1.0000   1.0000   1.0000   1.0000   1.0000   1.0000   1.0000
     1.0000   1.0000   1.0000   1.0000   1.0000   1.0000   1.0000   1.0000
     1.0000   1.0000   1.0000   1.0000   1.0000   1.0000   1.0000   1.0000
     1.0000   1.0000   1.0000   1.0000   1.0000   1.0000   1.0000   1.0000
     1.0000   1.0000   1.0000   1.0000   1.0000   1.0000   1.0000   1.0000
     1.0000   1.0000   1.0000   1.0000   1.0000   1.0000   1.0000   1.0000
     1.0000   1.0000   1.0000   1.0000   1.0000   1.0000   1.0000   1.0000
     1.0000   1.0000   1.0000   1.0000   1.0000   1.0000   1.0000   1.0000
     1.0000   1.0000   1.0000   1.0000   1.0000   1.0000   1.0000   1.0000
     1.0000   1.0000   1.0000   1.0000   1.0000   1.0000   1.0000   1.0000
     1.0000   1.0000   1.0000   1.0000   1.0000   1.0000   1.0000   1.0000
     1.0000   1.0000   1.0000   1.0000   1.0000   1.0000   1.0000   1.0000
     1.0000   1.0000   1.0000   1.0000   1.0000   1.0000   1.0000   1.0000
     1.0000   1.0000   1.0000   1.0000   1.0000   1.0000   1.0000   1.0000
     1.0000   1.0000   1.0000   1.0000   1.0000   1.0000   1.0000   1.0000
     1.0000   1.0000   1.0000   1.0000   1.0000   1.0000   1.0000   1.0000
     1.0000   1.0000   1.0000   1.0000   1.0000   1.0000   1.0000   1.0000
     1.0000   1.0000   1.0000   1.0000   1.0000   1.0000   1.0000   1.0000
     1.0000   1.0000   1.0000   1.0000   1.0000   1.0000   1.0000   1.0000
     1.0000   1.0000   1.0000   1.0000   1.0000   1.0000   1.0000   1.0000
     1.0000   1.0000   1.0000   1.0000   1.0000   1.0000   1.0000   1.0000
     1.0000   1.0000   1.0000   1.0000   1.0000   1.0000   1.0000   1.0000
     1.0000   1.0000   1.0000   1.0000   1.0000   1.0000   1.0000   1.0000
[...]
     atom   71 type  2   force =     0.00280899   -0.00158985   -0.00184350
     atom   72 type  3   force =     0.00176328   -0.00107452    0.01133682
     atom   73 type  3   force =    -0.00514125    0.00294299   -0.00029377
     atom   74 type  4   force =     0.00000000    0.00000000    0.00000000
     atom   75 type  4   force =     0.00000000    0.00000000    0.00000000
     atom   76 type  4   force =     0.00000000    0.00000000    0.00000000
     atom   77 type  4   force =     0.00000000    0.00000000    0.00000000
     atom   78 type  4   force =     0.00000000    0.00000000    0.00000000
     atom   79 type  4   force =     0.00000000    0.00000000    0.00000000
     The Hubbard contrib.    to forces
     atom    1 type  1   force =     0.00000000    0.00000000    0.00000000
     atom    2 type  1   force =     0.00000000    0.00000000    0.00000000
     atom    3 type  1   force =     0.00000000    0.00000000    0.00000000
     atom    4 type  1   force =     0.00000000    0.00000000    0.00000000
     atom    5 type  1   force =     0.00000000    0.00000000    0.00000000
     atom    6 type  1   force =     0.00000000    0.00000000    0.00000000
     atom    7 type  1   force =     0.00000000    0.00000000    0.00000000
     atom    8 type  1   force =     0.00000000    0.00000000    0.00000000
     atom    9 type  1   force =     0.00000000    0.00000000    0.00000000
     atom   10 type  1   force =     0.00000000    0.00000000    0.00000000
     atom   11 type  1   force =     0.00000000    0.00000000    0.00000000
     atom   12 type  1   force =     0.00000000    0.00000000    0.00000000
     atom   13 type  1   force =     0.00000000    0.00000000    0.00000000
     atom   14 type  1   force =     0.00000000    0.00000000    0.00000000
     atom   15 type  1   force =     0.00000000    0.00000000    0.00000000
     atom   16 type  1   force =     0.00000000    0.00000000    0.00000000
     atom   17 type  1   force =     0.00000000    0.00000000    0.00000000
     atom   18 type  1   force =     0.00000000    0.00000000    0.00000000
     atom   19 type  1   force =     0.00000000    0.00000000    0.00000000
     atom   20 type  1   force =     0.00000000    0.00000000    0.00000000
     atom   21 type  1   force =     0.00000000    0.00000000    0.00000000
     atom   22 type  1   force =     0.00000000    0.00000000    0.00000000
     atom   23 type  1   force =     0.00000000    0.00000000    0.00000000
     atom   24 type  1   force =     0.00000000    0.00000000    0.00000000
     atom   25 type  1   force =     0.00000000    0.00000000    0.00000000
     atom   26 type  1   force =     0.00000000    0.00000000    0.00000000
     atom   27 type  1   force =     0.00000000    0.00000000    0.00000000
     atom   28 type  1   force =     0.00000000    0.00000000    0.00000000
     atom   29 type  1   force =     0.00000000    0.00000000    0.00000000
     atom   30 type  1   force =     0.00000000    0.00000000    0.00000000
     atom   31 type  1   force =     0.00000000    0.00000000    0.00000000
     atom   32 type  1   force =     0.00000000    0.00000000    0.00000000
     atom   33 type  1   force =     0.00000000    0.00000000    0.00000000
     atom   34 type  1   force =     0.00000000    0.00000000    0.00000000
     atom   35 type  1   force =     0.00000000    0.00000000    0.00000000
     atom   36 type  1   force =     0.00000000    0.00000000    0.00000000
     atom   37 type  1   force =     0.00000000    0.00000000    0.00000000
     atom   38 type  1   force =     0.00000000    0.00000000    0.00000000
     atom   39 type  1   force =     0.00000000    0.00000000    0.00000000
     atom   40 type  1   force =     0.00000000    0.00000000    0.00000000
     atom   41 type  1   force =     0.00000000    0.00000000    0.00000000
     atom   42 type  1   force =     0.00000000    0.00000000    0.00000000
     atom   43 type  1   force =     0.00000000    0.00000000    0.00000000
     atom   44 type  1   force =     0.00000000    0.00000000    0.00000000
     atom   45 type  1   force =     0.00000000    0.00000000    0.00000000
     atom   46 type  1   force =     0.00000000    0.00000000    0.00000000
     atom   47 type  1   force =     0.00000000    0.00000000    0.00000000
     atom   48 type  1   force =     0.00000000    0.00000000    0.00000000
     atom   49 type  1   force =     0.00000000    0.00000000    0.00000000
     atom   50 type  1   force =     0.00000000    0.00000000    0.00000000
     atom   51 type  1   force =     0.00000000    0.00000000    0.00000000
     atom   52 type  1   force =     0.00000000    0.00000000    0.00000000
     atom   53 type  1   force =     0.00000000    0.00000000    0.00000000
     atom   54 type  1   force =     0.00000000    0.00000000    0.00000000
     atom   55 type  1   force =     0.00000000    0.00000000    0.00000000
     atom   56 type  1   force =     0.00000000    0.00000000    0.00000000
     atom   57 type  1   force =     0.00000000    0.00000000    0.00000000
     atom   58 type  1   force =     0.00000000    0.00000000    0.00000000
     atom   59 type  1   force =     0.00000000    0.00000000    0.00000000
     atom   60 type  1   force =     0.00000000    0.00000000    0.00000000
     atom   61 type  1   force =     0.00000000    0.00000000    0.00000000
     atom   62 type  1   force =     0.00000000    0.00000000    0.00000000
     atom   63 type  1   force =     0.00000000    0.00000000    0.00000000
     atom   64 type  1   force =     0.00000000    0.00000000    0.00000000
     atom   65 type  2   force =     0.00000000    0.00000000    0.00000000
     atom   66 type  2   force =     0.00000000    0.00000000    0.00000000
     atom   67 type  2   force =     0.00000000    0.00000000    0.00000000
     atom   68 type  2   force =     0.00000000    0.00000000    0.00000000
     atom   69 type  2   force =     0.00000000    0.00000000    0.00000000
     atom   70 type  2   force =     0.00000000    0.00000000    0.00000000
     atom   71 type  2   force =     0.00000000    0.00000000    0.00000000
     atom   72 type  3   force =     0.00000000    0.00000000    0.00000000
     atom   73 type  3   force =     0.00000000    0.00000000    0.00000000
     atom   74 type  4   force =     0.00000000    0.00000000    0.00000000
     atom   75 type  4   force =     0.00000000    0.00000000    0.00000000
     atom   76 type  4   force =     0.00000000    0.00000000    0.00000000
     atom   77 type  4   force =     0.00000000    0.00000000    0.00000000
     atom   78 type  4   force =     0.00000000    0.00000000    0.00000000
     atom   79 type  4   force =     0.00000000    0.00000000    0.00000000
     The SCF correction term to forces
     atom    1 type  1   force =     0.00008268   -0.00009876    0.00087221
     atom    2 type  1   force =    -0.00007856   -0.00052638    0.00024894
     atom    3 type  1   force =     0.00023236   -0.00027489   -0.00029190
     atom    4 type  1   force =    -0.00022867   -0.00084350    0.00009432
     atom    5 type  1   force =     0.00063485    0.00016334    0.00075795
     atom    6 type  1   force =    -0.00063000    0.00039463    0.00032452
     atom    7 type  1   force =     0.00085862    0.00041929   -0.00022544
     atom    8 type  1   force =    -0.00085905    0.00055061    0.00007892
     atom    9 type  1   force =     0.00034518    0.00038150    0.00081592
     atom   10 type  1   force =    -0.00034824    0.00028351    0.00083105
     atom   11 type  1   force =     0.00050605    0.00070682   -0.00020253
     atom   12 type  1   force =    -0.00050831    0.00042383   -0.00024621
     atom   13 type  1   force =    -0.00017383    0.00006600    0.00093326
     atom   14 type  1   force =     0.00020560   -0.00064924    0.00074511
     atom   15 type  1   force =    -0.00011080    0.00000789   -0.00026482
     atom   16 type  1   force =     0.00012153   -0.00098409   -0.00021682
     atom   17 type  1   force =    -0.00070588   -0.00025943    0.00063191
     atom   18 type  1   force =     0.00069990   -0.00038692    0.00052722
     atom   19 type  1   force =    -0.00101282   -0.00058703   -0.00009191
     atom   20 type  1   force =     0.00100554   -0.00055373   -0.00010678
     atom   21 type  1   force =    -0.00043273    0.00018418    0.00081934
     atom   22 type  1   force =     0.00043304    0.00037210    0.00027033
     atom   23 type  1   force =    -0.00064198    0.00027263   -0.00024066
     atom   24 type  1   force =     0.00064384    0.00069053    0.00008267
     atom   25 type  1   force =     0.00011674   -0.00008397    0.00096086
     atom   26 type  1   force =    -0.00011255    0.00073777    0.00066672
     atom   27 type  1   force =    -0.00002953   -0.00000949   -0.00033329
     atom   28 type  1   force =     0.00002620    0.00115996   -0.00011373
     atom   29 type  1   force =    -0.00017304   -0.00053319    0.00079260
     atom   30 type  1   force =     0.00014235   -0.00004794    0.00088314
     atom   31 type  1   force =    -0.00038554   -0.00086303   -0.00018711
     atom   32 type  1   force =     0.00037394   -0.00010731   -0.00029849
     atom   33 type  1   force =    -0.00048174   -0.00033035   -0.00042425
     atom   34 type  1   force =     0.00053621   -0.00107996   -0.00069440
     atom   35 type  1   force =    -0.00018483   -0.00022010   -0.00060358
     atom   36 type  1   force =     0.00021417   -0.00055161   -0.00012663
     atom   37 type  1   force =     0.00017151    0.00009393   -0.00051521
     atom   38 type  1   force =    -0.00016512    0.00015652   -0.00080181
     atom   39 type  1   force =     0.00012470    0.00004913   -0.00053945
     atom   40 type  1   force =    -0.00013051    0.00011206    0.00016668
     atom   41 type  1   force =     0.00060154    0.00040305   -0.00042347
     atom   42 type  1   force =    -0.00064943    0.00103294   -0.00067724
     atom   43 type  1   force =     0.00025968    0.00026957   -0.00060650
     atom   44 type  1   force =    -0.00028542    0.00049883   -0.00029939
     atom   45 type  1   force =    -0.00005838   -0.00003154   -0.00034590
     atom   46 type  1   force =     0.00005937   -0.00022649   -0.00051254
     atom   47 type  1   force =    -0.00004190   -0.00000800   -0.00066188
     atom   48 type  1   force =     0.00004651   -0.00014819   -0.00054080
     atom   49 type  1   force =    -0.00074638   -0.00102078   -0.00060637
     atom   50 type  1   force =     0.00068593   -0.00040339   -0.00052384
     atom   51 type  1   force =    -0.00042506   -0.00054369   -0.00025567
     atom   52 type  1   force =     0.00039390   -0.00023240   -0.00048623
     atom   53 type  1   force =    -0.00121190    0.00011228   -0.00068746
     atom   54 type  1   force =     0.00119849    0.00013824   -0.00068661
     atom   55 type  1   force =    -0.00057230    0.00003170   -0.00028233
     atom   56 type  1   force =     0.00057761    0.00012286   -0.00014488
     atom   57 type  1   force =    -0.00046255    0.00027401   -0.00049811
     atom   58 type  1   force =     0.00050999    0.00116237   -0.00058871
     atom   59 type  1   force =    -0.00022256    0.00013386   -0.00061873
     atom   60 type  1   force =     0.00025444    0.00063529   -0.00028856
     atom   61 type  1   force =    -0.00004161   -0.00078521   -0.00043440
     atom   62 type  1   force =     0.00003988    0.00051648   -0.00041347
     atom   63 type  1   force =    -0.00009872   -0.00039182   -0.00058702
     atom   64 type  1   force =     0.00009390    0.00023598   -0.00062158
     atom   65 type  2   force =     0.00002186   -0.00001282    0.00014810
     atom   66 type  2   force =    -0.00002294    0.00001335   -0.00014547
     atom   67 type  2   force =    -0.00007466   -0.00007244   -0.00015669
     atom   68 type  2   force =     0.00002499    0.00010094   -0.00015675
     atom   69 type  2   force =    -0.00003252   -0.00003869   -0.00005107
     atom   70 type  2   force =     0.00001697    0.00004776   -0.00005106
     atom   71 type  2   force =     0.00001101   -0.00000606    0.00005198
     atom   72 type  3   force =     0.00003076   -0.00001857    0.00020275
     atom   73 type  3   force =     0.00002171   -0.00001233    0.00016786
     atom   74 type  4   force =     0.00000533    0.00000483    0.00001973
     atom   75 type  4   force =    -0.00000141   -0.00000704    0.00001965
     atom   76 type  4   force =    -0.00000863   -0.00000926   -0.00001419
     atom   77 type  4   force =     0.00000359    0.00001203   -0.00001424
     atom   78 type  4   force =    -0.00000716   -0.00001403    0.00000562
     atom   79 type  4   force =     0.00000843    0.00001331    0.00000560

     Total force =     0.030837     Total SCF correction =     0.007031
     SCF correction compared to forces is large: reduce conv_thr to get better values


     Computing stress (Cartesian axis) and pressure


     negative rho (up, down):  3.567E-02 0.000E+00
          total   stress  (Ry/bohr**3)                   (kbar)     P=     -306.66
  -0.00208432  -0.00000145   0.00000006         -306.61       -0.21        0.01
  -0.00000145  -0.00208595  -0.00000021           -0.21     -306.85       -0.03
   0.00000006  -0.00000021  -0.00208360            0.01       -0.03     -306.51

     kinetic stress (kbar)  17262.51    -27.47    -11.45
                              -27.47  17230.35      6.64
                              -11.45      6.64  17284.18

     local   stress (kbar)**********   -745.69   -522.87
                             -745.69**********    303.89
                             -522.87    303.891458194.42

     nonloc. stress (kbar)  -1885.86      1.74      1.40
                                1.74  -1883.85     -0.82
                                1.40     -0.82  -1942.69

     hartree stress (kbar) 757712.76    280.75    207.19
                              280.75 758039.56   -120.41
                              207.19   -120.41-682229.19

     exc-cor stress (kbar)  -8417.06      1.30      0.67
                                1.30  -8415.54     -0.39
                                0.67     -0.39  -8424.32

     corecor stress (kbar)    -80.33     -0.65     -0.34
                               -0.65    -81.09      0.20
                               -0.34      0.20    -81.80

     ewald   stress (kbar) 677279.24    489.81    325.41
                              489.81 677850.24   -189.14
                              325.41   -189.14-783107.11

     hubbard stress (kbar)      0.00      0.00      0.00
                                0.00      0.00      0.00
                                0.00      0.00      0.00

     DFT-D   stress (kbar)      0.00      0.00      0.00
                                0.00      0.00      0.00
                                0.00      0.00      0.00

     XDM     stress (kbar)      0.00      0.00      0.00
                                0.00      0.00      0.00
                                0.00      0.00      0.00

     dft-nl  stress (kbar)      0.00      0.00      0.00
                                0.00      0.00      0.00
                                0.00      0.00      0.00

     TS-vdW  stress (kbar)      0.00      0.00      0.00
                                0.00      0.00      0.00
                                0.00      0.00      0.00

     MDB     stress (kbar)      0.00      0.00      0.00
                                0.00      0.00      0.00
                                0.00      0.00      0.00

     3D-RISM stress (kbar)      0.00      0.00      0.00
                                0.00      0.00      0.00
                                0.00      0.00      0.00


     Writing all to output data dir ./tmp/Zn002_4x4x2_primitive_14Avacumn_topsite_upright_ABN.save/ :
     XML data file, charge density, pseudopotentials, collected wavefunctions

     init_run     :    143.86s CPU    145.07s WALL (       1 calls)
     electrons    :  12552.32s CPU  12657.03s WALL (       1 calls)
     forces       :    116.13s CPU    116.58s WALL (       1 calls)
     stress       :    336.63s CPU    337.74s WALL (       1 calls)

     Called by init_run:
     wfcinit      :    142.83s CPU    144.00s WALL (       1 calls)
     wfcinit:atom :      0.06s CPU      0.10s WALL (       5 calls)
     wfcinit:wfcr :    141.81s CPU    142.91s WALL (       5 calls)
     potinit      :      0.20s CPU      0.20s WALL (       1 calls)
     hinit0       :      0.07s CPU      0.07s WALL (       1 calls)

     Called by electrons:
     c_bands      :  11794.84s CPU  11890.43s WALL (      22 calls)
     sum_band     :    738.60s CPU    747.32s WALL (      22 calls)
     v_of_rho     :      0.74s CPU      0.78s WALL (      22 calls)
     v_h          :      0.03s CPU      0.04s WALL (      22 calls)
     v_xc         :      0.77s CPU      0.81s WALL (      24 calls)
     newd         :     15.11s CPU     15.45s WALL (      22 calls)
     PAW_pot      :      3.67s CPU      3.69s WALL (      22 calls)
     mix_rho      :      0.17s CPU      0.17s WALL (      22 calls)

     Called by c_bands:
     init_us_2    :      5.60s CPU      5.63s WALL (     235 calls)
     cegterg      :  11778.88s CPU  11874.38s WALL (     110 calls)

     Called by sum_band:
     sum_band:wei :      0.09s CPU      0.09s WALL (      22 calls)
     sum_band:loo :    726.60s CPU    734.96s WALL (      22 calls)
     sum_band:buf :      1.11s CPU      1.12s WALL (     110 calls)
     sum_band:ini :      2.63s CPU      2.64s WALL (     110 calls)
     sum_band:cal :    668.71s CPU    671.04s WALL (     110 calls)
     sum_band:bec :      4.30s CPU      4.31s WALL (     110 calls)
     addusdens    :     11.28s CPU     11.61s WALL (      22 calls)
                                        0.00s GPU  (      22 calls)
     addusd:skk   :      0.13s CPU      0.14s WALL (      88 calls)
                                        0.00s GPU  (      88 calls)

     Called by *egterg:
     cdiaghg      :   1054.50s CPU   1085.66s WALL (     868 calls)
     cegterg:over :   1999.21s CPU   2004.65s WALL (     763 calls)
     cegterg:upda :    927.08s CPU    930.76s WALL (     763 calls)
     cegterg:last :   2816.17s CPU   2825.85s WALL (     234 calls)
     cdiaghg:chol :     72.80s CPU     72.98s WALL (     868 calls)
     cdiaghg:inve :     16.22s CPU     16.26s WALL (     868 calls)
     cdiaghg:para :    381.58s CPU    388.17s WALL (    1736 calls)
     h_psi        :   3176.77s CPU   3215.88s WALL (     878 calls)
     s_psi        :   1306.89s CPU   1310.03s WALL (     878 calls)
     g_psi        :      1.07s CPU      1.07s WALL (     763 calls)

     Called by h_psi:
     h_psi:calbec :   1621.58s CPU   1627.30s WALL (     878 calls)
     vloc_psi     :    239.52s CPU    268.19s WALL (     878 calls)
     add_vuspsi   :   1313.70s CPU   1316.90s WALL (     878 calls)

     General routines
     calbec       :   2433.45s CPU   2442.01s WALL (    1013 calls)
     fft          :      0.80s CPU      0.87s WALL (     268 calls)
     ffts         :      0.03s CPU      0.04s WALL (      22 calls)
     fftw         :    264.18s CPU    296.11s WALL (  508260 calls)

     Parallel routines

     PAW routines
     PAW_pot      :      3.67s CPU      3.69s WALL (      22 calls)

     PWSCF        :      3h39m CPU      3h41m WALL


   This run was terminated on:  19:21:47  22Mar2025            

=------------------------------------------------------------------------------=
   JOB DONE.
=------------------------------------------------------------------------------=
Note: The following floating-point exceptions are signalling: IEEE_DENORMAL
Note: The following floating-point exceptions are signalling: IEEE_DENORMAL
Note: The following floating-point exceptions are signalling: IEEE_DENORMAL
Note: The following floating-point exceptions are signalling: IEEE_DENORMAL
