--------------------------------------------------------------------------
By default, for Open MPI 4.0 and later, infiniband ports on a device
are not used by default.  The intent is to use UCX for these devices.
You can override this policy by setting the btl_openib_allow_ib MCA parameter
to true.

  Local host:              psid04
  Local adapter:           mlx5_0
  Local port:              1

--------------------------------------------------------------------------
--------------------------------------------------------------------------
WARNING: There was an error initializing an OpenFabrics device.

  Local host:   psid04
  Local device: mlx5_0
--------------------------------------------------------------------------

     Program PWSCF v.7.3.1 starts on 22Mar2025 at 12:50:12 

     This program is part of the open-source Quantum ESPRESSO suite
     for quantum simulation of materials; please cite
         "P. Giannozzi et al., J. Phys.:Condens. Matter 21 395502 (2009);
         "P. Giannozzi et al., J. Phys.:Condens. Matter 29 465901 (2017);
         "P. Giannozzi et al., J. Chem. Phys. 152 154105 (2020);
          URL http://www.quantum-espresso.org", 
     in publications or presentations arising from this work. More details at
     http://www.quantum-espresso.org/quote

     Parallel version (MPI), running on    16 processors

     MPI processes distributed on     1 nodes
     101890 MiB available memory on the printing compute node when the environment starts

     Waiting for input...
     Reading input from standard input
Warning: card &CELL ignored
Warning: card   CELL_DOFREE = 'ALL' ignored
Warning: card / ignored

     Current dimensions of program PWSCF are:
     Max number of different atomic species (ntypx) = 10
     Max number of k-points (npk) =  40000
     Max angular momentum in pseudopotentials (lmaxx) =  4
     file C.pbe-n-kjpaw_psl.1.0.0.UPF: wavefunction(s)  2S 2P renormalized

     R & G space division:  proc/nbgrp/npool/nimage =      16
     Subspace diagonalization in iterative solution of the eigenvalue problem:
     one sub-group per band group will be used
     custom distributed-memory algorithm (size of sub-group:  4*  4 procs)


     Parallelization info
     --------------------
     sticks:   dense  smooth     PW     G-vecs:    dense   smooth      PW
     Min         202     202     53                21070    21070    2943
     Max         203     203     54                21080    21080    2952
     Sum        3241    3241    859               337189   337189   47187

     Using Slab Decomposition



     bravais-lattice index     =            0
     lattice parameter (alat)  =      19.7617  a.u.
     unit-cell volume          =   15176.5939 (a.u.)^3
     number of atoms/cell      =           79
     number of atomic types    =            4
     number of electrons       =      1324.00
     number of Kohn-Sham states=          794
     kinetic-energy cutoff     =      30.0000  Ry
     charge density cutoff     =     120.0000  Ry
     scf convergence threshold =      7.3E-07
     mixing beta               =       0.7000
     number of iterations used =            8  plain     mixing
     Exchange-correlation= PBE
                           (   1   4   3   4   0   0   0)

     celldm(1)=  19.761696  celldm(2)=   0.000000  celldm(3)=   0.000000
     celldm(4)=   0.000000  celldm(5)=   0.000000  celldm(6)=   0.000000

     crystal axes: (cart. coord. in units of alat)
               a(1) = (   1.000000   0.000000   0.000000 )  
               a(2) = (  -0.500000   0.866025   0.000000 )  
               a(3) = (   0.000000   0.000000   2.270759 )  

     reciprocal axes: (cart. coord. in units 2 pi/alat)
               b(1) = (  1.000000  0.577350 -0.000000 )  
               b(2) = (  0.000000  1.154701  0.000000 )  
               b(3) = (  0.000000 -0.000000  0.440381 )  


     PseudoPot. # 1 for Zn read from file:
     /home/ys/qepseudo/SSSP_1.3.0_PBE_efficiency/Zn_pbe_v1.uspp.F.UPF
     MD5 check sum: df62231357ef9e81f77b2b3087fa5675
     Pseudo is Ultrasoft, Zval = 20.0
     Generated by new atomic code, or converted to UPF format
     Using radial grid of  943 points,  6 beta functions with: 
                l(1) =   0
                l(2) =   0
                l(3) =   1
                l(4) =   1
                l(5) =   2
                l(6) =   2
     Q(r) pseudized with  8 coefficients,  rinner =    1.100   1.100   1.100
                                                       1.100   1.100

     PseudoPot. # 2 for C  read from file:
     /home/ys/qepseudo/SSSP_1.3.0_PBE_efficiency/C.pbe-n-kjpaw_psl.1.0.0.UPF
     MD5 check sum: 5d2aebdfa2cae82b50a7e79e9516da0f
     Pseudo is Projector augmented-wave + core cor, Zval =  4.0
     Generated using "atomic" code by A. Dal Corso  v.5.1
     Shape of augmentation charge: PSQ
     Using radial grid of 1073 points,  4 beta functions with: 
                l(1) =   0
                l(2) =   0
                l(3) =   1
                l(4) =   1
     Q(r) pseudized with 0 coefficients 


     PseudoPot. # 3 for N  read from file:
     /home/ys/qepseudo/SSSP_1.3.0_PBE_efficiency/N.pbe-n-radius_5.UPF
     MD5 check sum: 16739722b17309cd8fe442a2ace49922
     Pseudo is Ultrasoft + core correction, Zval =  5.0
     Generated using "atomic" code by A. Dal Corso  v.5.1
     Using radial grid of 1085 points,  4 beta functions with: 
                l(1) =   0
                l(2) =   0
                l(3) =   1
                l(4) =   1
     Q(r) pseudized with 0 coefficients 


     PseudoPot. # 4 for H  read from file:
     /home/ys/qepseudo/SSSP_1.3.0_PBE_efficiency/H.pbe-rrkjus_psl.1.0.0.UPF
     MD5 check sum: f52b6d4d1c606e5624b1dc7b2218f220
     Pseudo is Ultrasoft, Zval =  1.0
     Generated using "atomic" code by A. Dal Corso  v.5.1
     Using radial grid of  929 points,  2 beta functions with: 
                l(1) =   0
                l(2) =   0
     Q(r) pseudized with 0 coefficients 


     atomic species   valence    mass     pseudopotential
     Zn               20.00    65.38000     Zn( 1.00)
     C                 4.00    12.01070     C ( 1.00)
     N                 5.00    14.00670     N ( 1.00)
     H                 1.00     1.00800     H ( 1.00)

     No symmetry found


                                    s                        frac. trans.

      isym =  1     identity                                     

 cryst.   s( 1) = (     1          0          0      )
                  (     0          1          0      )
                  (     0          0          1      )

 cart.    s( 1) = (  1.0000000  0.0000000  0.0000000 )
                  (  0.0000000  1.0000000  0.0000000 )
                  (  0.0000000  0.0000000  1.0000000 )


   Cartesian axes

     site n.     atom                  positions (alat units)
         1        Zn     tau(   1) = (  -0.0000000   0.1443376   0.1164999  )
         2        Zn     tau(   2) = (   0.5000000   0.1443376   0.1164999  )
         3        Zn     tau(   3) = (   0.0001063   0.1443772   0.5902127  )
         4        Zn     tau(   4) = (   0.4998958   0.1443643   0.5917156  )
         5        Zn     tau(   5) = (  -0.1250000   0.3608439   0.1164999  )
         6        Zn     tau(   6) = (   0.3750000   0.3608439   0.1164999  )
         7        Zn     tau(   7) = (  -0.1249761   0.3609302   0.5908726  )
         8        Zn     tau(   8) = (   0.3749642   0.3608477   0.5913644  )
         9        Zn     tau(   9) = (  -0.2500000   0.5773503   0.1164999  )
        10        Zn     tau(  10) = (   0.2500000   0.5773503   0.1164999  )
        11        Zn     tau(  11) = (  -0.2499911   0.5773738   0.5915504  )
        12        Zn     tau(  12) = (   0.2499824   0.5772583   0.5907382  )
        13        Zn     tau(  13) = (  -0.3750000   0.7938566   0.1164999  )
        14        Zn     tau(  14) = (   0.1250000   0.7938566   0.1164999  )
        15        Zn     tau(  15) = (  -0.3749161   0.7938269   0.5909604  )
        16        Zn     tau(  16) = (   0.1249053   0.7937898   0.5911170  )
        17        Zn     tau(  17) = (   0.2500000   0.1443376   0.1164999  )
        18        Zn     tau(  18) = (   0.7500000   0.1443376   0.1164999  )
        19        Zn     tau(  19) = (   0.2499566   0.1443139   0.5910485  )
        20        Zn     tau(  20) = (   0.7500401   0.1444360   0.5909256  )
        21        Zn     tau(  21) = (   0.1250000   0.3608439   0.1164999  )
        22        Zn     tau(  22) = (   0.6250000   0.3608439   0.1164999  )
        23        Zn     tau(  23) = (   0.1249684   0.3608327   0.5904686  )
        24        Zn     tau(  24) = (   0.6250220   0.3609386   0.5917101  )
        25        Zn     tau(  25) = (  -0.0000000   0.5773503   0.1164999  )
        26        Zn     tau(  26) = (   0.5000000   0.5773503   0.1164999  )
        27        Zn     tau(  27) = (  -0.0000983   0.5773031   0.5910657  )
        28        Zn     tau(  28) = (   0.5000885   0.5773473   0.5912976  )
        29        Zn     tau(  29) = (  -0.1250000   0.7938566   0.1164999  )
        30        Zn     tau(  30) = (   0.3750000   0.7938566   0.1164999  )
        31        Zn     tau(  31) = (  -0.1251014   0.7937984   0.5915674  )
        32        Zn     tau(  32) = (   0.3751324   0.7938157   0.5904624  )
        33        Zn     tau(  33) = (   0.1250000   0.0721688   0.3494996  )
        34        Zn     tau(  34) = (   0.6250000   0.0721688   0.3494996  )
        35        Zn     tau(  35) = (   0.1248091   0.0718530   0.8330921  )
        36        Zn     tau(  36) = (   0.6250782   0.0719029   0.8329720  )
        37        Zn     tau(  37) = (   0.0000000   0.2886751   0.3494996  )
        38        Zn     tau(  38) = (   0.5000000   0.2886751   0.3494996  )
        39        Zn     tau(  39) = (  -0.0001233   0.2885465   0.8326802  )
        40        Zn     tau(  40) = (   0.5001664   0.2886112   0.8304998  )
        41        Zn     tau(  41) = (  -0.1250000   0.5051815   0.3494996  )
        42        Zn     tau(  42) = (   0.3750000   0.5051815   0.3494996  )
        43        Zn     tau(  43) = (  -0.1251737   0.5050546   0.8330493  )
        44        Zn     tau(  44) = (   0.3750127   0.5053062   0.8324313  )
        45        Zn     tau(  45) = (  -0.2500000   0.7216878   0.3494996  )
        46        Zn     tau(  46) = (   0.2500000   0.7216878   0.3494996  )
        47        Zn     tau(  47) = (  -0.2500934   0.7215858   0.8334125  )
        48        Zn     tau(  48) = (   0.2500569   0.7216264   0.8329478  )
        49        Zn     tau(  49) = (   0.3750000   0.0721688   0.3494996  )
        50        Zn     tau(  50) = (   0.8750000   0.0721688   0.3494996  )
        51        Zn     tau(  51) = (   0.3749592   0.0719990   0.8333365  )
        52        Zn     tau(  52) = (   0.8750264   0.0720212   0.8326466  )
        53        Zn     tau(  53) = (   0.2500000   0.2886751   0.3494996  )
        54        Zn     tau(  54) = (   0.7500000   0.2886751   0.3494996  )
        55        Zn     tau(  55) = (   0.2496261   0.2881738   0.8269236  )
        56        Zn     tau(  56) = (   0.7501031   0.2884453   0.8327565  )
        57        Zn     tau(  57) = (   0.1250000   0.5051815   0.3494996  )
        58        Zn     tau(  58) = (   0.6250000   0.5051815   0.3494996  )
        59        Zn     tau(  59) = (   0.1247966   0.5052991   0.8292882  )
        60        Zn     tau(  60) = (   0.6249849   0.5051435   0.8337009  )
        61        Zn     tau(  61) = (   0.0000000   0.7216878   0.3494996  )
        62        Zn     tau(  62) = (   0.5000000   0.7216878   0.3494996  )
        63        Zn     tau(  63) = (  -0.0001499   0.7216090   0.8329555  )
        64        Zn     tau(  64) = (   0.4999605   0.7216198   0.8333822  )
        65        C      tau(  65) = (   0.5001245   0.6512489   1.5818856  )
        66        C      tau(  66) = (   0.4503748   0.5880873   1.4717825  )
        67        C      tau(  67) = (   0.5225991   0.4943651   1.4071785  )
        68        C      tau(  68) = (   0.3264123   0.6162507   1.4267241  )
        69        C      tau(  69) = (   0.2764625   0.5530442   1.3215455  )
        70        C      tau(  70) = (   0.4730439   0.4317765   1.3012616  )
        71        C      tau(  71) = (   0.3480239   0.4581219   1.2574389  )
        72        N      tau(  72) = (   0.5407786   0.7032875   1.6727142  )
        73        N      tau(  73) = (   0.2953490   0.3888539   1.1587312  )
        74        H      tau(  74) = (   0.2166512   0.4247776   1.1137495  )
        75        H      tau(  75) = (   0.3555477   0.3399550   1.0995347  )
        76        H      tau(  76) = (   0.6188986   0.4715322   1.4409974  )
        77        H      tau(  77) = (   0.2691854   0.6885226   1.4761519  )
        78        H      tau(  78) = (   0.1794203   0.5753496   1.2890370  )
        79        H      tau(  79) = (   0.5304886   0.3589262   1.2526284  )

   Crystallographic axes

     site n.     atom                  positions (cryst. coord.)
         1        Zn     tau(   1) = (  0.0833333  0.1666667  0.0513044  )
         2        Zn     tau(   2) = (  0.5833333  0.1666667  0.0513044  )
         3        Zn     tau(   3) = (  0.0834625  0.1667124  0.2599187  )
         4        Zn     tau(   4) = (  0.5832446  0.1666976  0.2605806  )
         5        Zn     tau(   5) = (  0.0833333  0.4166667  0.0513044  )
         6        Zn     tau(   6) = (  0.5833333  0.4166667  0.0513044  )
         7        Zn     tau(   7) = (  0.0834070  0.4167663  0.2602093  )
         8        Zn     tau(   8) = (  0.5832997  0.4166711  0.2604259  )
         9        Zn     tau(   9) = (  0.0833333  0.6666667  0.0513044  )
        10        Zn     tau(  10) = (  0.5833333  0.6666667  0.0513044  )
        11        Zn     tau(  11) = (  0.0833558  0.6666938  0.2605078  )
        12        Zn     tau(  12) = (  0.5832626  0.6665605  0.2601501  )
        13        Zn     tau(  13) = (  0.0833333  0.9166667  0.0513044  )
        14        Zn     tau(  14) = (  0.5833333  0.9166667  0.0513044  )
        15        Zn     tau(  15) = (  0.0834001  0.9166324  0.2602480  )
        16        Zn     tau(  16) = (  0.5832000  0.9165895  0.2603170  )
        17        Zn     tau(  17) = (  0.3333333  0.1666667  0.0513044  )
        18        Zn     tau(  18) = (  0.8333333  0.1666667  0.0513044  )
        19        Zn     tau(  19) = (  0.3332763  0.1666393  0.2602868  )
        20        Zn     tau(  20) = (  0.8334303  0.1667804  0.2602327  )
        21        Zn     tau(  21) = (  0.3333333  0.4166667  0.0513044  )
        22        Zn     tau(  22) = (  0.8333333  0.4166667  0.0513044  )
        23        Zn     tau(  23) = (  0.3332952  0.4166537  0.2600314  )
        24        Zn     tau(  24) = (  0.8334099  0.4167759  0.2605781  )
        25        Zn     tau(  25) = (  0.3333333  0.6666667  0.0513044  )
        26        Zn     tau(  26) = (  0.8333333  0.6666667  0.0513044  )
        27        Zn     tau(  27) = (  0.3332078  0.6666122  0.2602944  )
        28        Zn     tau(  28) = (  0.8334201  0.6666632  0.2603965  )
        29        Zn     tau(  29) = (  0.3333333  0.9166667  0.0513044  )
        30        Zn     tau(  30) = (  0.8333333  0.9166667  0.0513044  )
        31        Zn     tau(  31) = (  0.3331983  0.9165994  0.2605153  )
        32        Zn     tau(  32) = (  0.8334421  0.9166194  0.2600287  )
        33        Zn     tau(  33) = (  0.1666667  0.0833333  0.1539131  )
        34        Zn     tau(  34) = (  0.6666667  0.0833333  0.1539131  )
        35        Zn     tau(  35) = (  0.1662935  0.0829687  0.3668783  )
        36        Zn     tau(  36) = (  0.6665913  0.0830263  0.3668254  )
        37        Zn     tau(  37) = (  0.1666667  0.3333333  0.1539131  )
        38        Zn     tau(  38) = (  0.6666667  0.3333333  0.1539131  )
        39        Zn     tau(  39) = (  0.1664691  0.3331848  0.3666969  )
        40        Zn     tau(  40) = (  0.6667962  0.3332596  0.3657367  )
        41        Zn     tau(  41) = (  0.1666667  0.5833333  0.1539131  )
        42        Zn     tau(  42) = (  0.6666667  0.5833333  0.1539131  )
        43        Zn     tau(  43) = (  0.1664197  0.5831868  0.3668595  )
        44        Zn     tau(  44) = (  0.6667513  0.5834773  0.3665873  )
        45        Zn     tau(  45) = (  0.1666667  0.8333333  0.1539131  )
        46        Zn     tau(  46) = (  0.6666667  0.8333333  0.1539131  )
        47        Zn     tau(  47) = (  0.1665144  0.8332155  0.3670194  )
        48        Zn     tau(  48) = (  0.6666881  0.8332624  0.3668148  )
        49        Zn     tau(  49) = (  0.4166667  0.0833333  0.1539131  )
        50        Zn     tau(  50) = (  0.9166667  0.0833333  0.1539131  )
        51        Zn     tau(  51) = (  0.4165278  0.0831373  0.3669859  )
        52        Zn     tau(  52) = (  0.9166078  0.0831629  0.3666821  )
        53        Zn     tau(  53) = (  0.4166667  0.3333333  0.1539131  )
        54        Zn     tau(  54) = (  0.9166667  0.3333333  0.1539131  )
        55        Zn     tau(  55) = (  0.4160033  0.3327544  0.3641618  )
        56        Zn     tau(  56) = (  0.9166371  0.3330680  0.3667305  )
        57        Zn     tau(  57) = (  0.4166667  0.5833333  0.1539131  )
        58        Zn     tau(  58) = (  0.9166667  0.5833333  0.1539131  )
        59        Zn     tau(  59) = (  0.4165312  0.5834692  0.3652031  )
        60        Zn     tau(  60) = (  0.9166297  0.5832895  0.3671464  )
        61        Zn     tau(  61) = (  0.4166667  0.8333333  0.1539131  )
        62        Zn     tau(  62) = (  0.9166667  0.8333333  0.1539131  )
        63        Zn     tau(  63) = (  0.4164712  0.8332423  0.3668181  )
        64        Zn     tau(  64) = (  0.9165879  0.8332548  0.3670060  )
        65        C      tau(  65) = (  0.8761232  0.7519975  0.6966330  )
        66        C      tau(  66) = (  0.7899072  0.6790648  0.6481457  )
        67        C      tau(  67) = (  0.8080210  0.5708437  0.6196953  )
        68        C      tau(  68) = (  0.6822049  0.7115851  0.6283028  )
        69        C      tau(  69) = (  0.5957627  0.6386005  0.5819841  )
        70        C      tau(  70) = (  0.7223302  0.4985726  0.5730515  )
        71        C      tau(  71) = (  0.6125207  0.5289936  0.5537527  )
        72        N      tau(  72) = (  0.9468219  0.8120865  0.7366323  )
        73        N      tau(  73) = (  0.5198539  0.4490098  0.5102837  )
        74        H      tau(  74) = (  0.4618967  0.4904909  0.4904746  )
        75        H      tau(  75) = (  0.5518208  0.3925463  0.4842147  )
        76        H      tau(  76) = (  0.8911379  0.5444785  0.6345885  )
        77        H      tau(  77) = (  0.6667042  0.7950375  0.6500699  )
        78        H      tau(  78) = (  0.5115986  0.6643565  0.5676680  )
        79        H      tau(  79) = (  0.7377148  0.4144523  0.5516343  )

     number of k points=     5  Marzari-Vanderbilt smearing, width (Ry)=  0.0200
                       cart. coord. in units 2pi/alat
        k(    1) = (   0.0000000   0.0000000   0.0000000), wk =   0.2222222
        k(    2) = (   0.0000000   0.3849002   0.0000000), wk =   0.4444444
        k(    3) = (   0.3333333   0.1924501   0.0000000), wk =   0.4444444
        k(    4) = (   0.3333333   0.5773503   0.0000000), wk =   0.4444444
        k(    5) = (   0.3333333  -0.1924501   0.0000000), wk =   0.4444444

                       cryst. coord.
        k(    1) = (   0.0000000   0.0000000   0.0000000), wk =   0.2222222
        k(    2) = (   0.0000000   0.3333333   0.0000000), wk =   0.4444444
        k(    3) = (   0.3333333   0.0000000   0.0000000), wk =   0.4444444
        k(    4) = (   0.3333333   0.3333333   0.0000000), wk =   0.4444444
        k(    5) = (   0.3333333  -0.3333333   0.0000000), wk =   0.4444444

     Dense  grid:   337189 G-vectors     FFT dimensions: (  72,  72, 160)

     Dynamical RAM for                 wfc:      31.89 MB

     Dynamical RAM for     wfc (w. buffer):     191.33 MB

     Dynamical RAM for           str. fact:       1.29 MB

     Dynamical RAM for           local pot:       0.00 MB

     Dynamical RAM for          nlocal pot:      49.64 MB

     Dynamical RAM for                qrad:       3.52 MB

     Dynamical RAM for          rho,v,vnew:       2.15 MB

     Dynamical RAM for               rhoin:       0.72 MB

     Dynamical RAM for            rho*nmix:       5.15 MB

     Dynamical RAM for           G-vectors:       1.37 MB

     Dynamical RAM for          h,s,v(r/c):       7.21 MB

     Dynamical RAM for          <psi|beta>:      14.97 MB

     Dynamical RAM for                 psi:      63.78 MB

     Dynamical RAM for                hpsi:      63.78 MB

     Dynamical RAM for                spsi:      63.78 MB

     Dynamical RAM for      wfcinit/wfcrot:      87.69 MB

     Dynamical RAM for           addusdens:      80.39 MB

     Dynamical RAM for          addusforce:     121.32 MB

     Dynamical RAM for         addusstress:      64.63 MB

     Estimated static dynamical RAM per process >     253.59 MB

     Estimated max dynamical RAM per process >     472.26 MB

     Estimated total dynamical RAM >       7.38 GB

     Check: negative core charge=   -0.000056

     Initial potential from superposition of free atoms

     starting charge    1323.9906, renormalised to    1324.0000

     negative rho (up, down):  6.954E-03 0.000E+00
     Starting wfcs are  874 randomized atomic wfcs
[psid04:25318] 15 more processes have sent help message help-mpi-btl-openib.txt / ib port not selected
[psid04:25318] Set MCA parameter "orte_base_help_aggregate" to 0 to see all help / error messages
[psid04:25318] 15 more processes have sent help message help-mpi-btl-openib.txt / error in device init
     Checking if some PAW data can be deallocated... 
       PAW data deallocated on   13 nodes for type:  2

     total cpu time spent up to now is      151.8 secs

     Self-consistent Calculation

     iteration #  1     ecut=    30.00 Ry     beta= 0.70
     Davidson diagonalization with overlap

---- Real-time Memory Report at c_bands before calling an iterative solver
           351 MiB given to the printing process from OS
             0 MiB allocation reported by mallinfo(arena+hblkhd)
         92057 MiB available memory on the node where the printing process lives
------------------
     ethr =  1.00E-02,  avg # of iterations =  7.2

     Threshold (ethr) on eigenvalues was too large:
     Diagonalizing with lowered threshold

     Davidson diagonalization with overlap

---- Real-time Memory Report at c_bands before calling an iterative solver
           508 MiB given to the printing process from OS
             0 MiB allocation reported by mallinfo(arena+hblkhd)
         92020 MiB available memory on the node where the printing process lives
------------------
     ethr =  9.20E-04,  avg # of iterations =  1.4

     negative rho (up, down):  3.514E-02 0.000E+00

     total cpu time spent up to now is     1174.4 secs

     total energy              =  -29703.42465263 Ry
     estimated scf accuracy    <      12.39802551 Ry

     iteration #  2     ecut=    30.00 Ry     beta= 0.70
     Davidson diagonalization with overlap

---- Real-time Memory Report at c_bands before calling an iterative solver
           510 MiB given to the printing process from OS
             0 MiB allocation reported by mallinfo(arena+hblkhd)
         92014 MiB available memory on the node where the printing process lives
------------------
     ethr =  9.36E-04,  avg # of iterations = 12.4

     negative rho (up, down):  3.288E-02 0.000E+00

     total cpu time spent up to now is     2017.9 secs

     total energy              =  -29665.37567729 Ry
     estimated scf accuracy    <     847.14445667 Ry

     iteration #  3     ecut=    30.00 Ry     beta= 0.70
     Davidson diagonalization with overlap

---- Real-time Memory Report at c_bands before calling an iterative solver
           513 MiB given to the printing process from OS
             0 MiB allocation reported by mallinfo(arena+hblkhd)
         91864 MiB available memory on the node where the printing process lives
------------------
     ethr =  9.36E-04,  avg # of iterations =  9.8

     negative rho (up, down):  2.627E-02 0.000E+00

     total cpu time spent up to now is     3254.6 secs

     total energy              =  -29700.60573540 Ry
     estimated scf accuracy    <     162.99851007 Ry

     iteration #  4     ecut=    30.00 Ry     beta= 0.70
     Davidson diagonalization with overlap

---- Real-time Memory Report at c_bands before calling an iterative solver
           513 MiB given to the printing process from OS
             0 MiB allocation reported by mallinfo(arena+hblkhd)
         90751 MiB available memory on the node where the printing process lives
------------------
     ethr =  9.36E-04,  avg # of iterations =  8.2

     negative rho (up, down):  9.846E-03 0.000E+00

     total cpu time spent up to now is     3854.0 secs

     total energy              =  -29705.98622222 Ry
     estimated scf accuracy    <     112.36397571 Ry

     iteration #  5     ecut=    30.00 Ry     beta= 0.70
     Davidson diagonalization with overlap

---- Real-time Memory Report at c_bands before calling an iterative solver
           513 MiB given to the printing process from OS
             0 MiB allocation reported by mallinfo(arena+hblkhd)
         90747 MiB available memory on the node where the printing process lives
------------------
     ethr =  9.36E-04,  avg # of iterations =  7.4

     negative rho (up, down):  9.893E-03 0.000E+00

     total cpu time spent up to now is     4406.9 secs

     total energy              =  -29711.49802510 Ry
     estimated scf accuracy    <       5.23152379 Ry

     iteration #  6     ecut=    30.00 Ry     beta= 0.70
     Davidson diagonalization with overlap

---- Real-time Memory Report at c_bands before calling an iterative solver
           513 MiB given to the printing process from OS
             0 MiB allocation reported by mallinfo(arena+hblkhd)
         90226 MiB available memory on the node where the printing process lives
------------------
     ethr =  3.95E-04,  avg # of iterations =  3.4

     negative rho (up, down):  1.690E-02 0.000E+00

     total cpu time spent up to now is     4898.4 secs

     total energy              =  -29711.99266502 Ry
     estimated scf accuracy    <       0.21811813 Ry

     iteration #  7     ecut=    30.00 Ry     beta= 0.70
     Davidson diagonalization with overlap

---- Real-time Memory Report at c_bands before calling an iterative solver
           514 MiB given to the printing process from OS
             0 MiB allocation reported by mallinfo(arena+hblkhd)
         90200 MiB available memory on the node where the printing process lives
------------------
     ethr =  1.65E-05,  avg # of iterations = 16.6

     negative rho (up, down):  2.587E-02 0.000E+00

     total cpu time spent up to now is     5493.1 secs

     total energy              =  -29712.00034167 Ry
     estimated scf accuracy    <       0.07768308 Ry

     iteration #  8     ecut=    30.00 Ry     beta= 0.70
     Davidson diagonalization with overlap

---- Real-time Memory Report at c_bands before calling an iterative solver
           515 MiB given to the printing process from OS
             0 MiB allocation reported by mallinfo(arena+hblkhd)
         90039 MiB available memory on the node where the printing process lives
------------------
     ethr =  5.87E-06,  avg # of iterations =  6.6

     negative rho (up, down):  3.219E-02 0.000E+00

     total cpu time spent up to now is     6030.0 secs

     total energy              =  -29712.00164053 Ry
     estimated scf accuracy    <       0.05751684 Ry

     iteration #  9     ecut=    30.00 Ry     beta= 0.70
     Davidson diagonalization with overlap

---- Real-time Memory Report at c_bands before calling an iterative solver
           516 MiB given to the printing process from OS
             0 MiB allocation reported by mallinfo(arena+hblkhd)
         91758 MiB available memory on the node where the printing process lives
------------------
     c_bands:  1 eigenvalues not converged
     ethr =  4.34E-06,  avg # of iterations =  7.2

     negative rho (up, down):  3.376E-02 0.000E+00

     total cpu time spent up to now is     6565.8 secs

     total energy              =  -29712.00555143 Ry
     estimated scf accuracy    <       0.04530690 Ry

     iteration # 10     ecut=    30.00 Ry     beta= 0.70
     Davidson diagonalization with overlap

---- Real-time Memory Report at c_bands before calling an iterative solver
           517 MiB given to the printing process from OS
             0 MiB allocation reported by mallinfo(arena+hblkhd)
         90112 MiB available memory on the node where the printing process lives
------------------
     c_bands:  1 eigenvalues not converged
     ethr =  3.42E-06,  avg # of iterations =  8.4

     negative rho (up, down):  3.442E-02 0.000E+00

     total cpu time spent up to now is     7077.9 secs

     total energy              =  -29712.00902785 Ry
     estimated scf accuracy    <       0.01461983 Ry

     iteration # 11     ecut=    30.00 Ry     beta= 0.70
     Davidson diagonalization with overlap

---- Real-time Memory Report at c_bands before calling an iterative solver
           518 MiB given to the printing process from OS
             0 MiB allocation reported by mallinfo(arena+hblkhd)
         89824 MiB available memory on the node where the printing process lives
------------------
     c_bands:  1 eigenvalues not converged
     ethr =  1.10E-06,  avg # of iterations = 14.6

     negative rho (up, down):  4.067E-02 0.000E+00

     total cpu time spent up to now is     7587.4 secs

     total energy              =  -29712.00257520 Ry
     estimated scf accuracy    <       0.01190694 Ry

     iteration # 12     ecut=    30.00 Ry     beta= 0.70
     Davidson diagonalization with overlap

---- Real-time Memory Report at c_bands before calling an iterative solver
           518 MiB given to the printing process from OS
             0 MiB allocation reported by mallinfo(arena+hblkhd)
         89863 MiB available memory on the node where the printing process lives
------------------
     c_bands:  2 eigenvalues not converged
     ethr =  8.99E-07,  avg # of iterations = 14.8

     negative rho (up, down):  3.807E-02 0.000E+00

     total cpu time spent up to now is     8183.9 secs

     total energy              =  -29712.00263370 Ry
     estimated scf accuracy    <       0.00839175 Ry

     iteration # 13     ecut=    30.00 Ry     beta= 0.70
     Davidson diagonalization with overlap

---- Real-time Memory Report at c_bands before calling an iterative solver
           518 MiB given to the printing process from OS
             0 MiB allocation reported by mallinfo(arena+hblkhd)
         89111 MiB available memory on the node where the printing process lives
------------------
     ethr =  6.34E-07,  avg # of iterations =  4.2

     negative rho (up, down):  3.686E-02 0.000E+00

     total cpu time spent up to now is     8683.5 secs

     total energy              =  -29711.99969441 Ry
     estimated scf accuracy    <       0.01191039 Ry

     iteration # 14     ecut=    30.00 Ry     beta= 0.70
     Davidson diagonalization with overlap

---- Real-time Memory Report at c_bands before calling an iterative solver
           518 MiB given to the printing process from OS
             0 MiB allocation reported by mallinfo(arena+hblkhd)
         90076 MiB available memory on the node where the printing process lives
------------------
     c_bands:  1 eigenvalues not converged
     ethr =  6.34E-07,  avg # of iterations = 12.4

     negative rho (up, down):  3.612E-02 0.000E+00

     total cpu time spent up to now is     9242.7 secs

     total energy              =  -29711.99654309 Ry
     estimated scf accuracy    <       0.12628151 Ry

     iteration # 15     ecut=    30.00 Ry     beta= 0.70
     Davidson diagonalization with overlap

---- Real-time Memory Report at c_bands before calling an iterative solver
           518 MiB given to the printing process from OS
             0 MiB allocation reported by mallinfo(arena+hblkhd)
         89105 MiB available memory on the node where the printing process lives
------------------
     ethr =  6.34E-07,  avg # of iterations =  7.2

     negative rho (up, down):  3.586E-02 0.000E+00

     total cpu time spent up to now is     9767.4 secs

     total energy              =  -29712.00334276 Ry
     estimated scf accuracy    <       0.00059584 Ry

     iteration # 16     ecut=    30.00 Ry     beta= 0.70
     Davidson diagonalization with overlap

---- Real-time Memory Report at c_bands before calling an iterative solver
           518 MiB given to the printing process from OS
             0 MiB allocation reported by mallinfo(arena+hblkhd)
         89104 MiB available memory on the node where the printing process lives
------------------
     ethr =  4.50E-08,  avg # of iterations =  3.0

     negative rho (up, down):  3.553E-02 0.000E+00

     total cpu time spent up to now is    10306.8 secs

     total energy              =  -29712.00342692 Ry
     estimated scf accuracy    <       0.00047971 Ry

     iteration # 17     ecut=    30.00 Ry     beta= 0.70
     Davidson diagonalization with overlap

---- Real-time Memory Report at c_bands before calling an iterative solver
           518 MiB given to the printing process from OS
             0 MiB allocation reported by mallinfo(arena+hblkhd)
         89106 MiB available memory on the node where the printing process lives
------------------
     ethr =  3.62E-08,  avg # of iterations =  2.0

     negative rho (up, down):  3.521E-02 0.000E+00

     total cpu time spent up to now is    10778.5 secs

     total energy              =  -29712.00348928 Ry
     estimated scf accuracy    <       0.00007445 Ry

     iteration # 18     ecut=    30.00 Ry     beta= 0.70
     Davidson diagonalization with overlap

---- Real-time Memory Report at c_bands before calling an iterative solver
           518 MiB given to the printing process from OS
             0 MiB allocation reported by mallinfo(arena+hblkhd)
         89685 MiB available memory on the node where the printing process lives
------------------
     ethr =  5.62E-09,  avg # of iterations =  2.0

     negative rho (up, down):  3.504E-02 0.000E+00

     total cpu time spent up to now is    11257.6 secs

     total energy              =  -29712.00349810 Ry
     estimated scf accuracy    <       0.00001140 Ry

     iteration # 19     ecut=    30.00 Ry     beta= 0.70
     Davidson diagonalization with overlap

---- Real-time Memory Report at c_bands before calling an iterative solver
           518 MiB given to the printing process from OS
             0 MiB allocation reported by mallinfo(arena+hblkhd)
         89684 MiB available memory on the node where the printing process lives
------------------
     ethr =  8.61E-10,  avg # of iterations =  3.0

     negative rho (up, down):  3.500E-02 0.000E+00

     total cpu time spent up to now is    11740.5 secs

     total energy              =  -29712.00349959 Ry
     estimated scf accuracy    <       0.00000159 Ry

     iteration # 20     ecut=    30.00 Ry     beta= 0.70
     Davidson diagonalization with overlap

---- Real-time Memory Report at c_bands before calling an iterative solver
           518 MiB given to the printing process from OS
             0 MiB allocation reported by mallinfo(arena+hblkhd)
         89686 MiB available memory on the node where the printing process lives
------------------
     ethr =  1.20E-10,  avg # of iterations =  2.2

     negative rho (up, down):  3.498E-02 0.000E+00

     total cpu time spent up to now is    12260.4 secs

     total energy              =  -29712.00349966 Ry
     estimated scf accuracy    <       0.00000263 Ry

     iteration # 21     ecut=    30.00 Ry     beta= 0.70
     Davidson diagonalization with overlap

---- Real-time Memory Report at c_bands before calling an iterative solver
           518 MiB given to the printing process from OS
             0 MiB allocation reported by mallinfo(arena+hblkhd)
         91690 MiB available memory on the node where the printing process lives
------------------
     ethr =  1.20E-10,  avg # of iterations =  2.0

     negative rho (up, down):  3.494E-02 0.000E+00

     total cpu time spent up to now is    12736.8 secs

     End of self-consistent calculation

          k = 0.0000 0.0000 0.0000 ( 42115 PWs)   bands (ev):

  -123.0670-123.0650-123.0645-123.0636-123.0624-123.0621-123.0620-123.0617
  -123.0617-123.0610-123.0609-123.0608-123.0603-123.0601-123.0593-123.0587
  -123.0333-123.0305-123.0246-123.0224-123.0214-123.0190-123.0179-123.0159
  -123.0147-123.0132-123.0124-123.0120-123.0117-123.0115-123.0112-123.0111
  -122.8697-122.8644-122.8614-122.8611-122.8610-122.8608-122.8607-122.8605
  -122.8604-122.8602-122.8602-122.8598-122.8596-122.8590-122.8588-122.8587
  -122.8578-122.8576-122.8574-122.8406-122.8374-122.8363-122.8356-122.8350
  -122.8347-122.8346-122.8333-122.8330-122.8311-122.8308-122.8300-122.8294
   -77.1747 -77.1745 -77.1745 -77.1656 -77.1655 -77.1652 -77.1651 -77.1646
   -77.1643 -77.1531 -77.1520 -77.1515 -77.1502 -77.1492 -77.1490 -77.1487
   -77.1485 -77.1483 -77.1480 -77.1477 -77.1476 -77.1472 -77.1471 -77.1461
   -77.1456 -77.1430 -77.1429 -77.1427 -77.1421 -77.1419 -77.1416 -77.1400
   -77.1396 -77.1396 -77.1391 -77.1385 -77.1383 -77.1378 -77.1374 -77.1353
   -77.1350 -77.1348 -77.1346 -77.1343 -77.1341 -77.1341 -77.1335 -77.1334
   -77.1331 -77.1327 -77.1316 -77.1227 -77.1223 -77.1206 -77.1196 -77.1194
   -77.1191 -77.1185 -77.1166 -77.1108 -77.1084 -77.1078 -77.1054 -77.1049
   -77.1041 -77.1038 -77.1021 -77.1017 -77.1009 -77.1001 -77.0995 -77.0993
   -77.0986 -77.0984 -77.0980 -77.0980 -77.0978 -77.0977 -77.0975 -77.0969
   -77.0963 -77.0946 -77.0931 -77.0926 -77.0919 -77.0914 -77.0907 -77.0897
   -77.0887 -77.0877 -77.0867 -77.0863 -77.0859 -77.0856 -77.0848 -77.0843
   -76.9704 -76.9703 -76.9701 -76.9649 -76.9613 -76.9610 -76.9609 -76.9605
   -76.9604 -76.9603 -76.9602 -76.9587 -76.9570 -76.9553 -76.9550 -76.9549
   -76.9548 -76.9547 -76.9546 -76.9544 -76.9543 -76.9543 -76.9539 -76.9538
   -76.9535 -76.9532 -76.9527 -76.9523 -76.9515 -76.9512 -76.9509 -76.9461
   -76.9429 -76.9401 -76.9386 -76.9380 -76.9378 -76.9377 -76.9374 -76.9373
   -76.9370 -76.9367 -76.9363 -76.9351 -76.9348 -76.9346 -76.9344 -76.9343
   -76.9340 -76.9336 -76.9332 -76.9331 -76.9320 -76.9312 -76.9309 -76.9304
   -76.9303 -76.9303 -76.9302 -76.9298 -76.9297 -76.9296 -76.9296 -76.9294
   -76.9291 -76.9291 -76.9287 -76.9284 -76.9281 -76.9277 -76.9258 -76.9253
   -76.9251 -76.9248 -76.9241 -76.9209 -76.9206 -76.9173 -76.9169 -76.9123
   -76.9115 -76.9103 -76.9091 -76.9089 -76.9078 -76.9075 -76.9071 -76.9059
   -76.9054 -76.9047 -76.9035 -76.9031 -76.9017 -76.9013 -76.9011 -76.9004
   -15.5503 -14.1499 -13.3255 -10.9406 -10.8537  -7.9120  -7.6350  -6.5155
    -5.7446  -5.7281  -5.1448  -5.1348  -5.0317  -4.9551  -4.9404  -4.9368
    -4.9354  -4.9326  -4.9313  -4.9296  -4.7851  -4.7850  -4.7850  -4.7321
    -4.7317  -4.7313  -4.6107  -4.6084  -4.6045  -4.6032  -4.6029  -4.6020
    -4.5972  -4.5969  -4.5967  -4.5247  -4.5238  -4.5228  -4.4535  -4.4530
    -4.4522  -4.4518  -4.4517  -4.4514  -4.4280  -4.4280  -4.4279  -4.3835
    -4.3816  -4.3789  -4.3781  -4.3775  -4.3766  -4.3764  -4.3758  -4.3749
    -4.3743  -4.3738  -4.3731  -4.3594  -4.3590  -4.3590  -4.3299  -4.3295
    -4.3286  -4.3283  -4.3281  -4.3277  -4.2863  -4.2860  -4.2849  -4.2839
    -4.2821  -4.2817  -4.2253  -4.1985  -4.1949  -4.1930  -4.1917  -4.1912
    -4.1911  -4.1905  -4.1900  -4.1896  -4.1891  -4.1890  -4.1888  -4.1479
    -4.1472  -4.1465  -4.1454  -4.1448  -4.1442  -4.1427  -4.1414  -4.1390
    -4.1386  -4.1364  -4.1350  -4.1333  -4.1330  -4.1321  -4.0979  -4.0972
    -4.0944  -4.0931  -4.0920  -4.0909  -4.0589  -4.0586  -4.0577  -4.0548
    -4.0530  -4.0516  -4.0221  -4.0220  -4.0096  -4.0092  -4.0083  -4.0072
    -4.0066  -4.0059  -4.0040  -4.0035  -4.0027  -3.9984  -3.9970  -3.9960
    -3.9958  -3.9955  -3.9949  -3.9830  -3.9712  -3.9710  -3.9399  -3.9398
    -3.9384  -3.9378  -3.9373  -3.9365  -3.9222  -3.9207  -3.9194  -3.9189
    -3.9181  -3.9178  -3.8843  -3.8828  -3.8824  -3.8817  -3.8813  -3.8812
    -3.8505  -3.8500  -3.8483  -3.8483  -3.8479  -3.8477  -3.8138  -3.8137
    -3.7865  -3.7864  -3.7823  -3.7818  -3.7814  -3.7811  -3.7806  -3.7801
    -3.7461  -3.7460  -3.7458  -3.7357  -3.7352  -3.7345  -3.7334  -3.7323
    -3.7314  -3.7125  -3.7117  -3.7106  -3.7095  -3.7079  -3.7069  -3.6827
    -3.6815  -3.6799  -3.6792  -3.6781  -3.6779  -3.6770  -3.6769  -3.6769
    -3.6768  -3.6767  -3.6766  -3.6638  -3.6637  -3.6632  -3.6619  -3.6618
    -3.6613  -3.6606  -3.6602  -3.6600  -3.6551  -3.6544  -3.6530  -3.6520
    -3.6511  -3.6504  -3.6496  -3.6487  -3.6480  -3.6472  -3.6464  -3.6462
    -3.6282  -3.6281  -3.6277  -3.6272  -3.6270  -3.6268  -3.5895  -3.5892
    -3.5881  -3.5775  -3.5767  -3.5762  -3.5758  -3.5744  -3.5741  -3.5713
    -3.5712  -3.5709  -3.5693  -3.5674  -3.5672  -3.5331  -3.5331  -3.5142
    -3.5132  -3.5127  -3.5121  -3.5116  -3.5113  -3.5097  -3.5089  -3.5072
    -3.5062  -3.5041  -3.5035  -3.5018  -3.5017  -3.5009  -3.5005  -3.4990
    -3.4984  -3.4932  -3.4929  -3.4927  -3.4917  -3.4914  -3.4908  -3.4345
    -3.4344  -3.4275  -3.4274  -3.4268  -3.3969  -3.3966  -3.3965  -3.3962
    -3.3961  -3.3960  -3.3918  -3.3915  -3.3911  -3.3802  -3.3789  -3.3767
    -3.3753  -3.3752  -3.3746  -3.3735  -3.3723  -3.3719  -3.3536  -3.3534
    -3.3533  -3.3496  -3.3482  -3.3475  -3.3468  -3.3464  -3.3461  -3.3207
    -3.3203  -3.3202  -3.3193  -3.3189  -3.3187  -3.3044  -3.3036  -3.3033
    -3.3020  -3.3011  -3.3005  -3.2951  -3.2948  -3.2937  -3.2754  -3.2754
    -3.2586  -3.2580  -3.2203  -3.2201  -3.2199  -3.2199  -3.2197  -3.2196
    -3.2096  -3.2093  -3.2090  -3.2083  -3.2080  -3.2075  -3.1885  -3.1885
    -3.1884  -3.1441  -3.1439  -3.1437  -3.0909  -3.0576  -3.0099  -2.9836
    -2.9835  -2.9833  -2.9627  -2.9614  -2.9605  -2.9303  -2.9264  -2.9249
    -2.9221  -2.9192  -2.9180  -2.5861  -2.1249  -1.7922  -1.5171  -1.5160
    -1.5139  -1.5132  -1.5120  -1.5078  -1.0550  -0.8970  -0.7175  -0.0962
    -0.0511  -0.0497  -0.0480  -0.0468  -0.0460  -0.0455   0.3104   0.3661
     0.3798   0.3807   0.3823   0.3834   0.3848   0.5426   0.7889   0.7924
     0.7951   0.7977   0.7986   0.7998   1.1245   1.2525   1.2527   1.2531
     1.2649   1.8123   1.8143   1.8157   2.1630   2.1632   2.1658   2.2091
     2.2125   2.2138   2.2142   2.2147   2.2153   2.4064   2.4098   2.4108
     2.6009   3.4003   3.4105   3.4218   3.4246   3.4278   3.4328   3.9069
     3.9070   3.9075   3.9114   3.9127   3.9173   4.0752   4.4984   4.5007
     4.5021   4.7825   4.7841   4.7849   5.6139   5.6155   5.6159   5.8828
     5.9218   5.9290   5.9395   5.9477   5.9582   6.2153   6.2519   6.4078
     6.5205   6.5264   6.5272   6.9313   7.1120   7.2621   7.2634   7.2739
     7.2841   7.2878   7.2966   7.5090   7.5100   7.5105   7.5130   7.5147
     7.5158   7.6719   7.6728   7.6769   7.6784   7.6787   7.6795   7.7956
     7.8534   7.9450   7.9919   8.0385   8.0581   8.1987   8.3967   8.4004
     8.4035   8.4054   8.4089   8.4104   8.4329   8.4497   8.4558   8.4776
     8.4811   8.4820   8.4835   8.4871   8.4880   8.5389   8.5934   8.6295
     8.6390   8.7166   8.7893   8.8147   8.8369   8.8630   8.8807   9.0048
     9.0131   9.1218   9.2852   9.3849   9.4203   9.4699   9.4882   9.5002
     9.5030   9.5798   9.8955   9.9031   9.9135   9.9241   9.9286   9.9328
     9.9721   9.9736   9.9803   9.9830   9.9856   9.9893  10.0373  10.0655
    10.0727  10.1414  10.2547  10.3337  10.3877  10.4448  10.4957  10.5217
    10.5357  10.5656  10.6839  10.7398  10.7537  10.9269  11.0147  11.1424
    11.1572  11.2131  11.2234  11.3329  11.3421  11.3528  11.3582  11.3590
    11.3649  11.4334

     occupation numbers 
     1.0000   1.0000   1.0000   1.0000   1.0000   1.0000   1.0000   1.0000
     1.0000   1.0000   1.0000   1.0000   1.0000   1.0000   1.0000   1.0000
     1.0000   1.0000   1.0000   1.0000   1.0000   1.0000   1.0000   1.0000
     1.0000   1.0000   1.0000   1.0000   1.0000   1.0000   1.0000   1.0000
     1.0000   1.0000   1.0000   1.0000   1.0000   1.0000   1.0000   1.0000
     1.0000   1.0000   1.0000   1.0000   1.0000   1.0000   1.0000   1.0000
     1.0000   1.0000   1.0000   1.0000   1.0000   1.0000   1.0000   1.0000
     1.0000   1.0000   1.0000   1.0000   1.0000   1.0000   1.0000   1.0000
     1.0000   1.0000   1.0000   1.0000   1.0000   1.0000   1.0000   1.0000
     1.0000   1.0000   1.0000   1.0000   1.0000   1.0000   1.0000   1.0000
     1.0000   1.0000   1.0000   1.0000   1.0000   1.0000   1.0000   1.0000
     1.0000   1.0000   1.0000   1.0000   1.0000   1.0000   1.0000   1.0000
     1.0000   1.0000   1.0000   1.0000   1.0000   1.0000   1.0000   1.0000
     1.0000   1.0000   1.0000   1.0000   1.0000   1.0000   1.0000   1.0000
     1.0000   1.0000   1.0000   1.0000   1.0000   1.0000   1.0000   1.0000
     1.0000   1.0000   1.0000   1.0000   1.0000   1.0000   1.0000   1.0000
     1.0000   1.0000   1.0000   1.0000   1.0000   1.0000   1.0000   1.0000
     1.0000   1.0000   1.0000   1.0000   1.0000   1.0000   1.0000   1.0000
     1.0000   1.0000   1.0000   1.0000   1.0000   1.0000   1.0000   1.0000
     1.0000   1.0000   1.0000   1.0000   1.0000   1.0000   1.0000   1.0000
     1.0000   1.0000   1.0000   1.0000   1.0000   1.0000   1.0000   1.0000
     1.0000   1.0000   1.0000   1.0000   1.0000   1.0000   1.0000   1.0000
     1.0000   1.0000   1.0000   1.0000   1.0000   1.0000   1.0000   1.0000
     1.0000   1.0000   1.0000   1.0000   1.0000   1.0000   1.0000   1.0000
     1.0000   1.0000   1.0000   1.0000   1.0000   1.0000   1.0000   1.0000
     1.0000   1.0000   1.0000   1.0000   1.0000   1.0000   1.0000   1.0000
     1.0000   1.0000   1.0000   1.0000   1.0000   1.0000   1.0000   1.0000
     1.0000   1.0000   1.0000   1.0000   1.0000   1.0000   1.0000   1.0000
     1.0000   1.0000   1.0000   1.0000   1.0000   1.0000   1.0000   1.0000
     1.0000   1.0000   1.0000   1.0000   1.0000   1.0000   1.0000   1.0000
     1.0000   1.0000   1.0000   1.0000   1.0000   1.0000   1.0000   1.0000
     1.0000   1.0000   1.0000   1.0000   1.0000   1.0000   1.0000   1.0000
     1.0000   1.0000   1.0000   1.0000   1.0000   1.0000   1.0000   1.0000
     1.0000   1.0000   1.0000   1.0000   1.0000   1.0000   1.0000   1.0000
     1.0000   1.0000   1.0000   1.0000   1.0000   1.0000   1.0000   1.0000
     1.0000   1.0000   1.0000   1.0000   1.0000   1.0000   1.0000   1.0000
     1.0000   1.0000   1.0000   1.0000   1.0000   1.0000   1.0000   1.0000
     1.0000   1.0000   1.0000   1.0000   1.0000   1.0000   1.0000   1.0000
     1.0000   1.0000   1.0000   1.0000   1.0000   1.0000   1.0000   1.0000
     1.0000   1.0000   1.0000   1.0000   1.0000   1.0000   1.0000   1.0000
     1.0000   1.0000   1.0000   1.0000   1.0000   1.0000   1.0000   1.0000
     1.0000   1.0000   1.0000   1.0000   1.0000   1.0000   1.0000   1.0000
     1.0000   1.0000   1.0000   1.0000   1.0000   1.0000   1.0000   1.0000
     1.0000   1.0000   1.0000   1.0000   1.0000   1.0000   1.0000   1.0000
     1.0000   1.0000   1.0000   1.0000   1.0000   1.0000   1.0000   1.0000
     1.0000   1.0000   1.0000   1.0000   1.0000   1.0000   1.0000   1.0000
     1.0000   1.0000   1.0000   1.0000   1.0000   1.0000   1.0000   1.0000
     1.0000   1.0000   1.0000   1.0000   1.0000   1.0000   1.0000   1.0000
     1.0000   1.0000   1.0000   1.0000   1.0000   1.0000   1.0000   1.0000
     1.0000   1.0000   1.0000   1.0000   1.0000   1.0000   1.0000   1.0000
     1.0000   1.0000   1.0000   1.0000   1.0000   1.0000   1.0000   1.0000
     1.0000   1.0000   1.0000   1.0000   1.0000   1.0000   1.0000   1.0000
     1.0000   1.0000   1.0000   1.0000   1.0000   1.0000   1.0000   1.0000
     1.0000   1.0000   1.0000   1.0000   1.0000   1.0000   1.0000   1.0000
     1.0000   1.0000   1.0000   1.0000   1.0000   1.0000   1.0000   1.0000
     1.0000   1.0000   1.0000   1.0000   1.0000   1.0000   1.0000   1.0000
     1.0000   1.0000   1.0000   1.0000   1.0000   1.0000   1.0000   1.0000
     1.0000   1.0000   1.0000   1.0000   1.0000   1.0000   1.0000   1.0000
     1.0000   1.0000   1.0000   1.0000   1.0000   1.0000   1.0000   1.0000
     1.0000   1.0000   1.0000   1.0000   1.0000   1.0000   1.0000   1.0000
     1.0000   1.0000   1.0000   1.0000   1.0000   1.0000   1.0000   1.0000
     1.0000   1.0000   1.0000   1.0000   1.0000   1.0000   1.0000   1.0000
     1.0000   1.0000   1.0000   1.0000   1.0000   1.0000   1.0000   1.0000
     1.0000   1.0000   1.0000   1.0000   1.0000   1.0000   1.0000   1.0000
     1.0000   1.0000   1.0000   1.0000   1.0000   1.0000   1.0000   1.0000
     1.0000   1.0000   1.0000   1.0000   1.0000   1.0000   1.0000   1.0000
     1.0000   1.0000   1.0000   1.0000   1.0000   1.0000   1.0000   1.0000
     1.0000   1.0000   1.0000   1.0000   1.0000   1.0000   1.0000   1.0000
     1.0000   1.0000   1.0000   1.0000   1.0000   1.0000   1.0000   1.0000
     1.0000   1.0000   1.0000   1.0000   1.0000   1.0000   1.0000   1.0000
     1.0000   1.0000   1.0000   1.0000   1.0000   1.0000   1.0000   1.0000
     1.0000   1.0000   1.0000   1.0000   1.0000   1.0000   1.0000   1.0000
     1.0000   1.0000   1.0000   1.0000   1.0000   1.0000   1.0000   1.0000
     1.0000   1.0000   1.0000   1.0000   1.0000   1.0000   1.0000   1.0000
     1.0000   1.0000   1.0000   1.0000   1.0000   1.0000   1.0000   1.0000
     1.0000   1.0000   1.0000   1.0000   1.0000   1.0000   1.0000   1.0000
     1.0000   1.0000   1.0000   1.0000   1.0000   1.0000   1.0000   1.0000
     1.0000   1.0000   1.0000   1.0000   1.0000   1.0000   1.0000   1.0000
     1.0000   1.0000   1.0000   1.0000   1.0000   1.0000   1.0000   1.0000
     1.0000   1.0000   1.0000   1.0000   1.0000   1.0000   1.0000   1.0000
     1.0000   1.0000   1.0000   1.0000   1.0000   1.0000   1.0000   1.0000
     1.0000   1.0000   1.0000   1.0000   1.0000   1.0000   1.0000   1.0000
     1.0000   1.0332   1.0363   1.0398   1.0407   1.0417   1.0433   0.5707
     0.5705   0.5690   0.5584   0.5548   0.5419   0.1825   0.0005   0.0004
     0.0004   0.0000   0.0000   0.0000   0.0000   0.0000   0.0000   0.0000
     0.0000   0.0000   0.0000   0.0000   0.0000   0.0000   0.0000   0.0000
     0.0000   0.0000   0.0000   0.0000   0.0000   0.0000   0.0000   0.0000
     0.0000   0.0000   0.0000   0.0000   0.0000   0.0000   0.0000   0.0000
     0.0000   0.0000   0.0000   0.0000   0.0000   0.0000   0.0000   0.0000
     0.0000   0.0000   0.0000   0.0000   0.0000   0.0000   0.0000   0.0000
     0.0000   0.0000   0.0000   0.0000   0.0000   0.0000   0.0000   0.0000
     0.0000   0.0000   0.0000   0.0000   0.0000   0.0000   0.0000   0.0000
     0.0000   0.0000   0.0000   0.0000   0.0000   0.0000   0.0000   0.0000
     0.0000   0.0000   0.0000   0.0000   0.0000   0.0000   0.0000   0.0000
     0.0000   0.0000   0.0000   0.0000   0.0000   0.0000   0.0000   0.0000
     0.0000   0.0000   0.0000   0.0000   0.0000   0.0000   0.0000   0.0000
     0.0000   0.0000   0.0000   0.0000   0.0000   0.0000   0.0000   0.0000
     0.0000   0.0000   0.0000   0.0000   0.0000   0.0000   0.0000   0.0000
     0.0000   0.0000   0.0000   0.0000   0.0000   0.0000   0.0000   0.0000
     0.0000   0.0000

          k = 0.0000 0.3849 0.0000 ( 42150 PWs)   bands (ev):

  -123.0662-123.0652-123.0648-123.0634-123.0625-123.0624-123.0621-123.0619
  -123.0619-123.0614-123.0612-123.0610-123.0606-123.0605-123.0596-123.0590
  -123.0334-123.0307-123.0247-123.0223-123.0217-123.0190-123.0181-123.0160
  -123.0149-123.0131-123.0125-123.0122-123.0120-123.0118-123.0116-123.0114
  -122.8698-122.8631-122.8616-122.8613-122.8611-122.8610-122.8609-122.8608
  -122.8606-122.8606-122.8604-122.8603-122.8599-122.8594-122.8590-122.8588
  -122.8580-122.8578-122.8578-122.8407-122.8370-122.8364-122.8357-122.8354
  -122.8350-122.8348-122.8335-122.8333-122.8312-122.8309-122.8304-122.8297
   -77.1736 -77.1734 -77.1701 -77.1669 -77.1669 -77.1660 -77.1657 -77.1596
   -77.1596 -77.1547 -77.1533 -77.1527 -77.1519 -77.1513 -77.1510 -77.1505
   -77.1498 -77.1497 -77.1493 -77.1490 -77.1489 -77.1487 -77.1483 -77.1480
   -77.1475 -77.1474 -77.1470 -77.1463 -77.1455 -77.1454 -77.1452 -77.1449
   -77.1417 -77.1414 -77.1398 -77.1394 -77.1377 -77.1373 -77.1349 -77.1345
   -77.1342 -77.1337 -77.1330 -77.1328 -77.1318 -77.1316 -77.1311 -77.1308
   -77.1302 -77.1298 -77.1294 -77.1235 -77.1223 -77.1209 -77.1196 -77.1194
   -77.1168 -77.1163 -77.1144 -77.1111 -77.1106 -77.1090 -77.1087 -77.1076
   -77.1069 -77.1055 -77.1053 -77.1045 -77.1035 -77.1032 -77.1022 -77.1012
   -77.1009 -77.0998 -77.0994 -77.0988 -77.0986 -77.0983 -77.0979 -77.0977
   -77.0973 -77.0965 -77.0943 -77.0941 -77.0928 -77.0919 -77.0904 -77.0898
   -77.0880 -77.0868 -77.0860 -77.0849 -77.0846 -77.0834 -77.0823 -77.0815
   -76.9691 -76.9690 -76.9659 -76.9650 -76.9627 -76.9624 -76.9617 -76.9614
   -76.9608 -76.9585 -76.9574 -76.9569 -76.9568 -76.9561 -76.9555 -76.9552
   -76.9551 -76.9550 -76.9547 -76.9546 -76.9543 -76.9541 -76.9539 -76.9535
   -76.9532 -76.9526 -76.9524 -76.9519 -76.9514 -76.9507 -76.9502 -76.9499
   -76.9468 -76.9466 -76.9461 -76.9446 -76.9445 -76.9430 -76.9407 -76.9405
   -76.9401 -76.9373 -76.9369 -76.9366 -76.9364 -76.9361 -76.9353 -76.9351
   -76.9332 -76.9328 -76.9326 -76.9322 -76.9321 -76.9314 -76.9310 -76.9305
   -76.9299 -76.9296 -76.9295 -76.9292 -76.9292 -76.9289 -76.9284 -76.9279
   -76.9277 -76.9275 -76.9272 -76.9268 -76.9266 -76.9260 -76.9257 -76.9255
   -76.9253 -76.9252 -76.9243 -76.9239 -76.9237 -76.9214 -76.9201 -76.9182
   -76.9156 -76.9148 -76.9120 -76.9109 -76.9092 -76.9085 -76.9070 -76.9062
   -76.9050 -76.9032 -76.9026 -76.9020 -76.9001 -76.8998 -76.8980 -76.8980
   -15.5504 -14.1499 -13.3255 -10.9407 -10.8538  -7.9120  -7.6351  -6.3033
    -5.7448  -5.6973  -5.5311  -5.1617  -5.1597  -5.1426  -5.1289  -5.0037
    -4.8978  -4.8417  -4.7550  -4.7169  -4.7169  -4.7082  -4.6992  -4.6610
    -4.6605  -4.6387  -4.6382  -4.6303  -4.6289  -4.6270  -4.6100  -4.5646
    -4.5561  -4.5455  -4.5452  -4.5181  -4.5176  -4.5150  -4.5147  -4.4925
    -4.4848  -4.4685  -4.4681  -4.4547  -4.4535  -4.4401  -4.4396  -4.4287
    -4.4287  -4.4208  -4.4167  -4.4164  -4.3980  -4.3954  -4.3951  -4.3935
    -4.3933  -4.3816  -4.3814  -4.3571  -4.3566  -4.3510  -4.3488  -4.3456
    -4.3454  -4.3310  -4.3281  -4.3275  -4.3180  -4.3174  -4.3132  -4.3129
    -4.3122  -4.2811  -4.2810  -4.2765  -4.2756  -4.2561  -4.2553  -4.2520
    -4.2511  -4.2477  -4.2470  -4.2459  -4.2035  -4.2015  -4.1975  -4.1973
    -4.1961  -4.1763  -4.1748  -4.1719  -4.1715  -4.1572  -4.1571  -4.1512
    -4.1310  -4.1298  -4.1286  -4.1267  -4.1236  -4.1230  -4.1198  -4.1182
    -4.1175  -4.0952  -4.0946  -4.0907  -4.0897  -4.0881  -4.0827  -4.0811
    -4.0780  -4.0769  -4.0753  -4.0660  -4.0651  -4.0554  -4.0539  -4.0529
    -4.0425  -4.0138  -4.0098  -4.0078  -4.0008  -3.9895  -3.9883  -3.9859
    -3.9853  -3.9838  -3.9756  -3.9750  -3.9736  -3.9698  -3.9693  -3.9671
    -3.9483  -3.9474  -3.9442  -3.9440  -3.9252  -3.9246  -3.9181  -3.9068
    -3.8972  -3.8957  -3.8947  -3.8883  -3.8878  -3.8710  -3.8699  -3.8616
    -3.8608  -3.8599  -3.8588  -3.8470  -3.8352  -3.8350  -3.8347  -3.8213
    -3.8201  -3.8190  -3.8131  -3.8060  -3.8049  -3.8038  -3.8028  -3.8016
    -3.7774  -3.7770  -3.7727  -3.7710  -3.7691  -3.7610  -3.7526  -3.7523
    -3.7484  -3.7344  -3.7324  -3.7213  -3.7211  -3.7015  -3.7006  -3.6994
    -3.6983  -3.6980  -3.6918  -3.6907  -3.6892  -3.6875  -3.6873  -3.6739
    -3.6732  -3.6682  -3.6672  -3.6623  -3.6620  -3.6546  -3.6539  -3.6480
    -3.6474  -3.6405  -3.6401  -3.6373  -3.6330  -3.6320  -3.6299  -3.6292
    -3.6178  -3.6158  -3.6154  -3.6031  -3.6019  -3.5963  -3.5952  -3.5927
    -3.5861  -3.5858  -3.5837  -3.5823  -3.5811  -3.5791  -3.5769  -3.5754
    -3.5719  -3.5571  -3.5560  -3.5555  -3.5550  -3.5546  -3.5536  -3.5506
    -3.5500  -3.5490  -3.5430  -3.5248  -3.5227  -3.5222  -3.5169  -3.5162
    -3.5017  -3.5008  -3.4895  -3.4886  -3.4683  -3.4655  -3.4644  -3.4637
    -3.4624  -3.4620  -3.4598  -3.4594  -3.4541  -3.4531  -3.4524  -3.4516
    -3.4453  -3.4452  -3.4409  -3.4357  -3.4352  -3.4305  -3.4304  -3.4291
    -3.4283  -3.4240  -3.4226  -3.4221  -3.4214  -3.4208  -3.4121  -3.4022
    -3.4017  -3.3996  -3.3991  -3.3854  -3.3799  -3.3795  -3.3717  -3.3715
    -3.3689  -3.3677  -3.3668  -3.3495  -3.3418  -3.3404  -3.3385  -3.3380
    -3.3348  -3.3340  -3.3330  -3.3328  -3.3318  -3.3262  -3.3261  -3.3256
    -3.3157  -3.3151  -3.3133  -3.3112  -3.3075  -3.3069  -3.3048  -3.3041
    -3.3033  -3.3031  -3.2964  -3.2860  -3.2856  -3.2811  -3.2795  -3.2791
    -3.2784  -3.2615  -3.2614  -3.2606  -3.2433  -3.2264  -3.2264  -3.2233
    -3.2229  -3.2031  -3.2027  -3.2011  -3.2001  -3.1989  -3.1918  -3.1863
    -3.1852  -3.1705  -3.1063  -3.0944  -3.0779  -3.0777  -3.0734  -3.0571
    -3.0553  -3.0400  -3.0180  -3.0076  -2.8899  -2.8893  -2.8220  -2.5867
    -2.5240  -2.3427  -2.2008  -2.1979  -2.1208  -1.8510  -1.8464  -1.7810
    -1.7153  -1.7139  -1.6846  -0.9330  -0.9229  -0.9135  -0.8810  -0.7514
    -0.7423  -0.7118  -0.6814  -0.4386  -0.1893  -0.0962   0.0489   0.0493
     0.1044   0.1046   0.1583   0.3108   0.4933   0.5104   0.5446   0.6020
     0.6025   0.9444   0.9449   1.1064   1.1088   1.2646   1.4023   1.4037
     1.4090   1.5608   1.6343   2.0450   2.0468   2.2002   2.2827   2.2862
     2.3383   2.3400   2.5739   2.5913   2.6188   2.8905   2.8940   2.9439
     2.9566   3.0198   3.0213   3.0799   3.8870   3.8901   4.1866   4.1870
     4.2839   4.3281   4.3349   4.4855   4.4876   4.7226   4.7248   4.9123
     4.9756   5.0850   5.1340   5.1356   5.5183   5.5425   5.5688   5.5695
     5.6376   5.6408   5.7234   5.7245   5.7280   5.8362   5.8373   6.1563
     6.1933   6.2045   6.2842   6.2855   6.3870   6.4547   6.5992   6.7295
     6.7598   6.9866   6.9892   7.0311   7.1273   7.1524   7.1539   7.2536
     7.2619   7.2721   7.3071   7.3329   7.4897   7.4943   7.5961   7.6459
     7.7862   7.8406   7.8900   7.8968   7.9093   7.9213   7.9325   8.0248
     8.0657   8.0684   8.0780   8.0889   8.3290   8.4153   8.4598   8.4688
     8.4717   8.5248   8.5442   8.6363   8.6990   8.7084   8.7498   8.7658
     8.8554   8.9479   9.0955   9.1082   9.1374   9.2047   9.2102   9.2460
     9.3185   9.3288   9.3477   9.4582   9.5491   9.5799   9.5932   9.6082
     9.6263   9.6722   9.7014   9.7182   9.7454   9.8408   9.9484  10.0061
    10.0539  10.0846  10.1034  10.1542  10.2100  10.2273  10.2597  10.3106
    10.3387  10.3608  10.4193  10.4488  10.5243  10.5894  10.6093  10.6649
    10.7936  10.8195  10.8219  10.8414  10.9603  10.9860  11.0093  11.0439
    11.0665  11.0717  11.0798  11.0933  11.1178  11.1360  11.2400  11.3051
    11.3726  11.4509

     occupation numbers 
     1.0000   1.0000   1.0000   1.0000   1.0000   1.0000   1.0000   1.0000
     1.0000   1.0000   1.0000   1.0000   1.0000   1.0000   1.0000   1.0000
     1.0000   1.0000   1.0000   1.0000   1.0000   1.0000   1.0000   1.0000
     1.0000   1.0000   1.0000   1.0000   1.0000   1.0000   1.0000   1.0000
     1.0000   1.0000   1.0000   1.0000   1.0000   1.0000   1.0000   1.0000
     1.0000   1.0000   1.0000   1.0000   1.0000   1.0000   1.0000   1.0000
     1.0000   1.0000   1.0000   1.0000   1.0000   1.0000   1.0000   1.0000
     1.0000   1.0000   1.0000   1.0000   1.0000   1.0000   1.0000   1.0000
     1.0000   1.0000   1.0000   1.0000   1.0000   1.0000   1.0000   1.0000
     1.0000   1.0000   1.0000   1.0000   1.0000   1.0000   1.0000   1.0000
     1.0000   1.0000   1.0000   1.0000   1.0000   1.0000   1.0000   1.0000
     1.0000   1.0000   1.0000   1.0000   1.0000   1.0000   1.0000   1.0000
     1.0000   1.0000   1.0000   1.0000   1.0000   1.0000   1.0000   1.0000
     1.0000   1.0000   1.0000   1.0000   1.0000   1.0000   1.0000   1.0000
     1.0000   1.0000   1.0000   1.0000   1.0000   1.0000   1.0000   1.0000
     1.0000   1.0000   1.0000   1.0000   1.0000   1.0000   1.0000   1.0000
     1.0000   1.0000   1.0000   1.0000   1.0000   1.0000   1.0000   1.0000
     1.0000   1.0000   1.0000   1.0000   1.0000   1.0000   1.0000   1.0000
     1.0000   1.0000   1.0000   1.0000   1.0000   1.0000   1.0000   1.0000
     1.0000   1.0000   1.0000   1.0000   1.0000   1.0000   1.0000   1.0000
     1.0000   1.0000   1.0000   1.0000   1.0000   1.0000   1.0000   1.0000
     1.0000   1.0000   1.0000   1.0000   1.0000   1.0000   1.0000   1.0000
     1.0000   1.0000   1.0000   1.0000   1.0000   1.0000   1.0000   1.0000
     1.0000   1.0000   1.0000   1.0000   1.0000   1.0000   1.0000   1.0000
     1.0000   1.0000   1.0000   1.0000   1.0000   1.0000   1.0000   1.0000
     1.0000   1.0000   1.0000   1.0000   1.0000   1.0000   1.0000   1.0000
     1.0000   1.0000   1.0000   1.0000   1.0000   1.0000   1.0000   1.0000
     1.0000   1.0000   1.0000   1.0000   1.0000   1.0000   1.0000   1.0000
     1.0000   1.0000   1.0000   1.0000   1.0000   1.0000   1.0000   1.0000
     1.0000   1.0000   1.0000   1.0000   1.0000   1.0000   1.0000   1.0000
     1.0000   1.0000   1.0000   1.0000   1.0000   1.0000   1.0000   1.0000
     1.0000   1.0000   1.0000   1.0000   1.0000   1.0000   1.0000   1.0000
     1.0000   1.0000   1.0000   1.0000   1.0000   1.0000   1.0000   1.0000
     1.0000   1.0000   1.0000   1.0000   1.0000   1.0000   1.0000   1.0000
     1.0000   1.0000   1.0000   1.0000   1.0000   1.0000   1.0000   1.0000
     1.0000   1.0000   1.0000   1.0000   1.0000   1.0000   1.0000   1.0000
     1.0000   1.0000   1.0000   1.0000   1.0000   1.0000   1.0000   1.0000
     1.0000   1.0000   1.0000   1.0000   1.0000   1.0000   1.0000   1.0000
     1.0000   1.0000   1.0000   1.0000   1.0000   1.0000   1.0000   1.0000
     1.0000   1.0000   1.0000   1.0000   1.0000   1.0000   1.0000   1.0000
     1.0000   1.0000   1.0000   1.0000   1.0000   1.0000   1.0000   1.0000
     1.0000   1.0000   1.0000   1.0000   1.0000   1.0000   1.0000   1.0000
     1.0000   1.0000   1.0000   1.0000   1.0000   1.0000   1.0000   1.0000
     1.0000   1.0000   1.0000   1.0000   1.0000   1.0000   1.0000   1.0000
     1.0000   1.0000   1.0000   1.0000   1.0000   1.0000   1.0000   1.0000
     1.0000   1.0000   1.0000   1.0000   1.0000   1.0000   1.0000   1.0000
     1.0000   1.0000   1.0000   1.0000   1.0000   1.0000   1.0000   1.0000
     1.0000   1.0000   1.0000   1.0000   1.0000   1.0000   1.0000   1.0000
     1.0000   1.0000   1.0000   1.0000   1.0000   1.0000   1.0000   1.0000
     1.0000   1.0000   1.0000   1.0000   1.0000   1.0000   1.0000   1.0000
     1.0000   1.0000   1.0000   1.0000   1.0000   1.0000   1.0000   1.0000
     1.0000   1.0000   1.0000   1.0000   1.0000   1.0000   1.0000   1.0000
     1.0000   1.0000   1.0000   1.0000   1.0000   1.0000   1.0000   1.0000
     1.0000   1.0000   1.0000   1.0000   1.0000   1.0000   1.0000   1.0000
     1.0000   1.0000   1.0000   1.0000   1.0000   1.0000   1.0000   1.0000
     1.0000   1.0000   1.0000   1.0000   1.0000   1.0000   1.0000   1.0000
     1.0000   1.0000   1.0000   1.0000   1.0000   1.0000   1.0000   1.0000
     1.0000   1.0000   1.0000   1.0000   1.0000   1.0000   1.0000   1.0000
     1.0000   1.0000   1.0000   1.0000   1.0000   1.0000   1.0000   1.0000
     1.0000   1.0000   1.0000   1.0000   1.0000   1.0000   1.0000   1.0000
     1.0000   1.0000   1.0000   1.0000   1.0000   1.0000   1.0000   1.0000
     1.0000   1.0000   1.0000   1.0000   1.0000   1.0000   1.0000   1.0000
     1.0000   1.0000   1.0000   1.0000   1.0000   1.0000   1.0000   1.0000
     1.0000   1.0000   1.0000   1.0000   1.0000   1.0000   1.0000   1.0000
     1.0000   1.0000   1.0000   1.0000   1.0000   1.0000   1.0000   1.0000
     1.0000   1.0000   1.0000   1.0000   1.0000   1.0000   1.0000   1.0000
     1.0000   1.0000   1.0000   1.0000   1.0000   1.0000   1.0000   1.0000
     1.0000   1.0000   1.0000   1.0000   1.0000   1.0000   1.0000   1.0000
     1.0000   1.0000   1.0000   1.0000   1.0000   1.0000   1.0000   1.0000
     1.0000   1.0000   1.0000   1.0000   1.0000   1.0000   1.0000   1.0000
     1.0000   1.0000   1.0000   1.0000   1.0000   1.0000   1.0000   1.0000
     1.0000   1.0000   1.0000   1.0000   1.0000   1.0000   1.0000   1.0000
     1.0000   1.0000   1.0000   1.0000   1.0000   1.0000   1.0000   1.0000
     1.0000   1.0000   1.0000   1.0000   1.0000   1.0000   1.0000   1.0000
     1.0000   1.0000   1.0000   1.0000   1.0000   1.0000   1.0000   1.0000
     1.0000   1.0000   1.0000   1.0000   1.0000   1.0000   1.0000   1.0000
     1.0000   1.0000   1.0000   1.0000   1.0000   1.0000   1.0000   1.0000
     1.0000   1.0000   1.0000   1.0000   1.0000   1.0000   1.0000   1.0000
     1.0000   1.0000   1.0000   1.0000   1.0000   1.0000   1.0000   1.0000
     1.0000   1.0000   1.0000   1.0000   1.0000   1.0000   1.0000   1.0000
     1.0000   1.0000   1.0000   1.0000   1.0000   1.0000   1.0000   1.0000
     1.0000   1.0000   1.0000   1.0000   1.0000   1.0000   1.0000   1.0000
     1.0000   1.0001   1.0001   1.0004   0.6259   0.6172   0.0588   0.0586
     0.0169   0.0088   0.0080   0.0006   0.0006   0.0000   0.0000   0.0000
     0.0000   0.0000   0.0000   0.0000   0.0000   0.0000   0.0000   0.0000
     0.0000   0.0000   0.0000   0.0000   0.0000   0.0000   0.0000   0.0000
     0.0000   0.0000   0.0000   0.0000   0.0000   0.0000   0.0000   0.0000
     0.0000   0.0000   0.0000   0.0000   0.0000   0.0000   0.0000   0.0000
     0.0000   0.0000   0.0000   0.0000   0.0000   0.0000   0.0000   0.0000
     0.0000   0.0000   0.0000   0.0000   0.0000   0.0000   0.0000   0.0000
     0.0000   0.0000   0.0000   0.0000   0.0000   0.0000   0.0000   0.0000
     0.0000   0.0000   0.0000   0.0000   0.0000   0.0000   0.0000   0.0000
     0.0000   0.0000   0.0000   0.0000   0.0000   0.0000   0.0000   0.0000
     0.0000   0.0000   0.0000   0.0000   0.0000   0.0000   0.0000   0.0000
     0.0000   0.0000   0.0000   0.0000   0.0000   0.0000   0.0000   0.0000
     0.0000   0.0000   0.0000   0.0000   0.0000   0.0000   0.0000   0.0000
     0.0000   0.0000   0.0000   0.0000   0.0000   0.0000   0.0000   0.0000
     0.0000   0.0000   0.0000   0.0000   0.0000   0.0000   0.0000   0.0000
     0.0000   0.0000   0.0000   0.0000   0.0000   0.0000   0.0000   0.0000
     0.0000   0.0000

          k = 0.3333 0.1925 0.0000 ( 42150 PWs)   bands (ev):

  -123.0662-123.0652-123.0648-123.0634-123.0626-123.0623-123.0621-123.0619
  -123.0619-123.0613-123.0612-123.0610-123.0607-123.0604-123.0596-123.0590
  -123.0334-123.0307-123.0248-123.0223-123.0217-123.0190-123.0181-123.0160
  -123.0149-123.0131-123.0126-123.0122-123.0120-123.0119-123.0116-123.0114
  -122.8698-122.8631-122.8616-122.8613-122.8612-122.8610-122.8608-122.8607
  -122.8606-122.8606-122.8604-122.8602-122.8599-122.8594-122.8590-122.8588
  -122.8581-122.8578-122.8577-122.8407-122.8370-122.8364-122.8357-122.8354
  -122.8350-122.8348-122.8335-122.8333-122.8312-122.8309-122.8304-122.8297
   -77.1737 -77.1734 -77.1701 -77.1670 -77.1669 -77.1661 -77.1656 -77.1597
   -77.1595 -77.1547 -77.1534 -77.1524 -77.1521 -77.1512 -77.1511 -77.1505
   -77.1500 -77.1496 -77.1493 -77.1490 -77.1489 -77.1487 -77.1484 -77.1478
   -77.1477 -77.1474 -77.1466 -77.1465 -77.1454 -77.1453 -77.1452 -77.1451
   -77.1416 -77.1415 -77.1398 -77.1395 -77.1377 -77.1374 -77.1349 -77.1345
   -77.1338 -77.1335 -77.1329 -77.1327 -77.1322 -77.1319 -77.1315 -77.1310
   -77.1302 -77.1297 -77.1291 -77.1232 -77.1223 -77.1215 -77.1196 -77.1195
   -77.1169 -77.1152 -77.1147 -77.1111 -77.1105 -77.1087 -77.1084 -77.1079
   -77.1073 -77.1055 -77.1053 -77.1047 -77.1044 -77.1026 -77.1026 -77.1013
   -77.1010 -77.0999 -77.0993 -77.0986 -77.0982 -77.0980 -77.0976 -77.0972
   -77.0968 -77.0962 -77.0948 -77.0942 -77.0936 -77.0927 -77.0902 -77.0891
   -77.0881 -77.0869 -77.0859 -77.0853 -77.0840 -77.0831 -77.0822 -77.0820
   -76.9692 -76.9690 -76.9658 -76.9651 -76.9628 -76.9624 -76.9616 -76.9615
   -76.9608 -76.9585 -76.9574 -76.9570 -76.9568 -76.9561 -76.9554 -76.9551
   -76.9550 -76.9550 -76.9547 -76.9545 -76.9544 -76.9541 -76.9538 -76.9534
   -76.9532 -76.9528 -76.9525 -76.9520 -76.9511 -76.9509 -76.9502 -76.9497
   -76.9469 -76.9467 -76.9461 -76.9445 -76.9445 -76.9428 -76.9407 -76.9406
   -76.9402 -76.9374 -76.9369 -76.9366 -76.9363 -76.9362 -76.9353 -76.9351
   -76.9332 -76.9328 -76.9325 -76.9322 -76.9321 -76.9313 -76.9310 -76.9305
   -76.9299 -76.9296 -76.9295 -76.9293 -76.9291 -76.9289 -76.9284 -76.9279
   -76.9277 -76.9275 -76.9272 -76.9268 -76.9266 -76.9259 -76.9257 -76.9255
   -76.9253 -76.9252 -76.9244 -76.9240 -76.9237 -76.9215 -76.9202 -76.9182
   -76.9155 -76.9147 -76.9121 -76.9109 -76.9092 -76.9085 -76.9070 -76.9062
   -76.9050 -76.9032 -76.9026 -76.9019 -76.9001 -76.8999 -76.8981 -76.8980
   -15.5504 -14.1499 -13.3256 -10.9407 -10.8539  -7.9120  -7.6347  -6.3033
    -5.7445  -5.6973  -5.5311  -5.1622  -5.1592  -5.1428  -5.1289  -5.0038
    -4.8978  -4.8417  -4.7550  -4.7169  -4.7168  -4.7082  -4.6992  -4.6611
    -4.6604  -4.6386  -4.6383  -4.6301  -4.6290  -4.6271  -4.6100  -4.5647
    -4.5562  -4.5455  -4.5452  -4.5182  -4.5176  -4.5150  -4.5146  -4.4926
    -4.4848  -4.4685  -4.4680  -4.4548  -4.4533  -4.4400  -4.4396  -4.4287
    -4.4287  -4.4208  -4.4166  -4.4165  -4.3979  -4.3955  -4.3951  -4.3935
    -4.3933  -4.3816  -4.3814  -4.3570  -4.3566  -4.3506  -4.3490  -4.3457
    -4.3454  -4.3310  -4.3280  -4.3275  -4.3179  -4.3174  -4.3134  -4.3128
    -4.3121  -4.2811  -4.2809  -4.2766  -4.2756  -4.2563  -4.2551  -4.2520
    -4.2511  -4.2478  -4.2470  -4.2456  -4.2038  -4.2012  -4.1975  -4.1974
    -4.1961  -4.1761  -4.1748  -4.1720  -4.1716  -4.1572  -4.1571  -4.1512
    -4.1307  -4.1299  -4.1283  -4.1269  -4.1238  -4.1229  -4.1199  -4.1182
    -4.1173  -4.0951  -4.0947  -4.0910  -4.0895  -4.0882  -4.0826  -4.0813
    -4.0782  -4.0768  -4.0751  -4.0661  -4.0650  -4.0554  -4.0539  -4.0529
    -4.0425  -4.0137  -4.0095  -4.0081  -4.0009  -3.9896  -3.9882  -3.9861
    -3.9851  -3.9842  -3.9756  -3.9751  -3.9732  -3.9697  -3.9693  -3.9670
    -3.9484  -3.9477  -3.9444  -3.9438  -3.9251  -3.9247  -3.9180  -3.9065
    -3.8971  -3.8958  -3.8947  -3.8882  -3.8879  -3.8710  -3.8702  -3.8617
    -3.8608  -3.8596  -3.8589  -3.8471  -3.8352  -3.8350  -3.8346  -3.8213
    -3.8203  -3.8189  -3.8130  -3.8058  -3.8054  -3.8036  -3.8023  -3.8017
    -3.7773  -3.7772  -3.7724  -3.7709  -3.7692  -3.7610  -3.7526  -3.7524
    -3.7487  -3.7344  -3.7324  -3.7215  -3.7211  -3.7015  -3.7001  -3.6999
    -3.6983  -3.6978  -3.6917  -3.6909  -3.6895  -3.6875  -3.6874  -3.6741
    -3.6731  -3.6680  -3.6672  -3.6623  -3.6620  -3.6546  -3.6539  -3.6479
    -3.6476  -3.6406  -3.6402  -3.6373  -3.6330  -3.6320  -3.6298  -3.6295
    -3.6177  -3.6161  -3.6151  -3.6032  -3.6021  -3.5962  -3.5952  -3.5927
    -3.5861  -3.5856  -3.5836  -3.5823  -3.5811  -3.5794  -3.5767  -3.5754
    -3.5721  -3.5568  -3.5561  -3.5556  -3.5550  -3.5544  -3.5537  -3.5506
    -3.5500  -3.5491  -3.5430  -3.5247  -3.5225  -3.5222  -3.5171  -3.5161
    -3.5016  -3.5007  -3.4898  -3.4885  -3.4684  -3.4657  -3.4648  -3.4637
    -3.4622  -3.4619  -3.4599  -3.4592  -3.4541  -3.4535  -3.4520  -3.4516
    -3.4453  -3.4452  -3.4411  -3.4362  -3.4345  -3.4306  -3.4302  -3.4290
    -3.4283  -3.4238  -3.4225  -3.4220  -3.4215  -3.4212  -3.4121  -3.4022
    -3.4017  -3.3997  -3.3990  -3.3853  -3.3801  -3.3795  -3.3718  -3.3715
    -3.3689  -3.3679  -3.3667  -3.3494  -3.3420  -3.3402  -3.3385  -3.3376
    -3.3348  -3.3341  -3.3331  -3.3326  -3.3319  -3.3263  -3.3261  -3.3256
    -3.3160  -3.3150  -3.3134  -3.3114  -3.3074  -3.3071  -3.3049  -3.3042
    -3.3032  -3.3031  -3.2963  -3.2859  -3.2856  -3.2811  -3.2794  -3.2789
    -3.2783  -3.2615  -3.2614  -3.2604  -3.2433  -3.2264  -3.2264  -3.2234
    -3.2230  -3.2032  -3.2027  -3.2012  -3.1999  -3.1988  -3.1918  -3.1867
    -3.1850  -3.1706  -3.1065  -3.0940  -3.0779  -3.0777  -3.0733  -3.0570
    -3.0554  -3.0400  -3.0180  -3.0085  -2.8899  -2.8893  -2.8221  -2.5868
    -2.5240  -2.3428  -2.2007  -2.1981  -2.1207  -1.8512  -1.8463  -1.7807
    -1.7151  -1.7140  -1.6847  -0.9329  -0.9231  -0.9131  -0.8810  -0.7514
    -0.7421  -0.7114  -0.6814  -0.4387  -0.1894  -0.0963   0.0487   0.0496
     0.1044   0.1046   0.1583   0.3111   0.4933   0.5105   0.5448   0.6018
     0.6025   0.9445   0.9448   1.1066   1.1086   1.2649   1.4026   1.4038
     1.4085   1.5609   1.6341   2.0452   2.0466   2.2000   2.2828   2.2862
     2.3385   2.3399   2.5766   2.5913   2.6155   2.8904   2.8940   2.9438
     2.9570   3.0192   3.0212   3.0803   3.8861   3.8907   4.1864   4.1874
     4.2837   4.3279   4.3352   4.4860   4.4876   4.7233   4.7252   4.9122
     4.9754   5.0844   5.1339   5.1360   5.5188   5.5420   5.5692   5.5695
     5.6367   5.6415   5.7227   5.7249   5.7272   5.8361   5.8376   6.1590
     6.1935   6.2044   6.2840   6.2861   6.3836   6.4517   6.5976   6.7282
     6.7626   6.9873   6.9884   7.0216   7.1276   7.1526   7.1536   7.2503
     7.2614   7.2752   7.3111   7.3332   7.4896   7.4944   7.5866   7.6438
     7.8049   7.8421   7.8906   7.9023   7.9087   7.9227   7.9417   8.0165
     8.0654   8.0684   8.0779   8.0878   8.3006   8.4336   8.4575   8.4688
     8.4721   8.5236   8.5409   8.6327   8.7019   8.7085   8.7470   8.7895
     8.8493   8.9529   9.0953   9.1093   9.1451   9.1983   9.2123   9.2411
     9.3298   9.3326   9.3584   9.4555   9.5506   9.5806   9.5891   9.6081
     9.6272   9.6608   9.7129   9.7173   9.7624   9.8420   9.9389  10.0121
    10.0515  10.0808  10.1059  10.1451  10.1933  10.2315  10.2599  10.3132
    10.3273  10.3621  10.4077  10.4518  10.5291  10.5871  10.6200  10.7036
    10.7736  10.8192  10.8202  10.8322  10.9820  10.9919  11.0231  11.0449
    11.0541  11.0664  11.0811  11.0841  11.1073  11.1509  11.2306  11.2799
    11.3896  11.4033

     occupation numbers 
     1.0000   1.0000   1.0000   1.0000   1.0000   1.0000   1.0000   1.0000
     1.0000   1.0000   1.0000   1.0000   1.0000   1.0000   1.0000   1.0000
     1.0000   1.0000   1.0000   1.0000   1.0000   1.0000   1.0000   1.0000
     1.0000   1.0000   1.0000   1.0000   1.0000   1.0000   1.0000   1.0000
     1.0000   1.0000   1.0000   1.0000   1.0000   1.0000   1.0000   1.0000
     1.0000   1.0000   1.0000   1.0000   1.0000   1.0000   1.0000   1.0000
     1.0000   1.0000   1.0000   1.0000   1.0000   1.0000   1.0000   1.0000
     1.0000   1.0000   1.0000   1.0000   1.0000   1.0000   1.0000   1.0000
     1.0000   1.0000   1.0000   1.0000   1.0000   1.0000   1.0000   1.0000
     1.0000   1.0000   1.0000   1.0000   1.0000   1.0000   1.0000   1.0000
     1.0000   1.0000   1.0000   1.0000   1.0000   1.0000   1.0000   1.0000
     1.0000   1.0000   1.0000   1.0000   1.0000   1.0000   1.0000   1.0000
     1.0000   1.0000   1.0000   1.0000   1.0000   1.0000   1.0000   1.0000
     1.0000   1.0000   1.0000   1.0000   1.0000   1.0000   1.0000   1.0000
     1.0000   1.0000   1.0000   1.0000   1.0000   1.0000   1.0000   1.0000
     1.0000   1.0000   1.0000   1.0000   1.0000   1.0000   1.0000   1.0000
     1.0000   1.0000   1.0000   1.0000   1.0000   1.0000   1.0000   1.0000
     1.0000   1.0000   1.0000   1.0000   1.0000   1.0000   1.0000   1.0000
     1.0000   1.0000   1.0000   1.0000   1.0000   1.0000   1.0000   1.0000
     1.0000   1.0000   1.0000   1.0000   1.0000   1.0000   1.0000   1.0000
     1.0000   1.0000   1.0000   1.0000   1.0000   1.0000   1.0000   1.0000
     1.0000   1.0000   1.0000   1.0000   1.0000   1.0000   1.0000   1.0000
     1.0000   1.0000   1.0000   1.0000   1.0000   1.0000   1.0000   1.0000
     1.0000   1.0000   1.0000   1.0000   1.0000   1.0000   1.0000   1.0000
     1.0000   1.0000   1.0000   1.0000   1.0000   1.0000   1.0000   1.0000
     1.0000   1.0000   1.0000   1.0000   1.0000   1.0000   1.0000   1.0000
     1.0000   1.0000   1.0000   1.0000   1.0000   1.0000   1.0000   1.0000
     1.0000   1.0000   1.0000   1.0000   1.0000   1.0000   1.0000   1.0000
     1.0000   1.0000   1.0000   1.0000   1.0000   1.0000   1.0000   1.0000
     1.0000   1.0000   1.0000   1.0000   1.0000   1.0000   1.0000   1.0000
     1.0000   1.0000   1.0000   1.0000   1.0000   1.0000   1.0000   1.0000
     1.0000   1.0000   1.0000   1.0000   1.0000   1.0000   1.0000   1.0000
     1.0000   1.0000   1.0000   1.0000   1.0000   1.0000   1.0000   1.0000
     1.0000   1.0000   1.0000   1.0000   1.0000   1.0000   1.0000   1.0000
     1.0000   1.0000   1.0000   1.0000   1.0000   1.0000   1.0000   1.0000
     1.0000   1.0000   1.0000   1.0000   1.0000   1.0000   1.0000   1.0000
     1.0000   1.0000   1.0000   1.0000   1.0000   1.0000   1.0000   1.0000
     1.0000   1.0000   1.0000   1.0000   1.0000   1.0000   1.0000   1.0000
     1.0000   1.0000   1.0000   1.0000   1.0000   1.0000   1.0000   1.0000
     1.0000   1.0000   1.0000   1.0000   1.0000   1.0000   1.0000   1.0000
     1.0000   1.0000   1.0000   1.0000   1.0000   1.0000   1.0000   1.0000
     1.0000   1.0000   1.0000   1.0000   1.0000   1.0000   1.0000   1.0000
     1.0000   1.0000   1.0000   1.0000   1.0000   1.0000   1.0000   1.0000
     1.0000   1.0000   1.0000   1.0000   1.0000   1.0000   1.0000   1.0000
     1.0000   1.0000   1.0000   1.0000   1.0000   1.0000   1.0000   1.0000
     1.0000   1.0000   1.0000   1.0000   1.0000   1.0000   1.0000   1.0000
     1.0000   1.0000   1.0000   1.0000   1.0000   1.0000   1.0000   1.0000
     1.0000   1.0000   1.0000   1.0000   1.0000   1.0000   1.0000   1.0000
     1.0000   1.0000   1.0000   1.0000   1.0000   1.0000   1.0000   1.0000
     1.0000   1.0000   1.0000   1.0000   1.0000   1.0000   1.0000   1.0000
     1.0000   1.0000   1.0000   1.0000   1.0000   1.0000   1.0000   1.0000
     1.0000   1.0000   1.0000   1.0000   1.0000   1.0000   1.0000   1.0000
     1.0000   1.0000   1.0000   1.0000   1.0000   1.0000   1.0000   1.0000
     1.0000   1.0000   1.0000   1.0000   1.0000   1.0000   1.0000   1.0000
     1.0000   1.0000   1.0000   1.0000   1.0000   1.0000   1.0000   1.0000
     1.0000   1.0000   1.0000   1.0000   1.0000   1.0000   1.0000   1.0000
     1.0000   1.0000   1.0000   1.0000   1.0000   1.0000   1.0000   1.0000
     1.0000   1.0000   1.0000   1.0000   1.0000   1.0000   1.0000   1.0000
     1.0000   1.0000   1.0000   1.0000   1.0000   1.0000   1.0000   1.0000
     1.0000   1.0000   1.0000   1.0000   1.0000   1.0000   1.0000   1.0000
     1.0000   1.0000   1.0000   1.0000   1.0000   1.0000   1.0000   1.0000
     1.0000   1.0000   1.0000   1.0000   1.0000   1.0000   1.0000   1.0000
     1.0000   1.0000   1.0000   1.0000   1.0000   1.0000   1.0000   1.0000
     1.0000   1.0000   1.0000   1.0000   1.0000   1.0000   1.0000   1.0000
     1.0000   1.0000   1.0000   1.0000   1.0000   1.0000   1.0000   1.0000
     1.0000   1.0000   1.0000   1.0000   1.0000   1.0000   1.0000   1.0000
     1.0000   1.0000   1.0000   1.0000   1.0000   1.0000   1.0000   1.0000
     1.0000   1.0000   1.0000   1.0000   1.0000   1.0000   1.0000   1.0000
     1.0000   1.0000   1.0000   1.0000   1.0000   1.0000   1.0000   1.0000
     1.0000   1.0000   1.0000   1.0000   1.0000   1.0000   1.0000   1.0000
     1.0000   1.0000   1.0000   1.0000   1.0000   1.0000   1.0000   1.0000
     1.0000   1.0000   1.0000   1.0000   1.0000   1.0000   1.0000   1.0000
     1.0000   1.0000   1.0000   1.0000   1.0000   1.0000   1.0000   1.0000
     1.0000   1.0000   1.0000   1.0000   1.0000   1.0000   1.0000   1.0000
     1.0000   1.0000   1.0000   1.0000   1.0000   1.0000   1.0000   1.0000
     1.0000   1.0000   1.0000   1.0000   1.0000   1.0000   1.0000   1.0000
     1.0000   1.0000   1.0000   1.0000   1.0000   1.0000   1.0000   1.0000
[...]
     atom   72 type  3   force =     0.00419269    0.00535247    0.00944363
     atom   73 type  3   force =    -0.00267422   -0.00503436    0.00256705
     atom   74 type  4   force =     0.00000000    0.00000000    0.00000000
     atom   75 type  4   force =     0.00000000    0.00000000    0.00000000
     atom   76 type  4   force =     0.00000000    0.00000000    0.00000000
     atom   77 type  4   force =     0.00000000    0.00000000    0.00000000
     atom   78 type  4   force =     0.00000000    0.00000000    0.00000000
     atom   79 type  4   force =     0.00000000    0.00000000    0.00000000
     The Hubbard contrib.    to forces
     atom    1 type  1   force =     0.00000000    0.00000000    0.00000000
     atom    2 type  1   force =     0.00000000    0.00000000    0.00000000
     atom    3 type  1   force =     0.00000000    0.00000000    0.00000000
     atom    4 type  1   force =     0.00000000    0.00000000    0.00000000
     atom    5 type  1   force =     0.00000000    0.00000000    0.00000000
     atom    6 type  1   force =     0.00000000    0.00000000    0.00000000
     atom    7 type  1   force =     0.00000000    0.00000000    0.00000000
     atom    8 type  1   force =     0.00000000    0.00000000    0.00000000
     atom    9 type  1   force =     0.00000000    0.00000000    0.00000000
     atom   10 type  1   force =     0.00000000    0.00000000    0.00000000
     atom   11 type  1   force =     0.00000000    0.00000000    0.00000000
     atom   12 type  1   force =     0.00000000    0.00000000    0.00000000
     atom   13 type  1   force =     0.00000000    0.00000000    0.00000000
     atom   14 type  1   force =     0.00000000    0.00000000    0.00000000
     atom   15 type  1   force =     0.00000000    0.00000000    0.00000000
     atom   16 type  1   force =     0.00000000    0.00000000    0.00000000
     atom   17 type  1   force =     0.00000000    0.00000000    0.00000000
     atom   18 type  1   force =     0.00000000    0.00000000    0.00000000
     atom   19 type  1   force =     0.00000000    0.00000000    0.00000000
     atom   20 type  1   force =     0.00000000    0.00000000    0.00000000
     atom   21 type  1   force =     0.00000000    0.00000000    0.00000000
     atom   22 type  1   force =     0.00000000    0.00000000    0.00000000
     atom   23 type  1   force =     0.00000000    0.00000000    0.00000000
     atom   24 type  1   force =     0.00000000    0.00000000    0.00000000
     atom   25 type  1   force =     0.00000000    0.00000000    0.00000000
     atom   26 type  1   force =     0.00000000    0.00000000    0.00000000
     atom   27 type  1   force =     0.00000000    0.00000000    0.00000000
     atom   28 type  1   force =     0.00000000    0.00000000    0.00000000
     atom   29 type  1   force =     0.00000000    0.00000000    0.00000000
     atom   30 type  1   force =     0.00000000    0.00000000    0.00000000
     atom   31 type  1   force =     0.00000000    0.00000000    0.00000000
     atom   32 type  1   force =     0.00000000    0.00000000    0.00000000
     atom   33 type  1   force =     0.00000000    0.00000000    0.00000000
     atom   34 type  1   force =     0.00000000    0.00000000    0.00000000
     atom   35 type  1   force =     0.00000000    0.00000000    0.00000000
     atom   36 type  1   force =     0.00000000    0.00000000    0.00000000
     atom   37 type  1   force =     0.00000000    0.00000000    0.00000000
     atom   38 type  1   force =     0.00000000    0.00000000    0.00000000
     atom   39 type  1   force =     0.00000000    0.00000000    0.00000000
     atom   40 type  1   force =     0.00000000    0.00000000    0.00000000
     atom   41 type  1   force =     0.00000000    0.00000000    0.00000000
     atom   42 type  1   force =     0.00000000    0.00000000    0.00000000
     atom   43 type  1   force =     0.00000000    0.00000000    0.00000000
     atom   44 type  1   force =     0.00000000    0.00000000    0.00000000
     atom   45 type  1   force =     0.00000000    0.00000000    0.00000000
     atom   46 type  1   force =     0.00000000    0.00000000    0.00000000
     atom   47 type  1   force =     0.00000000    0.00000000    0.00000000
     atom   48 type  1   force =     0.00000000    0.00000000    0.00000000
     atom   49 type  1   force =     0.00000000    0.00000000    0.00000000
     atom   50 type  1   force =     0.00000000    0.00000000    0.00000000
     atom   51 type  1   force =     0.00000000    0.00000000    0.00000000
     atom   52 type  1   force =     0.00000000    0.00000000    0.00000000
     atom   53 type  1   force =     0.00000000    0.00000000    0.00000000
     atom   54 type  1   force =     0.00000000    0.00000000    0.00000000
     atom   55 type  1   force =     0.00000000    0.00000000    0.00000000
     atom   56 type  1   force =     0.00000000    0.00000000    0.00000000
     atom   57 type  1   force =     0.00000000    0.00000000    0.00000000
     atom   58 type  1   force =     0.00000000    0.00000000    0.00000000
     atom   59 type  1   force =     0.00000000    0.00000000    0.00000000
     atom   60 type  1   force =     0.00000000    0.00000000    0.00000000
     atom   61 type  1   force =     0.00000000    0.00000000    0.00000000
     atom   62 type  1   force =     0.00000000    0.00000000    0.00000000
     atom   63 type  1   force =     0.00000000    0.00000000    0.00000000
     atom   64 type  1   force =     0.00000000    0.00000000    0.00000000
     atom   65 type  2   force =     0.00000000    0.00000000    0.00000000
     atom   66 type  2   force =     0.00000000    0.00000000    0.00000000
     atom   67 type  2   force =     0.00000000    0.00000000    0.00000000
     atom   68 type  2   force =     0.00000000    0.00000000    0.00000000
     atom   69 type  2   force =     0.00000000    0.00000000    0.00000000
     atom   70 type  2   force =     0.00000000    0.00000000    0.00000000
     atom   71 type  2   force =     0.00000000    0.00000000    0.00000000
     atom   72 type  3   force =     0.00000000    0.00000000    0.00000000
     atom   73 type  3   force =     0.00000000    0.00000000    0.00000000
     atom   74 type  4   force =     0.00000000    0.00000000    0.00000000
     atom   75 type  4   force =     0.00000000    0.00000000    0.00000000
     atom   76 type  4   force =     0.00000000    0.00000000    0.00000000
     atom   77 type  4   force =     0.00000000    0.00000000    0.00000000
     atom   78 type  4   force =     0.00000000    0.00000000    0.00000000
     atom   79 type  4   force =     0.00000000    0.00000000    0.00000000
     The SCF correction term to forces
     atom    1 type  1   force =    -0.00021752   -0.00018398    0.00078174
     atom    2 type  1   force =     0.00023411   -0.00051701    0.00070066
     atom    3 type  1   force =    -0.00019695    0.00019574   -0.00035443
     atom    4 type  1   force =     0.00021918   -0.00068913   -0.00016156
     atom    5 type  1   force =    -0.00013584   -0.00008037    0.00079865
     atom    6 type  1   force =     0.00014015   -0.00029676    0.00022659
     atom    7 type  1   force =     0.00001837   -0.00011103   -0.00031275
     atom    8 type  1   force =    -0.00002012   -0.00069368    0.00028544
     atom    9 type  1   force =     0.00027933    0.00019409    0.00076421
     atom   10 type  1   force =    -0.00026828    0.00047597    0.00032039
     atom   11 type  1   force =     0.00073434    0.00011697   -0.00044689
     atom   12 type  1   force =    -0.00075365    0.00035162    0.00009033
     atom   13 type  1   force =     0.00018030    0.00013028    0.00074728
     atom   14 type  1   force =    -0.00019520    0.00028725    0.00077546
     atom   15 type  1   force =     0.00052459    0.00041518   -0.00048556
     atom   16 type  1   force =    -0.00052308    0.00040525   -0.00035498
     atom   17 type  1   force =    -0.00016009   -0.00062385    0.00063871
     atom   18 type  1   force =     0.00014594   -0.00006935    0.00083286
     atom   19 type  1   force =    -0.00009011   -0.00059241   -0.00009114
     atom   20 type  1   force =     0.00007121    0.00009879   -0.00042220
     atom   21 type  1   force =    -0.00058003   -0.00023639    0.00046662
     atom   22 type  1   force =     0.00057493   -0.00015552    0.00057323
     atom   23 type  1   force =    -0.00083151   -0.00033489    0.00011199
     atom   24 type  1   force =     0.00082979   -0.00049786   -0.00016140
     atom   25 type  1   force =    -0.00047595    0.00024246    0.00073386
     atom   26 type  1   force =     0.00046957    0.00042293    0.00036283
     atom   27 type  1   force =    -0.00058068    0.00018968   -0.00024750
     atom   28 type  1   force =     0.00058998    0.00027583   -0.00011033
     atom   29 type  1   force =    -0.00005102   -0.00011403    0.00086209
     atom   30 type  1   force =     0.00006825    0.00052045    0.00062756
     atom   31 type  1   force =     0.00014239   -0.00004966   -0.00043078
     atom   32 type  1   force =    -0.00014658    0.00089766   -0.00039116
     atom   33 type  1   force =    -0.00010475   -0.00025675   -0.00059449
     atom   34 type  1   force =     0.00009578   -0.00013530   -0.00049939
     atom   35 type  1   force =     0.00015464    0.00030638   -0.00056180
     atom   36 type  1   force =    -0.00016220    0.00005231   -0.00063678
     atom   37 type  1   force =    -0.00060620   -0.00027062   -0.00046188
     atom   38 type  1   force =     0.00066218   -0.00079434   -0.00064191
     atom   39 type  1   force =    -0.00002631    0.00006192   -0.00063876
     atom   40 type  1   force =     0.00002758   -0.00037049   -0.00028437
     atom   41 type  1   force =    -0.00011569    0.00012813   -0.00047661
     atom   42 type  1   force =     0.00011741    0.00025657   -0.00085767
     atom   43 type  1   force =     0.00020718   -0.00010794   -0.00063519
     atom   44 type  1   force =    -0.00019210   -0.00025030    0.00008689
     atom   45 type  1   force =     0.00039149    0.00014701   -0.00059569
     atom   46 type  1   force =    -0.00044289    0.00091466   -0.00072708
     atom   47 type  1   force =     0.00037682    0.00015376   -0.00059378
     atom   48 type  1   force =    -0.00036442    0.00014620   -0.00028395
     atom   49 type  1   force =     0.00008487   -0.00074056   -0.00050262
     atom   50 type  1   force =    -0.00007537    0.00033792   -0.00059783
     atom   51 type  1   force =     0.00006531   -0.00002503   -0.00063785
     atom   52 type  1   force =    -0.00005675    0.00037976   -0.00057154
     atom   53 type  1   force =    -0.00046514   -0.00081213   -0.00061759
     atom   54 type  1   force =     0.00041392   -0.00024238   -0.00049865
     atom   55 type  1   force =    -0.00017605   -0.00022865   -0.00027418
     atom   56 type  1   force =     0.00017458   -0.00008648   -0.00062569
     atom   57 type  1   force =    -0.00100763    0.00024936   -0.00059283
     atom   58 type  1   force =     0.00100504    0.00015230   -0.00075856
     atom   59 type  1   force =    -0.00035061   -0.00013913   -0.00033057
     atom   60 type  1   force =     0.00030071   -0.00021335   -0.00025847
     atom   61 type  1   force =    -0.00042123    0.00026673   -0.00047399
     atom   62 type  1   force =     0.00047125    0.00079811   -0.00086043
     atom   63 type  1   force =    -0.00010657    0.00007672   -0.00065774
     atom   64 type  1   force =     0.00008938    0.00020672   -0.00020193
     atom   65 type  2   force =     0.00010536    0.00013472    0.00025557
     atom   66 type  2   force =    -0.00007699   -0.00009948   -0.00015543
     atom   67 type  2   force =     0.00003516   -0.00014561   -0.00013715
     atom   68 type  2   force =    -0.00016388   -0.00001794   -0.00011331
     atom   69 type  2   force =     0.00000837   -0.00002697   -0.00001848
     atom   70 type  2   force =    -0.00003153   -0.00000346   -0.00001340
     atom   71 type  2   force =     0.00002561    0.00002691    0.00004596
     atom   72 type  3   force =     0.00013007    0.00016713    0.00032162
     atom   73 type  3   force =     0.00002982    0.00003768    0.00006305
     atom   74 type  4   force =    -0.00000850    0.00000613    0.00000061
     atom   75 type  4   force =     0.00000879   -0.00000460   -0.00000036
     atom   76 type  4   force =     0.00000388   -0.00001648   -0.00001224
     atom   77 type  4   force =    -0.00001895   -0.00000159   -0.00000940
     atom   78 type  4   force =     0.00000980   -0.00000393    0.00000527
     atom   79 type  4   force =    -0.00000887    0.00000769    0.00000818

     Total force =     0.030373     Total SCF correction =     0.006221
     SCF correction compared to forces is large: reduce conv_thr to get better values


     Computing stress (Cartesian axis) and pressure


     negative rho (up, down):  3.494E-02 0.000E+00
          total   stress  (Ry/bohr**3)                   (kbar)     P=     -306.74
  -0.00208446   0.00000078   0.00000005         -306.64        0.12        0.01
   0.00000078  -0.00208385  -0.00000011            0.12     -306.55       -0.02
   0.00000005  -0.00000011  -0.00208718            0.01       -0.02     -307.04

     kinetic stress (kbar)  17221.85     14.90    -20.36
                               14.90  17244.57    -34.43
                              -20.36    -34.43  17310.03

     local   stress (kbar)**********    160.92   -830.17
                              160.92**********  -1299.06
                             -830.17  -1299.061460472.89

     nonloc. stress (kbar)  -1882.88     -0.38      2.23
                               -0.38  -1884.01      3.46
                                2.23      3.46  -1945.64

     hartree stress (kbar) 758709.56    -44.05    326.33
                              -44.05 758536.11    506.25
                              326.33    506.25-683236.55

     exc-cor stress (kbar)  -8415.01     -0.62      1.09
                               -0.62  -8416.03      1.82
                                1.09      1.82  -8425.73

     corecor stress (kbar)    -81.26      0.35     -0.50
                                0.35    -80.78     -0.86
                               -0.50     -0.86    -81.07

     ewald   stress (kbar) 678636.37   -131.00    521.39
                             -131.00 678304.14    822.80
                              521.39    822.80-784400.97

     hubbard stress (kbar)      0.00      0.00      0.00
                                0.00      0.00      0.00
                                0.00      0.00      0.00

     DFT-D   stress (kbar)      0.00      0.00      0.00
                                0.00      0.00      0.00
                                0.00      0.00      0.00

     XDM     stress (kbar)      0.00      0.00      0.00
                                0.00      0.00      0.00
                                0.00      0.00      0.00

     dft-nl  stress (kbar)      0.00      0.00      0.00
                                0.00      0.00      0.00
                                0.00      0.00      0.00

     TS-vdW  stress (kbar)      0.00      0.00      0.00
                                0.00      0.00      0.00
                                0.00      0.00      0.00

     MDB     stress (kbar)      0.00      0.00      0.00
                                0.00      0.00      0.00
                                0.00      0.00      0.00

     3D-RISM stress (kbar)      0.00      0.00      0.00
                                0.00      0.00      0.00
                                0.00      0.00      0.00


     Writing all to output data dir ./tmp/Zn002_4x4x2_primitive_14Avacumn_bridgesite_tilted_cross_ABN.save/ :
     XML data file, charge density, pseudopotentials, collected wavefunctions

     init_run     :    149.99s CPU    151.22s WALL (       1 calls)
     electrons    :  12480.26s CPU  12585.06s WALL (       1 calls)
     forces       :    124.23s CPU    124.72s WALL (       1 calls)
     stress       :    338.28s CPU    339.38s WALL (       1 calls)

     Called by init_run:
     wfcinit      :    148.96s CPU    150.15s WALL (       1 calls)
     wfcinit:atom :      0.06s CPU      0.10s WALL (       5 calls)
     wfcinit:wfcr :    147.90s CPU    149.02s WALL (       5 calls)
     potinit      :      0.20s CPU      0.21s WALL (       1 calls)
     hinit0       :      0.06s CPU      0.07s WALL (       1 calls)

     Called by electrons:
     c_bands      :  11724.44s CPU  11820.09s WALL (      22 calls)
     sum_band     :    736.63s CPU    745.39s WALL (      22 calls)
     v_of_rho     :      0.76s CPU      0.80s WALL (      22 calls)
     v_h          :      0.03s CPU      0.04s WALL (      22 calls)
     v_xc         :      0.79s CPU      0.83s WALL (      24 calls)
     newd         :     15.35s CPU     15.69s WALL (      22 calls)
     PAW_pot      :      3.71s CPU      3.72s WALL (      22 calls)
     mix_rho      :      0.18s CPU      0.19s WALL (      22 calls)

     Called by c_bands:
     init_us_2    :      6.23s CPU      6.25s WALL (     235 calls)
     cegterg      :  11709.60s CPU  11805.15s WALL (     110 calls)

     Called by sum_band:
     sum_band:wei :      0.09s CPU      0.09s WALL (      22 calls)
     sum_band:loo :    724.53s CPU    732.96s WALL (      22 calls)
     sum_band:buf :      1.18s CPU      1.19s WALL (     110 calls)
     sum_band:ini :      2.94s CPU      2.94s WALL (     110 calls)
     sum_band:cal :    667.17s CPU    669.51s WALL (     110 calls)
     sum_band:bec :      4.31s CPU      4.32s WALL (     110 calls)
     addusdens    :     11.80s CPU     12.12s WALL (      22 calls)
                                        0.00s GPU  (      22 calls)
     addusd:skk   :      0.14s CPU      0.14s WALL (      88 calls)
                                        0.00s GPU  (      88 calls)

     Called by *egterg:
     cdiaghg      :   1065.25s CPU   1097.13s WALL (     885 calls)
     cegterg:over :   1956.06s CPU   1961.36s WALL (     780 calls)
     cegterg:upda :    915.64s CPU    919.34s WALL (     780 calls)
     cegterg:last :   2779.75s CPU   2789.45s WALL (     235 calls)
     cdiaghg:chol :     73.92s CPU     74.11s WALL (     885 calls)
     cdiaghg:inve :     16.24s CPU     16.28s WALL (     885 calls)
     cdiaghg:para :    382.63s CPU    389.36s WALL (    1770 calls)
     h_psi        :   3196.64s CPU   3235.08s WALL (     895 calls)
     s_psi        :   1364.26s CPU   1367.54s WALL (     895 calls)
     g_psi        :      1.09s CPU      1.09s WALL (     780 calls)

     Called by h_psi:
     h_psi:calbec :   1607.40s CPU   1613.06s WALL (     895 calls)
     vloc_psi     :    238.74s CPU    266.81s WALL (     895 calls)
     add_vuspsi   :   1348.29s CPU   1351.59s WALL (     895 calls)

     General routines
     calbec       :   2425.78s CPU   2434.29s WALL (    1030 calls)
     fft          :      0.37s CPU      0.42s WALL (     268 calls)
     ffts         :      0.03s CPU      0.03s WALL (      22 calls)
     fftw         :    258.69s CPU    289.77s WALL (  507830 calls)

     Parallel routines

     PAW routines
     PAW_pot      :      3.71s CPU      3.72s WALL (      22 calls)

     PWSCF        :      3h38m CPU      3h40m WALL


   This run was terminated on:  16:30:17  22Mar2025            

=------------------------------------------------------------------------------=
   JOB DONE.
=------------------------------------------------------------------------------=
Note: The following floating-point exceptions are signalling: IEEE_DENORMAL
Note: The following floating-point exceptions are signalling: IEEE_DENORMAL
Note: The following floating-point exceptions are signalling: IEEE_DENORMAL
Note: The following floating-point exceptions are signalling: IEEE_DENORMAL
Note: The following floating-point exceptions are signalling: IEEE_DENORMAL
