--------------------------------------------------------------------------
By default, for Open MPI 4.0 and later, infiniband ports on a device
are not used by default.  The intent is to use UCX for these devices.
You can override this policy by setting the btl_openib_allow_ib MCA parameter
to true.

  Local host:              psid04
  Local adapter:           mlx5_0
  Local port:              1

--------------------------------------------------------------------------
--------------------------------------------------------------------------
WARNING: There was an error initializing an OpenFabrics device.

  Local host:   psid04
  Local device: mlx5_0
--------------------------------------------------------------------------

     Program PWSCF v.7.3.1 starts on 22Mar2025 at 12:50:25 

     This program is part of the open-source Quantum ESPRESSO suite
     for quantum simulation of materials; please cite
         "P. Giannozzi et al., J. Phys.:Condens. Matter 21 395502 (2009);
         "P. Giannozzi et al., J. Phys.:Condens. Matter 29 465901 (2017);
         "P. Giannozzi et al., J. Chem. Phys. 152 154105 (2020);
          URL http://www.quantum-espresso.org", 
     in publications or presentations arising from this work. More details at
     http://www.quantum-espresso.org/quote

     Parallel version (MPI), running on    16 processors

     MPI processes distributed on     1 nodes
     98914 MiB available memory on the printing compute node when the environment starts

     Waiting for input...
     Reading input from standard input
Warning: card &CELL ignored
Warning: card   CELL_DOFREE = 'ALL' ignored
Warning: card / ignored

     Current dimensions of program PWSCF are:
     Max number of different atomic species (ntypx) = 10
     Max number of k-points (npk) =  40000
     Max angular momentum in pseudopotentials (lmaxx) =  4
     file C.pbe-n-kjpaw_psl.1.0.0.UPF: wavefunction(s)  2S 2P renormalized

     R & G space division:  proc/nbgrp/npool/nimage =      16
     Subspace diagonalization in iterative solution of the eigenvalue problem:
     one sub-group per band group will be used
     custom distributed-memory algorithm (size of sub-group:  4*  4 procs)


     Parallelization info
     --------------------
     sticks:   dense  smooth     PW     G-vecs:    dense   smooth      PW
     Min         202     202     53                21070    21070    2943
     Max         203     203     54                21080    21080    2952
     Sum        3241    3241    859               337189   337189   47187

     Using Slab Decomposition



     bravais-lattice index     =            0
     lattice parameter (alat)  =      19.7617  a.u.
     unit-cell volume          =   15176.5939 (a.u.)^3
     number of atoms/cell      =           79
     number of atomic types    =            4
     number of electrons       =      1324.00
     number of Kohn-Sham states=          794
     kinetic-energy cutoff     =      30.0000  Ry
     charge density cutoff     =     120.0000  Ry
     scf convergence threshold =      7.3E-07
     mixing beta               =       0.7000
     number of iterations used =            8  plain     mixing
     Exchange-correlation= PBE
                           (   1   4   3   4   0   0   0)

     celldm(1)=  19.761696  celldm(2)=   0.000000  celldm(3)=   0.000000
     celldm(4)=   0.000000  celldm(5)=   0.000000  celldm(6)=   0.000000

     crystal axes: (cart. coord. in units of alat)
               a(1) = (   1.000000   0.000000   0.000000 )  
               a(2) = (  -0.500000   0.866025   0.000000 )  
               a(3) = (   0.000000   0.000000   2.270759 )  

     reciprocal axes: (cart. coord. in units 2 pi/alat)
               b(1) = (  1.000000  0.577350 -0.000000 )  
               b(2) = (  0.000000  1.154701  0.000000 )  
               b(3) = (  0.000000 -0.000000  0.440381 )  


     PseudoPot. # 1 for Zn read from file:
     /home/ys/qepseudo/SSSP_1.3.0_PBE_efficiency/Zn_pbe_v1.uspp.F.UPF
     MD5 check sum: df62231357ef9e81f77b2b3087fa5675
     Pseudo is Ultrasoft, Zval = 20.0
     Generated by new atomic code, or converted to UPF format
     Using radial grid of  943 points,  6 beta functions with: 
                l(1) =   0
                l(2) =   0
                l(3) =   1
                l(4) =   1
                l(5) =   2
                l(6) =   2
     Q(r) pseudized with  8 coefficients,  rinner =    1.100   1.100   1.100
                                                       1.100   1.100

     PseudoPot. # 2 for C  read from file:
     /home/ys/qepseudo/SSSP_1.3.0_PBE_efficiency/C.pbe-n-kjpaw_psl.1.0.0.UPF
     MD5 check sum: 5d2aebdfa2cae82b50a7e79e9516da0f
     Pseudo is Projector augmented-wave + core cor, Zval =  4.0
     Generated using "atomic" code by A. Dal Corso  v.5.1
     Shape of augmentation charge: PSQ
     Using radial grid of 1073 points,  4 beta functions with: 
                l(1) =   0
                l(2) =   0
                l(3) =   1
                l(4) =   1
     Q(r) pseudized with 0 coefficients 


     PseudoPot. # 3 for N  read from file:
     /home/ys/qepseudo/SSSP_1.3.0_PBE_efficiency/N.pbe-n-radius_5.UPF
     MD5 check sum: 16739722b17309cd8fe442a2ace49922
     Pseudo is Ultrasoft + core correction, Zval =  5.0
     Generated using "atomic" code by A. Dal Corso  v.5.1
     Using radial grid of 1085 points,  4 beta functions with: 
                l(1) =   0
                l(2) =   0
                l(3) =   1
                l(4) =   1
     Q(r) pseudized with 0 coefficients 


     PseudoPot. # 4 for H  read from file:
     /home/ys/qepseudo/SSSP_1.3.0_PBE_efficiency/H.pbe-rrkjus_psl.1.0.0.UPF
     MD5 check sum: f52b6d4d1c606e5624b1dc7b2218f220
     Pseudo is Ultrasoft, Zval =  1.0
     Generated using "atomic" code by A. Dal Corso  v.5.1
     Using radial grid of  929 points,  2 beta functions with: 
                l(1) =   0
                l(2) =   0
     Q(r) pseudized with 0 coefficients 


     atomic species   valence    mass     pseudopotential
     Zn               20.00    65.38000     Zn( 1.00)
     C                 4.00    12.01070     C ( 1.00)
     N                 5.00    14.00670     N ( 1.00)
     H                 1.00     1.00800     H ( 1.00)

     No symmetry found


                                    s                        frac. trans.

      isym =  1     identity                                     

 cryst.   s( 1) = (     1          0          0      )
                  (     0          1          0      )
                  (     0          0          1      )

 cart.    s( 1) = (  1.0000000  0.0000000  0.0000000 )
                  (  0.0000000  1.0000000  0.0000000 )
                  (  0.0000000  0.0000000  1.0000000 )


   Cartesian axes

     site n.     atom                  positions (alat units)
         1        Zn     tau(   1) = (  -0.0000000   0.1443376   0.1164999  )
         2        Zn     tau(   2) = (   0.5000000   0.1443376   0.1164999  )
         3        Zn     tau(   3) = (   0.0001063   0.1443772   0.5902127  )
         4        Zn     tau(   4) = (   0.4998958   0.1443643   0.5917156  )
         5        Zn     tau(   5) = (  -0.1250000   0.3608439   0.1164999  )
         6        Zn     tau(   6) = (   0.3750000   0.3608439   0.1164999  )
         7        Zn     tau(   7) = (  -0.1249761   0.3609302   0.5908726  )
         8        Zn     tau(   8) = (   0.3749642   0.3608477   0.5913644  )
         9        Zn     tau(   9) = (  -0.2500000   0.5773503   0.1164999  )
        10        Zn     tau(  10) = (   0.2500000   0.5773503   0.1164999  )
        11        Zn     tau(  11) = (  -0.2499911   0.5773738   0.5915504  )
        12        Zn     tau(  12) = (   0.2499824   0.5772583   0.5907382  )
        13        Zn     tau(  13) = (  -0.3750000   0.7938566   0.1164999  )
        14        Zn     tau(  14) = (   0.1250000   0.7938566   0.1164999  )
        15        Zn     tau(  15) = (  -0.3749161   0.7938269   0.5909604  )
        16        Zn     tau(  16) = (   0.1249053   0.7937898   0.5911170  )
        17        Zn     tau(  17) = (   0.2500000   0.1443376   0.1164999  )
        18        Zn     tau(  18) = (   0.7500000   0.1443376   0.1164999  )
        19        Zn     tau(  19) = (   0.2499566   0.1443139   0.5910485  )
        20        Zn     tau(  20) = (   0.7500401   0.1444360   0.5909256  )
        21        Zn     tau(  21) = (   0.1250000   0.3608439   0.1164999  )
        22        Zn     tau(  22) = (   0.6250000   0.3608439   0.1164999  )
        23        Zn     tau(  23) = (   0.1249684   0.3608327   0.5904686  )
        24        Zn     tau(  24) = (   0.6250220   0.3609386   0.5917101  )
        25        Zn     tau(  25) = (  -0.0000000   0.5773503   0.1164999  )
        26        Zn     tau(  26) = (   0.5000000   0.5773503   0.1164999  )
        27        Zn     tau(  27) = (  -0.0000983   0.5773031   0.5910657  )
        28        Zn     tau(  28) = (   0.5000885   0.5773473   0.5912976  )
        29        Zn     tau(  29) = (  -0.1250000   0.7938566   0.1164999  )
        30        Zn     tau(  30) = (   0.3750000   0.7938566   0.1164999  )
        31        Zn     tau(  31) = (  -0.1251014   0.7937984   0.5915674  )
        32        Zn     tau(  32) = (   0.3751324   0.7938157   0.5904624  )
        33        Zn     tau(  33) = (   0.1250000   0.0721688   0.3494996  )
        34        Zn     tau(  34) = (   0.6250000   0.0721688   0.3494996  )
        35        Zn     tau(  35) = (   0.1246193   0.0719582   0.8323171  )
        36        Zn     tau(  36) = (   0.6247863   0.0721058   0.8327879  )
        37        Zn     tau(  37) = (   0.0000000   0.2886751   0.3494996  )
        38        Zn     tau(  38) = (   0.5000000   0.2886751   0.3494996  )
        39        Zn     tau(  39) = (  -0.0004141   0.2885605   0.8324874  )
        40        Zn     tau(  40) = (   0.4998445   0.2884781   0.8325306  )
        41        Zn     tau(  41) = (  -0.1250000   0.5051815   0.3494996  )
        42        Zn     tau(  42) = (   0.3750000   0.5051815   0.3494996  )
        43        Zn     tau(  43) = (  -0.1253003   0.5051007   0.8330462  )
        44        Zn     tau(  44) = (   0.3745658   0.5052859   0.8281149  )
        45        Zn     tau(  45) = (  -0.2500000   0.7216878   0.3494996  )
        46        Zn     tau(  46) = (   0.2500000   0.7216878   0.3494996  )
        47        Zn     tau(  47) = (  -0.2502782   0.7215646   0.8329798  )
        48        Zn     tau(  48) = (   0.2496056   0.7217398   0.8326485  )
        49        Zn     tau(  49) = (   0.3750000   0.0721688   0.3494996  )
        50        Zn     tau(  50) = (   0.8750000   0.0721688   0.3494996  )
        51        Zn     tau(  51) = (   0.3747307   0.0719485   0.8330090  )
        52        Zn     tau(  52) = (   0.8747167   0.0720990   0.8321645  )
        53        Zn     tau(  53) = (   0.2500000   0.2886751   0.3494996  )
        54        Zn     tau(  54) = (   0.7500000   0.2886751   0.3494996  )
        55        Zn     tau(  55) = (   0.2494612   0.2883582   0.8293599  )
        56        Zn     tau(  56) = (   0.7498011   0.2885935   0.8327814  )
        57        Zn     tau(  57) = (   0.1250000   0.5051815   0.3494996  )
        58        Zn     tau(  58) = (   0.6250000   0.5051815   0.3494996  )
        59        Zn     tau(  59) = (   0.1245013   0.5051684   0.8329884  )
        60        Zn     tau(  60) = (   0.6248259   0.5050968   0.8330687  )
        61        Zn     tau(  61) = (   0.0000000   0.7216878   0.3494996  )
        62        Zn     tau(  62) = (   0.5000000   0.7216878   0.3494996  )
        63        Zn     tau(  63) = (  -0.0003079   0.7216319   0.8331317  )
        64        Zn     tau(  64) = (   0.4997535   0.7217316   0.8322593  )
        65        C      tau(  65) = (   0.0958764   0.5780630   1.6266218  )
        66        C      tau(  66) = (   0.1592900   0.5413514   1.5117823  )
        67        C      tau(  67) = (   0.1331186   0.4223444   1.4537430  )
        68        C      tau(  68) = (   0.2494630   0.6235525   1.4540805  )
        69        C      tau(  69) = (   0.3114430   0.5879637   1.3424436  )
        70        C      tau(  70) = (   0.1951033   0.3867376   1.3420579  )
        71        C      tau(  71) = (   0.2856606   0.4687460   1.2841507  )
        72        N      tau(  72) = (   0.0437068   0.6087514   1.7212212  )
        73        N      tau(  73) = (   0.3516227   0.4311666   1.1765539  )
        74        H      tau(  74) = (   0.3975496   0.4995526   1.1243887  )
        75        H      tau(  75) = (   0.3155708   0.3581561   1.1229390  )
        76        H      tau(  76) = (   0.0633638   0.3580351   1.4977940  )
        77        H      tau(  77) = (   0.2702523   0.7159615   1.4984413  )
        78        H      tau(  78) = (   0.3818570   0.6523126   1.2991872  )
        79        H      tau(  79) = (   0.1745302   0.2937755   1.2984412  )

   Crystallographic axes

     site n.     atom                  positions (cryst. coord.)
         1        Zn     tau(   1) = (  0.0833333  0.1666667  0.0513044  )
         2        Zn     tau(   2) = (  0.5833333  0.1666667  0.0513044  )
         3        Zn     tau(   3) = (  0.0834625  0.1667124  0.2599187  )
         4        Zn     tau(   4) = (  0.5832446  0.1666976  0.2605806  )
         5        Zn     tau(   5) = (  0.0833333  0.4166667  0.0513044  )
         6        Zn     tau(   6) = (  0.5833333  0.4166667  0.0513044  )
         7        Zn     tau(   7) = (  0.0834070  0.4167663  0.2602093  )
         8        Zn     tau(   8) = (  0.5832997  0.4166711  0.2604259  )
         9        Zn     tau(   9) = (  0.0833333  0.6666667  0.0513044  )
        10        Zn     tau(  10) = (  0.5833333  0.6666667  0.0513044  )
        11        Zn     tau(  11) = (  0.0833558  0.6666938  0.2605078  )
        12        Zn     tau(  12) = (  0.5832626  0.6665605  0.2601501  )
        13        Zn     tau(  13) = (  0.0833333  0.9166667  0.0513044  )
        14        Zn     tau(  14) = (  0.5833333  0.9166667  0.0513044  )
        15        Zn     tau(  15) = (  0.0834001  0.9166324  0.2602480  )
        16        Zn     tau(  16) = (  0.5832000  0.9165895  0.2603170  )
        17        Zn     tau(  17) = (  0.3333333  0.1666667  0.0513044  )
        18        Zn     tau(  18) = (  0.8333333  0.1666667  0.0513044  )
        19        Zn     tau(  19) = (  0.3332763  0.1666393  0.2602868  )
        20        Zn     tau(  20) = (  0.8334303  0.1667804  0.2602327  )
        21        Zn     tau(  21) = (  0.3333333  0.4166667  0.0513044  )
        22        Zn     tau(  22) = (  0.8333333  0.4166667  0.0513044  )
        23        Zn     tau(  23) = (  0.3332952  0.4166537  0.2600314  )
        24        Zn     tau(  24) = (  0.8334099  0.4167759  0.2605781  )
        25        Zn     tau(  25) = (  0.3333333  0.6666667  0.0513044  )
        26        Zn     tau(  26) = (  0.8333333  0.6666667  0.0513044  )
        27        Zn     tau(  27) = (  0.3332078  0.6666122  0.2602944  )
        28        Zn     tau(  28) = (  0.8334201  0.6666632  0.2603965  )
        29        Zn     tau(  29) = (  0.3333333  0.9166667  0.0513044  )
        30        Zn     tau(  30) = (  0.8333333  0.9166667  0.0513044  )
        31        Zn     tau(  31) = (  0.3331983  0.9165994  0.2605153  )
        32        Zn     tau(  32) = (  0.8334421  0.9166194  0.2600287  )
        33        Zn     tau(  33) = (  0.1666667  0.0833333  0.1539131  )
        34        Zn     tau(  34) = (  0.6666667  0.0833333  0.1539131  )
        35        Zn     tau(  35) = (  0.1661644  0.0830902  0.3665370  )
        36        Zn     tau(  36) = (  0.6664166  0.0832606  0.3667443  )
        37        Zn     tau(  37) = (  0.1666667  0.3333333  0.1539131  )
        38        Zn     tau(  38) = (  0.6666667  0.3333333  0.1539131  )
        39        Zn     tau(  39) = (  0.1661864  0.3332010  0.3666120  )
        40        Zn     tau(  40) = (  0.6663975  0.3331059  0.3666310  )
        41        Zn     tau(  41) = (  0.1666667  0.5833333  0.1539131  )
        42        Zn     tau(  42) = (  0.6666667  0.5833333  0.1539131  )
        43        Zn     tau(  43) = (  0.1663198  0.5832401  0.3668581  )
        44        Zn     tau(  44) = (  0.6662927  0.5834539  0.3646864  )
        45        Zn     tau(  45) = (  0.1666667  0.8333333  0.1539131  )
        46        Zn     tau(  46) = (  0.6666667  0.8333333  0.1539131  )
        47        Zn     tau(  47) = (  0.1663173  0.8331911  0.3668289  )
        48        Zn     tau(  48) = (  0.6663023  0.8333933  0.3666830  )
        49        Zn     tau(  49) = (  0.4166667  0.0833333  0.1539131  )
        50        Zn     tau(  50) = (  0.9166667  0.0833333  0.1539131  )
        51        Zn     tau(  51) = (  0.4162701  0.0830790  0.3668417  )
        52        Zn     tau(  52) = (  0.9163430  0.0832527  0.3664698  )
        53        Zn     tau(  53) = (  0.4166667  0.3333333  0.1539131  )
        54        Zn     tau(  54) = (  0.9166667  0.3333333  0.1539131  )
        55        Zn     tau(  55) = (  0.4159449  0.3329674  0.3652347  )
        56        Zn     tau(  56) = (  0.9164207  0.3332391  0.3667415  )
        57        Zn     tau(  57) = (  0.4166667  0.5833333  0.1539131  )
        58        Zn     tau(  58) = (  0.9166667  0.5833333  0.1539131  )
        59        Zn     tau(  59) = (  0.4161604  0.5833182  0.3668326  )
        60        Zn     tau(  60) = (  0.9164437  0.5832356  0.3668680  )
        61        Zn     tau(  61) = (  0.4166667  0.8333333  0.1539131  )
        62        Zn     tau(  62) = (  0.9166667  0.8333333  0.1539131  )
        63        Zn     tau(  63) = (  0.4163265  0.8332688  0.3668957  )
        64        Zn     tau(  64) = (  0.9164455  0.8333839  0.3665115  )
        65        C      tau(  65) = (  0.4296212  0.6674896  0.7163340  )
        66        C      tau(  66) = (  0.4718393  0.6250987  0.6657609  )
        67        C      tau(  67) = (  0.3769593  0.4876813  0.6402014  )
        68        C      tau(  68) = (  0.6094712  0.7200164  0.6403501  )
        69        C      tau(  69) = (  0.6509040  0.6789220  0.5911872  )
        70        C      tau(  70) = (  0.4183864  0.4465661  0.5910174  )
        71        C      tau(  71) = (  0.5562913  0.5412613  0.5655161  )
        72        N      tau(  72) = (  0.3951696  0.7029256  0.7579939  )
        73        N      tau(  73) = (  0.6005569  0.4978683  0.5181325  )
        74        H      tau(  74) = (  0.6859664  0.5768337  0.4951599  )
        75        H      tau(  75) = (  0.5223522  0.4135630  0.4945215  )
        76        H      tau(  76) = (  0.2700755  0.4134233  0.6596007  )
        77        H      tau(  77) = (  0.6836128  0.8267211  0.6598857  )
        78        H      tau(  78) = (  0.7584698  0.7532257  0.5721379  )
        79        H      tau(  79) = (  0.3441416  0.3392227  0.5718094  )

     number of k points=     5  Marzari-Vanderbilt smearing, width (Ry)=  0.0200
                       cart. coord. in units 2pi/alat
        k(    1) = (   0.0000000   0.0000000   0.0000000), wk =   0.2222222
        k(    2) = (   0.0000000   0.3849002   0.0000000), wk =   0.4444444
        k(    3) = (   0.3333333   0.1924501   0.0000000), wk =   0.4444444
        k(    4) = (   0.3333333   0.5773503   0.0000000), wk =   0.4444444
        k(    5) = (   0.3333333  -0.1924501   0.0000000), wk =   0.4444444

                       cryst. coord.
        k(    1) = (   0.0000000   0.0000000   0.0000000), wk =   0.2222222
        k(    2) = (   0.0000000   0.3333333   0.0000000), wk =   0.4444444
        k(    3) = (   0.3333333   0.0000000   0.0000000), wk =   0.4444444
        k(    4) = (   0.3333333   0.3333333   0.0000000), wk =   0.4444444
        k(    5) = (   0.3333333  -0.3333333   0.0000000), wk =   0.4444444

     Dense  grid:   337189 G-vectors     FFT dimensions: (  72,  72, 160)

     Dynamical RAM for                 wfc:      31.89 MB

     Dynamical RAM for     wfc (w. buffer):     191.33 MB

     Dynamical RAM for           str. fact:       1.29 MB

     Dynamical RAM for           local pot:       0.00 MB

     Dynamical RAM for          nlocal pot:      49.64 MB

     Dynamical RAM for                qrad:       3.52 MB

     Dynamical RAM for          rho,v,vnew:       2.15 MB

     Dynamical RAM for               rhoin:       0.72 MB

     Dynamical RAM for            rho*nmix:       5.15 MB

     Dynamical RAM for           G-vectors:       1.37 MB

     Dynamical RAM for          h,s,v(r/c):       7.21 MB

     Dynamical RAM for          <psi|beta>:      14.97 MB

     Dynamical RAM for                 psi:      63.78 MB

     Dynamical RAM for                hpsi:      63.78 MB

     Dynamical RAM for                spsi:      63.78 MB

     Dynamical RAM for      wfcinit/wfcrot:      87.69 MB

     Dynamical RAM for           addusdens:      80.39 MB

     Dynamical RAM for          addusforce:     121.32 MB

     Dynamical RAM for         addusstress:      64.63 MB

     Estimated static dynamical RAM per process >     253.59 MB

     Estimated max dynamical RAM per process >     472.26 MB

     Estimated total dynamical RAM >       7.38 GB

     Check: negative core charge=   -0.000055

     Initial potential from superposition of free atoms

     starting charge    1323.9906, renormalised to    1324.0000

     negative rho (up, down):  6.629E-03 0.000E+00
     Starting wfcs are  874 randomized atomic wfcs
[psid04:25397] 15 more processes have sent help message help-mpi-btl-openib.txt / ib port not selected
[psid04:25397] Set MCA parameter "orte_base_help_aggregate" to 0 to see all help / error messages
[psid04:25397] 15 more processes have sent help message help-mpi-btl-openib.txt / error in device init
     Checking if some PAW data can be deallocated... 
       PAW data deallocated on   13 nodes for type:  2

     total cpu time spent up to now is      156.0 secs

     Self-consistent Calculation

     iteration #  1     ecut=    30.00 Ry     beta= 0.70
     Davidson diagonalization with overlap

---- Real-time Memory Report at c_bands before calling an iterative solver
           351 MiB given to the printing process from OS
             0 MiB allocation reported by mallinfo(arena+hblkhd)
         91100 MiB available memory on the node where the printing process lives
------------------
     ethr =  1.00E-02,  avg # of iterations =  7.2

     Threshold (ethr) on eigenvalues was too large:
     Diagonalizing with lowered threshold

     Davidson diagonalization with overlap

---- Real-time Memory Report at c_bands before calling an iterative solver
           508 MiB given to the printing process from OS
             0 MiB allocation reported by mallinfo(arena+hblkhd)
         90400 MiB available memory on the node where the printing process lives
------------------
     ethr =  9.20E-04,  avg # of iterations =  1.8

     negative rho (up, down):  3.521E-02 0.000E+00

     total cpu time spent up to now is     1179.2 secs

     total energy              =  -29703.41577092 Ry
     estimated scf accuracy    <      12.40739573 Ry

     iteration #  2     ecut=    30.00 Ry     beta= 0.70
     Davidson diagonalization with overlap

---- Real-time Memory Report at c_bands before calling an iterative solver
           508 MiB given to the printing process from OS
             0 MiB allocation reported by mallinfo(arena+hblkhd)
         90396 MiB available memory on the node where the printing process lives
------------------
     ethr =  9.37E-04,  avg # of iterations = 11.0

     negative rho (up, down):  3.291E-02 0.000E+00

     total cpu time spent up to now is     2011.3 secs

     total energy              =  -29666.04912863 Ry
     estimated scf accuracy    <     828.22038701 Ry

     iteration #  3     ecut=    30.00 Ry     beta= 0.70
     Davidson diagonalization with overlap

---- Real-time Memory Report at c_bands before calling an iterative solver
           512 MiB given to the printing process from OS
             0 MiB allocation reported by mallinfo(arena+hblkhd)
         90764 MiB available memory on the node where the printing process lives
------------------
     ethr =  9.37E-04,  avg # of iterations = 10.2

     negative rho (up, down):  2.487E-02 0.000E+00

     total cpu time spent up to now is     3232.9 secs

     total energy              =  -29701.96706688 Ry
     estimated scf accuracy    <     128.42244128 Ry

     iteration #  4     ecut=    30.00 Ry     beta= 0.70
     Davidson diagonalization with overlap

---- Real-time Memory Report at c_bands before calling an iterative solver
           512 MiB given to the printing process from OS
             0 MiB allocation reported by mallinfo(arena+hblkhd)
         91855 MiB available memory on the node where the printing process lives
------------------
     ethr =  9.37E-04,  avg # of iterations =  8.4

     negative rho (up, down):  1.179E-02 0.000E+00

     total cpu time spent up to now is     3831.1 secs

     total energy              =  -29705.64251910 Ry
     estimated scf accuracy    <     124.99789905 Ry

     iteration #  5     ecut=    30.00 Ry     beta= 0.70
     Davidson diagonalization with overlap

---- Real-time Memory Report at c_bands before calling an iterative solver
           512 MiB given to the printing process from OS
             0 MiB allocation reported by mallinfo(arena+hblkhd)
         91853 MiB available memory on the node where the printing process lives
------------------
     ethr =  9.37E-04,  avg # of iterations =  7.2

     negative rho (up, down):  1.173E-02 0.000E+00

     total cpu time spent up to now is     4378.7 secs

     total energy              =  -29711.46655028 Ry
     estimated scf accuracy    <       5.65879390 Ry

     iteration #  6     ecut=    30.00 Ry     beta= 0.70
     Davidson diagonalization with overlap

---- Real-time Memory Report at c_bands before calling an iterative solver
           512 MiB given to the printing process from OS
             0 MiB allocation reported by mallinfo(arena+hblkhd)
         91843 MiB available memory on the node where the printing process lives
------------------
     ethr =  4.27E-04,  avg # of iterations =  3.4

     negative rho (up, down):  1.882E-02 0.000E+00

     total cpu time spent up to now is     4867.2 secs

     total energy              =  -29711.99444970 Ry
     estimated scf accuracy    <       0.20245098 Ry

     iteration #  7     ecut=    30.00 Ry     beta= 0.70
     Davidson diagonalization with overlap

---- Real-time Memory Report at c_bands before calling an iterative solver
           513 MiB given to the printing process from OS
             0 MiB allocation reported by mallinfo(arena+hblkhd)
         91822 MiB available memory on the node where the printing process lives
------------------
     ethr =  1.53E-05,  avg # of iterations = 15.2

     negative rho (up, down):  2.708E-02 0.000E+00

     total cpu time spent up to now is     5457.6 secs

     total energy              =  -29712.00149544 Ry
     estimated scf accuracy    <       0.07104263 Ry

     iteration #  8     ecut=    30.00 Ry     beta= 0.70
     Davidson diagonalization with overlap

---- Real-time Memory Report at c_bands before calling an iterative solver
           514 MiB given to the printing process from OS
             0 MiB allocation reported by mallinfo(arena+hblkhd)
         91789 MiB available memory on the node where the printing process lives
------------------
     ethr =  5.37E-06,  avg # of iterations =  9.0

     negative rho (up, down):  3.246E-02 0.000E+00

     total cpu time spent up to now is     6020.1 secs

     total energy              =  -29712.00249830 Ry
     estimated scf accuracy    <       0.05590964 Ry

     iteration #  9     ecut=    30.00 Ry     beta= 0.70
     Davidson diagonalization with overlap

---- Real-time Memory Report at c_bands before calling an iterative solver
           516 MiB given to the printing process from OS
             0 MiB allocation reported by mallinfo(arena+hblkhd)
         90659 MiB available memory on the node where the printing process lives
------------------
     ethr =  4.22E-06,  avg # of iterations =  3.0

     negative rho (up, down):  3.372E-02 0.000E+00

     total cpu time spent up to now is     6534.6 secs

     total energy              =  -29712.00664700 Ry
     estimated scf accuracy    <       0.04199155 Ry

     iteration # 10     ecut=    30.00 Ry     beta= 0.70
     Davidson diagonalization with overlap

---- Real-time Memory Report at c_bands before calling an iterative solver
           517 MiB given to the printing process from OS
             0 MiB allocation reported by mallinfo(arena+hblkhd)
         91730 MiB available memory on the node where the printing process lives
------------------
     ethr =  3.17E-06,  avg # of iterations =  6.2

     negative rho (up, down):  3.421E-02 0.000E+00

     total cpu time spent up to now is     7040.0 secs

     total energy              =  -29712.00976943 Ry
     estimated scf accuracy    <       0.01429130 Ry

     iteration # 11     ecut=    30.00 Ry     beta= 0.70
     Davidson diagonalization with overlap

---- Real-time Memory Report at c_bands before calling an iterative solver
           518 MiB given to the printing process from OS
             0 MiB allocation reported by mallinfo(arena+hblkhd)
         91701 MiB available memory on the node where the printing process lives
------------------
     c_bands:  2 eigenvalues not converged
     ethr =  1.08E-06,  avg # of iterations = 13.8

     negative rho (up, down):  3.976E-02 0.000E+00

     total cpu time spent up to now is     7550.7 secs

     total energy              =  -29712.00314285 Ry
     estimated scf accuracy    <       0.01178703 Ry

     iteration # 12     ecut=    30.00 Ry     beta= 0.70
     Davidson diagonalization with overlap

---- Real-time Memory Report at c_bands before calling an iterative solver
           518 MiB given to the printing process from OS
             0 MiB allocation reported by mallinfo(arena+hblkhd)
         91699 MiB available memory on the node where the printing process lives
------------------
     c_bands:  4 eigenvalues not converged
     ethr =  8.90E-07,  avg # of iterations = 13.8

     negative rho (up, down):  3.727E-02 0.000E+00

     total cpu time spent up to now is     8142.1 secs

     total energy              =  -29712.00327149 Ry
     estimated scf accuracy    <       0.00879602 Ry

     iteration # 13     ecut=    30.00 Ry     beta= 0.70
     Davidson diagonalization with overlap

---- Real-time Memory Report at c_bands before calling an iterative solver
           518 MiB given to the printing process from OS
             0 MiB allocation reported by mallinfo(arena+hblkhd)
         91697 MiB available memory on the node where the printing process lives
------------------
     ethr =  6.64E-07,  avg # of iterations =  5.6

     negative rho (up, down):  3.644E-02 0.000E+00

     total cpu time spent up to now is     8649.7 secs

     total energy              =  -29712.00033869 Ry
     estimated scf accuracy    <       0.01105748 Ry

     iteration # 14     ecut=    30.00 Ry     beta= 0.70
     Davidson diagonalization with overlap

---- Real-time Memory Report at c_bands before calling an iterative solver
           518 MiB given to the printing process from OS
             0 MiB allocation reported by mallinfo(arena+hblkhd)
         91693 MiB available memory on the node where the printing process lives
------------------
     ethr =  6.64E-07,  avg # of iterations =  9.8

     negative rho (up, down):  3.579E-02 0.000E+00

     total cpu time spent up to now is     9194.4 secs

     total energy              =  -29711.99677520 Ry
     estimated scf accuracy    <       0.13424612 Ry

     iteration # 15     ecut=    30.00 Ry     beta= 0.70
     Davidson diagonalization with overlap

---- Real-time Memory Report at c_bands before calling an iterative solver
           518 MiB given to the printing process from OS
             0 MiB allocation reported by mallinfo(arena+hblkhd)
         88611 MiB available memory on the node where the printing process lives
------------------
     ethr =  6.64E-07,  avg # of iterations =  7.6

     negative rho (up, down):  3.554E-02 0.000E+00

     total cpu time spent up to now is     9722.5 secs

     total energy              =  -29712.00397121 Ry
     estimated scf accuracy    <       0.00054678 Ry

     iteration # 16     ecut=    30.00 Ry     beta= 0.70
     Davidson diagonalization with overlap

---- Real-time Memory Report at c_bands before calling an iterative solver
           518 MiB given to the printing process from OS
             0 MiB allocation reported by mallinfo(arena+hblkhd)
         91688 MiB available memory on the node where the printing process lives
------------------
     ethr =  4.13E-08,  avg # of iterations =  2.4

     negative rho (up, down):  3.529E-02 0.000E+00

     total cpu time spent up to now is    10265.2 secs

     total energy              =  -29712.00404289 Ry
     estimated scf accuracy    <       0.00046333 Ry

     iteration # 17     ecut=    30.00 Ry     beta= 0.70
     Davidson diagonalization with overlap

---- Real-time Memory Report at c_bands before calling an iterative solver
           518 MiB given to the printing process from OS
             0 MiB allocation reported by mallinfo(arena+hblkhd)
         91691 MiB available memory on the node where the printing process lives
------------------
     ethr =  3.50E-08,  avg # of iterations =  2.0

     negative rho (up, down):  3.501E-02 0.000E+00

     total cpu time spent up to now is    10739.2 secs

     total energy              =  -29712.00410371 Ry
     estimated scf accuracy    <       0.00008486 Ry

     iteration # 18     ecut=    30.00 Ry     beta= 0.70
     Davidson diagonalization with overlap

---- Real-time Memory Report at c_bands before calling an iterative solver
           518 MiB given to the printing process from OS
             0 MiB allocation reported by mallinfo(arena+hblkhd)
         91689 MiB available memory on the node where the printing process lives
------------------
     ethr =  6.41E-09,  avg # of iterations =  2.0

     negative rho (up, down):  3.486E-02 0.000E+00

     total cpu time spent up to now is    11219.3 secs

     total energy              =  -29712.00411347 Ry
     estimated scf accuracy    <       0.00001128 Ry

     iteration # 19     ecut=    30.00 Ry     beta= 0.70
     Davidson diagonalization with overlap

---- Real-time Memory Report at c_bands before calling an iterative solver
           518 MiB given to the printing process from OS
             0 MiB allocation reported by mallinfo(arena+hblkhd)
         91688 MiB available memory on the node where the printing process lives
------------------
     ethr =  8.52E-10,  avg # of iterations =  2.0

     negative rho (up, down):  3.482E-02 0.000E+00

     total cpu time spent up to now is    11701.6 secs

     total energy              =  -29712.00411506 Ry
     estimated scf accuracy    <       0.00000129 Ry

     iteration # 20     ecut=    30.00 Ry     beta= 0.70
     Davidson diagonalization with overlap

---- Real-time Memory Report at c_bands before calling an iterative solver
           518 MiB given to the printing process from OS
             0 MiB allocation reported by mallinfo(arena+hblkhd)
         91690 MiB available memory on the node where the printing process lives
------------------
     ethr =  9.76E-11,  avg # of iterations =  3.0

     negative rho (up, down):  3.481E-02 0.000E+00

     total cpu time spent up to now is    12251.7 secs

     total energy              =  -29712.00411508 Ry
     estimated scf accuracy    <       0.00000216 Ry

     iteration # 21     ecut=    30.00 Ry     beta= 0.70
     Davidson diagonalization with overlap

---- Real-time Memory Report at c_bands before calling an iterative solver
           518 MiB given to the printing process from OS
             0 MiB allocation reported by mallinfo(arena+hblkhd)
         90590 MiB available memory on the node where the printing process lives
------------------
     ethr =  9.76E-11,  avg # of iterations =  2.0

     negative rho (up, down):  3.477E-02 0.000E+00

     total cpu time spent up to now is    12733.0 secs

     End of self-consistent calculation

          k = 0.0000 0.0000 0.0000 ( 42115 PWs)   bands (ev):

  -123.0439-123.0416-123.0413-123.0408-123.0405-123.0401-123.0397-123.0394
  -123.0384-123.0374-123.0371-123.0369-123.0365-123.0362-123.0360-123.0354
  -123.0080-123.0028-123.0008-122.9999-122.9997-122.9950-122.9938-122.9935
  -122.9923-122.9911-122.9909-122.9907-122.9895-122.9890-122.9888-122.9882
  -122.8445-122.8411-122.8384-122.8381-122.8379-122.8376-122.8375-122.8373
  -122.8370-122.8369-122.8366-122.8362-122.8361-122.8359-122.8354-122.8351
  -122.8342-122.8333-122.8203-122.8187-122.8169-122.8151-122.8132-122.8122
  -122.8112-122.8111-122.8109-122.8096-122.8089-122.8085-122.8079-122.8071
   -77.1518 -77.1514 -77.1514 -77.1428 -77.1427 -77.1417 -77.1417 -77.1415
   -77.1413 -77.1299 -77.1287 -77.1280 -77.1277 -77.1274 -77.1268 -77.1265
   -77.1265 -77.1246 -77.1244 -77.1240 -77.1235 -77.1235 -77.1231 -77.1228
   -77.1223 -77.1201 -77.1200 -77.1197 -77.1189 -77.1185 -77.1184 -77.1168
   -77.1168 -77.1166 -77.1161 -77.1155 -77.1153 -77.1152 -77.1137 -77.1131
   -77.1115 -77.1114 -77.1109 -77.1106 -77.1105 -77.1104 -77.1103 -77.1100
   -77.1092 -77.1090 -77.1078 -77.1000 -77.0991 -77.0972 -77.0968 -77.0961
   -77.0958 -77.0939 -77.0889 -77.0867 -77.0860 -77.0858 -77.0809 -77.0804
   -77.0801 -77.0798 -77.0795 -77.0782 -77.0778 -77.0775 -77.0771 -77.0770
   -77.0760 -77.0757 -77.0753 -77.0752 -77.0750 -77.0747 -77.0746 -77.0738
   -77.0733 -77.0715 -77.0712 -77.0708 -77.0692 -77.0687 -77.0687 -77.0674
   -77.0655 -77.0650 -77.0646 -77.0642 -77.0634 -77.0631 -77.0625 -77.0618
   -76.9470 -76.9468 -76.9468 -76.9394 -76.9378 -76.9376 -76.9375 -76.9370
   -76.9368 -76.9368 -76.9365 -76.9338 -76.9333 -76.9324 -76.9324 -76.9320
   -76.9318 -76.9316 -76.9311 -76.9310 -76.9308 -76.9304 -76.9302 -76.9300
   -76.9295 -76.9293 -76.9291 -76.9280 -76.9274 -76.9269 -76.9195 -76.9189
   -76.9174 -76.9154 -76.9150 -76.9146 -76.9145 -76.9144 -76.9142 -76.9140
   -76.9137 -76.9132 -76.9129 -76.9127 -76.9125 -76.9114 -76.9111 -76.9108
   -76.9107 -76.9107 -76.9104 -76.9099 -76.9094 -76.9093 -76.9081 -76.9072
   -76.9069 -76.9066 -76.9065 -76.9064 -76.9062 -76.9061 -76.9058 -76.9057
   -76.9056 -76.9055 -76.9051 -76.9050 -76.9044 -76.9041 -76.9036 -76.9031
   -76.9028 -76.9018 -76.9002 -76.8985 -76.8970 -76.8905 -76.8902 -76.8898
   -76.8889 -76.8887 -76.8876 -76.8870 -76.8856 -76.8852 -76.8837 -76.8834
   -76.8821 -76.8814 -76.8806 -76.8805 -76.8802 -76.8792 -76.8786 -76.8781
   -15.5491 -14.1577 -13.3265 -10.9585 -10.8550  -7.9190  -7.6495  -6.4923
    -5.7490  -5.7045  -5.1533  -5.1255  -5.0102  -4.9326  -4.9158  -4.9149
    -4.9114  -4.9102  -4.9078  -4.9076  -4.7619  -4.7619  -4.7619  -4.7090
    -4.7086  -4.7082  -4.5868  -4.5841  -4.5816  -4.5807  -4.5800  -4.5798
    -4.5740  -4.5737  -4.5735  -4.5015  -4.5004  -4.4993  -4.4300  -4.4296
    -4.4291  -4.4285  -4.4284  -4.4283  -4.4048  -4.4047  -4.4046  -4.3599
    -4.3572  -4.3562  -4.3551  -4.3546  -4.3534  -4.3530  -4.3525  -4.3522
    -4.3511  -4.3502  -4.3500  -4.3363  -4.3359  -4.3357  -4.3066  -4.3065
    -4.3055  -4.3054  -4.3048  -4.3046  -4.2625  -4.2623  -4.2614  -4.2607
    -4.2599  -4.2595  -4.2021  -4.1740  -4.1713  -4.1691  -4.1687  -4.1681
    -4.1678  -4.1675  -4.1673  -4.1671  -4.1669  -4.1659  -4.1658  -4.1242
    -4.1236  -4.1230  -4.1223  -4.1213  -4.1213  -4.1192  -4.1172  -4.1162
    -4.1138  -4.1132  -4.1127  -4.1107  -4.1096  -4.1095  -4.0744  -4.0728
    -4.0715  -4.0695  -4.0689  -4.0687  -4.0352  -4.0351  -4.0344  -4.0315
    -4.0302  -4.0292  -3.9990  -3.9989  -3.9860  -3.9855  -3.9851  -3.9833
    -3.9829  -3.9827  -3.9811  -3.9802  -3.9795  -3.9752  -3.9740  -3.9733
    -3.9724  -3.9722  -3.9721  -3.9602  -3.9482  -3.9480  -3.9167  -3.9162
    -3.9157  -3.9142  -3.9137  -3.9134  -3.8987  -3.8977  -3.8962  -3.8958
    -3.8950  -3.8949  -3.8608  -3.8599  -3.8590  -3.8585  -3.8583  -3.8580
    -3.8274  -3.8260  -3.8254  -3.8252  -3.8252  -3.8248  -3.7904  -3.7903
    -3.7630  -3.7630  -3.7590  -3.7587  -3.7585  -3.7575  -3.7573  -3.7571
    -3.7230  -3.7227  -3.7226  -3.7120  -3.7118  -3.7116  -3.7092  -3.7088
    -3.7085  -3.6887  -3.6879  -3.6873  -3.6860  -3.6848  -3.6844  -3.6594
    -3.6572  -3.6567  -3.6559  -3.6556  -3.6538  -3.6537  -3.6536  -3.6534
    -3.6534  -3.6532  -3.6531  -3.6406  -3.6401  -3.6399  -3.6386  -3.6384
    -3.6381  -3.6374  -3.6370  -3.6369  -3.6310  -3.6304  -3.6292  -3.6285
    -3.6283  -3.6279  -3.6262  -3.6251  -3.6247  -3.6244  -3.6242  -3.6224
    -3.6052  -3.6051  -3.6046  -3.6043  -3.6036  -3.6035  -3.5661  -3.5658
    -3.5649  -3.5545  -3.5529  -3.5527  -3.5526  -3.5518  -3.5506  -3.5482
    -3.5481  -3.5478  -3.5459  -3.5451  -3.5444  -3.5100  -3.5099  -3.4901
    -3.4896  -3.4890  -3.4885  -3.4881  -3.4876  -3.4863  -3.4852  -3.4844
    -3.4820  -3.4814  -3.4803  -3.4790  -3.4779  -3.4778  -3.4768  -3.4767
    -3.4764  -3.4698  -3.4697  -3.4694  -3.4684  -3.4680  -3.4677  -3.4117
    -3.4114  -3.4047  -3.4039  -3.4035  -3.3734  -3.3733  -3.3732  -3.3727
    -3.3726  -3.3725  -3.3683  -3.3682  -3.3675  -3.3561  -3.3549  -3.3546
    -3.3523  -3.3512  -3.3505  -3.3501  -3.3497  -3.3490  -3.3302  -3.3302
    -3.3299  -3.3262  -3.3252  -3.3240  -3.3239  -3.3230  -3.3228  -3.2972
    -3.2969  -3.2968  -3.2957  -3.2956  -3.2953  -3.2807  -3.2804  -3.2803
    -3.2783  -3.2775  -3.2771  -3.2722  -3.2712  -3.2701  -3.2520  -3.2518
    -3.2352  -3.2348  -3.1970  -3.1968  -3.1968  -3.1964  -3.1963  -3.1963
    -3.1875  -3.1858  -3.1856  -3.1848  -3.1846  -3.1839  -3.1654  -3.1653
    -3.1653  -3.1212  -3.1209  -3.1206  -3.0990  -3.0370  -3.0198  -2.9601
    -2.9600  -2.9600  -2.9396  -2.9382  -2.9368  -2.9075  -2.9036  -2.9019
    -2.8991  -2.8972  -2.8962  -2.6169  -2.1052  -1.8125  -1.4949  -1.4924
    -1.4909  -1.4894  -1.4881  -1.4862  -1.0313  -0.9068  -0.7407  -0.1081
    -0.0273  -0.0259  -0.0247  -0.0243  -0.0234  -0.0225   0.3026   0.3942
     0.4022   0.4048   0.4057   0.4078   0.4081   0.5372   0.8135   0.8153
     0.8193   0.8200   0.8210   0.8219   1.1460   1.2493   1.2756   1.2761
     1.2761   1.8351   1.8376   1.8388   2.1862   2.1877   2.1896   2.2353
     2.2366   2.2374   2.2381   2.2382   2.2383   2.4317   2.4330   2.4357
     2.5994   3.4256   3.4308   3.4431   3.4487   3.4499   3.4533   3.9294
     3.9328   3.9333   3.9347   3.9367   3.9382   4.0950   4.5199   4.5259
     4.5267   4.8063   4.8068   4.8094   5.6367   5.6403   5.6406   5.9084
     5.9318   5.9473   5.9605   5.9707   5.9854   6.2018   6.2234   6.3934
     6.5465   6.5510   6.5525   6.9000   7.0924   7.2799   7.3013   7.3035
     7.3059   7.3089   7.3143   7.5321   7.5328   7.5352   7.5362   7.5381
     7.5382   7.6857   7.6966   7.6971   7.6997   7.7003   7.7018   7.7026
     7.8270   7.8701   7.9750   8.0381   8.1157   8.1603   8.4216   8.4254
     8.4272   8.4275   8.4309   8.4317   8.4582   8.4711   8.4805   8.4826
     8.5011   8.5037   8.5050   8.5070   8.5094   8.5099   8.5678   8.6295
     8.6328   8.7279   8.7432   8.7975   8.8127   8.8218   8.8826   8.9602
     9.0014   9.1673   9.2447   9.4029   9.4238   9.5044   9.5130   9.5259
     9.5303   9.5648   9.9206   9.9315   9.9424   9.9499   9.9520   9.9533
     9.9875  10.0012  10.0033  10.0066  10.0089  10.0120  10.0465  10.0882
    10.1044  10.1304  10.2981  10.3084  10.3924  10.4151  10.4377  10.4971
    10.5529  10.6936  10.6980  10.7162  10.8292  10.9777  11.0228  11.1691
    11.2092  11.2273  11.2477  11.3492  11.3580  11.3682  11.3777  11.3785
    11.3830  11.3931

     occupation numbers 
     1.0000   1.0000   1.0000   1.0000   1.0000   1.0000   1.0000   1.0000
     1.0000   1.0000   1.0000   1.0000   1.0000   1.0000   1.0000   1.0000
     1.0000   1.0000   1.0000   1.0000   1.0000   1.0000   1.0000   1.0000
     1.0000   1.0000   1.0000   1.0000   1.0000   1.0000   1.0000   1.0000
     1.0000   1.0000   1.0000   1.0000   1.0000   1.0000   1.0000   1.0000
     1.0000   1.0000   1.0000   1.0000   1.0000   1.0000   1.0000   1.0000
     1.0000   1.0000   1.0000   1.0000   1.0000   1.0000   1.0000   1.0000
     1.0000   1.0000   1.0000   1.0000   1.0000   1.0000   1.0000   1.0000
     1.0000   1.0000   1.0000   1.0000   1.0000   1.0000   1.0000   1.0000
     1.0000   1.0000   1.0000   1.0000   1.0000   1.0000   1.0000   1.0000
     1.0000   1.0000   1.0000   1.0000   1.0000   1.0000   1.0000   1.0000
     1.0000   1.0000   1.0000   1.0000   1.0000   1.0000   1.0000   1.0000
     1.0000   1.0000   1.0000   1.0000   1.0000   1.0000   1.0000   1.0000
     1.0000   1.0000   1.0000   1.0000   1.0000   1.0000   1.0000   1.0000
     1.0000   1.0000   1.0000   1.0000   1.0000   1.0000   1.0000   1.0000
     1.0000   1.0000   1.0000   1.0000   1.0000   1.0000   1.0000   1.0000
     1.0000   1.0000   1.0000   1.0000   1.0000   1.0000   1.0000   1.0000
     1.0000   1.0000   1.0000   1.0000   1.0000   1.0000   1.0000   1.0000
     1.0000   1.0000   1.0000   1.0000   1.0000   1.0000   1.0000   1.0000
     1.0000   1.0000   1.0000   1.0000   1.0000   1.0000   1.0000   1.0000
     1.0000   1.0000   1.0000   1.0000   1.0000   1.0000   1.0000   1.0000
     1.0000   1.0000   1.0000   1.0000   1.0000   1.0000   1.0000   1.0000
     1.0000   1.0000   1.0000   1.0000   1.0000   1.0000   1.0000   1.0000
     1.0000   1.0000   1.0000   1.0000   1.0000   1.0000   1.0000   1.0000
     1.0000   1.0000   1.0000   1.0000   1.0000   1.0000   1.0000   1.0000
     1.0000   1.0000   1.0000   1.0000   1.0000   1.0000   1.0000   1.0000
     1.0000   1.0000   1.0000   1.0000   1.0000   1.0000   1.0000   1.0000
     1.0000   1.0000   1.0000   1.0000   1.0000   1.0000   1.0000   1.0000
     1.0000   1.0000   1.0000   1.0000   1.0000   1.0000   1.0000   1.0000
     1.0000   1.0000   1.0000   1.0000   1.0000   1.0000   1.0000   1.0000
     1.0000   1.0000   1.0000   1.0000   1.0000   1.0000   1.0000   1.0000
     1.0000   1.0000   1.0000   1.0000   1.0000   1.0000   1.0000   1.0000
     1.0000   1.0000   1.0000   1.0000   1.0000   1.0000   1.0000   1.0000
     1.0000   1.0000   1.0000   1.0000   1.0000   1.0000   1.0000   1.0000
     1.0000   1.0000   1.0000   1.0000   1.0000   1.0000   1.0000   1.0000
     1.0000   1.0000   1.0000   1.0000   1.0000   1.0000   1.0000   1.0000
     1.0000   1.0000   1.0000   1.0000   1.0000   1.0000   1.0000   1.0000
     1.0000   1.0000   1.0000   1.0000   1.0000   1.0000   1.0000   1.0000
     1.0000   1.0000   1.0000   1.0000   1.0000   1.0000   1.0000   1.0000
     1.0000   1.0000   1.0000   1.0000   1.0000   1.0000   1.0000   1.0000
     1.0000   1.0000   1.0000   1.0000   1.0000   1.0000   1.0000   1.0000
     1.0000   1.0000   1.0000   1.0000   1.0000   1.0000   1.0000   1.0000
     1.0000   1.0000   1.0000   1.0000   1.0000   1.0000   1.0000   1.0000
     1.0000   1.0000   1.0000   1.0000   1.0000   1.0000   1.0000   1.0000
     1.0000   1.0000   1.0000   1.0000   1.0000   1.0000   1.0000   1.0000
     1.0000   1.0000   1.0000   1.0000   1.0000   1.0000   1.0000   1.0000
     1.0000   1.0000   1.0000   1.0000   1.0000   1.0000   1.0000   1.0000
     1.0000   1.0000   1.0000   1.0000   1.0000   1.0000   1.0000   1.0000
     1.0000   1.0000   1.0000   1.0000   1.0000   1.0000   1.0000   1.0000
     1.0000   1.0000   1.0000   1.0000   1.0000   1.0000   1.0000   1.0000
     1.0000   1.0000   1.0000   1.0000   1.0000   1.0000   1.0000   1.0000
     1.0000   1.0000   1.0000   1.0000   1.0000   1.0000   1.0000   1.0000
     1.0000   1.0000   1.0000   1.0000   1.0000   1.0000   1.0000   1.0000
     1.0000   1.0000   1.0000   1.0000   1.0000   1.0000   1.0000   1.0000
     1.0000   1.0000   1.0000   1.0000   1.0000   1.0000   1.0000   1.0000
     1.0000   1.0000   1.0000   1.0000   1.0000   1.0000   1.0000   1.0000
     1.0000   1.0000   1.0000   1.0000   1.0000   1.0000   1.0000   1.0000
     1.0000   1.0000   1.0000   1.0000   1.0000   1.0000   1.0000   1.0000
     1.0000   1.0000   1.0000   1.0000   1.0000   1.0000   1.0000   1.0000
     1.0000   1.0000   1.0000   1.0000   1.0000   1.0000   1.0000   1.0000
     1.0000   1.0000   1.0000   1.0000   1.0000   1.0000   1.0000   1.0000
     1.0000   1.0000   1.0000   1.0000   1.0000   1.0000   1.0000   1.0000
     1.0000   1.0000   1.0000   1.0000   1.0000   1.0000   1.0000   1.0000
     1.0000   1.0000   1.0000   1.0000   1.0000   1.0000   1.0000   1.0000
     1.0000   1.0000   1.0000   1.0000   1.0000   1.0000   1.0000   1.0000
     1.0000   1.0000   1.0000   1.0000   1.0000   1.0000   1.0000   1.0000
     1.0000   1.0000   1.0000   1.0000   1.0000   1.0000   1.0000   1.0000
     1.0000   1.0000   1.0000   1.0000   1.0000   1.0000   1.0000   1.0000
     1.0000   1.0000   1.0000   1.0000   1.0000   1.0000   1.0000   1.0000
     1.0000   1.0000   1.0000   1.0000   1.0000   1.0000   1.0000   1.0000
     1.0000   1.0000   1.0000   1.0000   1.0000   1.0000   1.0000   1.0000
     1.0000   1.0000   1.0000   1.0000   1.0000   1.0000   1.0000   1.0000
     1.0000   1.0000   1.0000   1.0000   1.0000   1.0000   1.0000   1.0000
     1.0000   1.0000   1.0000   1.0000   1.0000   1.0000   1.0000   1.0000
     1.0000   1.0000   1.0000   1.0000   1.0000   1.0000   1.0000   1.0000
     1.0000   1.0000   1.0000   1.0000   1.0000   1.0000   1.0000   1.0000
     1.0000   1.0000   1.0000   1.0000   1.0000   1.0000   1.0000   1.0000
     1.0000   1.0000   1.0000   1.0000   1.0000   1.0000   1.0000   1.0000
     1.0000   1.0000   1.0000   1.0000   1.0000   1.0000   1.0000   1.0000
     1.0000   1.0000   1.0000   1.0000   1.0000   1.0000   1.0000   1.0000
     1.0000   1.0000   1.0000   1.0000   1.0000   1.0000   1.0000   1.0000
     1.0000   1.0000   1.0000   1.0000   1.0000   1.0000   1.0000   1.0000
     1.0000   1.0338   1.0353   1.0391   1.0409   1.0413   1.0424   0.5734
     0.5641   0.5625   0.5587   0.5531   0.5491   0.1884   0.0005   0.0004
     0.0004   0.0000   0.0000   0.0000   0.0000   0.0000   0.0000   0.0000
     0.0000   0.0000   0.0000   0.0000   0.0000   0.0000   0.0000   0.0000
     0.0000   0.0000   0.0000   0.0000   0.0000   0.0000   0.0000   0.0000
     0.0000   0.0000   0.0000   0.0000   0.0000   0.0000   0.0000   0.0000
     0.0000   0.0000   0.0000   0.0000   0.0000   0.0000   0.0000   0.0000
     0.0000   0.0000   0.0000   0.0000   0.0000   0.0000   0.0000   0.0000
     0.0000   0.0000   0.0000   0.0000   0.0000   0.0000   0.0000   0.0000
     0.0000   0.0000   0.0000   0.0000   0.0000   0.0000   0.0000   0.0000
     0.0000   0.0000   0.0000   0.0000   0.0000   0.0000   0.0000   0.0000
     0.0000   0.0000   0.0000   0.0000   0.0000   0.0000   0.0000   0.0000
     0.0000   0.0000   0.0000   0.0000   0.0000   0.0000   0.0000   0.0000
     0.0000   0.0000   0.0000   0.0000   0.0000   0.0000   0.0000   0.0000
     0.0000   0.0000   0.0000   0.0000   0.0000   0.0000   0.0000   0.0000
     0.0000   0.0000   0.0000   0.0000   0.0000   0.0000   0.0000   0.0000
     0.0000   0.0000   0.0000   0.0000   0.0000   0.0000   0.0000   0.0000
     0.0000   0.0000

          k = 0.0000 0.3849 0.0000 ( 42150 PWs)   bands (ev):

  -123.0429-123.0419-123.0414-123.0410-123.0407-123.0403-123.0400-123.0397
  -123.0382-123.0377-123.0373-123.0371-123.0367-123.0366-123.0363-123.0358
  -123.0081-123.0029-123.0007-123.0002-123.0000-122.9949-122.9940-122.9938
  -122.9921-122.9915-122.9911-122.9909-122.9896-122.9893-122.9891-122.9885
  -122.8446-122.8399-122.8387-122.8383-122.8381-122.8378-122.8377-122.8375
  -122.8373-122.8371-122.8368-122.8365-122.8364-122.8361-122.8357-122.8354
  -122.8346-122.8336-122.8203-122.8188-122.8171-122.8150-122.8134-122.8120
  -122.8116-122.8113-122.8112-122.8097-122.8092-122.8086-122.8083-122.8074
   -77.1505 -77.1503 -77.1471 -77.1440 -77.1440 -77.1431 -77.1423 -77.1365
   -77.1363 -77.1316 -77.1300 -77.1295 -77.1291 -77.1281 -77.1280 -77.1278
   -77.1275 -77.1272 -77.1265 -77.1260 -77.1259 -77.1258 -77.1250 -77.1248
   -77.1243 -77.1236 -77.1230 -77.1226 -77.1224 -77.1222 -77.1219 -77.1216
   -77.1189 -77.1181 -77.1172 -77.1160 -77.1147 -77.1143 -77.1122 -77.1110
   -77.1106 -77.1095 -77.1093 -77.1091 -77.1088 -77.1087 -77.1077 -77.1072
   -77.1070 -77.1063 -77.1050 -77.1007 -77.0997 -77.0988 -77.0963 -77.0942
   -77.0919 -77.0911 -77.0893 -77.0876 -77.0872 -77.0862 -77.0859 -77.0849
   -77.0832 -77.0815 -77.0814 -77.0807 -77.0805 -77.0801 -77.0798 -77.0787
   -77.0780 -77.0780 -77.0774 -77.0768 -77.0759 -77.0753 -77.0753 -77.0750
   -77.0741 -77.0740 -77.0729 -77.0709 -77.0696 -77.0694 -77.0682 -77.0662
   -77.0652 -77.0639 -77.0635 -77.0629 -77.0622 -77.0606 -77.0599 -77.0595
   -76.9457 -76.9456 -76.9423 -76.9399 -76.9392 -76.9390 -76.9382 -76.9380
   -76.9363 -76.9343 -76.9340 -76.9337 -76.9330 -76.9328 -76.9322 -76.9319
   -76.9317 -76.9315 -76.9314 -76.9310 -76.9306 -76.9305 -76.9302 -76.9300
   -76.9296 -76.9290 -76.9288 -76.9277 -76.9269 -76.9268 -76.9267 -76.9233
   -76.9232 -76.9219 -76.9211 -76.9209 -76.9185 -76.9173 -76.9170 -76.9166
   -76.9154 -76.9143 -76.9135 -76.9131 -76.9130 -76.9126 -76.9119 -76.9115
   -76.9108 -76.9103 -76.9094 -76.9091 -76.9085 -76.9083 -76.9075 -76.9069
   -76.9067 -76.9063 -76.9061 -76.9060 -76.9057 -76.9055 -76.9049 -76.9048
   -76.9046 -76.9042 -76.9040 -76.9035 -76.9034 -76.9031 -76.9029 -76.9026
   -76.9021 -76.9019 -76.9017 -76.9015 -76.9005 -76.8980 -76.8971 -76.8951
   -76.8924 -76.8913 -76.8897 -76.8881 -76.8863 -76.8855 -76.8844 -76.8827
   -76.8817 -76.8803 -76.8797 -76.8792 -76.8787 -76.8771 -76.8764 -76.8753
   -15.5492 -14.1577 -13.3266 -10.9585 -10.8551  -7.9189  -7.6498  -6.2801
    -5.7490  -5.6740  -5.5074  -5.1540  -5.1399  -5.1330  -5.1201  -4.9819
    -4.8749  -4.8189  -4.7319  -4.6938  -4.6937  -4.6849  -4.6762  -4.6377
    -4.6374  -4.6154  -4.6149  -4.6077  -4.6052  -4.6044  -4.5867  -4.5413
    -4.5330  -4.5221  -4.5220  -4.4951  -4.4944  -4.4920  -4.4914  -4.4689
    -4.4617  -4.4454  -4.4450  -4.4307  -4.4305  -4.4168  -4.4162  -4.4056
    -4.4055  -4.3976  -4.3935  -4.3934  -4.3747  -4.3724  -4.3719  -4.3703
    -4.3700  -4.3582  -4.3581  -4.3339  -4.3332  -4.3278  -4.3250  -4.3227
    -4.3224  -4.3076  -4.3044  -4.3043  -4.2946  -4.2940  -4.2906  -4.2897
    -4.2889  -4.2579  -4.2578  -4.2536  -4.2523  -4.2329  -4.2322  -4.2288
    -4.2277  -4.2246  -4.2239  -4.2227  -4.1795  -4.1787  -4.1743  -4.1739
    -4.1731  -4.1531  -4.1510  -4.1490  -4.1486  -4.1341  -4.1339  -4.1279
    -4.1074  -4.1066  -4.1054  -4.1034  -4.1004  -4.0995  -4.0959  -4.0953
    -4.0938  -4.0720  -4.0713  -4.0673  -4.0670  -4.0650  -4.0597  -4.0574
    -4.0545  -4.0537  -4.0525  -4.0427  -4.0419  -4.0324  -4.0308  -4.0298
    -4.0194  -3.9902  -3.9866  -3.9841  -3.9782  -3.9663  -3.9651  -3.9625
    -3.9615  -3.9612  -3.9527  -3.9518  -3.9504  -3.9466  -3.9460  -3.9439
    -3.9247  -3.9245  -3.9211  -3.9207  -3.9020  -3.9013  -3.8949  -3.8835
    -3.8741  -3.8729  -3.8713  -3.8649  -3.8643  -3.8479  -3.8464  -3.8389
    -3.8370  -3.8367  -3.8355  -3.8235  -3.8120  -3.8117  -3.8116  -3.7985
    -3.7967  -3.7958  -3.7885  -3.7834  -3.7819  -3.7805  -3.7795  -3.7783
    -3.7544  -3.7541  -3.7498  -3.7472  -3.7462  -3.7375  -3.7295  -3.7291
    -3.7251  -3.7111  -3.7090  -3.6982  -3.6978  -3.6781  -3.6771  -3.6764
    -3.6751  -3.6747  -3.6688  -3.6674  -3.6661  -3.6641  -3.6639  -3.6503
    -3.6498  -3.6448  -3.6444  -3.6392  -3.6387  -3.6314  -3.6304  -3.6245
    -3.6243  -3.6172  -3.6166  -3.6140  -3.6097  -3.6085  -3.6069  -3.6060
    -3.5947  -3.5925  -3.5922  -3.5797  -3.5782  -3.5730  -3.5724  -3.5693
    -3.5629  -3.5622  -3.5603  -3.5588  -3.5577  -3.5555  -3.5538  -3.5523
    -3.5489  -3.5337  -3.5328  -3.5323  -3.5319  -3.5309  -3.5305  -3.5273
    -3.5266  -3.5260  -3.5200  -3.5017  -3.4994  -3.4987  -3.4937  -3.4926
    -3.4786  -3.4775  -3.4658  -3.4656  -3.4443  -3.4420  -3.4414  -3.4408
    -3.4392  -3.4387  -3.4366  -3.4362  -3.4303  -3.4296  -3.4289  -3.4283
    -3.4219  -3.4217  -3.4182  -3.4121  -3.4117  -3.4074  -3.4072  -3.4059
    -3.4048  -3.4009  -3.3994  -3.3988  -3.3983  -3.3979  -3.3889  -3.3786
    -3.3784  -3.3760  -3.3760  -3.3619  -3.3566  -3.3562  -3.3486  -3.3481
    -3.3458  -3.3443  -3.3433  -3.3259  -3.3184  -3.3168  -3.3152  -3.3147
    -3.3114  -3.3105  -3.3098  -3.3091  -3.3089  -3.3030  -3.3026  -3.3023
    -3.2927  -3.2920  -3.2902  -3.2871  -3.2839  -3.2834  -3.2811  -3.2808
    -3.2803  -3.2801  -3.2729  -3.2620  -3.2613  -3.2572  -3.2569  -3.2567
    -3.2554  -3.2382  -3.2382  -3.2376  -3.2202  -3.2031  -3.2030  -3.2000
    -3.2000  -3.1796  -3.1796  -3.1779  -3.1770  -3.1756  -3.1684  -3.1627
    -3.1622  -3.1471  -3.0994  -3.0713  -3.0682  -3.0544  -3.0544  -3.0333
    -3.0331  -3.0209  -3.0166  -2.9947  -2.8669  -2.8660  -2.7985  -2.6175
    -2.5008  -2.3178  -2.1775  -2.1737  -2.1035  -1.8379  -1.8229  -1.7937
    -1.6924  -1.6906  -1.6620  -0.9169  -0.9004  -0.8956  -0.8735  -0.7462
    -0.7211  -0.7159  -0.6583  -0.4158  -0.1656  -0.1082   0.0713   0.0731
     0.1277   0.1277   0.1818   0.3025   0.5143   0.5339   0.5469   0.6252
     0.6254   0.9678   0.9680   1.1303   1.1315   1.2486   1.4245   1.4270
     1.4318   1.5846   1.6581   2.0678   2.0703   2.2243   2.3082   2.3100
     2.3616   2.3637   2.5883   2.6152   2.6280   2.9127   2.9176   2.9687
     2.9766   3.0429   3.0441   3.1027   3.9119   3.9129   4.2096   4.2113
     4.3038   4.3524   4.3570   4.5083   4.5112   4.7459   4.7485   4.9328
     4.9996   5.1083   5.1583   5.1591   5.5485   5.5526   5.5918   5.5928
     5.6594   5.6659   5.7459   5.7488   5.7513   5.8603   5.8606   6.1652
     6.2176   6.2213   6.3075   6.3096   6.3689   6.4192   6.6211   6.7553
     6.7701   6.9859   7.0122   7.0144   7.1493   7.1755   7.1772   7.2719
     7.2896   7.2920   7.3127   7.3564   7.5113   7.5202   7.5631   7.6374
     7.7710   7.8597   7.9083   7.9215   7.9293   7.9364   7.9470   8.0091
     8.0889   8.0921   8.1042   8.1080   8.2147   8.3317   8.4073   8.4806
     8.4932   8.4957   8.5383   8.6036   8.7222   8.7326   8.7717   8.7898
     8.8616   8.9976   9.1214   9.1324   9.1562   9.1812   9.2226   9.2399
     9.3297   9.3545   9.3863   9.4666   9.5214   9.5721   9.6023   9.6238
     9.6286   9.6578   9.7016   9.7389   9.7526   9.8525   9.9440   9.9795
    10.0429  10.0719  10.0864  10.1192  10.2098  10.2476  10.2591  10.3326
    10.3623  10.3870  10.4044  10.4489  10.5660  10.6125  10.6540  10.6784
    10.7550  10.8351  10.8443  10.8465  10.9440  10.9986  11.0397  11.0619
    11.0712  11.0932  11.0999  11.1080  11.1229  11.1444  11.1811  11.2393
    11.3697  11.4159

     occupation numbers 
     1.0000   1.0000   1.0000   1.0000   1.0000   1.0000   1.0000   1.0000
     1.0000   1.0000   1.0000   1.0000   1.0000   1.0000   1.0000   1.0000
     1.0000   1.0000   1.0000   1.0000   1.0000   1.0000   1.0000   1.0000
     1.0000   1.0000   1.0000   1.0000   1.0000   1.0000   1.0000   1.0000
     1.0000   1.0000   1.0000   1.0000   1.0000   1.0000   1.0000   1.0000
     1.0000   1.0000   1.0000   1.0000   1.0000   1.0000   1.0000   1.0000
     1.0000   1.0000   1.0000   1.0000   1.0000   1.0000   1.0000   1.0000
     1.0000   1.0000   1.0000   1.0000   1.0000   1.0000   1.0000   1.0000
     1.0000   1.0000   1.0000   1.0000   1.0000   1.0000   1.0000   1.0000
     1.0000   1.0000   1.0000   1.0000   1.0000   1.0000   1.0000   1.0000
     1.0000   1.0000   1.0000   1.0000   1.0000   1.0000   1.0000   1.0000
     1.0000   1.0000   1.0000   1.0000   1.0000   1.0000   1.0000   1.0000
     1.0000   1.0000   1.0000   1.0000   1.0000   1.0000   1.0000   1.0000
     1.0000   1.0000   1.0000   1.0000   1.0000   1.0000   1.0000   1.0000
     1.0000   1.0000   1.0000   1.0000   1.0000   1.0000   1.0000   1.0000
     1.0000   1.0000   1.0000   1.0000   1.0000   1.0000   1.0000   1.0000
     1.0000   1.0000   1.0000   1.0000   1.0000   1.0000   1.0000   1.0000
     1.0000   1.0000   1.0000   1.0000   1.0000   1.0000   1.0000   1.0000
     1.0000   1.0000   1.0000   1.0000   1.0000   1.0000   1.0000   1.0000
     1.0000   1.0000   1.0000   1.0000   1.0000   1.0000   1.0000   1.0000
     1.0000   1.0000   1.0000   1.0000   1.0000   1.0000   1.0000   1.0000
     1.0000   1.0000   1.0000   1.0000   1.0000   1.0000   1.0000   1.0000
     1.0000   1.0000   1.0000   1.0000   1.0000   1.0000   1.0000   1.0000
     1.0000   1.0000   1.0000   1.0000   1.0000   1.0000   1.0000   1.0000
     1.0000   1.0000   1.0000   1.0000   1.0000   1.0000   1.0000   1.0000
     1.0000   1.0000   1.0000   1.0000   1.0000   1.0000   1.0000   1.0000
     1.0000   1.0000   1.0000   1.0000   1.0000   1.0000   1.0000   1.0000
     1.0000   1.0000   1.0000   1.0000   1.0000   1.0000   1.0000   1.0000
     1.0000   1.0000   1.0000   1.0000   1.0000   1.0000   1.0000   1.0000
     1.0000   1.0000   1.0000   1.0000   1.0000   1.0000   1.0000   1.0000
     1.0000   1.0000   1.0000   1.0000   1.0000   1.0000   1.0000   1.0000
     1.0000   1.0000   1.0000   1.0000   1.0000   1.0000   1.0000   1.0000
     1.0000   1.0000   1.0000   1.0000   1.0000   1.0000   1.0000   1.0000
     1.0000   1.0000   1.0000   1.0000   1.0000   1.0000   1.0000   1.0000
     1.0000   1.0000   1.0000   1.0000   1.0000   1.0000   1.0000   1.0000
     1.0000   1.0000   1.0000   1.0000   1.0000   1.0000   1.0000   1.0000
     1.0000   1.0000   1.0000   1.0000   1.0000   1.0000   1.0000   1.0000
     1.0000   1.0000   1.0000   1.0000   1.0000   1.0000   1.0000   1.0000
     1.0000   1.0000   1.0000   1.0000   1.0000   1.0000   1.0000   1.0000
     1.0000   1.0000   1.0000   1.0000   1.0000   1.0000   1.0000   1.0000
     1.0000   1.0000   1.0000   1.0000   1.0000   1.0000   1.0000   1.0000
     1.0000   1.0000   1.0000   1.0000   1.0000   1.0000   1.0000   1.0000
     1.0000   1.0000   1.0000   1.0000   1.0000   1.0000   1.0000   1.0000
     1.0000   1.0000   1.0000   1.0000   1.0000   1.0000   1.0000   1.0000
     1.0000   1.0000   1.0000   1.0000   1.0000   1.0000   1.0000   1.0000
     1.0000   1.0000   1.0000   1.0000   1.0000   1.0000   1.0000   1.0000
     1.0000   1.0000   1.0000   1.0000   1.0000   1.0000   1.0000   1.0000
     1.0000   1.0000   1.0000   1.0000   1.0000   1.0000   1.0000   1.0000
     1.0000   1.0000   1.0000   1.0000   1.0000   1.0000   1.0000   1.0000
     1.0000   1.0000   1.0000   1.0000   1.0000   1.0000   1.0000   1.0000
     1.0000   1.0000   1.0000   1.0000   1.0000   1.0000   1.0000   1.0000
     1.0000   1.0000   1.0000   1.0000   1.0000   1.0000   1.0000   1.0000
     1.0000   1.0000   1.0000   1.0000   1.0000   1.0000   1.0000   1.0000
     1.0000   1.0000   1.0000   1.0000   1.0000   1.0000   1.0000   1.0000
     1.0000   1.0000   1.0000   1.0000   1.0000   1.0000   1.0000   1.0000
     1.0000   1.0000   1.0000   1.0000   1.0000   1.0000   1.0000   1.0000
     1.0000   1.0000   1.0000   1.0000   1.0000   1.0000   1.0000   1.0000
     1.0000   1.0000   1.0000   1.0000   1.0000   1.0000   1.0000   1.0000
     1.0000   1.0000   1.0000   1.0000   1.0000   1.0000   1.0000   1.0000
     1.0000   1.0000   1.0000   1.0000   1.0000   1.0000   1.0000   1.0000
     1.0000   1.0000   1.0000   1.0000   1.0000   1.0000   1.0000   1.0000
     1.0000   1.0000   1.0000   1.0000   1.0000   1.0000   1.0000   1.0000
     1.0000   1.0000   1.0000   1.0000   1.0000   1.0000   1.0000   1.0000
     1.0000   1.0000   1.0000   1.0000   1.0000   1.0000   1.0000   1.0000
     1.0000   1.0000   1.0000   1.0000   1.0000   1.0000   1.0000   1.0000
     1.0000   1.0000   1.0000   1.0000   1.0000   1.0000   1.0000   1.0000
     1.0000   1.0000   1.0000   1.0000   1.0000   1.0000   1.0000   1.0000
     1.0000   1.0000   1.0000   1.0000   1.0000   1.0000   1.0000   1.0000
     1.0000   1.0000   1.0000   1.0000   1.0000   1.0000   1.0000   1.0000
     1.0000   1.0000   1.0000   1.0000   1.0000   1.0000   1.0000   1.0000
     1.0000   1.0000   1.0000   1.0000   1.0000   1.0000   1.0000   1.0000
     1.0000   1.0000   1.0000   1.0000   1.0000   1.0000   1.0000   1.0000
     1.0000   1.0000   1.0000   1.0000   1.0000   1.0000   1.0000   1.0000
     1.0000   1.0000   1.0000   1.0000   1.0000   1.0000   1.0000   1.0000
     1.0000   1.0000   1.0000   1.0000   1.0000   1.0000   1.0000   1.0000
     1.0000   1.0000   1.0000   1.0000   1.0000   1.0000   1.0000   1.0000
     1.0000   1.0000   1.0000   1.0000   1.0000   1.0000   1.0000   1.0000
     1.0000   1.0000   1.0000   1.0000   1.0000   1.0000   1.0000   1.0000
     1.0000   1.0000   1.0000   1.0000   1.0000   1.0000   1.0000   1.0000
     1.0000   1.0000   1.0000   1.0000   1.0000   1.0000   1.0000   1.0000
     1.0000   1.0000   1.0000   1.0000   1.0000   1.0000   1.0000   1.0000
     1.0000   1.0000   1.0000   1.0000   1.0000   1.0000   1.0000   1.0000
     1.0000   1.0001   1.0001   1.0004   0.6218   0.6190   0.0592   0.0580
     0.0178   0.0087   0.0081   0.0006   0.0006   0.0000   0.0000   0.0000
     0.0000   0.0000   0.0000   0.0000   0.0000   0.0000   0.0000   0.0000
     0.0000   0.0000   0.0000   0.0000   0.0000   0.0000   0.0000   0.0000
     0.0000   0.0000   0.0000   0.0000   0.0000   0.0000   0.0000   0.0000
     0.0000   0.0000   0.0000   0.0000   0.0000   0.0000   0.0000   0.0000
     0.0000   0.0000   0.0000   0.0000   0.0000   0.0000   0.0000   0.0000
     0.0000   0.0000   0.0000   0.0000   0.0000   0.0000   0.0000   0.0000
     0.0000   0.0000   0.0000   0.0000   0.0000   0.0000   0.0000   0.0000
     0.0000   0.0000   0.0000   0.0000   0.0000   0.0000   0.0000   0.0000
     0.0000   0.0000   0.0000   0.0000   0.0000   0.0000   0.0000   0.0000
     0.0000   0.0000   0.0000   0.0000   0.0000   0.0000   0.0000   0.0000
     0.0000   0.0000   0.0000   0.0000   0.0000   0.0000   0.0000   0.0000
     0.0000   0.0000   0.0000   0.0000   0.0000   0.0000   0.0000   0.0000
     0.0000   0.0000   0.0000   0.0000   0.0000   0.0000   0.0000   0.0000
     0.0000   0.0000   0.0000   0.0000   0.0000   0.0000   0.0000   0.0000
     0.0000   0.0000   0.0000   0.0000   0.0000   0.0000   0.0000   0.0000
     0.0000   0.0000

          k = 0.3333 0.1925 0.0000 ( 42150 PWs)   bands (ev):

  -123.0429-123.0419-123.0413-123.0410-123.0407-123.0403-123.0400-123.0397
  -123.0382-123.0377-123.0373-123.0371-123.0367-123.0366-123.0363-123.0358
  -123.0081-123.0029-123.0007-123.0002-123.0000-122.9948-122.9941-122.9938
  -122.9921-122.9914-122.9911-122.9909-122.9896-122.9893-122.9891-122.9885
  -122.8446-122.8399-122.8387-122.8383-122.8381-122.8379-122.8377-122.8374
  -122.8373-122.8371-122.8368-122.8365-122.8364-122.8361-122.8357-122.8355
  -122.8346-122.8336-122.8203-122.8188-122.8171-122.8150-122.8134-122.8120
  -122.8116-122.8113-122.8112-122.8097-122.8092-122.8086-122.8083-122.8075
   -77.1505 -77.1503 -77.1472 -77.1440 -77.1440 -77.1430 -77.1423 -77.1365
   -77.1363 -77.1316 -77.1300 -77.1295 -77.1291 -77.1281 -77.1280 -77.1278
   -77.1275 -77.1270 -77.1265 -77.1261 -77.1259 -77.1258 -77.1251 -77.1247
   -77.1244 -77.1238 -77.1228 -77.1226 -77.1224 -77.1221 -77.1219 -77.1217
   -77.1189 -77.1181 -77.1172 -77.1160 -77.1147 -77.1142 -77.1122 -77.1110
   -77.1105 -77.1095 -77.1092 -77.1091 -77.1088 -77.1086 -77.1077 -77.1073
   -77.1070 -77.1063 -77.1051 -77.1009 -77.1002 -77.0986 -77.0964 -77.0942
   -77.0915 -77.0909 -77.0892 -77.0877 -77.0871 -77.0866 -77.0855 -77.0850
   -77.0829 -77.0817 -77.0815 -77.0807 -77.0803 -77.0800 -77.0799 -77.0789
   -77.0781 -77.0778 -77.0775 -77.0766 -77.0761 -77.0754 -77.0753 -77.0746
   -77.0744 -77.0743 -77.0727 -77.0711 -77.0697 -77.0695 -77.0683 -77.0661
   -77.0650 -77.0635 -77.0631 -77.0628 -77.0625 -77.0609 -77.0602 -77.0593
   -76.9457 -76.9456 -76.9423 -76.9399 -76.9392 -76.9391 -76.9381 -76.9379
   -76.9363 -76.9343 -76.9339 -76.9336 -76.9332 -76.9328 -76.9322 -76.9320
   -76.9315 -76.9315 -76.9313 -76.9310 -76.9309 -76.9304 -76.9303 -76.9300
   -76.9296 -76.9290 -76.9287 -76.9276 -76.9274 -76.9268 -76.9262 -76.9233
   -76.9233 -76.9219 -76.9211 -76.9209 -76.9188 -76.9174 -76.9169 -76.9165
   -76.9154 -76.9143 -76.9135 -76.9131 -76.9130 -76.9126 -76.9118 -76.9114
   -76.9107 -76.9102 -76.9094 -76.9091 -76.9085 -76.9085 -76.9075 -76.9069
   -76.9067 -76.9064 -76.9062 -76.9060 -76.9057 -76.9056 -76.9048 -76.9047
   -76.9043 -76.9042 -76.9039 -76.9035 -76.9033 -76.9031 -76.9028 -76.9025
   -76.9023 -76.9019 -76.9016 -76.9014 -76.9008 -76.8981 -76.8969 -76.8950
   -76.8930 -76.8914 -76.8894 -76.8880 -76.8860 -76.8856 -76.8844 -76.8827
   -76.8818 -76.8803 -76.8798 -76.8795 -76.8784 -76.8771 -76.8762 -76.8756
   -15.5492 -14.1577 -13.3266 -10.9585 -10.8551  -7.9189  -7.6498  -6.2801
    -5.7490  -5.6740  -5.5075  -5.1540  -5.1398  -5.1329  -5.1202  -4.9819
    -4.8749  -4.8189  -4.7319  -4.6938  -4.6938  -4.6848  -4.6763  -4.6377
    -4.6375  -4.6153  -4.6148  -4.6077  -4.6053  -4.6044  -4.5868  -4.5413
    -4.5331  -4.5221  -4.5220  -4.4951  -4.4946  -4.4920  -4.4914  -4.4690
    -4.4617  -4.4453  -4.4450  -4.4307  -4.4304  -4.4168  -4.4162  -4.4056
    -4.4055  -4.3977  -4.3936  -4.3934  -4.3747  -4.3723  -4.3720  -4.3702
    -4.3700  -4.3582  -4.3582  -4.3339  -4.3332  -4.3275  -4.3249  -4.3227
    -4.3226  -4.3076  -4.3044  -4.3042  -4.2945  -4.2940  -4.2907  -4.2897
    -4.2889  -4.2580  -4.2578  -4.2536  -4.2523  -4.2330  -4.2324  -4.2287
    -4.2277  -4.2247  -4.2237  -4.2227  -4.1795  -4.1787  -4.1742  -4.1738
    -4.1730  -4.1528  -4.1510  -4.1491  -4.1486  -4.1341  -4.1340  -4.1279
    -4.1075  -4.1065  -4.1054  -4.1033  -4.1004  -4.0994  -4.0960  -4.0953
    -4.0936  -4.0720  -4.0713  -4.0674  -4.0671  -4.0651  -4.0596  -4.0574
    -4.0544  -4.0537  -4.0525  -4.0427  -4.0421  -4.0325  -4.0308  -4.0298
    -4.0194  -3.9901  -3.9867  -3.9842  -3.9782  -3.9664  -3.9652  -3.9625
    -3.9620  -3.9613  -3.9527  -3.9519  -3.9498  -3.9465  -3.9459  -3.9439
    -3.9250  -3.9249  -3.9211  -3.9207  -3.9021  -3.9013  -3.8949  -3.8831
    -3.8740  -3.8728  -3.8714  -3.8650  -3.8643  -3.8479  -3.8467  -3.8390
    -3.8370  -3.8366  -3.8354  -3.8236  -3.8118  -3.8116  -3.8115  -3.7985
    -3.7968  -3.7958  -3.7884  -3.7834  -3.7819  -3.7804  -3.7794  -3.7782
    -3.7543  -3.7541  -3.7496  -3.7469  -3.7461  -3.7376  -3.7296  -3.7292
    -3.7255  -3.7111  -3.7090  -3.6984  -3.6980  -3.6781  -3.6773  -3.6764
    -3.6748  -3.6746  -3.6689  -3.6675  -3.6666  -3.6641  -3.6640  -3.6503
    -3.6498  -3.6446  -3.6443  -3.6392  -3.6387  -3.6314  -3.6304  -3.6245
    -3.6243  -3.6173  -3.6167  -3.6140  -3.6097  -3.6083  -3.6071  -3.6059
    -3.5945  -3.5924  -3.5922  -3.5798  -3.5784  -3.5729  -3.5722  -3.5693
    -3.5628  -3.5621  -3.5603  -3.5587  -3.5578  -3.5555  -3.5539  -3.5525
    -3.5491  -3.5336  -3.5327  -3.5321  -3.5319  -3.5310  -3.5303  -3.5273
    -3.5266  -3.5260  -3.5201  -3.5017  -3.4993  -3.4984  -3.4937  -3.4927
    -3.4784  -3.4773  -3.4659  -3.4657  -3.4443  -3.4422  -3.4417  -3.4409
    -3.4390  -3.4384  -3.4367  -3.4363  -3.4303  -3.4295  -3.4290  -3.4282
    -3.4218  -3.4217  -3.4184  -3.4121  -3.4118  -3.4073  -3.4071  -3.4059
    -3.4048  -3.4006  -3.3995  -3.3989  -3.3983  -3.3981  -3.3889  -3.3787
    -3.3783  -3.3762  -3.3760  -3.3618  -3.3566  -3.3563  -3.3487  -3.3482
    -3.3458  -3.3443  -3.3434  -3.3258  -3.3184  -3.3168  -3.3151  -3.3145
    -3.3114  -3.3105  -3.3097  -3.3093  -3.3089  -3.3031  -3.3026  -3.3023
    -3.2927  -3.2923  -3.2904  -3.2872  -3.2841  -3.2836  -3.2809  -3.2806
    -3.2803  -3.2802  -3.2728  -3.2619  -3.2612  -3.2571  -3.2569  -3.2566
    -3.2553  -3.2382  -3.2382  -3.2374  -3.2202  -3.2031  -3.2030  -3.2001
    -3.2000  -3.1797  -3.1796  -3.1779  -3.1769  -3.1754  -3.1684  -3.1629
    -3.1623  -3.1471  -3.0992  -3.0712  -3.0682  -3.0545  -3.0544  -3.0333
    -3.0330  -3.0210  -3.0166  -2.9947  -2.8669  -2.8660  -2.7985  -2.6175
    -2.5008  -2.3179  -2.1774  -2.1738  -2.1035  -1.8379  -1.8229  -1.7936
    -1.6924  -1.6906  -1.6620  -0.9168  -0.9003  -0.8959  -0.8734  -0.7462
    -0.7210  -0.7160  -0.6583  -0.4159  -0.1656  -0.1082   0.0713   0.0732
     0.1276   0.1277   0.1818   0.3025   0.5144   0.5340   0.5467   0.6252
     0.6253   0.9678   0.9681   1.1305   1.1313   1.2486   1.4246   1.4270
     1.4317   1.5849   1.6581   2.0679   2.0703   2.2243   2.3081   2.3101
     2.3616   2.3636   2.5895   2.6148   2.6263   2.9129   2.9174   2.9684
     2.9772   3.0429   3.0433   3.1031   3.9121   3.9125   4.2099   4.2115
     4.3037   4.3524   4.3572   4.5088   4.5116   4.7478   4.7485   4.9328
     4.9992   5.1072   5.1589   5.1591   5.5487   5.5524   5.5925   5.5928
     5.6594   5.6661   5.7444   5.7484   5.7502   5.8605   5.8611   6.1655
     6.2169   6.2211   6.3081   6.3096   6.3689   6.4192   6.6189   6.7551
     6.7703   6.9859   7.0120   7.0141   7.1494   7.1755   7.1770   7.2722
     7.2905   7.2926   7.3112   7.3595   7.5123   7.5191   7.5623   7.6366
     7.7700   7.8613   7.9055   7.9206   7.9294   7.9363   7.9474   8.0114
     8.0892   8.0926   8.1042   8.1074   8.2120   8.3322   8.4047   8.4843
     8.4933   8.4948   8.5384   8.6029   8.7239   8.7363   8.7764   8.7861
     8.8624   8.9988   9.1169   9.1282   9.1617   9.1815   9.2301   9.2386
     9.3227   9.3565   9.3888   9.4690   9.5211   9.5687   9.6118   9.6232
     9.6250   9.6569   9.7018   9.7389   9.7528   9.8517   9.9399   9.9753
    10.0420  10.0730  10.0889  10.1194  10.2097  10.2501  10.2578  10.3276
    10.3564  10.3872  10.3995  10.4542  10.5634  10.6119  10.6525  10.6756
    10.7641  10.8388  10.8442  10.8478  10.9421  11.0017  11.0259  11.0555
    11.0660  11.0943  11.1019  11.1125  11.1291  11.1407  11.1841  11.2419
    11.3671  11.4173

     occupation numbers 
     1.0000   1.0000   1.0000   1.0000   1.0000   1.0000   1.0000   1.0000
     1.0000   1.0000   1.0000   1.0000   1.0000   1.0000   1.0000   1.0000
     1.0000   1.0000   1.0000   1.0000   1.0000   1.0000   1.0000   1.0000
     1.0000   1.0000   1.0000   1.0000   1.0000   1.0000   1.0000   1.0000
     1.0000   1.0000   1.0000   1.0000   1.0000   1.0000   1.0000   1.0000
     1.0000   1.0000   1.0000   1.0000   1.0000   1.0000   1.0000   1.0000
     1.0000   1.0000   1.0000   1.0000   1.0000   1.0000   1.0000   1.0000
     1.0000   1.0000   1.0000   1.0000   1.0000   1.0000   1.0000   1.0000
     1.0000   1.0000   1.0000   1.0000   1.0000   1.0000   1.0000   1.0000
     1.0000   1.0000   1.0000   1.0000   1.0000   1.0000   1.0000   1.0000
     1.0000   1.0000   1.0000   1.0000   1.0000   1.0000   1.0000   1.0000
     1.0000   1.0000   1.0000   1.0000   1.0000   1.0000   1.0000   1.0000
     1.0000   1.0000   1.0000   1.0000   1.0000   1.0000   1.0000   1.0000
     1.0000   1.0000   1.0000   1.0000   1.0000   1.0000   1.0000   1.0000
     1.0000   1.0000   1.0000   1.0000   1.0000   1.0000   1.0000   1.0000
     1.0000   1.0000   1.0000   1.0000   1.0000   1.0000   1.0000   1.0000
     1.0000   1.0000   1.0000   1.0000   1.0000   1.0000   1.0000   1.0000
     1.0000   1.0000   1.0000   1.0000   1.0000   1.0000   1.0000   1.0000
     1.0000   1.0000   1.0000   1.0000   1.0000   1.0000   1.0000   1.0000
     1.0000   1.0000   1.0000   1.0000   1.0000   1.0000   1.0000   1.0000
     1.0000   1.0000   1.0000   1.0000   1.0000   1.0000   1.0000   1.0000
     1.0000   1.0000   1.0000   1.0000   1.0000   1.0000   1.0000   1.0000
     1.0000   1.0000   1.0000   1.0000   1.0000   1.0000   1.0000   1.0000
     1.0000   1.0000   1.0000   1.0000   1.0000   1.0000   1.0000   1.0000
     1.0000   1.0000   1.0000   1.0000   1.0000   1.0000   1.0000   1.0000
     1.0000   1.0000   1.0000   1.0000   1.0000   1.0000   1.0000   1.0000
     1.0000   1.0000   1.0000   1.0000   1.0000   1.0000   1.0000   1.0000
     1.0000   1.0000   1.0000   1.0000   1.0000   1.0000   1.0000   1.0000
     1.0000   1.0000   1.0000   1.0000   1.0000   1.0000   1.0000   1.0000
     1.0000   1.0000   1.0000   1.0000   1.0000   1.0000   1.0000   1.0000
     1.0000   1.0000   1.0000   1.0000   1.0000   1.0000   1.0000   1.0000
     1.0000   1.0000   1.0000   1.0000   1.0000   1.0000   1.0000   1.0000
     1.0000   1.0000   1.0000   1.0000   1.0000   1.0000   1.0000   1.0000
     1.0000   1.0000   1.0000   1.0000   1.0000   1.0000   1.0000   1.0000
     1.0000   1.0000   1.0000   1.0000   1.0000   1.0000   1.0000   1.0000
     1.0000   1.0000   1.0000   1.0000   1.0000   1.0000   1.0000   1.0000
     1.0000   1.0000   1.0000   1.0000   1.0000   1.0000   1.0000   1.0000
     1.0000   1.0000   1.0000   1.0000   1.0000   1.0000   1.0000   1.0000
     1.0000   1.0000   1.0000   1.0000   1.0000   1.0000   1.0000   1.0000
     1.0000   1.0000   1.0000   1.0000   1.0000   1.0000   1.0000   1.0000
     1.0000   1.0000   1.0000   1.0000   1.0000   1.0000   1.0000   1.0000
     1.0000   1.0000   1.0000   1.0000   1.0000   1.0000   1.0000   1.0000
     1.0000   1.0000   1.0000   1.0000   1.0000   1.0000   1.0000   1.0000
     1.0000   1.0000   1.0000   1.0000   1.0000   1.0000   1.0000   1.0000
     1.0000   1.0000   1.0000   1.0000   1.0000   1.0000   1.0000   1.0000
     1.0000   1.0000   1.0000   1.0000   1.0000   1.0000   1.0000   1.0000
     1.0000   1.0000   1.0000   1.0000   1.0000   1.0000   1.0000   1.0000
     1.0000   1.0000   1.0000   1.0000   1.0000   1.0000   1.0000   1.0000
     1.0000   1.0000   1.0000   1.0000   1.0000   1.0000   1.0000   1.0000
     1.0000   1.0000   1.0000   1.0000   1.0000   1.0000   1.0000   1.0000
     1.0000   1.0000   1.0000   1.0000   1.0000   1.0000   1.0000   1.0000
     1.0000   1.0000   1.0000   1.0000   1.0000   1.0000   1.0000   1.0000
     1.0000   1.0000   1.0000   1.0000   1.0000   1.0000   1.0000   1.0000
     1.0000   1.0000   1.0000   1.0000   1.0000   1.0000   1.0000   1.0000
     1.0000   1.0000   1.0000   1.0000   1.0000   1.0000   1.0000   1.0000
     1.0000   1.0000   1.0000   1.0000   1.0000   1.0000   1.0000   1.0000
     1.0000   1.0000   1.0000   1.0000   1.0000   1.0000   1.0000   1.0000
     1.0000   1.0000   1.0000   1.0000   1.0000   1.0000   1.0000   1.0000
     1.0000   1.0000   1.0000   1.0000   1.0000   1.0000   1.0000   1.0000
     1.0000   1.0000   1.0000   1.0000   1.0000   1.0000   1.0000   1.0000
     1.0000   1.0000   1.0000   1.0000   1.0000   1.0000   1.0000   1.0000
     1.0000   1.0000   1.0000   1.0000   1.0000   1.0000   1.0000   1.0000
     1.0000   1.0000   1.0000   1.0000   1.0000   1.0000   1.0000   1.0000
     1.0000   1.0000   1.0000   1.0000   1.0000   1.0000   1.0000   1.0000
     1.0000   1.0000   1.0000   1.0000   1.0000   1.0000   1.0000   1.0000
     1.0000   1.0000   1.0000   1.0000   1.0000   1.0000   1.0000   1.0000
     1.0000   1.0000   1.0000   1.0000   1.0000   1.0000   1.0000   1.0000
     1.0000   1.0000   1.0000   1.0000   1.0000   1.0000   1.0000   1.0000
     1.0000   1.0000   1.0000   1.0000   1.0000   1.0000   1.0000   1.0000
     1.0000   1.0000   1.0000   1.0000   1.0000   1.0000   1.0000   1.0000
     1.0000   1.0000   1.0000   1.0000   1.0000   1.0000   1.0000   1.0000
     1.0000   1.0000   1.0000   1.0000   1.0000   1.0000   1.0000   1.0000
     1.0000   1.0000   1.0000   1.0000   1.0000   1.0000   1.0000   1.0000
     1.0000   1.0000   1.0000   1.0000   1.0000   1.0000   1.0000   1.0000
     1.0000   1.0000   1.0000   1.0000   1.0000   1.0000   1.0000   1.0000
     1.0000   1.0000   1.0000   1.0000   1.0000   1.0000   1.0000   1.0000
     1.0000   1.0000   1.0000   1.0000   1.0000   1.0000   1.0000   1.0000
     1.0000   1.0000   1.0000   1.0000   1.0000   1.0000   1.0000   1.0000
[...]
     atom   74 type  4   force =     0.00000000    0.00000000    0.00000000
     atom   75 type  4   force =     0.00000000    0.00000000    0.00000000
     atom   76 type  4   force =     0.00000000    0.00000000    0.00000000
     atom   77 type  4   force =     0.00000000    0.00000000    0.00000000
     atom   78 type  4   force =     0.00000000    0.00000000    0.00000000
     atom   79 type  4   force =     0.00000000    0.00000000    0.00000000
     The Hubbard contrib.    to forces
     atom    1 type  1   force =     0.00000000    0.00000000    0.00000000
     atom    2 type  1   force =     0.00000000    0.00000000    0.00000000
     atom    3 type  1   force =     0.00000000    0.00000000    0.00000000
     atom    4 type  1   force =     0.00000000    0.00000000    0.00000000
     atom    5 type  1   force =     0.00000000    0.00000000    0.00000000
     atom    6 type  1   force =     0.00000000    0.00000000    0.00000000
     atom    7 type  1   force =     0.00000000    0.00000000    0.00000000
     atom    8 type  1   force =     0.00000000    0.00000000    0.00000000
     atom    9 type  1   force =     0.00000000    0.00000000    0.00000000
     atom   10 type  1   force =     0.00000000    0.00000000    0.00000000
     atom   11 type  1   force =     0.00000000    0.00000000    0.00000000
     atom   12 type  1   force =     0.00000000    0.00000000    0.00000000
     atom   13 type  1   force =     0.00000000    0.00000000    0.00000000
     atom   14 type  1   force =     0.00000000    0.00000000    0.00000000
     atom   15 type  1   force =     0.00000000    0.00000000    0.00000000
     atom   16 type  1   force =     0.00000000    0.00000000    0.00000000
     atom   17 type  1   force =     0.00000000    0.00000000    0.00000000
     atom   18 type  1   force =     0.00000000    0.00000000    0.00000000
     atom   19 type  1   force =     0.00000000    0.00000000    0.00000000
     atom   20 type  1   force =     0.00000000    0.00000000    0.00000000
     atom   21 type  1   force =     0.00000000    0.00000000    0.00000000
     atom   22 type  1   force =     0.00000000    0.00000000    0.00000000
     atom   23 type  1   force =     0.00000000    0.00000000    0.00000000
     atom   24 type  1   force =     0.00000000    0.00000000    0.00000000
     atom   25 type  1   force =     0.00000000    0.00000000    0.00000000
     atom   26 type  1   force =     0.00000000    0.00000000    0.00000000
     atom   27 type  1   force =     0.00000000    0.00000000    0.00000000
     atom   28 type  1   force =     0.00000000    0.00000000    0.00000000
     atom   29 type  1   force =     0.00000000    0.00000000    0.00000000
     atom   30 type  1   force =     0.00000000    0.00000000    0.00000000
     atom   31 type  1   force =     0.00000000    0.00000000    0.00000000
     atom   32 type  1   force =     0.00000000    0.00000000    0.00000000
     atom   33 type  1   force =     0.00000000    0.00000000    0.00000000
     atom   34 type  1   force =     0.00000000    0.00000000    0.00000000
     atom   35 type  1   force =     0.00000000    0.00000000    0.00000000
     atom   36 type  1   force =     0.00000000    0.00000000    0.00000000
     atom   37 type  1   force =     0.00000000    0.00000000    0.00000000
     atom   38 type  1   force =     0.00000000    0.00000000    0.00000000
     atom   39 type  1   force =     0.00000000    0.00000000    0.00000000
     atom   40 type  1   force =     0.00000000    0.00000000    0.00000000
     atom   41 type  1   force =     0.00000000    0.00000000    0.00000000
     atom   42 type  1   force =     0.00000000    0.00000000    0.00000000
     atom   43 type  1   force =     0.00000000    0.00000000    0.00000000
     atom   44 type  1   force =     0.00000000    0.00000000    0.00000000
     atom   45 type  1   force =     0.00000000    0.00000000    0.00000000
     atom   46 type  1   force =     0.00000000    0.00000000    0.00000000
     atom   47 type  1   force =     0.00000000    0.00000000    0.00000000
     atom   48 type  1   force =     0.00000000    0.00000000    0.00000000
     atom   49 type  1   force =     0.00000000    0.00000000    0.00000000
     atom   50 type  1   force =     0.00000000    0.00000000    0.00000000
     atom   51 type  1   force =     0.00000000    0.00000000    0.00000000
     atom   52 type  1   force =     0.00000000    0.00000000    0.00000000
     atom   53 type  1   force =     0.00000000    0.00000000    0.00000000
     atom   54 type  1   force =     0.00000000    0.00000000    0.00000000
     atom   55 type  1   force =     0.00000000    0.00000000    0.00000000
     atom   56 type  1   force =     0.00000000    0.00000000    0.00000000
     atom   57 type  1   force =     0.00000000    0.00000000    0.00000000
     atom   58 type  1   force =     0.00000000    0.00000000    0.00000000
     atom   59 type  1   force =     0.00000000    0.00000000    0.00000000
     atom   60 type  1   force =     0.00000000    0.00000000    0.00000000
     atom   61 type  1   force =     0.00000000    0.00000000    0.00000000
     atom   62 type  1   force =     0.00000000    0.00000000    0.00000000
     atom   63 type  1   force =     0.00000000    0.00000000    0.00000000
     atom   64 type  1   force =     0.00000000    0.00000000    0.00000000
     atom   65 type  2   force =     0.00000000    0.00000000    0.00000000
     atom   66 type  2   force =     0.00000000    0.00000000    0.00000000
     atom   67 type  2   force =     0.00000000    0.00000000    0.00000000
     atom   68 type  2   force =     0.00000000    0.00000000    0.00000000
     atom   69 type  2   force =     0.00000000    0.00000000    0.00000000
     atom   70 type  2   force =     0.00000000    0.00000000    0.00000000
     atom   71 type  2   force =     0.00000000    0.00000000    0.00000000
     atom   72 type  3   force =     0.00000000    0.00000000    0.00000000
     atom   73 type  3   force =     0.00000000    0.00000000    0.00000000
     atom   74 type  4   force =     0.00000000    0.00000000    0.00000000
     atom   75 type  4   force =     0.00000000    0.00000000    0.00000000
     atom   76 type  4   force =     0.00000000    0.00000000    0.00000000
     atom   77 type  4   force =     0.00000000    0.00000000    0.00000000
     atom   78 type  4   force =     0.00000000    0.00000000    0.00000000
     atom   79 type  4   force =     0.00000000    0.00000000    0.00000000
     The SCF correction term to forces
     atom    1 type  1   force =    -0.00023401   -0.00025973    0.00086223
     atom    2 type  1   force =     0.00024533   -0.00036252    0.00083939
     atom    3 type  1   force =    -0.00022277   -0.00054141   -0.00030499
     atom    4 type  1   force =     0.00022190   -0.00033957   -0.00023679
     atom    5 type  1   force =    -0.00042808   -0.00013772    0.00080307
     atom    6 type  1   force =     0.00040983   -0.00044276    0.00031677
     atom    7 type  1   force =    -0.00071723   -0.00037038   -0.00030908
     atom    8 type  1   force =     0.00072485   -0.00073920    0.00011441
     atom    9 type  1   force =     0.00007993    0.00015774    0.00089918
     atom   10 type  1   force =    -0.00009392    0.00042261    0.00019950
     atom   11 type  1   force =    -0.00017766    0.00031609   -0.00034447
     atom   12 type  1   force =     0.00018735    0.00054272    0.00006780
     atom   13 type  1   force =     0.00025808    0.00005448    0.00094968
     atom   14 type  1   force =    -0.00027673    0.00055240    0.00070234
     atom   15 type  1   force =     0.00031684    0.00013014   -0.00033575
     atom   16 type  1   force =    -0.00034584    0.00100261   -0.00028889
     atom   17 type  1   force =    -0.00001073   -0.00070747    0.00075335
     atom   18 type  1   force =    -0.00000233    0.00009842    0.00094387
     atom   19 type  1   force =    -0.00005263   -0.00110757   -0.00018805
     atom   20 type  1   force =     0.00005074    0.00018975   -0.00035460
     atom   21 type  1   force =    -0.00050219   -0.00039192    0.00035759
     atom   22 type  1   force =     0.00051844   -0.00018610    0.00079461
     atom   23 type  1   force =    -0.00060180   -0.00088204   -0.00002821
     atom   24 type  1   force =     0.00060118   -0.00024113   -0.00018053
     atom   25 type  1   force =    -0.00068418    0.00028891    0.00056504
     atom   26 type  1   force =     0.00070143    0.00030573    0.00054065
     atom   27 type  1   force =    -0.00113982    0.00042078   -0.00024573
     atom   28 type  1   force =     0.00113055    0.00048107   -0.00003708
     atom   29 type  1   force =    -0.00018170    0.00000703    0.00094338
     atom   30 type  1   force =     0.00020024    0.00060006    0.00072613
     atom   31 type  1   force =    -0.00054293    0.00020535   -0.00040282
     atom   32 type  1   force =     0.00057940    0.00093027   -0.00022970
     atom   33 type  1   force =    -0.00003556   -0.00060060   -0.00038285
     atom   34 type  1   force =     0.00002521    0.00029072   -0.00054993
     atom   35 type  1   force =     0.00002057   -0.00030732   -0.00066838
     atom   36 type  1   force =    -0.00003028    0.00032464   -0.00053688
     atom   37 type  1   force =    -0.00079823   -0.00069409   -0.00060974
     atom   38 type  1   force =     0.00081136   -0.00067942   -0.00056228
     atom   39 type  1   force =    -0.00033913   -0.00045456   -0.00034175
     atom   40 type  1   force =     0.00036314   -0.00026741   -0.00040961
     atom   41 type  1   force =    -0.00078144    0.00014538   -0.00063114
     atom   42 type  1   force =     0.00080235    0.00017308   -0.00075842
     atom   43 type  1   force =    -0.00054168    0.00000280   -0.00040219
     atom   44 type  1   force =     0.00053243   -0.00000859    0.00005801
     atom   45 type  1   force =    -0.00001814    0.00020472   -0.00039484
     atom   46 type  1   force =     0.00002142    0.00118383   -0.00074742
     atom   47 type  1   force =    -0.00018259    0.00015392   -0.00072129
     atom   48 type  1   force =     0.00017997    0.00052874   -0.00010927
     atom   49 type  1   force =    -0.00002442   -0.00061585   -0.00046235
     atom   50 type  1   force =     0.00003437    0.00029634   -0.00046320
     atom   51 type  1   force =    -0.00007224   -0.00013447   -0.00062034
     atom   52 type  1   force =     0.00008366    0.00014609   -0.00059245
     atom   53 type  1   force =    -0.00005029   -0.00117623   -0.00067246
     atom   54 type  1   force =     0.00003558   -0.00020963   -0.00050773
     atom   55 type  1   force =     0.00011035   -0.00061053   -0.00011338
     atom   56 type  1   force =    -0.00012804   -0.00009552   -0.00059823
     atom   57 type  1   force =    -0.00082534    0.00013241   -0.00087786
     atom   58 type  1   force =     0.00080619    0.00017929   -0.00050758
     atom   59 type  1   force =    -0.00022814   -0.00005240    0.00015761
     atom   60 type  1   force =     0.00024715    0.00004167   -0.00053446
     atom   61 type  1   force =    -0.00081176    0.00065898   -0.00067439
     atom   62 type  1   force =     0.00080417    0.00070677   -0.00046969
     atom   63 type  1   force =    -0.00044081    0.00042681   -0.00033969
     atom   64 type  1   force =     0.00044808    0.00028181   -0.00052268
     atom   65 type  2   force =    -0.00008754    0.00005119    0.00016855
     atom   66 type  2   force =     0.00007866   -0.00004478   -0.00013850
     atom   67 type  2   force =     0.00002658   -0.00014473   -0.00014593
     atom   68 type  2   force =     0.00013888    0.00004987   -0.00014543
     atom   69 type  2   force =     0.00000448   -0.00005780   -0.00004692
     atom   70 type  2   force =     0.00005284    0.00002505   -0.00004702
     atom   71 type  2   force =    -0.00002130    0.00001198    0.00004296
     atom   72 type  3   force =    -0.00011226    0.00006614    0.00022050
     atom   73 type  3   force =    -0.00005067    0.00002924    0.00012607
     atom   74 type  4   force =     0.00000126    0.00000635    0.00001212
     atom   75 type  4   force =    -0.00000472   -0.00000432    0.00001215
     atom   76 type  4   force =     0.00000124   -0.00001707   -0.00001270
     atom   77 type  4   force =     0.00001537    0.00000745   -0.00001267
     atom   78 type  4   force =    -0.00000968   -0.00001382    0.00000527
     atom   79 type  4   force =     0.00000724    0.00001537    0.00000555

     Total force =     0.030362     Total SCF correction =     0.006976
     SCF correction compared to forces is large: reduce conv_thr to get better values


     Computing stress (Cartesian axis) and pressure


     negative rho (up, down):  3.477E-02 0.000E+00
          total   stress  (Ry/bohr**3)                   (kbar)     P=     -306.84
  -0.00208454  -0.00000151   0.00000082         -306.65       -0.22        0.12
  -0.00000151  -0.00208617  -0.00000005           -0.22     -306.89       -0.01
   0.00000082  -0.00000005  -0.00208680            0.12       -0.01     -306.98

     kinetic stress (kbar)  17246.78    -18.83     32.35
                              -18.83  17225.27    -18.82
                               32.35    -18.82  17303.90

     local   stress (kbar)**********   -335.25   1279.95
                             -335.25**********   -742.30
                             1279.95   -742.301456374.63

     nonloc. stress (kbar)  -1884.20      0.73     -3.40
                                0.73  -1883.32      1.97
                               -3.40      1.97  -1945.09

     hartree stress (kbar) 756604.25    114.76   -502.23
                              114.76 756736.29    290.95
                             -502.23    290.95-681224.06

     exc-cor stress (kbar)  -8416.12      0.82     -1.73
                                0.82  -8415.18      1.01
                               -1.73      1.01  -8425.41

     corecor stress (kbar)    -80.75     -0.44      0.81
                               -0.44    -81.25     -0.47
                                0.81     -0.47    -81.03

     ewald   stress (kbar) 676331.03    237.99   -805.64
                              237.99 676604.84    467.66
                             -805.64    467.66-782309.91

     hubbard stress (kbar)      0.00      0.00      0.00
                                0.00      0.00      0.00
                                0.00      0.00      0.00

     DFT-D   stress (kbar)      0.00      0.00      0.00
                                0.00      0.00      0.00
                                0.00      0.00      0.00

     XDM     stress (kbar)      0.00      0.00      0.00
                                0.00      0.00      0.00
                                0.00      0.00      0.00

     dft-nl  stress (kbar)      0.00      0.00      0.00
                                0.00      0.00      0.00
                                0.00      0.00      0.00

     TS-vdW  stress (kbar)      0.00      0.00      0.00
                                0.00      0.00      0.00
                                0.00      0.00      0.00

     MDB     stress (kbar)      0.00      0.00      0.00
                                0.00      0.00      0.00
                                0.00      0.00      0.00

     3D-RISM stress (kbar)      0.00      0.00      0.00
                                0.00      0.00      0.00
                                0.00      0.00      0.00


     Writing all to output data dir ./tmp/Zn002_4x4x2_primitive_14Avacumn_bridgesite_tilted_parallel_ABN.save/ :
     XML data file, charge density, pseudopotentials, collected wavefunctions

     init_run     :    154.64s CPU    155.87s WALL (       1 calls)
     electrons    :  12477.88s CPU  12577.05s WALL (       1 calls)
     forces       :    124.92s CPU    125.40s WALL (       1 calls)
     stress       :    338.18s CPU    339.28s WALL (       1 calls)

     Called by init_run:
     wfcinit      :    153.58s CPU    154.77s WALL (       1 calls)
     wfcinit:atom :      0.07s CPU      0.11s WALL (       5 calls)
     wfcinit:wfcr :    152.52s CPU    153.63s WALL (       5 calls)
     potinit      :      0.21s CPU      0.21s WALL (       1 calls)
     hinit0       :      0.07s CPU      0.08s WALL (       1 calls)

     Called by electrons:
     c_bands      :  11726.30s CPU  11816.94s WALL (      22 calls)
     sum_band     :    732.59s CPU    740.73s WALL (      22 calls)
     v_of_rho     :      0.75s CPU      0.79s WALL (      22 calls)
     v_h          :      0.04s CPU      0.04s WALL (      22 calls)
     v_xc         :      0.78s CPU      0.82s WALL (      24 calls)
     newd         :     15.26s CPU     15.60s WALL (      22 calls)
     PAW_pot      :      3.65s CPU      3.66s WALL (      22 calls)
     mix_rho      :      0.16s CPU      0.17s WALL (      22 calls)

     Called by c_bands:
     init_us_2    :      6.14s CPU      6.18s WALL (     235 calls)
     cegterg      :  11711.17s CPU  11801.63s WALL (     110 calls)

     Called by sum_band:
     sum_band:wei :      0.09s CPU      0.09s WALL (      22 calls)
     sum_band:loo :    720.70s CPU    728.48s WALL (      22 calls)
     sum_band:buf :      1.19s CPU      1.21s WALL (     110 calls)
     sum_band:ini :      2.87s CPU      2.88s WALL (     110 calls)
     sum_band:cal :    663.10s CPU    665.34s WALL (     110 calls)
     sum_band:bec :      4.32s CPU      4.33s WALL (     110 calls)
     addusdens    :     11.53s CPU     11.86s WALL (      22 calls)
                                        0.00s GPU  (      22 calls)
     addusd:skk   :      0.14s CPU      0.14s WALL (      88 calls)
                                        0.00s GPU  (      88 calls)

     Called by *egterg:
     cdiaghg      :   1040.08s CPU   1068.60s WALL (     838 calls)
     cegterg:over :   1947.98s CPU   1953.25s WALL (     733 calls)
     cegterg:upda :    927.37s CPU    931.02s WALL (     733 calls)
     cegterg:last :   2792.42s CPU   2801.94s WALL (     233 calls)
     cdiaghg:chol :     73.28s CPU     73.47s WALL (     838 calls)
     cdiaghg:inve :     16.14s CPU     16.18s WALL (     838 calls)
     cdiaghg:para :    375.03s CPU    381.57s WALL (    1676 calls)
     h_psi        :   3233.28s CPU   3270.41s WALL (     848 calls)
     s_psi        :   1338.25s CPU   1341.44s WALL (     848 calls)
     g_psi        :      1.10s CPU      1.11s WALL (     733 calls)

     Called by h_psi:
     h_psi:calbec :   1636.74s CPU   1642.46s WALL (     848 calls)
     vloc_psi     :    239.42s CPU    266.11s WALL (     848 calls)
     add_vuspsi   :   1354.95s CPU   1358.22s WALL (     848 calls)

     General routines
     calbec       :   2451.80s CPU   2460.29s WALL (     983 calls)
     fft          :      0.44s CPU      0.50s WALL (     268 calls)
     ffts         :      0.03s CPU      0.03s WALL (      22 calls)
     fftw         :    261.73s CPU    291.26s WALL (  508844 calls)

     Parallel routines

     PAW routines
     PAW_pot      :      3.65s CPU      3.66s WALL (      22 calls)

     PWSCF        :      3h38m CPU      3h40m WALL


   This run was terminated on:  16:30:27  22Mar2025            

=------------------------------------------------------------------------------=
   JOB DONE.
=------------------------------------------------------------------------------=
Note: The following floating-point exceptions are signalling: IEEE_DENORMAL
Note: The following floating-point exceptions are signalling: IEEE_DENORMAL
Note: The following floating-point exceptions are signalling: IEEE_DENORMAL
Note: The following floating-point exceptions are signalling: IEEE_DENORMAL
Note: The following floating-point exceptions are signalling: IEEE_DENORMAL
Note: The following floating-point exceptions are signalling: IEEE_DENORMAL
Note: The following floating-point exceptions are signalling: IEEE_DENORMAL
