--------------------------------------------------------------------------
By default, for Open MPI 4.0 and later, infiniband ports on a device
are not used by default.  The intent is to use UCX for these devices.
You can override this policy by setting the btl_openib_allow_ib MCA parameter
to true.

  Local host:              psid05
  Local adapter:           mlx4_0
  Local port:              1

--------------------------------------------------------------------------
--------------------------------------------------------------------------
WARNING: There was an error initializing an OpenFabrics device.

  Local host:   psid05
  Local device: mlx4_0
--------------------------------------------------------------------------

     Program PWSCF v.7.3.1 starts on 22Mar2025 at 15:41: 3 

     This program is part of the open-source Quantum ESPRESSO suite
     for quantum simulation of materials; please cite
         "P. Giannozzi et al., J. Phys.:Condens. Matter 21 395502 (2009);
         "P. Giannozzi et al., J. Phys.:Condens. Matter 29 465901 (2017);
         "P. Giannozzi et al., J. Chem. Phys. 152 154105 (2020);
          URL http://www.quantum-espresso.org", 
     in publications or presentations arising from this work. More details at
     http://www.quantum-espresso.org/quote

     Parallel version (MPI), running on    16 processors

     MPI processes distributed on     1 nodes
     88927 MiB available memory on the printing compute node when the environment starts

     Waiting for input...
     Reading input from standard input
Warning: card &CELL ignored
Warning: card   CELL_DOFREE = 'ALL' ignored
Warning: card / ignored

     Current dimensions of program PWSCF are:
     Max number of different atomic species (ntypx) = 10
     Max number of k-points (npk) =  40000
     Max angular momentum in pseudopotentials (lmaxx) =  4
     file C.pbe-n-kjpaw_psl.1.0.0.UPF: wavefunction(s)  2S 2P renormalized

     R & G space division:  proc/nbgrp/npool/nimage =      16
     Subspace diagonalization in iterative solution of the eigenvalue problem:
     one sub-group per band group will be used
     custom distributed-memory algorithm (size of sub-group:  4*  4 procs)


     Parallelization info
     --------------------
     sticks:   dense  smooth     PW     G-vecs:    dense   smooth      PW
     Min         202     202     53                21070    21070    2943
     Max         203     203     54                21080    21080    2952
     Sum        3241    3241    859               337189   337189   47187

     Using Slab Decomposition



     bravais-lattice index     =            0
     lattice parameter (alat)  =      19.7617  a.u.
     unit-cell volume          =   15176.5939 (a.u.)^3
     number of atoms/cell      =           79
     number of atomic types    =            4
     number of electrons       =      1324.00
     number of Kohn-Sham states=          794
     kinetic-energy cutoff     =      30.0000  Ry
     charge density cutoff     =     120.0000  Ry
     scf convergence threshold =      7.3E-07
     mixing beta               =       0.7000
     number of iterations used =            8  plain     mixing
     Exchange-correlation= PBE
                           (   1   4   3   4   0   0   0)

     celldm(1)=  19.761696  celldm(2)=   0.000000  celldm(3)=   0.000000
     celldm(4)=   0.000000  celldm(5)=   0.000000  celldm(6)=   0.000000

     crystal axes: (cart. coord. in units of alat)
               a(1) = (   1.000000   0.000000   0.000000 )  
               a(2) = (  -0.500000   0.866025   0.000000 )  
               a(3) = (   0.000000   0.000000   2.270759 )  

     reciprocal axes: (cart. coord. in units 2 pi/alat)
               b(1) = (  1.000000  0.577350 -0.000000 )  
               b(2) = (  0.000000  1.154701  0.000000 )  
               b(3) = (  0.000000 -0.000000  0.440381 )  


     PseudoPot. # 1 for Zn read from file:
     /home/ys/qepseudo/SSSP_1.3.0_PBE_efficiency/Zn_pbe_v1.uspp.F.UPF
     MD5 check sum: df62231357ef9e81f77b2b3087fa5675
     Pseudo is Ultrasoft, Zval = 20.0
     Generated by new atomic code, or converted to UPF format
     Using radial grid of  943 points,  6 beta functions with: 
                l(1) =   0
                l(2) =   0
                l(3) =   1
                l(4) =   1
                l(5) =   2
                l(6) =   2
     Q(r) pseudized with  8 coefficients,  rinner =    1.100   1.100   1.100
                                                       1.100   1.100

     PseudoPot. # 2 for C  read from file:
     /home/ys/qepseudo/SSSP_1.3.0_PBE_efficiency/C.pbe-n-kjpaw_psl.1.0.0.UPF
     MD5 check sum: 5d2aebdfa2cae82b50a7e79e9516da0f
     Pseudo is Projector augmented-wave + core cor, Zval =  4.0
     Generated using "atomic" code by A. Dal Corso  v.5.1
     Shape of augmentation charge: PSQ
     Using radial grid of 1073 points,  4 beta functions with: 
                l(1) =   0
                l(2) =   0
                l(3) =   1
                l(4) =   1
     Q(r) pseudized with 0 coefficients 


     PseudoPot. # 3 for N  read from file:
     /home/ys/qepseudo/SSSP_1.3.0_PBE_efficiency/N.pbe-n-radius_5.UPF
     MD5 check sum: 16739722b17309cd8fe442a2ace49922
     Pseudo is Ultrasoft + core correction, Zval =  5.0
     Generated using "atomic" code by A. Dal Corso  v.5.1
     Using radial grid of 1085 points,  4 beta functions with: 
                l(1) =   0
                l(2) =   0
                l(3) =   1
                l(4) =   1
     Q(r) pseudized with 0 coefficients 


     PseudoPot. # 4 for H  read from file:
     /home/ys/qepseudo/SSSP_1.3.0_PBE_efficiency/H.pbe-rrkjus_psl.1.0.0.UPF
     MD5 check sum: f52b6d4d1c606e5624b1dc7b2218f220
     Pseudo is Ultrasoft, Zval =  1.0
     Generated using "atomic" code by A. Dal Corso  v.5.1
     Using radial grid of  929 points,  2 beta functions with: 
                l(1) =   0
                l(2) =   0
     Q(r) pseudized with 0 coefficients 


     atomic species   valence    mass     pseudopotential
     Zn               20.00    65.38000     Zn( 1.00)
     C                 4.00    12.01070     C ( 1.00)
     N                 5.00    14.00670     N ( 1.00)
     H                 1.00     1.00800     H ( 1.00)

     No symmetry found


                                    s                        frac. trans.

      isym =  1     identity                                     

 cryst.   s( 1) = (     1          0          0      )
                  (     0          1          0      )
                  (     0          0          1      )

 cart.    s( 1) = (  1.0000000  0.0000000  0.0000000 )
                  (  0.0000000  1.0000000  0.0000000 )
                  (  0.0000000  0.0000000  1.0000000 )


   Cartesian axes

     site n.     atom                  positions (alat units)
         1        Zn     tau(   1) = (  -0.0000000   0.1443376   0.1164999  )
         2        Zn     tau(   2) = (   0.5000000   0.1443376   0.1164999  )
         3        Zn     tau(   3) = (   0.0001063   0.1443772   0.5902127  )
         4        Zn     tau(   4) = (   0.4998958   0.1443643   0.5917156  )
         5        Zn     tau(   5) = (  -0.1250000   0.3608439   0.1164999  )
         6        Zn     tau(   6) = (   0.3750000   0.3608439   0.1164999  )
         7        Zn     tau(   7) = (  -0.1249761   0.3609302   0.5908726  )
         8        Zn     tau(   8) = (   0.3749642   0.3608477   0.5913644  )
         9        Zn     tau(   9) = (  -0.2500000   0.5773503   0.1164999  )
        10        Zn     tau(  10) = (   0.2500000   0.5773503   0.1164999  )
        11        Zn     tau(  11) = (  -0.2499911   0.5773738   0.5915504  )
        12        Zn     tau(  12) = (   0.2499824   0.5772583   0.5907382  )
        13        Zn     tau(  13) = (  -0.3750000   0.7938566   0.1164999  )
        14        Zn     tau(  14) = (   0.1250000   0.7938566   0.1164999  )
        15        Zn     tau(  15) = (  -0.3749161   0.7938269   0.5909604  )
        16        Zn     tau(  16) = (   0.1249053   0.7937898   0.5911170  )
        17        Zn     tau(  17) = (   0.2500000   0.1443376   0.1164999  )
        18        Zn     tau(  18) = (   0.7500000   0.1443376   0.1164999  )
        19        Zn     tau(  19) = (   0.2499566   0.1443139   0.5910485  )
        20        Zn     tau(  20) = (   0.7500401   0.1444360   0.5909256  )
        21        Zn     tau(  21) = (   0.1250000   0.3608439   0.1164999  )
        22        Zn     tau(  22) = (   0.6250000   0.3608439   0.1164999  )
        23        Zn     tau(  23) = (   0.1249684   0.3608327   0.5904686  )
        24        Zn     tau(  24) = (   0.6250220   0.3609386   0.5917101  )
        25        Zn     tau(  25) = (  -0.0000000   0.5773503   0.1164999  )
        26        Zn     tau(  26) = (   0.5000000   0.5773503   0.1164999  )
        27        Zn     tau(  27) = (  -0.0000983   0.5773031   0.5910657  )
        28        Zn     tau(  28) = (   0.5000885   0.5773473   0.5912976  )
        29        Zn     tau(  29) = (  -0.1250000   0.7938566   0.1164999  )
        30        Zn     tau(  30) = (   0.3750000   0.7938566   0.1164999  )
        31        Zn     tau(  31) = (  -0.1251014   0.7937984   0.5915674  )
        32        Zn     tau(  32) = (   0.3751324   0.7938157   0.5904624  )
        33        Zn     tau(  33) = (   0.1250000   0.0721688   0.3494996  )
        34        Zn     tau(  34) = (   0.6250000   0.0721688   0.3494996  )
        35        Zn     tau(  35) = (   0.1247726   0.0722058   0.8326360  )
        36        Zn     tau(  36) = (   0.6249486   0.0720367   0.8314330  )
        37        Zn     tau(  37) = (   0.0000000   0.2886751   0.3494996  )
        38        Zn     tau(  38) = (   0.5000000   0.2886751   0.3494996  )
        39        Zn     tau(  39) = (  -0.0001344   0.2886941   0.8326071  )
        40        Zn     tau(  40) = (   0.4993101   0.2889503   0.8277979  )
        41        Zn     tau(  41) = (  -0.1250000   0.5051815   0.3494996  )
        42        Zn     tau(  42) = (   0.3750000   0.5051815   0.3494996  )
        43        Zn     tau(  43) = (  -0.1249856   0.5051881   0.8329768  )
        44        Zn     tau(  44) = (   0.3745313   0.5054640   0.8331083  )
        45        Zn     tau(  45) = (  -0.2500000   0.7216878   0.3494996  )
        46        Zn     tau(  46) = (   0.2500000   0.7216878   0.3494996  )
        47        Zn     tau(  47) = (  -0.2500562   0.7216506   0.8329736  )
        48        Zn     tau(  48) = (   0.2499250   0.7217568   0.8325864  )
        49        Zn     tau(  49) = (   0.3750000   0.0721688   0.3494996  )
        50        Zn     tau(  50) = (   0.8750000   0.0721688   0.3494996  )
        51        Zn     tau(  51) = (   0.3746129   0.0720490   0.8311766  )
        52        Zn     tau(  52) = (   0.8749386   0.0722070   0.8322939  )
        53        Zn     tau(  53) = (   0.2500000   0.2886751   0.3494996  )
        54        Zn     tau(  54) = (   0.7500000   0.2886751   0.3494996  )
        55        Zn     tau(  55) = (   0.2494714   0.2888563   0.8328535  )
        56        Zn     tau(  56) = (   0.7500128   0.2887020   0.8317569  )
        57        Zn     tau(  57) = (   0.1250000   0.5051815   0.3494996  )
        58        Zn     tau(  58) = (   0.6250000   0.5051815   0.3494996  )
        59        Zn     tau(  59) = (   0.1248458   0.5052233   0.8329632  )
        60        Zn     tau(  60) = (   0.6248341   0.5054540   0.8318387  )
        61        Zn     tau(  61) = (   0.0000000   0.7216878   0.3494996  )
        62        Zn     tau(  62) = (   0.5000000   0.7216878   0.3494996  )
        63        Zn     tau(  63) = (  -0.0000117   0.7215710   0.8330023  )
        64        Zn     tau(  64) = (   0.4998453   0.7218054   0.8326205  )
        65        C      tau(  65) = (   0.2017768   0.4833190   1.5410662  )
        66        C      tau(  66) = (   0.2769970   0.4311659   1.4401634  )
        67        C      tau(  67) = (   0.2561091   0.3048495   1.3971268  )
        68        C      tau(  68) = (   0.3740785   0.5044941   1.3817963  )
        69        C      tau(  69) = (   0.4487845   0.4529558   1.2851525  )
        70        C      tau(  70) = (   0.3304093   0.2533745   1.3001341  )
        71        C      tau(  71) = (   0.4300251   0.3255586   1.2438215  )
        72        N      tau(  72) = (   0.1399783   0.5260604   1.6245260  )
        73        N      tau(  73) = (   0.5111196   0.2708082   1.1559432  )
        74        H      tau(  74) = (   0.5673992   0.3288321   1.1013537  )
        75        H      tau(  75) = (   0.4832632   0.1886241   1.1115576  )
        76        H      tau(  76) = (   0.1804090   0.2476586   1.4411460  )
        77        H      tau(  77) = (   0.3903880   0.6027551   1.4136406  )
        78        H      tau(  78) = (   0.5250905   0.5102970   1.2419790  )
        79        H      tau(  79) = (   0.3141191   0.1547516   1.2688434  )

   Crystallographic axes

     site n.     atom                  positions (cryst. coord.)
         1        Zn     tau(   1) = (  0.0833333  0.1666667  0.0513044  )
         2        Zn     tau(   2) = (  0.5833333  0.1666667  0.0513044  )
         3        Zn     tau(   3) = (  0.0834625  0.1667124  0.2599187  )
         4        Zn     tau(   4) = (  0.5832446  0.1666976  0.2605806  )
         5        Zn     tau(   5) = (  0.0833333  0.4166667  0.0513044  )
         6        Zn     tau(   6) = (  0.5833333  0.4166667  0.0513044  )
         7        Zn     tau(   7) = (  0.0834070  0.4167663  0.2602093  )
         8        Zn     tau(   8) = (  0.5832997  0.4166711  0.2604259  )
         9        Zn     tau(   9) = (  0.0833333  0.6666667  0.0513044  )
        10        Zn     tau(  10) = (  0.5833333  0.6666667  0.0513044  )
        11        Zn     tau(  11) = (  0.0833558  0.6666938  0.2605078  )
        12        Zn     tau(  12) = (  0.5832626  0.6665605  0.2601501  )
        13        Zn     tau(  13) = (  0.0833333  0.9166667  0.0513044  )
        14        Zn     tau(  14) = (  0.5833333  0.9166667  0.0513044  )
        15        Zn     tau(  15) = (  0.0834001  0.9166324  0.2602480  )
        16        Zn     tau(  16) = (  0.5832000  0.9165895  0.2603170  )
        17        Zn     tau(  17) = (  0.3333333  0.1666667  0.0513044  )
        18        Zn     tau(  18) = (  0.8333333  0.1666667  0.0513044  )
        19        Zn     tau(  19) = (  0.3332763  0.1666393  0.2602868  )
        20        Zn     tau(  20) = (  0.8334303  0.1667804  0.2602327  )
        21        Zn     tau(  21) = (  0.3333333  0.4166667  0.0513044  )
        22        Zn     tau(  22) = (  0.8333333  0.4166667  0.0513044  )
        23        Zn     tau(  23) = (  0.3332952  0.4166537  0.2600314  )
        24        Zn     tau(  24) = (  0.8334099  0.4167759  0.2605781  )
        25        Zn     tau(  25) = (  0.3333333  0.6666667  0.0513044  )
        26        Zn     tau(  26) = (  0.8333333  0.6666667  0.0513044  )
        27        Zn     tau(  27) = (  0.3332078  0.6666122  0.2602944  )
        28        Zn     tau(  28) = (  0.8334201  0.6666632  0.2603965  )
        29        Zn     tau(  29) = (  0.3333333  0.9166667  0.0513044  )
        30        Zn     tau(  30) = (  0.8333333  0.9166667  0.0513044  )
        31        Zn     tau(  31) = (  0.3331983  0.9165994  0.2605153  )
        32        Zn     tau(  32) = (  0.8334421  0.9166194  0.2600287  )
        33        Zn     tau(  33) = (  0.1666667  0.0833333  0.1539131  )
        34        Zn     tau(  34) = (  0.6666667  0.0833333  0.1539131  )
        35        Zn     tau(  35) = (  0.1664607  0.0833761  0.3666774  )
        36        Zn     tau(  36) = (  0.6665391  0.0831808  0.3661477  )
        37        Zn     tau(  37) = (  0.1666667  0.3333333  0.1539131  )
        38        Zn     tau(  38) = (  0.6666667  0.3333333  0.1539131  )
        39        Zn     tau(  39) = (  0.1665432  0.3333552  0.3666647  )
        40        Zn     tau(  40) = (  0.6661356  0.3336511  0.3645468  )
        41        Zn     tau(  41) = (  0.1666667  0.5833333  0.1539131  )
        42        Zn     tau(  42) = (  0.6666667  0.5833333  0.1539131  )
        43        Zn     tau(  43) = (  0.1666849  0.5833410  0.3668275  )
        44        Zn     tau(  44) = (  0.6663611  0.5836595  0.3668854  )
        45        Zn     tau(  45) = (  0.1666667  0.8333333  0.1539131  )
        46        Zn     tau(  46) = (  0.6666667  0.8333333  0.1539131  )
        47        Zn     tau(  47) = (  0.1665889  0.8332903  0.3668261  )
        48        Zn     tau(  48) = (  0.6666315  0.8334130  0.3666556  )
        49        Zn     tau(  49) = (  0.4166667  0.0833333  0.1539131  )
        50        Zn     tau(  50) = (  0.9166667  0.0833333  0.1539131  )
        51        Zn     tau(  51) = (  0.4162104  0.0831950  0.3660347  )
        52        Zn     tau(  52) = (  0.9166274  0.0833775  0.3665268  )
        53        Zn     tau(  53) = (  0.4166667  0.3333333  0.1539131  )
        54        Zn     tau(  54) = (  0.9166667  0.3333333  0.1539131  )
        55        Zn     tau(  55) = (  0.4162426  0.3335425  0.3667732  )
        56        Zn     tau(  56) = (  0.9166950  0.3333644  0.3662903  )
        57        Zn     tau(  57) = (  0.4166667  0.5833333  0.1539131  )
        58        Zn     tau(  58) = (  0.9166667  0.5833333  0.1539131  )
        59        Zn     tau(  59) = (  0.4165366  0.5833816  0.3668215  )
        60        Zn     tau(  60) = (  0.9166580  0.5836480  0.3663263  )
        61        Zn     tau(  61) = (  0.4166667  0.8333333  0.1539131  )
        62        Zn     tau(  62) = (  0.9166667  0.8333333  0.1539131  )
        63        Zn     tau(  63) = (  0.4165875  0.8331984  0.3668387  )
        64        Zn     tau(  64) = (  0.9165798  0.8334691  0.3666706  )
        65        C      tau(  65) = (  0.4808211  0.5580887  0.6786569  )
        66        C      tau(  66) = (  0.5259308  0.4978675  0.6342212  )
        67        C      tau(  67) = (  0.4321140  0.3520099  0.6152687  )
        68        C      tau(  68) = (  0.6653483  0.5825396  0.6085174  )
        69        C      tau(  69) = (  0.7102987  0.5230283  0.5659573  )
        70        C      tau(  70) = (  0.4766952  0.2925717  0.5725549  )
        71        C      tau(  71) = (  0.6179865  0.3759227  0.5477559  )
        72        N      tau(  72) = (  0.4436994  0.6074422  0.7154111  )
        73        N      tau(  73) = (  0.6674707  0.3127024  0.5090559  )
        74        H      tau(  74) = (  0.7572505  0.3797026  0.4850157  )
        75        H      tau(  75) = (  0.5921654  0.2178043  0.4895093  )
        76        H      tau(  76) = (  0.3233947  0.2859715  0.6346539  )
        77        H      tau(  77) = (  0.7383888  0.6960016  0.6225411  )
        78        H      tau(  78) = (  0.8197106  0.5892402  0.5469445  )
        79        H      tau(  79) = (  0.4034650  0.1786917  0.5587751  )

     number of k points=     5  Marzari-Vanderbilt smearing, width (Ry)=  0.0200
                       cart. coord. in units 2pi/alat
        k(    1) = (   0.0000000   0.0000000   0.0000000), wk =   0.2222222
        k(    2) = (   0.0000000   0.3849002   0.0000000), wk =   0.4444444
        k(    3) = (   0.3333333   0.1924501   0.0000000), wk =   0.4444444
        k(    4) = (   0.3333333   0.5773503   0.0000000), wk =   0.4444444
        k(    5) = (   0.3333333  -0.1924501   0.0000000), wk =   0.4444444

                       cryst. coord.
        k(    1) = (   0.0000000   0.0000000   0.0000000), wk =   0.2222222
        k(    2) = (   0.0000000   0.3333333   0.0000000), wk =   0.4444444
        k(    3) = (   0.3333333   0.0000000   0.0000000), wk =   0.4444444
        k(    4) = (   0.3333333   0.3333333   0.0000000), wk =   0.4444444
        k(    5) = (   0.3333333  -0.3333333   0.0000000), wk =   0.4444444

     Dense  grid:   337189 G-vectors     FFT dimensions: (  72,  72, 160)

     Dynamical RAM for                 wfc:      31.89 MB

     Dynamical RAM for     wfc (w. buffer):     191.33 MB

     Dynamical RAM for           str. fact:       1.29 MB

     Dynamical RAM for           local pot:       0.00 MB

     Dynamical RAM for          nlocal pot:      49.64 MB

     Dynamical RAM for                qrad:       3.52 MB

     Dynamical RAM for          rho,v,vnew:       2.15 MB

     Dynamical RAM for               rhoin:       0.72 MB

     Dynamical RAM for            rho*nmix:       5.15 MB

     Dynamical RAM for           G-vectors:       1.37 MB

     Dynamical RAM for          h,s,v(r/c):       7.21 MB

     Dynamical RAM for          <psi|beta>:      14.97 MB

     Dynamical RAM for                 psi:      63.78 MB

     Dynamical RAM for                hpsi:      63.78 MB

     Dynamical RAM for                spsi:      63.78 MB

     Dynamical RAM for      wfcinit/wfcrot:      87.69 MB

     Dynamical RAM for           addusdens:      80.39 MB

     Dynamical RAM for          addusforce:     121.32 MB

     Dynamical RAM for         addusstress:      64.63 MB

     Estimated static dynamical RAM per process >     253.59 MB

     Estimated max dynamical RAM per process >     472.26 MB

     Estimated total dynamical RAM >       7.38 GB

     Check: negative core charge=   -0.000055

     Initial potential from superposition of free atoms

     starting charge    1323.9906, renormalised to    1324.0000

     negative rho (up, down):  7.104E-03 0.000E+00
     Starting wfcs are  874 randomized atomic wfcs
[psid05:261087] 15 more processes have sent help message help-mpi-btl-openib.txt / ib port not selected
[psid05:261087] Set MCA parameter "orte_base_help_aggregate" to 0 to see all help / error messages
[psid05:261087] 15 more processes have sent help message help-mpi-btl-openib.txt / error in device init
     Checking if some PAW data can be deallocated... 
       PAW data deallocated on   13 nodes for type:  2

     total cpu time spent up to now is      147.1 secs

     Self-consistent Calculation

     iteration #  1     ecut=    30.00 Ry     beta= 0.70
     Davidson diagonalization with overlap

---- Real-time Memory Report at c_bands before calling an iterative solver
           351 MiB given to the printing process from OS
             0 MiB allocation reported by mallinfo(arena+hblkhd)
         81118 MiB available memory on the node where the printing process lives
------------------
     ethr =  1.00E-02,  avg # of iterations =  7.2

     Threshold (ethr) on eigenvalues was too large:
     Diagonalizing with lowered threshold

     Davidson diagonalization with overlap

---- Real-time Memory Report at c_bands before calling an iterative solver
           507 MiB given to the printing process from OS
             0 MiB allocation reported by mallinfo(arena+hblkhd)
         80417 MiB available memory on the node where the printing process lives
------------------
     ethr =  9.16E-04,  avg # of iterations =  1.4

     negative rho (up, down):  3.456E-02 0.000E+00

     total cpu time spent up to now is     1160.4 secs

     total energy              =  -29703.45935780 Ry
     estimated scf accuracy    <      12.35646878 Ry

     iteration #  2     ecut=    30.00 Ry     beta= 0.70
     Davidson diagonalization with overlap

---- Real-time Memory Report at c_bands before calling an iterative solver
           507 MiB given to the printing process from OS
             0 MiB allocation reported by mallinfo(arena+hblkhd)
         79401 MiB available memory on the node where the printing process lives
------------------
     ethr =  9.33E-04,  avg # of iterations = 12.4

     negative rho (up, down):  3.237E-02 0.000E+00

     total cpu time spent up to now is     1999.9 secs

     total energy              =  -29664.84992531 Ry
     estimated scf accuracy    <     864.72789095 Ry

     iteration #  3     ecut=    30.00 Ry     beta= 0.70
     Davidson diagonalization with overlap

---- Real-time Memory Report at c_bands before calling an iterative solver
           509 MiB given to the printing process from OS
             0 MiB allocation reported by mallinfo(arena+hblkhd)
         79331 MiB available memory on the node where the printing process lives
------------------
     ethr =  9.33E-04,  avg # of iterations =  9.8

     negative rho (up, down):  2.682E-02 0.000E+00

     total cpu time spent up to now is     3213.5 secs

     total energy              =  -29699.95585382 Ry
     estimated scf accuracy    <     182.83177760 Ry

     iteration #  4     ecut=    30.00 Ry     beta= 0.70
     Davidson diagonalization with overlap

---- Real-time Memory Report at c_bands before calling an iterative solver
           510 MiB given to the printing process from OS
             0 MiB allocation reported by mallinfo(arena+hblkhd)
         81886 MiB available memory on the node where the printing process lives
------------------
     ethr =  9.33E-04,  avg # of iterations =  8.6

     negative rho (up, down):  9.020E-03 0.000E+00

     total cpu time spent up to now is     3827.8 secs

     total energy              =  -29706.24329999 Ry
     estimated scf accuracy    <     103.67970665 Ry

     iteration #  5     ecut=    30.00 Ry     beta= 0.70
     Davidson diagonalization with overlap

---- Real-time Memory Report at c_bands before calling an iterative solver
           511 MiB given to the printing process from OS
             0 MiB allocation reported by mallinfo(arena+hblkhd)
         80760 MiB available memory on the node where the printing process lives
------------------
     ethr =  9.33E-04,  avg # of iterations =  7.2

     negative rho (up, down):  9.217E-03 0.000E+00

     total cpu time spent up to now is     4388.9 secs

     total energy              =  -29711.52597948 Ry
     estimated scf accuracy    <       4.84992523 Ry

     iteration #  6     ecut=    30.00 Ry     beta= 0.70
     Davidson diagonalization with overlap

---- Real-time Memory Report at c_bands before calling an iterative solver
           512 MiB given to the printing process from OS
             0 MiB allocation reported by mallinfo(arena+hblkhd)
         80736 MiB available memory on the node where the printing process lives
------------------
     ethr =  3.66E-04,  avg # of iterations =  3.8

     negative rho (up, down):  1.627E-02 0.000E+00

     total cpu time spent up to now is     4890.8 secs

     total energy              =  -29711.99217301 Ry
     estimated scf accuracy    <       0.22271318 Ry

     iteration #  7     ecut=    30.00 Ry     beta= 0.70
     Davidson diagonalization with overlap

---- Real-time Memory Report at c_bands before calling an iterative solver
           513 MiB given to the printing process from OS
             0 MiB allocation reported by mallinfo(arena+hblkhd)
         80708 MiB available memory on the node where the printing process lives
------------------
     ethr =  1.68E-05,  avg # of iterations = 16.0

     negative rho (up, down):  2.539E-02 0.000E+00

     total cpu time spent up to now is     5483.2 secs

     total energy              =  -29712.00049406 Ry
     estimated scf accuracy    <       0.07934681 Ry

     iteration #  8     ecut=    30.00 Ry     beta= 0.70
     Davidson diagonalization with overlap

---- Real-time Memory Report at c_bands before calling an iterative solver
           516 MiB given to the printing process from OS
             0 MiB allocation reported by mallinfo(arena+hblkhd)
         81785 MiB available memory on the node where the printing process lives
------------------
     ethr =  5.99E-06,  avg # of iterations =  9.6

     negative rho (up, down):  3.194E-02 0.000E+00

     total cpu time spent up to now is     6027.8 secs

     total energy              =  -29712.00189585 Ry
     estimated scf accuracy    <       0.05765498 Ry

     iteration #  9     ecut=    30.00 Ry     beta= 0.70
     Davidson diagonalization with overlap

---- Real-time Memory Report at c_bands before calling an iterative solver
           516 MiB given to the printing process from OS
             0 MiB allocation reported by mallinfo(arena+hblkhd)
         78679 MiB available memory on the node where the printing process lives
------------------
     ethr =  4.35E-06,  avg # of iterations =  4.6

     negative rho (up, down):  3.359E-02 0.000E+00

     total cpu time spent up to now is     6547.6 secs

     total energy              =  -29712.00577156 Ry
     estimated scf accuracy    <       0.04532566 Ry

     iteration # 10     ecut=    30.00 Ry     beta= 0.70
     Davidson diagonalization with overlap

---- Real-time Memory Report at c_bands before calling an iterative solver
           517 MiB given to the printing process from OS
             0 MiB allocation reported by mallinfo(arena+hblkhd)
         78647 MiB available memory on the node where the printing process lives
------------------
     ethr =  3.42E-06,  avg # of iterations =  2.8

     negative rho (up, down):  3.428E-02 0.000E+00

     total cpu time spent up to now is     7044.8 secs

     total energy              =  -29712.00928317 Ry
     estimated scf accuracy    <       0.01454369 Ry

     iteration # 11     ecut=    30.00 Ry     beta= 0.70
     Davidson diagonalization with overlap

---- Real-time Memory Report at c_bands before calling an iterative solver
           517 MiB given to the printing process from OS
             0 MiB allocation reported by mallinfo(arena+hblkhd)
         78615 MiB available memory on the node where the printing process lives
------------------
     ethr =  1.10E-06,  avg # of iterations =  8.2

     negative rho (up, down):  4.066E-02 0.000E+00

     total cpu time spent up to now is     7539.2 secs

     total energy              =  -29712.00309478 Ry
     estimated scf accuracy    <       0.01170890 Ry

     iteration # 12     ecut=    30.00 Ry     beta= 0.70
     Davidson diagonalization with overlap

---- Real-time Memory Report at c_bands before calling an iterative solver
           517 MiB given to the printing process from OS
             0 MiB allocation reported by mallinfo(arena+hblkhd)
         78614 MiB available memory on the node where the printing process lives
------------------
     c_bands:  4 eigenvalues not converged
     ethr =  8.84E-07,  avg # of iterations = 14.4

     negative rho (up, down):  3.811E-02 0.000E+00

     total cpu time spent up to now is     8126.4 secs

     total energy              =  -29712.00318451 Ry
     estimated scf accuracy    <       0.00779097 Ry

     iteration # 13     ecut=    30.00 Ry     beta= 0.70
     Davidson diagonalization with overlap

---- Real-time Memory Report at c_bands before calling an iterative solver
           517 MiB given to the printing process from OS
             0 MiB allocation reported by mallinfo(arena+hblkhd)
         79112 MiB available memory on the node where the printing process lives
------------------
     ethr =  5.88E-07,  avg # of iterations =  3.0

     negative rho (up, down):  3.667E-02 0.000E+00

     total cpu time spent up to now is     8621.7 secs

     total energy              =  -29712.00022337 Ry
     estimated scf accuracy    <       0.01187418 Ry

     iteration # 14     ecut=    30.00 Ry     beta= 0.70
     Davidson diagonalization with overlap

---- Real-time Memory Report at c_bands before calling an iterative solver
           517 MiB given to the printing process from OS
             0 MiB allocation reported by mallinfo(arena+hblkhd)
         80074 MiB available memory on the node where the printing process lives
------------------
     ethr =  5.88E-07,  avg # of iterations = 12.2

     negative rho (up, down):  3.599E-02 0.000E+00

     total cpu time spent up to now is     9189.0 secs

     total energy              =  -29711.99706859 Ry
     estimated scf accuracy    <       0.12468991 Ry

     iteration # 15     ecut=    30.00 Ry     beta= 0.70
     Davidson diagonalization with overlap

---- Real-time Memory Report at c_bands before calling an iterative solver
           517 MiB given to the printing process from OS
             0 MiB allocation reported by mallinfo(arena+hblkhd)
         79104 MiB available memory on the node where the printing process lives
------------------
     ethr =  5.88E-07,  avg # of iterations =  6.8

     negative rho (up, down):  3.576E-02 0.000E+00

     total cpu time spent up to now is     9714.7 secs

     total energy              =  -29712.00380337 Ry
     estimated scf accuracy    <       0.00067464 Ry

     iteration # 16     ecut=    30.00 Ry     beta= 0.70
     Davidson diagonalization with overlap

---- Real-time Memory Report at c_bands before calling an iterative solver
           517 MiB given to the printing process from OS
             0 MiB allocation reported by mallinfo(arena+hblkhd)
         79687 MiB available memory on the node where the printing process lives
------------------
     ethr =  5.10E-08,  avg # of iterations =  3.0

     negative rho (up, down):  3.540E-02 0.000E+00

     total cpu time spent up to now is    10243.7 secs

     total energy              =  -29712.00390039 Ry
     estimated scf accuracy    <       0.00052658 Ry

     iteration # 17     ecut=    30.00 Ry     beta= 0.70
     Davidson diagonalization with overlap

---- Real-time Memory Report at c_bands before calling an iterative solver
           517 MiB given to the printing process from OS
             0 MiB allocation reported by mallinfo(arena+hblkhd)
         78608 MiB available memory on the node where the printing process lives
------------------
     ethr =  3.98E-08,  avg # of iterations =  2.0

     negative rho (up, down):  3.507E-02 0.000E+00

     total cpu time spent up to now is    10716.3 secs

     total energy              =  -29712.00396740 Ry
     estimated scf accuracy    <       0.00006766 Ry

     iteration # 18     ecut=    30.00 Ry     beta= 0.70
     Davidson diagonalization with overlap

---- Real-time Memory Report at c_bands before calling an iterative solver
           517 MiB given to the printing process from OS
             0 MiB allocation reported by mallinfo(arena+hblkhd)
         78607 MiB available memory on the node where the printing process lives
------------------
     ethr =  5.11E-09,  avg # of iterations =  2.0

     negative rho (up, down):  3.489E-02 0.000E+00

     total cpu time spent up to now is    11196.1 secs

     total energy              =  -29712.00397560 Ry
     estimated scf accuracy    <       0.00001090 Ry

     iteration # 19     ecut=    30.00 Ry     beta= 0.70
     Davidson diagonalization with overlap

---- Real-time Memory Report at c_bands before calling an iterative solver
           517 MiB given to the printing process from OS
             0 MiB allocation reported by mallinfo(arena+hblkhd)
         78608 MiB available memory on the node where the printing process lives
------------------
     ethr =  8.24E-10,  avg # of iterations =  3.0

     negative rho (up, down):  3.485E-02 0.000E+00

     total cpu time spent up to now is    11676.6 secs

     total energy              =  -29712.00397699 Ry
     estimated scf accuracy    <       0.00000169 Ry

     iteration # 20     ecut=    30.00 Ry     beta= 0.70
     Davidson diagonalization with overlap

---- Real-time Memory Report at c_bands before calling an iterative solver
           517 MiB given to the printing process from OS
             0 MiB allocation reported by mallinfo(arena+hblkhd)
         78607 MiB available memory on the node where the printing process lives
------------------
     ethr =  1.28E-10,  avg # of iterations =  2.0

     negative rho (up, down):  3.483E-02 0.000E+00

     total cpu time spent up to now is    12181.7 secs

     total energy              =  -29712.00397710 Ry
     estimated scf accuracy    <       0.00000266 Ry

     iteration # 21     ecut=    30.00 Ry     beta= 0.70
     Davidson diagonalization with overlap

---- Real-time Memory Report at c_bands before calling an iterative solver
           517 MiB given to the printing process from OS
             0 MiB allocation reported by mallinfo(arena+hblkhd)
         78609 MiB available memory on the node where the printing process lives
------------------
     ethr =  1.28E-10,  avg # of iterations =  2.0

     negative rho (up, down):  3.479E-02 0.000E+00

     total cpu time spent up to now is    12654.8 secs

     End of self-consistent calculation

          k = 0.0000 0.0000 0.0000 ( 42115 PWs)   bands (ev):

  -123.0710-123.0682-123.0678-123.0674-123.0672-123.0670-123.0668-123.0667
  -123.0665-123.0664-123.0661-123.0660-123.0657-123.0655-123.0654-123.0651
  -123.0334-123.0324-123.0263-123.0246-123.0235-123.0230-123.0226-123.0223
  -123.0220-123.0205-123.0201-123.0197-123.0190-123.0179-123.0173-123.0167
  -122.8720-122.8697-122.8668-122.8667-122.8664-122.8660-122.8658-122.8656
  -122.8654-122.8652-122.8649-122.8649-122.8648-122.8645-122.8643-122.8632
  -122.8629-122.8573-122.8556-122.8509-122.8500-122.8418-122.8397-122.8388
  -122.8386-122.8381-122.8365-122.8361-122.8355-122.8352-122.8348-122.8331
   -77.1793 -77.1793 -77.1792 -77.1702 -77.1701 -77.1701 -77.1698 -77.1698
   -77.1695 -77.1570 -77.1551 -77.1543 -77.1543 -77.1538 -77.1538 -77.1537
   -77.1534 -77.1533 -77.1532 -77.1529 -77.1528 -77.1527 -77.1525 -77.1524
   -77.1519 -77.1473 -77.1472 -77.1471 -77.1469 -77.1468 -77.1467 -77.1442
   -77.1441 -77.1440 -77.1439 -77.1437 -77.1436 -77.1424 -77.1424 -77.1397
   -77.1397 -77.1395 -77.1393 -77.1392 -77.1391 -77.1388 -77.1387 -77.1386
   -77.1375 -77.1361 -77.1354 -77.1271 -77.1266 -77.1254 -77.1252 -77.1244
   -77.1239 -77.1193 -77.1186 -77.1125 -77.1107 -77.1097 -77.1090 -77.1087
   -77.1085 -77.1082 -77.1074 -77.1068 -77.1064 -77.1060 -77.1058 -77.1052
   -77.1045 -77.1042 -77.1041 -77.1036 -77.1030 -77.1025 -77.1016 -77.1014
   -77.1003 -77.0998 -77.0987 -77.0984 -77.0980 -77.0975 -77.0966 -77.0955
   -77.0949 -77.0938 -77.0935 -77.0928 -77.0925 -77.0917 -77.0910 -77.0908
   -76.9756 -76.9755 -76.9754 -76.9674 -76.9663 -76.9662 -76.9659 -76.9657
   -76.9656 -76.9655 -76.9640 -76.9622 -76.9613 -76.9608 -76.9604 -76.9603
   -76.9600 -76.9596 -76.9593 -76.9593 -76.9590 -76.9590 -76.9587 -76.9586
   -76.9584 -76.9583 -76.9569 -76.9566 -76.9534 -76.9524 -76.9509 -76.9480
   -76.9461 -76.9456 -76.9448 -76.9441 -76.9433 -76.9431 -76.9429 -76.9428
   -76.9426 -76.9423 -76.9422 -76.9413 -76.9408 -76.9398 -76.9398 -76.9395
   -76.9394 -76.9391 -76.9390 -76.9385 -76.9382 -76.9364 -76.9358 -76.9355
   -76.9353 -76.9351 -76.9348 -76.9348 -76.9344 -76.9344 -76.9342 -76.9339
   -76.9335 -76.9334 -76.9331 -76.9323 -76.9312 -76.9307 -76.9304 -76.9300
   -76.9297 -76.9297 -76.9279 -76.9264 -76.9240 -76.9225 -76.9202 -76.9182
   -76.9169 -76.9167 -76.9159 -76.9138 -76.9123 -76.9122 -76.9105 -76.9104
   -76.9093 -76.9078 -76.9075 -76.9072 -76.9066 -76.9057 -76.9050 -76.9044
   -15.5635 -14.1491 -13.3209 -10.9523 -10.8513  -7.9249  -7.6461  -6.5207
    -5.7420  -5.7336  -5.1761  -5.1515  -5.0374  -4.9601  -4.9421  -4.9401
    -4.9395  -4.9390  -4.9381  -4.9377  -4.7899  -4.7899  -4.7898  -4.7370
    -4.7365  -4.7363  -4.6152  -4.6122  -4.6102  -4.6091  -4.6079  -4.6074
    -4.6022  -4.6020  -4.6018  -4.5294  -4.5286  -4.5276  -4.4581  -4.4576
    -4.4574  -4.4571  -4.4569  -4.4568  -4.4329  -4.4327  -4.4326  -4.3875
    -4.3850  -4.3844  -4.3829  -4.3826  -4.3814  -4.3807  -4.3803  -4.3798
    -4.3793  -4.3789  -4.3785  -4.3646  -4.3640  -4.3639  -4.3347  -4.3345
    -4.3337  -4.3336  -4.3330  -4.3327  -4.2907  -4.2905  -4.2890  -4.2887
    -4.2881  -4.2876  -4.2301  -4.2025  -4.1994  -4.1972  -4.1964  -4.1958
    -4.1957  -4.1955  -4.1954  -4.1950  -4.1949  -4.1943  -4.1941  -4.1519
    -4.1517  -4.1513  -4.1504  -4.1500  -4.1497  -4.1476  -4.1463  -4.1442
    -4.1430  -4.1413  -4.1410  -4.1387  -4.1378  -4.1374  -4.1025  -4.1014
    -4.0990  -4.0978  -4.0973  -4.0972  -4.0634  -4.0632  -4.0624  -4.0598
    -4.0583  -4.0573  -4.0269  -4.0269  -4.0138  -4.0132  -4.0130  -4.0116
    -4.0111  -4.0109  -4.0091  -4.0082  -4.0077  -4.0035  -4.0019  -4.0014
    -4.0007  -4.0006  -4.0002  -3.9881  -3.9761  -3.9760  -3.9445  -3.9442
    -3.9438  -3.9421  -3.9419  -3.9417  -3.9271  -3.9258  -3.9240  -3.9239
    -3.9230  -3.9230  -3.8889  -3.8877  -3.8872  -3.8870  -3.8862  -3.8860
    -3.8553  -3.8542  -3.8537  -3.8531  -3.8530  -3.8529  -3.8190  -3.8190
    -3.7907  -3.7906  -3.7868  -3.7866  -3.7863  -3.7858  -3.7855  -3.7851
    -3.7510  -3.7509  -3.7507  -3.7401  -3.7398  -3.7397  -3.7374  -3.7373
    -3.7366  -3.7167  -3.7160  -3.7150  -3.7144  -3.7129  -3.7126  -3.6870
    -3.6852  -3.6850  -3.6838  -3.6834  -3.6824  -3.6822  -3.6821  -3.6821
    -3.6820  -3.6819  -3.6819  -3.6684  -3.6684  -3.6679  -3.6665  -3.6660
    -3.6658  -3.6656  -3.6654  -3.6653  -3.6590  -3.6584  -3.6567  -3.6564
    -3.6560  -3.6550  -3.6543  -3.6532  -3.6531  -3.6526  -3.6523  -3.6509
    -3.6329  -3.6327  -3.6326  -3.6322  -3.6321  -3.6320  -3.5943  -3.5941
    -3.5933  -3.5823  -3.5815  -3.5808  -3.5802  -3.5794  -3.5789  -3.5764
    -3.5762  -3.5759  -3.5738  -3.5731  -3.5723  -3.5380  -3.5379  -3.5184
    -3.5178  -3.5171  -3.5165  -3.5163  -3.5160  -3.5144  -3.5134  -3.5118
    -3.5108  -3.5102  -3.5089  -3.5070  -3.5066  -3.5064  -3.5049  -3.5040
    -3.5039  -3.4977  -3.4975  -3.4973  -3.4964  -3.4960  -3.4958  -3.4397
    -3.4394  -3.4323  -3.4322  -3.4315  -3.4019  -3.4019  -3.4017  -3.4015
    -3.4013  -3.4013  -3.3964  -3.3962  -3.3958  -3.3845  -3.3832  -3.3817
    -3.3801  -3.3793  -3.3787  -3.3783  -3.3769  -3.3757  -3.3582  -3.3581
    -3.3578  -3.3535  -3.3530  -3.3524  -3.3516  -3.3515  -3.3512  -3.3255
    -3.3252  -3.3251  -3.3240  -3.3239  -3.3236  -3.3086  -3.3083  -3.3081
    -3.3061  -3.3052  -3.3045  -3.2998  -3.2992  -3.2984  -3.2805  -3.2804
    -3.2626  -3.2623  -3.2252  -3.2251  -3.2250  -3.2248  -3.2248  -3.2247
    -3.2140  -3.2136  -3.2132  -3.2127  -3.2122  -3.2119  -3.1934  -3.1933
    -3.1933  -3.1491  -3.1488  -3.1486  -3.1052  -3.0629  -3.0168  -2.9888
    -2.9887  -2.9886  -2.9667  -2.9657  -2.9646  -2.9363  -2.9310  -2.9305
    -2.9276  -2.9243  -2.9234  -2.6097  -2.1333  -1.7919  -1.5210  -1.5198
    -1.5189  -1.5183  -1.5177  -1.5121  -1.0618  -0.9010  -0.7339  -0.0932
    -0.0560  -0.0543  -0.0532  -0.0525  -0.0511  -0.0508   0.3110   0.3563
     0.3743   0.3763   0.3782   0.3802   0.3815   0.5463   0.7868   0.7871
     0.7897   0.7911   0.7926   0.7929   1.1208   1.2474   1.2476   1.2479
     1.2542   1.8073   1.8095   1.8098   2.1571   2.1589   2.1607   2.2038
     2.2072   2.2088   2.2097   2.2109   2.2113   2.4036   2.4046   2.4063
     2.5997   3.3969   3.4085   3.4145   3.4208   3.4228   3.4309   3.9030
     3.9041   3.9045   3.9077   3.9088   3.9096   4.0716   4.4933   4.4965
     4.4985   4.7780   4.7797   4.7808   5.6088   5.6115   5.6122   5.8720
     5.9151   5.9220   5.9418   5.9455   5.9566   6.1939   6.2636   6.4097
     6.5188   6.5221   6.5330   6.9471   7.1139   7.2550   7.2699   7.2704
     7.2792   7.2844   7.2889   7.5043   7.5055   7.5080   7.5083   7.5087
     7.5090   7.6687   7.6691   7.6717   7.6720   7.6727   7.6739   7.7443
     7.8620   7.8896   7.9889   8.0666   8.1111   8.2326   8.3939   8.3944
     8.3981   8.3984   8.4035   8.4057   8.4203   8.4401   8.4583   8.4717
     8.4742   8.4759   8.4787   8.4815   8.4821   8.5184   8.5671   8.6378
     8.6728   8.7450   8.7704   8.7842   8.8556   8.8637   8.9672   8.9702
     9.0093   9.1790   9.3318   9.4083   9.4256   9.4621   9.4828   9.4957
     9.5060   9.5997   9.8761   9.8826   9.9142   9.9187   9.9254   9.9313
     9.9595   9.9651   9.9718   9.9773   9.9797   9.9806  10.0021  10.0651
    10.0788  10.1135  10.3110  10.3382  10.4133  10.4401  10.4769  10.5518
    10.6518  10.6720  10.7308  10.7585  10.8409  10.9416  11.1111  11.1707
    11.1814  11.2143  11.2898  11.3352  11.3454  11.3496  11.3524  11.3540
    11.3578  11.3959

     occupation numbers 
     1.0000   1.0000   1.0000   1.0000   1.0000   1.0000   1.0000   1.0000
     1.0000   1.0000   1.0000   1.0000   1.0000   1.0000   1.0000   1.0000
     1.0000   1.0000   1.0000   1.0000   1.0000   1.0000   1.0000   1.0000
     1.0000   1.0000   1.0000   1.0000   1.0000   1.0000   1.0000   1.0000
     1.0000   1.0000   1.0000   1.0000   1.0000   1.0000   1.0000   1.0000
     1.0000   1.0000   1.0000   1.0000   1.0000   1.0000   1.0000   1.0000
     1.0000   1.0000   1.0000   1.0000   1.0000   1.0000   1.0000   1.0000
     1.0000   1.0000   1.0000   1.0000   1.0000   1.0000   1.0000   1.0000
     1.0000   1.0000   1.0000   1.0000   1.0000   1.0000   1.0000   1.0000
     1.0000   1.0000   1.0000   1.0000   1.0000   1.0000   1.0000   1.0000
     1.0000   1.0000   1.0000   1.0000   1.0000   1.0000   1.0000   1.0000
     1.0000   1.0000   1.0000   1.0000   1.0000   1.0000   1.0000   1.0000
     1.0000   1.0000   1.0000   1.0000   1.0000   1.0000   1.0000   1.0000
     1.0000   1.0000   1.0000   1.0000   1.0000   1.0000   1.0000   1.0000
     1.0000   1.0000   1.0000   1.0000   1.0000   1.0000   1.0000   1.0000
     1.0000   1.0000   1.0000   1.0000   1.0000   1.0000   1.0000   1.0000
     1.0000   1.0000   1.0000   1.0000   1.0000   1.0000   1.0000   1.0000
     1.0000   1.0000   1.0000   1.0000   1.0000   1.0000   1.0000   1.0000
     1.0000   1.0000   1.0000   1.0000   1.0000   1.0000   1.0000   1.0000
     1.0000   1.0000   1.0000   1.0000   1.0000   1.0000   1.0000   1.0000
     1.0000   1.0000   1.0000   1.0000   1.0000   1.0000   1.0000   1.0000
     1.0000   1.0000   1.0000   1.0000   1.0000   1.0000   1.0000   1.0000
     1.0000   1.0000   1.0000   1.0000   1.0000   1.0000   1.0000   1.0000
     1.0000   1.0000   1.0000   1.0000   1.0000   1.0000   1.0000   1.0000
     1.0000   1.0000   1.0000   1.0000   1.0000   1.0000   1.0000   1.0000
     1.0000   1.0000   1.0000   1.0000   1.0000   1.0000   1.0000   1.0000
     1.0000   1.0000   1.0000   1.0000   1.0000   1.0000   1.0000   1.0000
     1.0000   1.0000   1.0000   1.0000   1.0000   1.0000   1.0000   1.0000
     1.0000   1.0000   1.0000   1.0000   1.0000   1.0000   1.0000   1.0000
     1.0000   1.0000   1.0000   1.0000   1.0000   1.0000   1.0000   1.0000
     1.0000   1.0000   1.0000   1.0000   1.0000   1.0000   1.0000   1.0000
     1.0000   1.0000   1.0000   1.0000   1.0000   1.0000   1.0000   1.0000
     1.0000   1.0000   1.0000   1.0000   1.0000   1.0000   1.0000   1.0000
     1.0000   1.0000   1.0000   1.0000   1.0000   1.0000   1.0000   1.0000
     1.0000   1.0000   1.0000   1.0000   1.0000   1.0000   1.0000   1.0000
     1.0000   1.0000   1.0000   1.0000   1.0000   1.0000   1.0000   1.0000
     1.0000   1.0000   1.0000   1.0000   1.0000   1.0000   1.0000   1.0000
     1.0000   1.0000   1.0000   1.0000   1.0000   1.0000   1.0000   1.0000
     1.0000   1.0000   1.0000   1.0000   1.0000   1.0000   1.0000   1.0000
     1.0000   1.0000   1.0000   1.0000   1.0000   1.0000   1.0000   1.0000
     1.0000   1.0000   1.0000   1.0000   1.0000   1.0000   1.0000   1.0000
     1.0000   1.0000   1.0000   1.0000   1.0000   1.0000   1.0000   1.0000
     1.0000   1.0000   1.0000   1.0000   1.0000   1.0000   1.0000   1.0000
     1.0000   1.0000   1.0000   1.0000   1.0000   1.0000   1.0000   1.0000
     1.0000   1.0000   1.0000   1.0000   1.0000   1.0000   1.0000   1.0000
     1.0000   1.0000   1.0000   1.0000   1.0000   1.0000   1.0000   1.0000
     1.0000   1.0000   1.0000   1.0000   1.0000   1.0000   1.0000   1.0000
     1.0000   1.0000   1.0000   1.0000   1.0000   1.0000   1.0000   1.0000
     1.0000   1.0000   1.0000   1.0000   1.0000   1.0000   1.0000   1.0000
     1.0000   1.0000   1.0000   1.0000   1.0000   1.0000   1.0000   1.0000
     1.0000   1.0000   1.0000   1.0000   1.0000   1.0000   1.0000   1.0000
     1.0000   1.0000   1.0000   1.0000   1.0000   1.0000   1.0000   1.0000
     1.0000   1.0000   1.0000   1.0000   1.0000   1.0000   1.0000   1.0000
     1.0000   1.0000   1.0000   1.0000   1.0000   1.0000   1.0000   1.0000
     1.0000   1.0000   1.0000   1.0000   1.0000   1.0000   1.0000   1.0000
     1.0000   1.0000   1.0000   1.0000   1.0000   1.0000   1.0000   1.0000
     1.0000   1.0000   1.0000   1.0000   1.0000   1.0000   1.0000   1.0000
     1.0000   1.0000   1.0000   1.0000   1.0000   1.0000   1.0000   1.0000
     1.0000   1.0000   1.0000   1.0000   1.0000   1.0000   1.0000   1.0000
     1.0000   1.0000   1.0000   1.0000   1.0000   1.0000   1.0000   1.0000
     1.0000   1.0000   1.0000   1.0000   1.0000   1.0000   1.0000   1.0000
     1.0000   1.0000   1.0000   1.0000   1.0000   1.0000   1.0000   1.0000
     1.0000   1.0000   1.0000   1.0000   1.0000   1.0000   1.0000   1.0000
     1.0000   1.0000   1.0000   1.0000   1.0000   1.0000   1.0000   1.0000
     1.0000   1.0000   1.0000   1.0000   1.0000   1.0000   1.0000   1.0000
     1.0000   1.0000   1.0000   1.0000   1.0000   1.0000   1.0000   1.0000
     1.0000   1.0000   1.0000   1.0000   1.0000   1.0000   1.0000   1.0000
     1.0000   1.0000   1.0000   1.0000   1.0000   1.0000   1.0000   1.0000
     1.0000   1.0000   1.0000   1.0000   1.0000   1.0000   1.0000   1.0000
     1.0000   1.0000   1.0000   1.0000   1.0000   1.0000   1.0000   1.0000
     1.0000   1.0000   1.0000   1.0000   1.0000   1.0000   1.0000   1.0000
     1.0000   1.0000   1.0000   1.0000   1.0000   1.0000   1.0000   1.0000
     1.0000   1.0000   1.0000   1.0000   1.0000   1.0000   1.0000   1.0000
     1.0000   1.0000   1.0000   1.0000   1.0000   1.0000   1.0000   1.0000
     1.0000   1.0000   1.0000   1.0000   1.0000   1.0000   1.0000   1.0000
     1.0000   1.0000   1.0000   1.0000   1.0000   1.0000   1.0000   1.0000
     1.0000   1.0000   1.0000   1.0000   1.0000   1.0000   1.0000   1.0000
     1.0000   1.0000   1.0000   1.0000   1.0000   1.0000   1.0000   1.0000
     1.0000   1.0000   1.0000   1.0000   1.0000   1.0000   1.0000   1.0000
     1.0000   1.0000   1.0000   1.0000   1.0000   1.0000   1.0000   1.0000
     1.0000   1.0000   1.0000   1.0000   1.0000   1.0000   1.0000   1.0000
     1.0000   1.0000   1.0000   1.0000   1.0000   1.0000   1.0000   1.0000
     1.0000   1.0335   1.0370   1.0389   1.0409   1.0415   1.0441   0.5693
     0.5662   0.5653   0.5565   0.5534   0.5511   0.1813   0.0005   0.0004
     0.0004   0.0000   0.0000   0.0000   0.0000   0.0000   0.0000   0.0000
     0.0000   0.0000   0.0000   0.0000   0.0000   0.0000   0.0000   0.0000
     0.0000   0.0000   0.0000   0.0000   0.0000   0.0000   0.0000   0.0000
     0.0000   0.0000   0.0000   0.0000   0.0000   0.0000   0.0000   0.0000
     0.0000   0.0000   0.0000   0.0000   0.0000   0.0000   0.0000   0.0000
     0.0000   0.0000   0.0000   0.0000   0.0000   0.0000   0.0000   0.0000
     0.0000   0.0000   0.0000   0.0000   0.0000   0.0000   0.0000   0.0000
     0.0000   0.0000   0.0000   0.0000   0.0000   0.0000   0.0000   0.0000
     0.0000   0.0000   0.0000   0.0000   0.0000   0.0000   0.0000   0.0000
     0.0000   0.0000   0.0000   0.0000   0.0000   0.0000   0.0000   0.0000
     0.0000   0.0000   0.0000   0.0000   0.0000   0.0000   0.0000   0.0000
     0.0000   0.0000   0.0000   0.0000   0.0000   0.0000   0.0000   0.0000
     0.0000   0.0000   0.0000   0.0000   0.0000   0.0000   0.0000   0.0000
     0.0000   0.0000   0.0000   0.0000   0.0000   0.0000   0.0000   0.0000
     0.0000   0.0000   0.0000   0.0000   0.0000   0.0000   0.0000   0.0000
     0.0000   0.0000

          k = 0.0000 0.3849 0.0000 ( 42150 PWs)   bands (ev):

  -123.0698-123.0684-123.0679-123.0677-123.0672-123.0671-123.0670-123.0668
  -123.0668-123.0667-123.0664-123.0661-123.0661-123.0660-123.0658-123.0654
  -123.0332-123.0327-123.0262-123.0245-123.0236-123.0232-123.0228-123.0225
  -123.0223-123.0207-123.0204-123.0198-123.0193-123.0181-123.0175-123.0170
  -122.8721-122.8684-122.8671-122.8668-122.8665-122.8662-122.8660-122.8657
  -122.8656-122.8654-122.8653-122.8651-122.8650-122.8648-122.8648-122.8635
  -122.8632-122.8573-122.8557-122.8509-122.8504-122.8417-122.8397-122.8390
  -122.8388-122.8385-122.8366-122.8362-122.8357-122.8355-122.8352-122.8334
   -77.1782 -77.1782 -77.1746 -77.1718 -77.1717 -77.1709 -77.1707 -77.1645
   -77.1644 -77.1595 -77.1567 -77.1563 -77.1560 -77.1560 -77.1559 -77.1553
   -77.1547 -77.1540 -77.1539 -77.1538 -77.1537 -77.1534 -77.1533 -77.1530
   -77.1528 -77.1525 -77.1524 -77.1520 -77.1510 -77.1509 -77.1499 -77.1499
   -77.1462 -77.1462 -77.1447 -77.1446 -77.1422 -77.1422 -77.1396 -77.1388
   -77.1386 -77.1382 -77.1379 -77.1370 -77.1361 -77.1360 -77.1357 -77.1355
   -77.1354 -77.1350 -77.1321 -77.1276 -77.1274 -77.1265 -77.1250 -77.1198
   -77.1197 -77.1194 -77.1189 -77.1152 -77.1129 -77.1125 -77.1113 -77.1109
   -77.1103 -77.1097 -77.1094 -77.1091 -77.1090 -77.1087 -77.1080 -77.1072
   -77.1071 -77.1067 -77.1060 -77.1057 -77.1051 -77.1041 -77.1038 -77.1025
   -77.1024 -77.1014 -77.1000 -77.0987 -77.0983 -77.0979 -77.0956 -77.0946
   -77.0935 -77.0928 -77.0922 -77.0913 -77.0906 -77.0896 -77.0884 -77.0883
   -76.9743 -76.9743 -76.9709 -76.9681 -76.9678 -76.9675 -76.9668 -76.9666
   -76.9635 -76.9626 -76.9622 -76.9621 -76.9611 -76.9608 -76.9606 -76.9603
   -76.9602 -76.9601 -76.9597 -76.9593 -76.9591 -76.9590 -76.9589 -76.9587
   -76.9579 -76.9577 -76.9565 -76.9563 -76.9555 -76.9527 -76.9523 -76.9520
   -76.9517 -76.9508 -76.9498 -76.9498 -76.9484 -76.9475 -76.9462 -76.9458
   -76.9455 -76.9454 -76.9441 -76.9420 -76.9417 -76.9409 -76.9405 -76.9403
   -76.9386 -76.9380 -76.9379 -76.9371 -76.9367 -76.9355 -76.9350 -76.9348
   -76.9346 -76.9343 -76.9342 -76.9340 -76.9336 -76.9334 -76.9330 -76.9329
   -76.9327 -76.9322 -76.9318 -76.9313 -76.9310 -76.9308 -76.9307 -76.9305
   -76.9303 -76.9297 -76.9291 -76.9285 -76.9276 -76.9259 -76.9251 -76.9232
   -76.9215 -76.9194 -76.9182 -76.9158 -76.9139 -76.9132 -76.9114 -76.9098
   -76.9088 -76.9074 -76.9067 -76.9062 -76.9050 -76.9039 -76.9028 -76.9018
   -15.5635 -14.1491 -13.3209 -10.9523 -10.8514  -7.9250  -7.6463  -6.3085
    -5.7421  -5.7024  -5.5367  -5.1782  -5.1686  -5.1610  -5.1441  -5.0094
    -4.9029  -4.8465  -4.7599  -4.7217  -4.7217  -4.7129  -4.7042  -4.6657
    -4.6654  -4.6435  -4.6430  -4.6356  -4.6335  -4.6330  -4.6150  -4.5696
    -4.5610  -4.5503  -4.5502  -4.5226  -4.5224  -4.5204  -4.5197  -4.4971
    -4.4900  -4.4734  -4.4731  -4.4590  -4.4586  -4.4450  -4.4446  -4.4336
    -4.4336  -4.4256  -4.4215  -4.4215  -4.4028  -4.4004  -4.4002  -4.3985
    -4.3985  -4.3863  -4.3863  -4.3618  -4.3613  -4.3554  -4.3534  -4.3507
    -4.3506  -4.3359  -4.3327  -4.3325  -4.3227  -4.3221  -4.3184  -4.3177
    -4.3172  -4.2862  -4.2861  -4.2815  -4.2806  -4.2612  -4.2603  -4.2570
    -4.2560  -4.2527  -4.2520  -4.2510  -4.2078  -4.2066  -4.2022  -4.2020
    -4.2012  -4.1811  -4.1793  -4.1771  -4.1768  -4.1621  -4.1620  -4.1560
    -4.1353  -4.1348  -4.1337  -4.1318  -4.1286  -4.1278  -4.1241  -4.1231
    -4.1222  -4.1001  -4.0996  -4.0956  -4.0952  -4.0930  -4.0876  -4.0859
    -4.0826  -4.0817  -4.0810  -4.0710  -4.0701  -4.0603  -4.0589  -4.0582
    -4.0474  -4.0182  -4.0143  -4.0124  -4.0062  -3.9945  -3.9933  -3.9908
    -3.9896  -3.9892  -3.9806  -3.9799  -3.9783  -3.9746  -3.9742  -3.9719
    -3.9529  -3.9527  -3.9492  -3.9489  -3.9301  -3.9294  -3.9229  -3.9114
    -3.9022  -3.9008  -3.8996  -3.8934  -3.8928  -3.8758  -3.8748  -3.8668
    -3.8649  -3.8646  -3.8638  -3.8517  -3.8403  -3.8399  -3.8396  -3.8264
    -3.8250  -3.8238  -3.8165  -3.8109  -3.8094  -3.8086  -3.8076  -3.8069
    -3.7821  -3.7820  -3.7775  -3.7754  -3.7742  -3.7662  -3.7577  -3.7573
    -3.7534  -3.7394  -3.7366  -3.7262  -3.7260  -3.7062  -3.7052  -3.7045
    -3.7030  -3.7028  -3.6968  -3.6957  -3.6943  -3.6926  -3.6925  -3.6780
    -3.6776  -3.6727  -3.6724  -3.6672  -3.6670  -3.6594  -3.6587  -3.6526
    -3.6524  -3.6455  -3.6449  -3.6425  -3.6375  -3.6366  -3.6350  -3.6343
    -3.6227  -3.6205  -3.6201  -3.6077  -3.6064  -3.6009  -3.6004  -3.5972
    -3.5911  -3.5903  -3.5885  -3.5868  -3.5860  -3.5834  -3.5818  -3.5807
    -3.5772  -3.5619  -3.5609  -3.5604  -3.5600  -3.5592  -3.5584  -3.5554
    -3.5548  -3.5541  -3.5481  -3.5297  -3.5272  -3.5266  -3.5218  -3.5210
    -3.5065  -3.5059  -3.4939  -3.4937  -3.4723  -3.4699  -3.4695  -3.4689
    -3.4671  -3.4667  -3.4646  -3.4644  -3.4583  -3.4579  -3.4570  -3.4565
    -3.4502  -3.4501  -3.4463  -3.4397  -3.4394  -3.4355  -3.4351  -3.4340
    -3.4332  -3.4289  -3.4275  -3.4269  -3.4264  -3.4260  -3.4169  -3.4065
    -3.4064  -3.4042  -3.4041  -3.3900  -3.3846  -3.3841  -3.3765  -3.3761
    -3.3738  -3.3726  -3.3715  -3.3538  -3.3467  -3.3446  -3.3430  -3.3428
    -3.3398  -3.3382  -3.3379  -3.3375  -3.3369  -3.3314  -3.3311  -3.3298
    -3.3205  -3.3200  -3.3188  -3.3150  -3.3117  -3.3108  -3.3093  -3.3090
    -3.3086  -3.3084  -3.3012  -3.2899  -3.2893  -3.2852  -3.2846  -3.2844
    -3.2832  -3.2663  -3.2663  -3.2651  -3.2481  -3.2314  -3.2313  -3.2281
    -3.2278  -3.2080  -3.2079  -3.2053  -3.2047  -3.2038  -3.1971  -3.1901
    -3.1899  -3.1746  -3.1107  -3.0994  -3.0894  -3.0831  -3.0830  -3.0607
    -3.0604  -3.0453  -3.0222  -3.0145  -2.8950  -2.8942  -2.8268  -2.6109
    -2.5291  -2.3478  -2.2077  -2.2027  -2.1277  -1.8578  -1.8488  -1.7799
    -1.7203  -1.7190  -1.6903  -0.9427  -0.9283  -0.9235  -0.8805  -0.7580
    -0.7473  -0.7245  -0.6864  -0.4419  -0.1935  -0.0933   0.0429   0.0458
     0.0993   0.0995   0.1530   0.3119   0.4882   0.5056   0.5445   0.5969
     0.5973   0.9391   0.9395   1.1020   1.1049   1.2530   1.3967   1.3983
     1.4055   1.5565   1.6304   2.0398   2.0417   2.1961   2.2782   2.2822
     2.3319   2.3353   2.5711   2.5864   2.6205   2.8841   2.8883   2.9411
     2.9559   3.0146   3.0156   3.0754   3.8839   3.8848   4.1808   4.1828
     4.2791   4.3243   4.3315   4.4803   4.4827   4.7183   4.7201   4.9080
     4.9717   5.0797   5.1301   5.1313   5.5179   5.5327   5.5637   5.5646
     5.6310   5.6369   5.7160   5.7203   5.7232   5.8316   5.8321   6.1606
     6.1888   6.2028   6.2788   6.2827   6.3736   6.4525   6.5941   6.7254
     6.7524   6.9812   6.9854   7.0257   7.1473   7.1485   7.1878   7.2500
     7.2625   7.2679   7.3155   7.3421   7.4830   7.4961   7.5960   7.6657
     7.7973   7.8608   7.8874   7.9031   7.9068   7.9171   7.9345   8.0283
     8.0602   8.0636   8.0748   8.0826   8.2503   8.3830   8.4201   8.4628
     8.4661   8.4713   8.5564   8.6394   8.7041   8.7087   8.7544   8.8092
     8.8695   9.0155   9.0913   9.1028   9.1587   9.1964   9.2084   9.2462
     9.3155   9.3343   9.4220   9.4663   9.5119   9.5734   9.5823   9.5976
     9.6641   9.6754   9.7119   9.7234   9.7511   9.8644   9.9303  10.0092
    10.0521  10.0691  10.0831  10.1577  10.2068  10.2259  10.2617  10.3306
    10.3591  10.3752  10.4320  10.4816  10.5527  10.6001  10.6450  10.7263
    10.7918  10.8142  10.8161  10.8449  10.9551  10.9820  11.0194  11.0392
    11.0586  11.0664  11.0732  11.0790  11.0934  11.1227  11.2071  11.2755
    11.3804  11.4473

     occupation numbers 
     1.0000   1.0000   1.0000   1.0000   1.0000   1.0000   1.0000   1.0000
     1.0000   1.0000   1.0000   1.0000   1.0000   1.0000   1.0000   1.0000
     1.0000   1.0000   1.0000   1.0000   1.0000   1.0000   1.0000   1.0000
     1.0000   1.0000   1.0000   1.0000   1.0000   1.0000   1.0000   1.0000
     1.0000   1.0000   1.0000   1.0000   1.0000   1.0000   1.0000   1.0000
     1.0000   1.0000   1.0000   1.0000   1.0000   1.0000   1.0000   1.0000
     1.0000   1.0000   1.0000   1.0000   1.0000   1.0000   1.0000   1.0000
     1.0000   1.0000   1.0000   1.0000   1.0000   1.0000   1.0000   1.0000
     1.0000   1.0000   1.0000   1.0000   1.0000   1.0000   1.0000   1.0000
     1.0000   1.0000   1.0000   1.0000   1.0000   1.0000   1.0000   1.0000
     1.0000   1.0000   1.0000   1.0000   1.0000   1.0000   1.0000   1.0000
     1.0000   1.0000   1.0000   1.0000   1.0000   1.0000   1.0000   1.0000
     1.0000   1.0000   1.0000   1.0000   1.0000   1.0000   1.0000   1.0000
     1.0000   1.0000   1.0000   1.0000   1.0000   1.0000   1.0000   1.0000
     1.0000   1.0000   1.0000   1.0000   1.0000   1.0000   1.0000   1.0000
     1.0000   1.0000   1.0000   1.0000   1.0000   1.0000   1.0000   1.0000
     1.0000   1.0000   1.0000   1.0000   1.0000   1.0000   1.0000   1.0000
     1.0000   1.0000   1.0000   1.0000   1.0000   1.0000   1.0000   1.0000
     1.0000   1.0000   1.0000   1.0000   1.0000   1.0000   1.0000   1.0000
     1.0000   1.0000   1.0000   1.0000   1.0000   1.0000   1.0000   1.0000
     1.0000   1.0000   1.0000   1.0000   1.0000   1.0000   1.0000   1.0000
     1.0000   1.0000   1.0000   1.0000   1.0000   1.0000   1.0000   1.0000
     1.0000   1.0000   1.0000   1.0000   1.0000   1.0000   1.0000   1.0000
     1.0000   1.0000   1.0000   1.0000   1.0000   1.0000   1.0000   1.0000
     1.0000   1.0000   1.0000   1.0000   1.0000   1.0000   1.0000   1.0000
     1.0000   1.0000   1.0000   1.0000   1.0000   1.0000   1.0000   1.0000
     1.0000   1.0000   1.0000   1.0000   1.0000   1.0000   1.0000   1.0000
     1.0000   1.0000   1.0000   1.0000   1.0000   1.0000   1.0000   1.0000
     1.0000   1.0000   1.0000   1.0000   1.0000   1.0000   1.0000   1.0000
     1.0000   1.0000   1.0000   1.0000   1.0000   1.0000   1.0000   1.0000
     1.0000   1.0000   1.0000   1.0000   1.0000   1.0000   1.0000   1.0000
     1.0000   1.0000   1.0000   1.0000   1.0000   1.0000   1.0000   1.0000
     1.0000   1.0000   1.0000   1.0000   1.0000   1.0000   1.0000   1.0000
     1.0000   1.0000   1.0000   1.0000   1.0000   1.0000   1.0000   1.0000
     1.0000   1.0000   1.0000   1.0000   1.0000   1.0000   1.0000   1.0000
     1.0000   1.0000   1.0000   1.0000   1.0000   1.0000   1.0000   1.0000
     1.0000   1.0000   1.0000   1.0000   1.0000   1.0000   1.0000   1.0000
     1.0000   1.0000   1.0000   1.0000   1.0000   1.0000   1.0000   1.0000
     1.0000   1.0000   1.0000   1.0000   1.0000   1.0000   1.0000   1.0000
     1.0000   1.0000   1.0000   1.0000   1.0000   1.0000   1.0000   1.0000
     1.0000   1.0000   1.0000   1.0000   1.0000   1.0000   1.0000   1.0000
     1.0000   1.0000   1.0000   1.0000   1.0000   1.0000   1.0000   1.0000
     1.0000   1.0000   1.0000   1.0000   1.0000   1.0000   1.0000   1.0000
     1.0000   1.0000   1.0000   1.0000   1.0000   1.0000   1.0000   1.0000
     1.0000   1.0000   1.0000   1.0000   1.0000   1.0000   1.0000   1.0000
     1.0000   1.0000   1.0000   1.0000   1.0000   1.0000   1.0000   1.0000
     1.0000   1.0000   1.0000   1.0000   1.0000   1.0000   1.0000   1.0000
     1.0000   1.0000   1.0000   1.0000   1.0000   1.0000   1.0000   1.0000
     1.0000   1.0000   1.0000   1.0000   1.0000   1.0000   1.0000   1.0000
     1.0000   1.0000   1.0000   1.0000   1.0000   1.0000   1.0000   1.0000
     1.0000   1.0000   1.0000   1.0000   1.0000   1.0000   1.0000   1.0000
     1.0000   1.0000   1.0000   1.0000   1.0000   1.0000   1.0000   1.0000
     1.0000   1.0000   1.0000   1.0000   1.0000   1.0000   1.0000   1.0000
     1.0000   1.0000   1.0000   1.0000   1.0000   1.0000   1.0000   1.0000
     1.0000   1.0000   1.0000   1.0000   1.0000   1.0000   1.0000   1.0000
     1.0000   1.0000   1.0000   1.0000   1.0000   1.0000   1.0000   1.0000
     1.0000   1.0000   1.0000   1.0000   1.0000   1.0000   1.0000   1.0000
     1.0000   1.0000   1.0000   1.0000   1.0000   1.0000   1.0000   1.0000
     1.0000   1.0000   1.0000   1.0000   1.0000   1.0000   1.0000   1.0000
     1.0000   1.0000   1.0000   1.0000   1.0000   1.0000   1.0000   1.0000
     1.0000   1.0000   1.0000   1.0000   1.0000   1.0000   1.0000   1.0000
     1.0000   1.0000   1.0000   1.0000   1.0000   1.0000   1.0000   1.0000
     1.0000   1.0000   1.0000   1.0000   1.0000   1.0000   1.0000   1.0000
     1.0000   1.0000   1.0000   1.0000   1.0000   1.0000   1.0000   1.0000
     1.0000   1.0000   1.0000   1.0000   1.0000   1.0000   1.0000   1.0000
     1.0000   1.0000   1.0000   1.0000   1.0000   1.0000   1.0000   1.0000
     1.0000   1.0000   1.0000   1.0000   1.0000   1.0000   1.0000   1.0000
     1.0000   1.0000   1.0000   1.0000   1.0000   1.0000   1.0000   1.0000
     1.0000   1.0000   1.0000   1.0000   1.0000   1.0000   1.0000   1.0000
     1.0000   1.0000   1.0000   1.0000   1.0000   1.0000   1.0000   1.0000
     1.0000   1.0000   1.0000   1.0000   1.0000   1.0000   1.0000   1.0000
     1.0000   1.0000   1.0000   1.0000   1.0000   1.0000   1.0000   1.0000
     1.0000   1.0000   1.0000   1.0000   1.0000   1.0000   1.0000   1.0000
     1.0000   1.0000   1.0000   1.0000   1.0000   1.0000   1.0000   1.0000
     1.0000   1.0000   1.0000   1.0000   1.0000   1.0000   1.0000   1.0000
     1.0000   1.0000   1.0000   1.0000   1.0000   1.0000   1.0000   1.0000
     1.0000   1.0000   1.0000   1.0000   1.0000   1.0000   1.0000   1.0000
     1.0000   1.0000   1.0000   1.0000   1.0000   1.0000   1.0000   1.0000
     1.0000   1.0000   1.0000   1.0000   1.0000   1.0000   1.0000   1.0000
     1.0000   1.0000   1.0000   1.0000   1.0000   1.0000   1.0000   1.0000
     1.0000   1.0000   1.0000   1.0000   1.0000   1.0000   1.0000   1.0000
     1.0000   1.0000   1.0000   1.0000   1.0000   1.0000   1.0000   1.0000
     1.0000   1.0001   1.0001   1.0004   0.6223   0.6199   0.0598   0.0584
     0.0170   0.0088   0.0079   0.0006   0.0006   0.0000   0.0000   0.0000
     0.0000   0.0000   0.0000   0.0000   0.0000   0.0000   0.0000   0.0000
     0.0000   0.0000   0.0000   0.0000   0.0000   0.0000   0.0000   0.0000
     0.0000   0.0000   0.0000   0.0000   0.0000   0.0000   0.0000   0.0000
     0.0000   0.0000   0.0000   0.0000   0.0000   0.0000   0.0000   0.0000
     0.0000   0.0000   0.0000   0.0000   0.0000   0.0000   0.0000   0.0000
     0.0000   0.0000   0.0000   0.0000   0.0000   0.0000   0.0000   0.0000
     0.0000   0.0000   0.0000   0.0000   0.0000   0.0000   0.0000   0.0000
     0.0000   0.0000   0.0000   0.0000   0.0000   0.0000   0.0000   0.0000
     0.0000   0.0000   0.0000   0.0000   0.0000   0.0000   0.0000   0.0000
     0.0000   0.0000   0.0000   0.0000   0.0000   0.0000   0.0000   0.0000
     0.0000   0.0000   0.0000   0.0000   0.0000   0.0000   0.0000   0.0000
     0.0000   0.0000   0.0000   0.0000   0.0000   0.0000   0.0000   0.0000
     0.0000   0.0000   0.0000   0.0000   0.0000   0.0000   0.0000   0.0000
     0.0000   0.0000   0.0000   0.0000   0.0000   0.0000   0.0000   0.0000
     0.0000   0.0000   0.0000   0.0000   0.0000   0.0000   0.0000   0.0000
     0.0000   0.0000

          k = 0.3333 0.1925 0.0000 ( 42150 PWs)   bands (ev):

  -123.0698-123.0684-123.0679-123.0676-123.0673-123.0671-123.0670-123.0669
  -123.0668-123.0667-123.0663-123.0662-123.0660-123.0659-123.0658-123.0654
  -123.0332-123.0327-123.0262-123.0245-123.0236-123.0232-123.0228-123.0225
  -123.0224-123.0207-123.0204-123.0199-123.0193-123.0181-123.0175-123.0170
  -122.8721-122.8684-122.8671-122.8669-122.8665-122.8662-122.8660-122.8657
  -122.8656-122.8654-122.8653-122.8652-122.8650-122.8648-122.8647-122.8635
  -122.8632-122.8573-122.8557-122.8509-122.8504-122.8417-122.8396-122.8391
  -122.8388-122.8385-122.8366-122.8362-122.8358-122.8356-122.8352-122.8334
   -77.1782 -77.1782 -77.1746 -77.1718 -77.1717 -77.1709 -77.1707 -77.1645
   -77.1645 -77.1595 -77.1567 -77.1563 -77.1560 -77.1560 -77.1559 -77.1552
   -77.1548 -77.1541 -77.1539 -77.1538 -77.1538 -77.1534 -77.1532 -77.1530
   -77.1529 -77.1526 -77.1522 -77.1520 -77.1511 -77.1509 -77.1499 -77.1499
   -77.1462 -77.1462 -77.1447 -77.1446 -77.1422 -77.1422 -77.1396 -77.1388
   -77.1386 -77.1381 -77.1379 -77.1370 -77.1361 -77.1360 -77.1356 -77.1354
   -77.1353 -77.1349 -77.1323 -77.1280 -77.1278 -77.1261 -77.1251 -77.1198
   -77.1195 -77.1192 -77.1189 -77.1153 -77.1128 -77.1125 -77.1112 -77.1109
   -77.1102 -77.1097 -77.1094 -77.1093 -77.1090 -77.1086 -77.1080 -77.1074
   -77.1071 -77.1067 -77.1061 -77.1056 -77.1051 -77.1042 -77.1034 -77.1027
   -77.1026 -77.1018 -77.0997 -77.0989 -77.0986 -77.0978 -77.0957 -77.0946
   -77.0929 -77.0924 -77.0920 -77.0912 -77.0908 -77.0900 -77.0887 -77.0881
   -76.9744 -76.9742 -76.9709 -76.9681 -76.9678 -76.9676 -76.9668 -76.9666
   -76.9635 -76.9625 -76.9623 -76.9620 -76.9611 -76.9609 -76.9605 -76.9603
   -76.9602 -76.9601 -76.9596 -76.9593 -76.9592 -76.9590 -76.9588 -76.9586
   -76.9580 -76.9578 -76.9565 -76.9562 -76.9555 -76.9526 -76.9523 -76.9521
   -76.9516 -76.9509 -76.9498 -76.9498 -76.9486 -76.9473 -76.9462 -76.9458
   -76.9455 -76.9454 -76.9441 -76.9419 -76.9417 -76.9409 -76.9406 -76.9403
   -76.9386 -76.9380 -76.9379 -76.9371 -76.9368 -76.9356 -76.9350 -76.9348
   -76.9346 -76.9344 -76.9342 -76.9340 -76.9337 -76.9334 -76.9330 -76.9328
   -76.9325 -76.9323 -76.9318 -76.9313 -76.9310 -76.9308 -76.9308 -76.9305
   -76.9302 -76.9297 -76.9292 -76.9286 -76.9276 -76.9260 -76.9251 -76.9233
   -76.9216 -76.9194 -76.9181 -76.9157 -76.9138 -76.9131 -76.9115 -76.9098
   -76.9089 -76.9076 -76.9068 -76.9061 -76.9049 -76.9039 -76.9027 -76.9019
   -15.5635 -14.1491 -13.3209 -10.9523 -10.8514  -7.9251  -7.6462  -6.3085
    -5.7420  -5.7024  -5.5368  -5.1783  -5.1686  -5.1610  -5.1442  -5.0094
    -4.9029  -4.8465  -4.7599  -4.7217  -4.7217  -4.7128  -4.7043  -4.6657
    -4.6654  -4.6434  -4.6430  -4.6356  -4.6335  -4.6330  -4.6150  -4.5696
    -4.5610  -4.5503  -4.5502  -4.5226  -4.5224  -4.5203  -4.5197  -4.4971
    -4.4900  -4.4734  -4.4731  -4.4589  -4.4586  -4.4450  -4.4445  -4.4336
    -4.4336  -4.4257  -4.4216  -4.4215  -4.4028  -4.4005  -4.4001  -4.3985
    -4.3985  -4.3863  -4.3862  -4.3618  -4.3613  -4.3553  -4.3533  -4.3508
    -4.3506  -4.3359  -4.3327  -4.3324  -4.3227  -4.3221  -4.3185  -4.3178
    -4.3172  -4.2863  -4.2860  -4.2815  -4.2805  -4.2613  -4.2603  -4.2569
    -4.2560  -4.2528  -4.2519  -4.2510  -4.2077  -4.2067  -4.2022  -4.2020
    -4.2012  -4.1809  -4.1792  -4.1772  -4.1769  -4.1621  -4.1620  -4.1560
    -4.1353  -4.1347  -4.1337  -4.1318  -4.1287  -4.1277  -4.1242  -4.1231
    -4.1221  -4.1001  -4.0996  -4.0956  -4.0954  -4.0930  -4.0876  -4.0858
    -4.0826  -4.0818  -4.0810  -4.0709  -4.0701  -4.0604  -4.0588  -4.0582
    -4.0473  -4.0182  -4.0144  -4.0124  -4.0063  -3.9945  -3.9932  -3.9908
    -3.9899  -3.9892  -3.9806  -3.9799  -3.9782  -3.9746  -3.9741  -3.9719
    -3.9530  -3.9527  -3.9492  -3.9489  -3.9302  -3.9295  -3.9229  -3.9113
    -3.9022  -3.9008  -3.8995  -3.8934  -3.8927  -3.8758  -3.8748  -3.8669
    -3.8650  -3.8645  -3.8637  -3.8518  -3.8404  -3.8398  -3.8396  -3.8264
    -3.8250  -3.8238  -3.8165  -3.8109  -3.8095  -3.8086  -3.8075  -3.8069
    -3.7822  -3.7820  -3.7775  -3.7753  -3.7742  -3.7662  -3.7577  -3.7573
    -3.7534  -3.7393  -3.7365  -3.7263  -3.7261  -3.7062  -3.7052  -3.7046
    -3.7030  -3.7027  -3.6969  -3.6957  -3.6944  -3.6926  -3.6925  -3.6780
    -3.6776  -3.6727  -3.6723  -3.6672  -3.6669  -3.6594  -3.6587  -3.6527
    -3.6524  -3.6456  -3.6449  -3.6424  -3.6375  -3.6366  -3.6351  -3.6343
    -3.6226  -3.6205  -3.6201  -3.6078  -3.6065  -3.6009  -3.6004  -3.5972
    -3.5911  -3.5903  -3.5884  -3.5868  -3.5859  -3.5834  -3.5820  -3.5807
    -3.5773  -3.5619  -3.5608  -3.5604  -3.5600  -3.5592  -3.5584  -3.5555
    -3.5547  -3.5541  -3.5481  -3.5297  -3.5272  -3.5265  -3.5218  -3.5210
    -3.5064  -3.5058  -3.4939  -3.4938  -3.4723  -3.4699  -3.4696  -3.4689
    -3.4671  -3.4666  -3.4647  -3.4644  -3.4583  -3.4579  -3.4570  -3.4565
    -3.4502  -3.4500  -3.4464  -3.4398  -3.4394  -3.4354  -3.4351  -3.4340
    -3.4332  -3.4288  -3.4275  -3.4269  -3.4264  -3.4260  -3.4170  -3.4066
    -3.4064  -3.4043  -3.4041  -3.3900  -3.3846  -3.3841  -3.3765  -3.3761
    -3.3738  -3.3726  -3.3715  -3.3538  -3.3467  -3.3445  -3.3429  -3.3427
    -3.3398  -3.3382  -3.3379  -3.3375  -3.3369  -3.3314  -3.3311  -3.3298
    -3.3205  -3.3201  -3.3188  -3.3150  -3.3118  -3.3107  -3.3092  -3.3089
    -3.3087  -3.3085  -3.3013  -3.2898  -3.2893  -3.2853  -3.2847  -3.2844
    -3.2832  -3.2663  -3.2663  -3.2651  -3.2482  -3.2314  -3.2313  -3.2280
    -3.2279  -3.2080  -3.2080  -3.2054  -3.2047  -3.2036  -3.1971  -3.1903
    -3.1900  -3.1746  -3.1098  -3.0994  -3.0904  -3.0831  -3.0830  -3.0607
    -3.0605  -3.0453  -3.0222  -3.0145  -2.8949  -2.8943  -2.8269  -2.6107
    -2.5291  -2.3479  -2.2076  -2.2028  -2.1274  -1.8574  -1.8489  -1.7801
    -1.7203  -1.7190  -1.6903  -0.9425  -0.9284  -0.9236  -0.8804  -0.7572
    -0.7481  -0.7247  -0.6864  -0.4418  -0.1934  -0.0932   0.0426   0.0458
     0.0993   0.0995   0.1530   0.3119   0.4883   0.5057   0.5442   0.5969
     0.5973   0.9391   0.9395   1.1020   1.1050   1.2529   1.3967   1.3983
     1.4054   1.5566   1.6305   2.0398   2.0418   2.1962   2.2783   2.2823
     2.3316   2.3354   2.5707   2.5864   2.6203   2.8841   2.8883   2.9416
     2.9562   3.0146   3.0153   3.0754   3.8841   3.8846   4.1810   4.1827
     4.2793   4.3246   4.3310   4.4804   4.4828   4.7187   4.7202   4.9080
     4.9716   5.0795   5.1303   5.1312   5.5181   5.5329   5.5639   5.5646
     5.6312   5.6364   5.7158   5.7196   5.7234   5.8318   5.8322   6.1600
     6.1888   6.2016   6.2790   6.2826   6.3724   6.4559   6.5937   6.7281
     6.7505   6.9807   6.9853   7.0244   7.1472   7.1486   7.1926   7.2522
     7.2632   7.2669   7.3106   7.3448   7.4836   7.4951   7.5912   7.6686
     7.8030   7.8562   7.8869   7.9016   7.9064   7.9172   7.9368   8.0185
     8.0601   8.0640   8.0759   8.0807   8.2648   8.3892   8.4221   8.4631
     8.4663   8.4734   8.5501   8.6284   8.7057   8.7101   8.7537   8.7841
     8.8803   9.0154   9.0866   9.1044   9.1509   9.1965   9.2067   9.2312
     9.3144   9.3316   9.4203   9.4798   9.5441   9.5724   9.5853   9.6007
     9.6600   9.6741   9.7127   9.7313   9.7453   9.8639   9.9445  10.0137
    10.0499  10.0589  10.0729  10.1495  10.2105  10.2286  10.2635  10.3275
    10.3524  10.3793  10.4095  10.4940  10.5507  10.6020  10.6428  10.7090
    10.7912  10.8145  10.8168  10.8493  10.9526  10.9825  11.0223  11.0388
    11.0524  11.0687  11.0715  11.0805  11.1052  11.1300  11.2007  11.2570
    11.4055  11.4631

     occupation numbers 
     1.0000   1.0000   1.0000   1.0000   1.0000   1.0000   1.0000   1.0000
     1.0000   1.0000   1.0000   1.0000   1.0000   1.0000   1.0000   1.0000
     1.0000   1.0000   1.0000   1.0000   1.0000   1.0000   1.0000   1.0000
     1.0000   1.0000   1.0000   1.0000   1.0000   1.0000   1.0000   1.0000
     1.0000   1.0000   1.0000   1.0000   1.0000   1.0000   1.0000   1.0000
     1.0000   1.0000   1.0000   1.0000   1.0000   1.0000   1.0000   1.0000
     1.0000   1.0000   1.0000   1.0000   1.0000   1.0000   1.0000   1.0000
     1.0000   1.0000   1.0000   1.0000   1.0000   1.0000   1.0000   1.0000
     1.0000   1.0000   1.0000   1.0000   1.0000   1.0000   1.0000   1.0000
     1.0000   1.0000   1.0000   1.0000   1.0000   1.0000   1.0000   1.0000
     1.0000   1.0000   1.0000   1.0000   1.0000   1.0000   1.0000   1.0000
     1.0000   1.0000   1.0000   1.0000   1.0000   1.0000   1.0000   1.0000
     1.0000   1.0000   1.0000   1.0000   1.0000   1.0000   1.0000   1.0000
     1.0000   1.0000   1.0000   1.0000   1.0000   1.0000   1.0000   1.0000
     1.0000   1.0000   1.0000   1.0000   1.0000   1.0000   1.0000   1.0000
     1.0000   1.0000   1.0000   1.0000   1.0000   1.0000   1.0000   1.0000
     1.0000   1.0000   1.0000   1.0000   1.0000   1.0000   1.0000   1.0000
     1.0000   1.0000   1.0000   1.0000   1.0000   1.0000   1.0000   1.0000
     1.0000   1.0000   1.0000   1.0000   1.0000   1.0000   1.0000   1.0000
     1.0000   1.0000   1.0000   1.0000   1.0000   1.0000   1.0000   1.0000
     1.0000   1.0000   1.0000   1.0000   1.0000   1.0000   1.0000   1.0000
     1.0000   1.0000   1.0000   1.0000   1.0000   1.0000   1.0000   1.0000
     1.0000   1.0000   1.0000   1.0000   1.0000   1.0000   1.0000   1.0000
     1.0000   1.0000   1.0000   1.0000   1.0000   1.0000   1.0000   1.0000
     1.0000   1.0000   1.0000   1.0000   1.0000   1.0000   1.0000   1.0000
     1.0000   1.0000   1.0000   1.0000   1.0000   1.0000   1.0000   1.0000
     1.0000   1.0000   1.0000   1.0000   1.0000   1.0000   1.0000   1.0000
     1.0000   1.0000   1.0000   1.0000   1.0000   1.0000   1.0000   1.0000
     1.0000   1.0000   1.0000   1.0000   1.0000   1.0000   1.0000   1.0000
     1.0000   1.0000   1.0000   1.0000   1.0000   1.0000   1.0000   1.0000
     1.0000   1.0000   1.0000   1.0000   1.0000   1.0000   1.0000   1.0000
     1.0000   1.0000   1.0000   1.0000   1.0000   1.0000   1.0000   1.0000
     1.0000   1.0000   1.0000   1.0000   1.0000   1.0000   1.0000   1.0000
     1.0000   1.0000   1.0000   1.0000   1.0000   1.0000   1.0000   1.0000
     1.0000   1.0000   1.0000   1.0000   1.0000   1.0000   1.0000   1.0000
     1.0000   1.0000   1.0000   1.0000   1.0000   1.0000   1.0000   1.0000
     1.0000   1.0000   1.0000   1.0000   1.0000   1.0000   1.0000   1.0000
     1.0000   1.0000   1.0000   1.0000   1.0000   1.0000   1.0000   1.0000
     1.0000   1.0000   1.0000   1.0000   1.0000   1.0000   1.0000   1.0000
     1.0000   1.0000   1.0000   1.0000   1.0000   1.0000   1.0000   1.0000
     1.0000   1.0000   1.0000   1.0000   1.0000   1.0000   1.0000   1.0000
     1.0000   1.0000   1.0000   1.0000   1.0000   1.0000   1.0000   1.0000
     1.0000   1.0000   1.0000   1.0000   1.0000   1.0000   1.0000   1.0000
     1.0000   1.0000   1.0000   1.0000   1.0000   1.0000   1.0000   1.0000
     1.0000   1.0000   1.0000   1.0000   1.0000   1.0000   1.0000   1.0000
     1.0000   1.0000   1.0000   1.0000   1.0000   1.0000   1.0000   1.0000
     1.0000   1.0000   1.0000   1.0000   1.0000   1.0000   1.0000   1.0000
     1.0000   1.0000   1.0000   1.0000   1.0000   1.0000   1.0000   1.0000
     1.0000   1.0000   1.0000   1.0000   1.0000   1.0000   1.0000   1.0000
     1.0000   1.0000   1.0000   1.0000   1.0000   1.0000   1.0000   1.0000
     1.0000   1.0000   1.0000   1.0000   1.0000   1.0000   1.0000   1.0000
     1.0000   1.0000   1.0000   1.0000   1.0000   1.0000   1.0000   1.0000
     1.0000   1.0000   1.0000   1.0000   1.0000   1.0000   1.0000   1.0000
     1.0000   1.0000   1.0000   1.0000   1.0000   1.0000   1.0000   1.0000
     1.0000   1.0000   1.0000   1.0000   1.0000   1.0000   1.0000   1.0000
     1.0000   1.0000   1.0000   1.0000   1.0000   1.0000   1.0000   1.0000
     1.0000   1.0000   1.0000   1.0000   1.0000   1.0000   1.0000   1.0000
     1.0000   1.0000   1.0000   1.0000   1.0000   1.0000   1.0000   1.0000
     1.0000   1.0000   1.0000   1.0000   1.0000   1.0000   1.0000   1.0000
     1.0000   1.0000   1.0000   1.0000   1.0000   1.0000   1.0000   1.0000
     1.0000   1.0000   1.0000   1.0000   1.0000   1.0000   1.0000   1.0000
     1.0000   1.0000   1.0000   1.0000   1.0000   1.0000   1.0000   1.0000
     1.0000   1.0000   1.0000   1.0000   1.0000   1.0000   1.0000   1.0000
     1.0000   1.0000   1.0000   1.0000   1.0000   1.0000   1.0000   1.0000
     1.0000   1.0000   1.0000   1.0000   1.0000   1.0000   1.0000   1.0000
     1.0000   1.0000   1.0000   1.0000   1.0000   1.0000   1.0000   1.0000
     1.0000   1.0000   1.0000   1.0000   1.0000   1.0000   1.0000   1.0000
     1.0000   1.0000   1.0000   1.0000   1.0000   1.0000   1.0000   1.0000
     1.0000   1.0000   1.0000   1.0000   1.0000   1.0000   1.0000   1.0000
     1.0000   1.0000   1.0000   1.0000   1.0000   1.0000   1.0000   1.0000
     1.0000   1.0000   1.0000   1.0000   1.0000   1.0000   1.0000   1.0000
     1.0000   1.0000   1.0000   1.0000   1.0000   1.0000   1.0000   1.0000
     1.0000   1.0000   1.0000   1.0000   1.0000   1.0000   1.0000   1.0000
     1.0000   1.0000   1.0000   1.0000   1.0000   1.0000   1.0000   1.0000
     1.0000   1.0000   1.0000   1.0000   1.0000   1.0000   1.0000   1.0000
     1.0000   1.0000   1.0000   1.0000   1.0000   1.0000   1.0000   1.0000
     1.0000   1.0000   1.0000   1.0000   1.0000   1.0000   1.0000   1.0000
     1.0000   1.0000   1.0000   1.0000   1.0000   1.0000   1.0000   1.0000
     1.0000   1.0000   1.0000   1.0000   1.0000   1.0000   1.0000   1.0000
[...]
     atom   74 type  4   force =     0.00000000    0.00000000    0.00000000
     atom   75 type  4   force =     0.00000000    0.00000000    0.00000000
     atom   76 type  4   force =     0.00000000    0.00000000    0.00000000
     atom   77 type  4   force =     0.00000000    0.00000000    0.00000000
     atom   78 type  4   force =     0.00000000    0.00000000    0.00000000
     atom   79 type  4   force =     0.00000000    0.00000000    0.00000000
     The Hubbard contrib.    to forces
     atom    1 type  1   force =     0.00000000    0.00000000    0.00000000
     atom    2 type  1   force =     0.00000000    0.00000000    0.00000000
     atom    3 type  1   force =     0.00000000    0.00000000    0.00000000
     atom    4 type  1   force =     0.00000000    0.00000000    0.00000000
     atom    5 type  1   force =     0.00000000    0.00000000    0.00000000
     atom    6 type  1   force =     0.00000000    0.00000000    0.00000000
     atom    7 type  1   force =     0.00000000    0.00000000    0.00000000
     atom    8 type  1   force =     0.00000000    0.00000000    0.00000000
     atom    9 type  1   force =     0.00000000    0.00000000    0.00000000
     atom   10 type  1   force =     0.00000000    0.00000000    0.00000000
     atom   11 type  1   force =     0.00000000    0.00000000    0.00000000
     atom   12 type  1   force =     0.00000000    0.00000000    0.00000000
     atom   13 type  1   force =     0.00000000    0.00000000    0.00000000
     atom   14 type  1   force =     0.00000000    0.00000000    0.00000000
     atom   15 type  1   force =     0.00000000    0.00000000    0.00000000
     atom   16 type  1   force =     0.00000000    0.00000000    0.00000000
     atom   17 type  1   force =     0.00000000    0.00000000    0.00000000
     atom   18 type  1   force =     0.00000000    0.00000000    0.00000000
     atom   19 type  1   force =     0.00000000    0.00000000    0.00000000
     atom   20 type  1   force =     0.00000000    0.00000000    0.00000000
     atom   21 type  1   force =     0.00000000    0.00000000    0.00000000
     atom   22 type  1   force =     0.00000000    0.00000000    0.00000000
     atom   23 type  1   force =     0.00000000    0.00000000    0.00000000
     atom   24 type  1   force =     0.00000000    0.00000000    0.00000000
     atom   25 type  1   force =     0.00000000    0.00000000    0.00000000
     atom   26 type  1   force =     0.00000000    0.00000000    0.00000000
     atom   27 type  1   force =     0.00000000    0.00000000    0.00000000
     atom   28 type  1   force =     0.00000000    0.00000000    0.00000000
     atom   29 type  1   force =     0.00000000    0.00000000    0.00000000
     atom   30 type  1   force =     0.00000000    0.00000000    0.00000000
     atom   31 type  1   force =     0.00000000    0.00000000    0.00000000
     atom   32 type  1   force =     0.00000000    0.00000000    0.00000000
     atom   33 type  1   force =     0.00000000    0.00000000    0.00000000
     atom   34 type  1   force =     0.00000000    0.00000000    0.00000000
     atom   35 type  1   force =     0.00000000    0.00000000    0.00000000
     atom   36 type  1   force =     0.00000000    0.00000000    0.00000000
     atom   37 type  1   force =     0.00000000    0.00000000    0.00000000
     atom   38 type  1   force =     0.00000000    0.00000000    0.00000000
     atom   39 type  1   force =     0.00000000    0.00000000    0.00000000
     atom   40 type  1   force =     0.00000000    0.00000000    0.00000000
     atom   41 type  1   force =     0.00000000    0.00000000    0.00000000
     atom   42 type  1   force =     0.00000000    0.00000000    0.00000000
     atom   43 type  1   force =     0.00000000    0.00000000    0.00000000
     atom   44 type  1   force =     0.00000000    0.00000000    0.00000000
     atom   45 type  1   force =     0.00000000    0.00000000    0.00000000
     atom   46 type  1   force =     0.00000000    0.00000000    0.00000000
     atom   47 type  1   force =     0.00000000    0.00000000    0.00000000
     atom   48 type  1   force =     0.00000000    0.00000000    0.00000000
     atom   49 type  1   force =     0.00000000    0.00000000    0.00000000
     atom   50 type  1   force =     0.00000000    0.00000000    0.00000000
     atom   51 type  1   force =     0.00000000    0.00000000    0.00000000
     atom   52 type  1   force =     0.00000000    0.00000000    0.00000000
     atom   53 type  1   force =     0.00000000    0.00000000    0.00000000
     atom   54 type  1   force =     0.00000000    0.00000000    0.00000000
     atom   55 type  1   force =     0.00000000    0.00000000    0.00000000
     atom   56 type  1   force =     0.00000000    0.00000000    0.00000000
     atom   57 type  1   force =     0.00000000    0.00000000    0.00000000
     atom   58 type  1   force =     0.00000000    0.00000000    0.00000000
     atom   59 type  1   force =     0.00000000    0.00000000    0.00000000
     atom   60 type  1   force =     0.00000000    0.00000000    0.00000000
     atom   61 type  1   force =     0.00000000    0.00000000    0.00000000
     atom   62 type  1   force =     0.00000000    0.00000000    0.00000000
     atom   63 type  1   force =     0.00000000    0.00000000    0.00000000
     atom   64 type  1   force =     0.00000000    0.00000000    0.00000000
     atom   65 type  2   force =     0.00000000    0.00000000    0.00000000
     atom   66 type  2   force =     0.00000000    0.00000000    0.00000000
     atom   67 type  2   force =     0.00000000    0.00000000    0.00000000
     atom   68 type  2   force =     0.00000000    0.00000000    0.00000000
     atom   69 type  2   force =     0.00000000    0.00000000    0.00000000
     atom   70 type  2   force =     0.00000000    0.00000000    0.00000000
     atom   71 type  2   force =     0.00000000    0.00000000    0.00000000
     atom   72 type  3   force =     0.00000000    0.00000000    0.00000000
     atom   73 type  3   force =     0.00000000    0.00000000    0.00000000
     atom   74 type  4   force =     0.00000000    0.00000000    0.00000000
     atom   75 type  4   force =     0.00000000    0.00000000    0.00000000
     atom   76 type  4   force =     0.00000000    0.00000000    0.00000000
     atom   77 type  4   force =     0.00000000    0.00000000    0.00000000
     atom   78 type  4   force =     0.00000000    0.00000000    0.00000000
     atom   79 type  4   force =     0.00000000    0.00000000    0.00000000
     The SCF correction term to forces
     atom    1 type  1   force =    -0.00018807   -0.00011767    0.00071143
     atom    2 type  1   force =     0.00018438   -0.00052536    0.00026659
     atom    3 type  1   force =    -0.00043133   -0.00026272   -0.00042353
     atom    4 type  1   force =     0.00045100   -0.00079949    0.00022937
     atom    5 type  1   force =     0.00028076   -0.00001020    0.00065884
     atom    6 type  1   force =    -0.00029320    0.00017172    0.00009754
     atom    7 type  1   force =    -0.00007900    0.00001446   -0.00030123
     atom    8 type  1   force =     0.00008688   -0.00005824    0.00013053
     atom    9 type  1   force =     0.00030526    0.00021096    0.00063162
     atom   10 type  1   force =    -0.00031699    0.00043048    0.00045284
     atom   11 type  1   force =     0.00041101    0.00024717   -0.00023062
     atom   12 type  1   force =    -0.00044677    0.00080809   -0.00037490
     atom   13 type  1   force =    -0.00012563    0.00007145    0.00068058
     atom   14 type  1   force =     0.00015007   -0.00023764    0.00064526
     atom   15 type  1   force =     0.00005306   -0.00002241   -0.00035710
     atom   16 type  1   force =    -0.00006005    0.00006522   -0.00027649
     atom   17 type  1   force =    -0.00051273   -0.00037822    0.00039028
     atom   18 type  1   force =     0.00052077   -0.00027276    0.00061633
     atom   19 type  1   force =    -0.00039309   -0.00085698   -0.00011055
     atom   20 type  1   force =     0.00037992   -0.00022173   -0.00009611
     atom   21 type  1   force =    -0.00055625    0.00004670    0.00045684
     atom   22 type  1   force =     0.00057002    0.00011905    0.00028069
     atom   23 type  1   force =    -0.00092221   -0.00002570   -0.00037971
     atom   24 type  1   force =     0.00091361   -0.00000337    0.00020798
     atom   25 type  1   force =    -0.00008579    0.00002108    0.00068770
     atom   26 type  1   force =     0.00009428    0.00061790    0.00039648
     atom   27 type  1   force =    -0.00049952    0.00029086   -0.00049143
     atom   28 type  1   force =     0.00054101    0.00076757   -0.00012759
     atom   29 type  1   force =    -0.00005401   -0.00038348    0.00061867
     atom   30 type  1   force =     0.00003237    0.00023536    0.00070811
     atom   31 type  1   force =    -0.00000607   -0.00046620   -0.00020941
     atom   32 type  1   force =     0.00001051    0.00051298   -0.00041934
     atom   33 type  1   force =    -0.00051251   -0.00036916   -0.00058167
     atom   34 type  1   force =     0.00053454   -0.00061007   -0.00044447
     atom   35 type  1   force =    -0.00005826   -0.00026353   -0.00062829
     atom   36 type  1   force =     0.00007795    0.00004891   -0.00066663
     atom   37 type  1   force =    -0.00043955   -0.00011476   -0.00062938
     atom   38 type  1   force =     0.00045985   -0.00025182   -0.00065022
     atom   39 type  1   force =    -0.00047942   -0.00015975   -0.00059681
     atom   40 type  1   force =     0.00047166   -0.00028865   -0.00016384
     atom   41 type  1   force =     0.00018720    0.00015775   -0.00044940
     atom   42 type  1   force =    -0.00019383    0.00083384   -0.00081993
     atom   43 type  1   force =    -0.00030105    0.00004987   -0.00075511
     atom   44 type  1   force =     0.00028574    0.00012388   -0.00014759
     atom   45 type  1   force =     0.00008478   -0.00006560   -0.00041531
     atom   46 type  1   force =    -0.00010717    0.00043205   -0.00061257
     atom   47 type  1   force =     0.00011403   -0.00004605   -0.00077269
     atom   48 type  1   force =    -0.00011948    0.00050444   -0.00060228
     atom   49 type  1   force =    -0.00017824   -0.00093592   -0.00052818
     atom   50 type  1   force =     0.00015474   -0.00007186   -0.00051210
     atom   51 type  1   force =     0.00020710   -0.00034426   -0.00051335
     atom   52 type  1   force =    -0.00022608    0.00012965   -0.00077470
     atom   53 type  1   force =    -0.00083964   -0.00024605   -0.00082295
     atom   54 type  1   force =     0.00081188   -0.00013278   -0.00046269
     atom   55 type  1   force =     0.00003265   -0.00032799   -0.00015262
     atom   56 type  1   force =    -0.00000729   -0.00011024   -0.00065966
     atom   57 type  1   force =    -0.00073868    0.00040692   -0.00073008
     atom   58 type  1   force =     0.00074076    0.00061551   -0.00054640
     atom   59 type  1   force =    -0.00036215    0.00021083   -0.00042546
     atom   60 type  1   force =     0.00039747   -0.00001365   -0.00050377
     atom   61 type  1   force =    -0.00005862   -0.00026614   -0.00043209
     atom   62 type  1   force =     0.00008145    0.00062454   -0.00058212
     atom   63 type  1   force =    -0.00019205    0.00025573   -0.00076011
     atom   64 type  1   force =     0.00019824    0.00020156   -0.00062737
     atom   65 type  2   force =    -0.00020517    0.00014149    0.00030477
     atom   66 type  2   force =     0.00012750   -0.00008889   -0.00014818
     atom   67 type  2   force =     0.00002893   -0.00017189   -0.00009231
     atom   68 type  2   force =     0.00015844    0.00004183   -0.00011183
     atom   69 type  2   force =     0.00000896   -0.00001019    0.00000511
     atom   70 type  2   force =     0.00001145   -0.00000362    0.00000564
     atom   71 type  2   force =    -0.00003580    0.00002778    0.00005339
     atom   72 type  3   force =    -0.00024572    0.00016931    0.00037150
     atom   73 type  3   force =    -0.00002432    0.00001769    0.00003666
     atom   74 type  4   force =     0.00001056    0.00001016   -0.00000627
     atom   75 type  4   force =    -0.00000474   -0.00001460   -0.00000439
     atom   76 type  4   force =     0.00000312   -0.00002040   -0.00000623
     atom   77 type  4   force =     0.00001866    0.00000533   -0.00000853
     atom   78 type  4   force =    -0.00000550   -0.00000500    0.00000934
     atom   79 type  4   force =     0.00000144    0.00000641    0.00000807

     Total force =     0.030401     Total SCF correction =     0.006051
     SCF correction compared to forces is large: reduce conv_thr to get better values


     Computing stress (Cartesian axis) and pressure


     negative rho (up, down):  3.479E-02 0.000E+00
          total   stress  (Ry/bohr**3)                   (kbar)     P=     -306.74
  -0.00208412  -0.00000149   0.00000092         -306.59       -0.22        0.14
  -0.00000149  -0.00208575  -0.00000017           -0.22     -306.82       -0.03
   0.00000092  -0.00000017  -0.00208558            0.14       -0.03     -306.80

     kinetic stress (kbar)  17237.38    -10.92     37.13
                              -10.92  17219.35    -20.68
                               37.13    -20.68  17319.30

     local   stress (kbar)**********     -4.91   1371.78
                               -4.91**********   -808.00
                             1371.78   -808.001463659.42

     nonloc. stress (kbar)  -1883.27     -0.01     -3.66
                               -0.01  -1882.65      2.17
                               -3.66      2.17  -1946.42

     hartree stress (kbar) 760042.07    -17.24   -533.90
                              -17.24 760133.66    316.33
                             -533.90    316.33-684788.76

     exc-cor stress (kbar)  -8415.66      0.41     -1.93
                                0.41  -8414.88      1.09
                               -1.93      1.09  -8426.18

     corecor stress (kbar)    -80.98     -0.23      0.92
                               -0.23    -81.37     -0.51
                                0.92     -0.51    -80.68

     ewald   stress (kbar) 679880.75     32.69   -870.19
                               32.69 680084.69    509.58
                             -870.19    509.58-786043.48

     hubbard stress (kbar)      0.00      0.00      0.00
                                0.00      0.00      0.00
                                0.00      0.00      0.00

     DFT-D   stress (kbar)      0.00      0.00      0.00
                                0.00      0.00      0.00
                                0.00      0.00      0.00

     XDM     stress (kbar)      0.00      0.00      0.00
                                0.00      0.00      0.00
                                0.00      0.00      0.00

     dft-nl  stress (kbar)      0.00      0.00      0.00
                                0.00      0.00      0.00
                                0.00      0.00      0.00

     TS-vdW  stress (kbar)      0.00      0.00      0.00
                                0.00      0.00      0.00
                                0.00      0.00      0.00

     MDB     stress (kbar)      0.00      0.00      0.00
                                0.00      0.00      0.00
                                0.00      0.00      0.00

     3D-RISM stress (kbar)      0.00      0.00      0.00
                                0.00      0.00      0.00
                                0.00      0.00      0.00


     Writing all to output data dir ./tmp/Zn002_4x4x2_primitive_14Avacumn_topsite_tilted_ABN.save/ :
     XML data file, charge density, pseudopotentials, collected wavefunctions

     init_run     :    145.71s CPU    146.90s WALL (       1 calls)
     electrons    :  12407.05s CPU  12507.76s WALL (       1 calls)
     forces       :    125.15s CPU    125.65s WALL (       1 calls)
     stress       :    339.88s CPU    341.00s WALL (       1 calls)

     Called by init_run:
     wfcinit      :    144.63s CPU    145.79s WALL (       1 calls)
     wfcinit:atom :      0.06s CPU      0.10s WALL (       5 calls)
     wfcinit:wfcr :    143.62s CPU    144.70s WALL (       5 calls)
     potinit      :      0.20s CPU      0.21s WALL (       1 calls)
     hinit0       :      0.07s CPU      0.08s WALL (       1 calls)

     Called by electrons:
     c_bands      :  11652.72s CPU  11744.47s WALL (      22 calls)
     sum_band     :    735.41s CPU    743.94s WALL (      22 calls)
     v_of_rho     :      0.76s CPU      0.79s WALL (      22 calls)
     v_h          :      0.03s CPU      0.04s WALL (      22 calls)
     v_xc         :      0.79s CPU      0.82s WALL (      24 calls)
     newd         :     15.17s CPU     15.49s WALL (      22 calls)
     PAW_pot      :      3.67s CPU      3.68s WALL (      22 calls)
     mix_rho      :      0.17s CPU      0.18s WALL (      22 calls)

     Called by c_bands:
     init_us_2    :      5.55s CPU      5.59s WALL (     235 calls)
     cegterg      :  11637.56s CPU  11729.16s WALL (     110 calls)

     Called by sum_band:
     sum_band:wei :      0.09s CPU      0.09s WALL (      22 calls)
     sum_band:loo :    723.16s CPU    731.37s WALL (      22 calls)
     sum_band:buf :      1.11s CPU      1.14s WALL (     110 calls)
     sum_band:ini :      2.62s CPU      2.63s WALL (     110 calls)
     sum_band:cal :    665.22s CPU    667.53s WALL (     110 calls)
     sum_band:bec :      4.30s CPU      4.31s WALL (     110 calls)
     addusdens    :     11.72s CPU     12.03s WALL (      22 calls)
                                        0.00s GPU  (      22 calls)
     addusd:skk   :      0.13s CPU      0.13s WALL (      88 calls)
                                        0.00s GPU  (      88 calls)

     Called by *egterg:
     cdiaghg      :    991.33s CPU   1020.23s WALL (     815 calls)
     cegterg:over :   1937.44s CPU   1942.66s WALL (     710 calls)
     cegterg:upda :    911.79s CPU    915.38s WALL (     710 calls)
     cegterg:last :   2827.69s CPU   2837.31s WALL (     235 calls)
     cdiaghg:chol :     70.07s CPU     70.25s WALL (     815 calls)
     cdiaghg:inve :     15.21s CPU     15.25s WALL (     815 calls)
     cdiaghg:para :    360.41s CPU    366.47s WALL (    1630 calls)
     h_psi        :   3173.86s CPU   3211.81s WALL (     825 calls)
     s_psi        :   1340.12s CPU   1343.29s WALL (     825 calls)
     g_psi        :      1.05s CPU      1.05s WALL (     710 calls)

     Called by h_psi:
     h_psi:calbec :   1591.06s CPU   1596.60s WALL (     825 calls)
     vloc_psi     :    238.13s CPU    265.73s WALL (     825 calls)
     add_vuspsi   :   1342.79s CPU   1346.03s WALL (     825 calls)

     General routines
     calbec       :   2410.54s CPU   2418.94s WALL (     960 calls)
     fft          :      0.61s CPU      0.67s WALL (     268 calls)
     ffts         :      0.03s CPU      0.03s WALL (      22 calls)
     fftw         :    262.45s CPU    293.21s WALL (  506162 calls)

     Parallel routines

     PAW routines
     PAW_pot      :      3.67s CPU      3.68s WALL (      22 calls)

     PWSCF        :      3h36m CPU      3h38m WALL


   This run was terminated on:  19:19:49  22Mar2025            

=------------------------------------------------------------------------------=
   JOB DONE.
=------------------------------------------------------------------------------=
Note: The following floating-point exceptions are signalling: IEEE_DENORMAL
Note: The following floating-point exceptions are signalling: IEEE_DENORMAL
Note: The following floating-point exceptions are signalling: IEEE_DENORMAL
Note: The following floating-point exceptions are signalling: IEEE_DENORMAL
Note: The following floating-point exceptions are signalling: IEEE_DENORMAL
Note: The following floating-point exceptions are signalling: IEEE_DENORMAL
Note: The following floating-point exceptions are signalling: IEEE_DENORMAL
