--------------------------------------------------------------------------
By default, for Open MPI 4.0 and later, infiniband ports on a device
are not used by default.  The intent is to use UCX for these devices.
You can override this policy by setting the btl_openib_allow_ib MCA parameter
to true.

  Local host:              psid02
  Local adapter:           mlx5_0
  Local port:              1

--------------------------------------------------------------------------
--------------------------------------------------------------------------
WARNING: There was an error initializing an OpenFabrics device.

  Local host:   psid02
  Local device: mlx5_0
--------------------------------------------------------------------------

     Program PWSCF v.7.3.1 starts on 25Mar2025 at 20:10:31 

     This program is part of the open-source Quantum ESPRESSO suite
     for quantum simulation of materials; please cite
         "P. Giannozzi et al., J. Phys.:Condens. Matter 21 395502 (2009);
         "P. Giannozzi et al., J. Phys.:Condens. Matter 29 465901 (2017);
         "P. Giannozzi et al., J. Chem. Phys. 152 154105 (2020);
          URL http://www.quantum-espresso.org", 
     in publications or presentations arising from this work. More details at
     http://www.quantum-espresso.org/quote

     Parallel version (MPI), running on    33 processors

     MPI processes distributed on     1 nodes
     53165 MiB available memory on the printing compute node when the environment starts

     Waiting for input...
     Reading input from standard input

     Current dimensions of program PWSCF are:
     Max number of different atomic species (ntypx) = 10
     Max number of k-points (npk) =  40000
     Max angular momentum in pseudopotentials (lmaxx) =  4
     Found identity + ( -0.5000  0.0000  0.0000) symmetry
     This is a supercell, fractional translations are disabled

     R & G space division:  proc/nbgrp/npool/nimage =      33
     Subspace diagonalization in iterative solution of the eigenvalue problem:
     one sub-group per band group will be used
     custom distributed-memory algorithm (size of sub-group:  5*  5 procs)


     Parallelization info
     --------------------
     sticks:   dense  smooth     PW     G-vecs:    dense   smooth      PW
     Min         261     130     36                44461    15714    2270
     Max         262     131     37                44471    15723    2280
     Sum        8617    4303   1189              1467375   518755   75035

     Using Slab Decomposition



     bravais-lattice index     =            0
     lattice parameter (alat)  =      19.7617  a.u.
     unit-cell volume          =   15176.5939 (a.u.)^3
     number of atoms/cell      =           48
     number of atomic types    =            1
     number of electrons       =       960.00
     number of Kohn-Sham states=          576
     kinetic-energy cutoff     =      40.0000  Ry
     charge density cutoff     =     320.0000  Ry
     scf convergence threshold =      1.0E-06
     mixing beta               =       0.4000
     number of iterations used =            8  plain     mixing
     Exchange-correlation= SLA  PW   PBE  PBE
                           (   1   4   3   4   0   0   0)

     celldm(1)=  19.761696  celldm(2)=   0.000000  celldm(3)=   0.000000
     celldm(4)=   0.000000  celldm(5)=   0.000000  celldm(6)=   0.000000

     crystal axes: (cart. coord. in units of alat)
               a(1) = (   1.000000   0.000000   0.000000 )  
               a(2) = (  -0.500000   0.866025   0.000000 )  
               a(3) = (   0.000000   0.000000   2.270759 )  

     reciprocal axes: (cart. coord. in units 2 pi/alat)
               b(1) = (  1.000000  0.577350 -0.000000 )  
               b(2) = (  0.000000  1.154701  0.000000 )  
               b(3) = (  0.000000 -0.000000  0.440381 )  


     PseudoPot. # 1 for Zn read from file:
     /home/ys/qepseudo/SSSP_1.3.0_PBE_efficiency/Zn_pbe_v1.uspp.F.UPF
     MD5 check sum: df62231357ef9e81f77b2b3087fa5675
     Pseudo is Ultrasoft, Zval = 20.0
     Generated by new atomic code, or converted to UPF format
     Using radial grid of  943 points,  6 beta functions with: 
                l(1) =   0
                l(2) =   0
                l(3) =   1
                l(4) =   1
                l(5) =   2
                l(6) =   2
     Q(r) pseudized with  8 coefficients,  rinner =    1.100   1.100   1.100
                                                       1.100   1.100

     atomic species   valence    mass     pseudopotential
     Zn               20.00    65.38000     Zn( 1.00)

     No symmetry found


                                    s                        frac. trans.

      isym =  1     identity                                     

 cryst.   s( 1) = (     1          0          0      )
                  (     0          1          0      )
                  (     0          0          1      )

 cart.    s( 1) = (  1.0000000  0.0000000  0.0000000 )
                  (  0.0000000  1.0000000  0.0000000 )
                  (  0.0000000  0.0000000  1.0000000 )


   Cartesian axes

     site n.     atom                  positions (alat units)
         1        Zn     tau(   1) = (   0.0000000   0.1443375   0.1164998  )
         2        Zn     tau(   2) = (   0.5000000   0.1443375   0.1164998  )
         3        Zn     tau(   3) = (   0.0000000   0.1443375   0.5824993  )
         4        Zn     tau(   4) = (   0.5000000   0.1443375   0.5824993  )
         5        Zn     tau(   5) = (  -0.1250000   0.3608439   0.1164998  )
         6        Zn     tau(   6) = (   0.3750000   0.3608439   0.1164998  )
         7        Zn     tau(   7) = (  -0.1250000   0.3608439   0.5824993  )
         8        Zn     tau(   8) = (   0.3750000   0.3608439   0.5824993  )
         9        Zn     tau(   9) = (  -0.2500000   0.5773502   0.1164998  )
        10        Zn     tau(  10) = (   0.2500000   0.5773502   0.1164998  )
        11        Zn     tau(  11) = (  -0.2500000   0.5773502   0.5824993  )
        12        Zn     tau(  12) = (   0.2500000   0.5773502   0.5824993  )
        13        Zn     tau(  13) = (  -0.3750000   0.7938567   0.1164998  )
        14        Zn     tau(  14) = (   0.1250000   0.7938567   0.1164998  )
        15        Zn     tau(  15) = (  -0.3750000   0.7938567   0.5824993  )
        16        Zn     tau(  16) = (   0.1250000   0.7938567   0.5824993  )
        17        Zn     tau(  17) = (   0.2500000   0.1443375   0.1164998  )
        18        Zn     tau(  18) = (   0.7500000   0.1443375   0.1164998  )
        19        Zn     tau(  19) = (   0.2500000   0.1443375   0.5824993  )
        20        Zn     tau(  20) = (   0.7500000   0.1443375   0.5824993  )
        21        Zn     tau(  21) = (   0.1250000   0.3608439   0.1164998  )
        22        Zn     tau(  22) = (   0.6250000   0.3608439   0.1164998  )
        23        Zn     tau(  23) = (   0.1250000   0.3608439   0.5824993  )
        24        Zn     tau(  24) = (   0.6250000   0.3608439   0.5824993  )
        25        Zn     tau(  25) = (   0.0000000   0.5773502   0.1164998  )
        26        Zn     tau(  26) = (   0.5000000   0.5773502   0.1164998  )
        27        Zn     tau(  27) = (   0.0000000   0.5773502   0.5824993  )
        28        Zn     tau(  28) = (   0.5000000   0.5773502   0.5824993  )
        29        Zn     tau(  29) = (  -0.1250000   0.7938567   0.1164998  )
        30        Zn     tau(  30) = (   0.3750000   0.7938567   0.1164998  )
        31        Zn     tau(  31) = (  -0.1250000   0.7938567   0.5824993  )
        32        Zn     tau(  32) = (   0.3750000   0.7938567   0.5824993  )
        33        Zn     tau(  33) = (   0.1250000   0.0721688   0.3494996  )
        34        Zn     tau(  34) = (   0.6250000   0.0721688   0.3494996  )
        35        Zn     tau(  35) = (   0.0000000   0.2886752   0.3494996  )
        36        Zn     tau(  36) = (   0.5000000   0.2886752   0.3494996  )
        37        Zn     tau(  37) = (  -0.1250000   0.5051815   0.3494996  )
        38        Zn     tau(  38) = (   0.3750000   0.5051815   0.3494996  )
        39        Zn     tau(  39) = (  -0.2500000   0.7216879   0.3494996  )
        40        Zn     tau(  40) = (   0.2500000   0.7216879   0.3494996  )
        41        Zn     tau(  41) = (   0.3750000   0.0721688   0.3494996  )
        42        Zn     tau(  42) = (   0.8750000   0.0721688   0.3494996  )
        43        Zn     tau(  43) = (   0.2500000   0.2886752   0.3494996  )
        44        Zn     tau(  44) = (   0.7500000   0.2886752   0.3494996  )
        45        Zn     tau(  45) = (   0.1250000   0.5051815   0.3494996  )
        46        Zn     tau(  46) = (   0.6250000   0.5051815   0.3494996  )
        47        Zn     tau(  47) = (   0.0000000   0.7216879   0.3494996  )
        48        Zn     tau(  48) = (   0.5000000   0.7216879   0.3494996  )

   Crystallographic axes

     site n.     atom                  positions (cryst. coord.)
         1        Zn     tau(   1) = (  0.0833333  0.1666666  0.0513044  )
         2        Zn     tau(   2) = (  0.5833333  0.1666666  0.0513044  )
         3        Zn     tau(   3) = (  0.0833333  0.1666666  0.2565219  )
         4        Zn     tau(   4) = (  0.5833333  0.1666666  0.2565219  )
         5        Zn     tau(   5) = (  0.0833333  0.4166666  0.0513044  )
         6        Zn     tau(   6) = (  0.5833333  0.4166666  0.0513044  )
         7        Zn     tau(   7) = (  0.0833333  0.4166666  0.2565219  )
         8        Zn     tau(   8) = (  0.5833333  0.4166666  0.2565219  )
         9        Zn     tau(   9) = (  0.0833333  0.6666666  0.0513044  )
        10        Zn     tau(  10) = (  0.5833333  0.6666666  0.0513044  )
        11        Zn     tau(  11) = (  0.0833333  0.6666666  0.2565219  )
        12        Zn     tau(  12) = (  0.5833333  0.6666666  0.2565219  )
        13        Zn     tau(  13) = (  0.0833333  0.9166667  0.0513044  )
        14        Zn     tau(  14) = (  0.5833334  0.9166667  0.0513044  )
        15        Zn     tau(  15) = (  0.0833333  0.9166667  0.2565219  )
        16        Zn     tau(  16) = (  0.5833334  0.9166667  0.2565219  )
        17        Zn     tau(  17) = (  0.3333333  0.1666666  0.0513044  )
        18        Zn     tau(  18) = (  0.8333334  0.1666666  0.0513044  )
        19        Zn     tau(  19) = (  0.3333333  0.1666666  0.2565219  )
        20        Zn     tau(  20) = (  0.8333334  0.1666666  0.2565219  )
        21        Zn     tau(  21) = (  0.3333333  0.4166666  0.0513044  )
        22        Zn     tau(  22) = (  0.8333333  0.4166666  0.0513044  )
        23        Zn     tau(  23) = (  0.3333333  0.4166666  0.2565219  )
        24        Zn     tau(  24) = (  0.8333333  0.4166666  0.2565219  )
        25        Zn     tau(  25) = (  0.3333333  0.6666666  0.0513044  )
        26        Zn     tau(  26) = (  0.8333333  0.6666666  0.0513044  )
        27        Zn     tau(  27) = (  0.3333333  0.6666666  0.2565219  )
        28        Zn     tau(  28) = (  0.8333333  0.6666666  0.2565219  )
        29        Zn     tau(  29) = (  0.3333334  0.9166667  0.0513044  )
        30        Zn     tau(  30) = (  0.8333334  0.9166667  0.0513044  )
        31        Zn     tau(  31) = (  0.3333334  0.9166667  0.2565219  )
        32        Zn     tau(  32) = (  0.8333334  0.9166667  0.2565219  )
        33        Zn     tau(  33) = (  0.1666667  0.0833334  0.1539131  )
        34        Zn     tau(  34) = (  0.6666667  0.0833334  0.1539131  )
        35        Zn     tau(  35) = (  0.1666667  0.3333334  0.1539131  )
        36        Zn     tau(  36) = (  0.6666667  0.3333334  0.1539131  )
        37        Zn     tau(  37) = (  0.1666667  0.5833334  0.1539131  )
        38        Zn     tau(  38) = (  0.6666667  0.5833334  0.1539131  )
        39        Zn     tau(  39) = (  0.1666667  0.8333334  0.1539131  )
        40        Zn     tau(  40) = (  0.6666667  0.8333334  0.1539131  )
        41        Zn     tau(  41) = (  0.4166667  0.0833334  0.1539131  )
        42        Zn     tau(  42) = (  0.9166667  0.0833334  0.1539131  )
        43        Zn     tau(  43) = (  0.4166667  0.3333334  0.1539131  )
        44        Zn     tau(  44) = (  0.9166667  0.3333334  0.1539131  )
        45        Zn     tau(  45) = (  0.4166667  0.5833334  0.1539131  )
        46        Zn     tau(  46) = (  0.9166667  0.5833334  0.1539131  )
        47        Zn     tau(  47) = (  0.4166667  0.8333334  0.1539131  )
        48        Zn     tau(  48) = (  0.9166667  0.8333334  0.1539131  )

     number of k points=    10  Marzari-Vanderbilt smearing, width (Ry)=  0.0200
                       cart. coord. in units 2pi/alat
        k(    1) = (   0.0000000   0.0000000   0.0000000), wk =   0.1250000
        k(    2) = (   0.0000000   0.2886751   0.0000000), wk =   0.2500000
        k(    3) = (   0.0000000  -0.5773503   0.0000000), wk =   0.1250000
        k(    4) = (   0.2500000   0.1443376   0.0000000), wk =   0.2500000
        k(    5) = (   0.2500000   0.4330127   0.0000000), wk =   0.2500000
        k(    6) = (   0.2500000  -0.4330127   0.0000000), wk =   0.2500000
        k(    7) = (   0.2500000  -0.1443376   0.0000000), wk =   0.2500000
        k(    8) = (  -0.5000000  -0.2886751   0.0000000), wk =   0.1250000
        k(    9) = (  -0.5000000   0.0000000   0.0000000), wk =   0.2500000
        k(   10) = (  -0.5000000  -0.8660254   0.0000000), wk =   0.1250000

                       cryst. coord.
        k(    1) = (   0.0000000   0.0000000   0.0000000), wk =   0.1250000
        k(    2) = (   0.0000000   0.2500000   0.0000000), wk =   0.2500000
        k(    3) = (   0.0000000  -0.5000000   0.0000000), wk =   0.1250000
        k(    4) = (   0.2500000   0.0000000   0.0000000), wk =   0.2500000
        k(    5) = (   0.2500000   0.2500000   0.0000000), wk =   0.2500000
        k(    6) = (   0.2500000  -0.5000000   0.0000000), wk =   0.2500000
        k(    7) = (   0.2500000  -0.2500000   0.0000000), wk =   0.2500000
        k(    8) = (  -0.5000000   0.0000000   0.0000000), wk =   0.1250000
        k(    9) = (  -0.5000000   0.2500000   0.0000000), wk =   0.2500000
        k(   10) = (  -0.5000000  -0.5000000   0.0000000), wk =   0.1250000

     Dense  grid:  1467375 G-vectors     FFT dimensions: ( 120, 120, 256)

     Smooth grid:   518755 G-vectors     FFT dimensions: (  80,  80, 192)

     Dynamical RAM for                 wfc:      17.26 MB

     Dynamical RAM for     wfc (w. buffer):     189.88 MB

     Dynamical RAM for           str. fact:       0.68 MB

     Dynamical RAM for           local pot:       0.00 MB

     Dynamical RAM for          nlocal pot:      25.89 MB

     Dynamical RAM for                qrad:       1.44 MB

     Dynamical RAM for          rho,v,vnew:       4.67 MB

     Dynamical RAM for               rhoin:       1.56 MB

     Dynamical RAM for            rho*nmix:      10.86 MB

     Dynamical RAM for           G-vectors:       2.66 MB

     Dynamical RAM for          h,s,v(r/c):       2.42 MB

     Dynamical RAM for          <psi|beta>:       7.59 MB

     Dynamical RAM for                 psi:      34.52 MB

     Dynamical RAM for                hpsi:      34.52 MB

     Dynamical RAM for                spsi:      34.52 MB

     Dynamical RAM for      wfcinit/wfcrot:      46.32 MB

     Dynamical RAM for           addusdens:     158.78 MB

     Estimated static dynamical RAM per process >     232.53 MB

     Estimated max dynamical RAM per process >     402.17 MB

     Estimated total dynamical RAM >      12.96 GB

     Initial potential from superposition of free atoms

     starting charge     959.9932, renormalised to     960.0000

     negative rho (up, down):  2.856E-04 0.000E+00
     Starting wfcs are  624 randomized atomic wfcs
[psid02:118307] 32 more processes have sent help message help-mpi-btl-openib.txt / ib port not selected
[psid02:118307] Set MCA parameter "orte_base_help_aggregate" to 0 to see all help / error messages
[psid02:118307] 32 more processes have sent help message help-mpi-btl-openib.txt / error in device init

     total cpu time spent up to now is      118.9 secs

     Self-consistent Calculation

     iteration #  1     ecut=    40.00 Ry     beta= 0.40
     Davidson diagonalization with overlap

---- Real-time Memory Report at c_bands before calling an iterative solver
           302 MiB given to the printing process from OS
             0 MiB allocation reported by mallinfo(arena+hblkhd)
         45044 MiB available memory on the node where the printing process lives
------------------
     ethr =  1.00E-02,  avg # of iterations =  9.3

     Threshold (ethr) on eigenvalues was too large:
     Diagonalizing with lowered threshold

     Davidson diagonalization with overlap

---- Real-time Memory Report at c_bands before calling an iterative solver
           429 MiB given to the printing process from OS
             0 MiB allocation reported by mallinfo(arena+hblkhd)
         44520 MiB available memory on the node where the printing process lives
------------------
     ethr =  1.61E-04,  avg # of iterations = 11.9

     negative rho (up, down):  1.693E-03 0.000E+00

     total cpu time spent up to now is     1030.9 secs

     total energy              =  -22153.85663546 Ry
     estimated scf accuracy    <       1.57394622 Ry

     iteration #  2     ecut=    40.00 Ry     beta= 0.40
     Davidson diagonalization with overlap

---- Real-time Memory Report at c_bands before calling an iterative solver
           430 MiB given to the printing process from OS
             0 MiB allocation reported by mallinfo(arena+hblkhd)
         44500 MiB available memory on the node where the printing process lives
------------------
     ethr =  1.64E-04,  avg # of iterations =  2.6

     negative rho (up, down):  2.956E-03 0.000E+00

     total cpu time spent up to now is     1470.7 secs

     total energy              =  -22154.23542015 Ry
     estimated scf accuracy    <       0.27645307 Ry

     iteration #  3     ecut=    40.00 Ry     beta= 0.40
     Davidson diagonalization with overlap

---- Real-time Memory Report at c_bands before calling an iterative solver
           432 MiB given to the printing process from OS
             0 MiB allocation reported by mallinfo(arena+hblkhd)
         44436 MiB available memory on the node where the printing process lives
------------------
     c_bands:  1 eigenvalues not converged
     c_bands:  1 eigenvalues not converged
     ethr =  2.88E-05,  avg # of iterations =  9.5

     negative rho (up, down):  3.959E-03 0.000E+00

     total cpu time spent up to now is     1880.9 secs

     total energy              =  -22154.25242455 Ry
     estimated scf accuracy    <       0.04709663 Ry

     iteration #  4     ecut=    40.00 Ry     beta= 0.40
     Davidson diagonalization with overlap

---- Real-time Memory Report at c_bands before calling an iterative solver
           432 MiB given to the printing process from OS
             0 MiB allocation reported by mallinfo(arena+hblkhd)
         44420 MiB available memory on the node where the printing process lives
------------------
     ethr =  4.91E-06,  avg # of iterations = 11.0

     negative rho (up, down):  4.224E-03 0.000E+00

     total cpu time spent up to now is     2304.0 secs

     total energy              =  -22154.25376416 Ry
     estimated scf accuracy    <       0.01451704 Ry

     iteration #  5     ecut=    40.00 Ry     beta= 0.40
     Davidson diagonalization with overlap

---- Real-time Memory Report at c_bands before calling an iterative solver
           433 MiB given to the printing process from OS
             0 MiB allocation reported by mallinfo(arena+hblkhd)
         44405 MiB available memory on the node where the printing process lives
------------------
     ethr =  1.51E-06,  avg # of iterations =  4.4

     negative rho (up, down):  4.441E-03 0.000E+00

     total cpu time spent up to now is     2695.6 secs

     total energy              =  -22154.25480260 Ry
     estimated scf accuracy    <       0.00216731 Ry

     iteration #  6     ecut=    40.00 Ry     beta= 0.40
     Davidson diagonalization with overlap

---- Real-time Memory Report at c_bands before calling an iterative solver
           433 MiB given to the printing process from OS
             0 MiB allocation reported by mallinfo(arena+hblkhd)
         44389 MiB available memory on the node where the printing process lives
------------------
     ethr =  2.26E-07,  avg # of iterations =  2.0

     negative rho (up, down):  4.576E-03 0.000E+00

     total cpu time spent up to now is     3121.1 secs

     total energy              =  -22154.25515487 Ry
     estimated scf accuracy    <       0.00025859 Ry

     iteration #  7     ecut=    40.00 Ry     beta= 0.40
     Davidson diagonalization with overlap

---- Real-time Memory Report at c_bands before calling an iterative solver
           434 MiB given to the printing process from OS
             0 MiB allocation reported by mallinfo(arena+hblkhd)
         44371 MiB available memory on the node where the printing process lives
------------------
     ethr =  2.69E-08,  avg # of iterations =  2.0

     negative rho (up, down):  4.666E-03 0.000E+00

     total cpu time spent up to now is     3497.0 secs

     total energy              =  -22154.25516699 Ry
     estimated scf accuracy    <       0.00117789 Ry

     iteration #  8     ecut=    40.00 Ry     beta= 0.40
     Davidson diagonalization with overlap

---- Real-time Memory Report at c_bands before calling an iterative solver
           434 MiB given to the printing process from OS
             0 MiB allocation reported by mallinfo(arena+hblkhd)
         44354 MiB available memory on the node where the printing process lives
------------------
     ethr =  2.69E-08,  avg # of iterations =  2.0

     negative rho (up, down):  4.721E-03 0.000E+00

     total cpu time spent up to now is     3866.6 secs

     total energy              =  -22154.25520778 Ry
     estimated scf accuracy    <       0.00005052 Ry

     iteration #  9     ecut=    40.00 Ry     beta= 0.40
     Davidson diagonalization with overlap

---- Real-time Memory Report at c_bands before calling an iterative solver
           435 MiB given to the printing process from OS
             0 MiB allocation reported by mallinfo(arena+hblkhd)
         44339 MiB available memory on the node where the printing process lives
------------------
     ethr =  5.26E-09,  avg # of iterations =  2.3

     negative rho (up, down):  4.757E-03 0.000E+00

     total cpu time spent up to now is     4334.6 secs

     total energy              =  -22154.25522291 Ry
     estimated scf accuracy    <       0.00001368 Ry

     iteration # 10     ecut=    40.00 Ry     beta= 0.40
     Davidson diagonalization with overlap

---- Real-time Memory Report at c_bands before calling an iterative solver
           435 MiB given to the printing process from OS
             0 MiB allocation reported by mallinfo(arena+hblkhd)
         44323 MiB available memory on the node where the printing process lives
------------------
     ethr =  1.42E-09,  avg # of iterations =  2.0

     negative rho (up, down):  4.812E-03 0.000E+00

     total cpu time spent up to now is     4772.6 secs

     End of self-consistent calculation

          k = 0.0000 0.0000 0.0000 ( 64855 PWs)   bands (ev):

  -125.0673-125.0658-125.0657-125.0656-125.0655-125.0654-125.0653-125.0642
  -125.0641-125.0639-125.0638-125.0637-125.0637-125.0636-125.0634-125.0633
  -124.8632-124.8629-124.8616-124.8616-124.8615-124.8614-124.8614-124.8613
  -124.8613-124.8612-124.8612-124.8610-124.8610-124.8608-124.8600-124.8599
  -124.8598-124.8598-124.8597-124.8597-124.8597-124.8596-124.8596-124.8596
  -124.8594-124.8594-124.8593-124.8593-124.8593-124.8592-124.8591-124.8589
   -79.2336 -79.2336 -79.2336 -79.2270 -79.2270 -79.2269 -79.2269 -79.2268
   -79.2268 -79.2161 -79.2157 -79.2156 -79.2156 -79.2155 -79.2155 -79.2154
   -79.2143 -79.2142 -79.2141 -79.2140 -79.2139 -79.2138 -79.2136 -79.2136
   -79.2135 -79.2135 -79.2134 -79.2134 -79.2125 -79.2123 -79.2122 -79.2121
   -79.2120 -79.2120 -79.2119 -79.2116 -79.2116 -79.2069 -79.2069 -79.2069
   -79.2023 -79.2023 -79.2022 -79.2021 -79.2021 -79.2020 -79.1975 -79.1975
   -79.0261 -79.0261 -79.0261 -79.0257 -79.0257 -79.0257 -79.0205 -79.0201
   -79.0195 -79.0195 -79.0194 -79.0194 -79.0194 -79.0194 -79.0191 -79.0191
   -79.0190 -79.0190 -79.0189 -79.0189 -79.0187 -79.0187 -79.0186 -79.0185
   -79.0184 -79.0184 -79.0184 -79.0183 -79.0183 -79.0181 -79.0181 -79.0179
   -79.0169 -79.0168 -79.0167 -79.0167 -79.0166 -79.0166 -79.0166 -79.0165
   -79.0165 -79.0165 -79.0164 -79.0163 -79.0163 -79.0163 -79.0162 -79.0161
   -79.0160 -79.0159 -79.0082 -79.0082 -79.0081 -79.0081 -79.0080 -79.0080
   -79.0078 -79.0078 -79.0077 -79.0077 -79.0076 -79.0076 -79.0062 -79.0061
   -79.0061 -79.0061 -79.0060 -79.0060 -79.0058 -79.0058 -79.0057 -79.0057
   -79.0056 -79.0056 -78.9995 -78.9995 -78.9995 -78.9991 -78.9991 -78.9991
   -78.9948 -78.9948 -78.9948 -78.9947 -78.9947 -78.9947 -78.9945 -78.9944
   -78.9944 -78.9943 -78.9943 -78.9943 -78.9901 -78.9901 -78.9897 -78.9897
    -8.6225  -7.3999  -7.0913  -7.0686  -7.0685  -7.0685  -7.0684  -7.0684
    -7.0684  -6.9141  -6.9141  -6.9141  -6.7253  -6.7253  -6.7253  -6.6774
    -6.6774  -6.6774  -6.5883  -6.5883  -6.5883  -6.5882  -6.5882  -6.5882
    -6.5396  -6.5395  -6.5395  -6.5395  -6.5395  -6.5395  -6.5362  -6.5362
    -6.5362  -6.4793  -6.4793  -6.4793  -6.4793  -6.4791  -6.4791  -6.4319
    -6.4319  -6.4318  -6.4318  -6.4317  -6.4317  -6.3349  -6.3349  -6.3348
    -6.3347  -6.3346  -6.3346  -6.3338  -6.3338  -6.3338  -6.2731  -6.2731
    -6.2731  -6.2730  -6.2730  -6.2729  -6.2687  -6.2109  -6.2109  -6.2108
    -6.2108  -6.2108  -6.2107  -6.1713  -6.1713  -6.1713  -6.1713  -6.1713
    -6.1713  -6.1454  -6.1454  -6.1454  -6.1454  -6.1454  -6.1454  -6.1227
    -6.1227  -6.1227  -6.1227  -6.1227  -6.1227  -6.1218  -6.1218  -6.0982
    -6.0982  -6.0982  -6.0957  -6.0957  -6.0957  -6.0957  -6.0957  -6.0957
    -5.9937  -5.9937  -5.9936  -5.9936  -5.9935  -5.9935  -5.9158  -5.9158
    -5.8970  -5.8970  -5.8653  -5.8653  -5.8653  -5.8652  -5.8652  -5.8652
    -5.8641  -5.8641  -5.8640  -5.8640  -5.8639  -5.8639  -5.8326  -5.8326
    -5.8326  -5.7822  -5.7822  -5.7822  -5.7822  -5.7822  -5.7822  -5.7756
    -5.7756  -5.7756  -5.7756  -5.7756  -5.7756  -5.7751  -5.7751  -5.7751
    -5.7751  -5.7750  -5.7750  -5.7544  -5.7544  -5.7544  -5.7543  -5.7543
    -5.7543  -5.7456  -5.7455  -5.7455  -5.7454  -5.7454  -5.7454  -5.7278
    -5.7278  -5.7277  -5.7277  -5.7276  -5.7276  -5.7144  -5.7096  -5.7096
    -5.7095  -5.7095  -5.7094  -5.7094  -5.6961  -5.6961  -5.6961  -5.6110
    -5.6110  -5.5763  -5.5763  -5.5762  -5.5762  -5.5761  -5.5761  -5.5686
    -5.5686  -5.5685  -5.5685  -5.5684  -5.5684  -5.5464  -5.5464  -5.5463
    -5.5463  -5.5462  -5.5462  -5.5304  -5.5304  -5.5304  -5.5018  -5.5018
    -5.5017  -5.5017  -5.5017  -5.5016  -5.4933  -5.4933  -5.4933  -5.4932
    -5.4932  -5.4932  -5.4469  -5.4468  -5.4468  -5.4467  -5.4467  -5.4467
    -5.4342  -5.4342  -5.4342  -5.4326  -5.4326  -5.4326  -5.3957  -5.3957
    -5.3957  -5.3919  -5.3919  -5.3919  -5.3918  -5.3918  -5.3918  -5.3844
    -5.3844  -5.3631  -5.3631  -5.3185  -5.3185  -5.3184  -5.3184  -5.3183
    -5.3183  -5.2892  -5.2892  -5.2892  -5.2892  -5.2891  -5.2891  -5.2806
    -5.2806  -5.2806  -5.0707  -5.0707  -5.0707  -5.0703  -5.0703  -5.0703
    -4.3975  -4.3975  -4.3974  -4.3973  -4.3973  -4.3972  -3.4497  -2.1036
    -2.1036  -2.1036  -2.1036  -2.1035  -2.1035  -2.0201  -2.0200  -2.0200
    -2.0199  -2.0198  -2.0198  -0.8426  -0.8426  -0.8426  -0.7123  -0.6401
    -0.6401  -0.6401  -0.6401  -0.6401  -0.6401  -0.0846  -0.0846  -0.0846
     0.2450   0.2450   0.2450   1.5363   1.5363   1.5363   1.5363   1.5363
     1.5363   1.5804   1.5805   1.5805   1.5806   1.5807   1.5807   2.3091
     2.3091   2.3091   3.1092   3.3011   3.3011   3.3011   4.1414   4.1414
     4.1414   4.8845   4.8846   4.8846   4.8847   4.8847   4.8848   5.0908
     5.3056   5.4270   5.4270   5.4270   5.4270   5.4271   5.4271   5.4345
     5.4345   5.4346   5.4346   5.4347   5.4347   5.6051   5.6051   5.6052
     5.6052   5.6053   5.6053   6.2281   6.4270   6.5621   6.5621   6.5621
     6.8884   6.8884   6.8884   6.8884   6.8884   6.8885   7.0106   7.0106
     7.0107   7.0107   7.0108   7.0108   7.1417   7.1417   7.1417   7.1417
     7.1417   7.1417   7.1887   7.1887   7.1888   7.1888   7.1888   7.1888
     8.0668   8.0668   8.0668   8.0668   8.0668   8.0669   8.1454   8.1454
     8.1454   8.1454   8.1455   8.1455   8.2145   8.2145   8.2145   8.2145
     8.2145   8.2145   8.2369   8.3756   8.3756   8.3756   8.3880   9.2842

     occupation numbers 
     1.0000   1.0000   1.0000   1.0000   1.0000   1.0000   1.0000   1.0000
     1.0000   1.0000   1.0000   1.0000   1.0000   1.0000   1.0000   1.0000
     1.0000   1.0000   1.0000   1.0000   1.0000   1.0000   1.0000   1.0000
     1.0000   1.0000   1.0000   1.0000   1.0000   1.0000   1.0000   1.0000
     1.0000   1.0000   1.0000   1.0000   1.0000   1.0000   1.0000   1.0000
     1.0000   1.0000   1.0000   1.0000   1.0000   1.0000   1.0000   1.0000
     1.0000   1.0000   1.0000   1.0000   1.0000   1.0000   1.0000   1.0000
     1.0000   1.0000   1.0000   1.0000   1.0000   1.0000   1.0000   1.0000
     1.0000   1.0000   1.0000   1.0000   1.0000   1.0000   1.0000   1.0000
     1.0000   1.0000   1.0000   1.0000   1.0000   1.0000   1.0000   1.0000
     1.0000   1.0000   1.0000   1.0000   1.0000   1.0000   1.0000   1.0000
     1.0000   1.0000   1.0000   1.0000   1.0000   1.0000   1.0000   1.0000
     1.0000   1.0000   1.0000   1.0000   1.0000   1.0000   1.0000   1.0000
     1.0000   1.0000   1.0000   1.0000   1.0000   1.0000   1.0000   1.0000
     1.0000   1.0000   1.0000   1.0000   1.0000   1.0000   1.0000   1.0000
     1.0000   1.0000   1.0000   1.0000   1.0000   1.0000   1.0000   1.0000
     1.0000   1.0000   1.0000   1.0000   1.0000   1.0000   1.0000   1.0000
     1.0000   1.0000   1.0000   1.0000   1.0000   1.0000   1.0000   1.0000
     1.0000   1.0000   1.0000   1.0000   1.0000   1.0000   1.0000   1.0000
     1.0000   1.0000   1.0000   1.0000   1.0000   1.0000   1.0000   1.0000
     1.0000   1.0000   1.0000   1.0000   1.0000   1.0000   1.0000   1.0000
     1.0000   1.0000   1.0000   1.0000   1.0000   1.0000   1.0000   1.0000
     1.0000   1.0000   1.0000   1.0000   1.0000   1.0000   1.0000   1.0000
     1.0000   1.0000   1.0000   1.0000   1.0000   1.0000   1.0000   1.0000
     1.0000   1.0000   1.0000   1.0000   1.0000   1.0000   1.0000   1.0000
     1.0000   1.0000   1.0000   1.0000   1.0000   1.0000   1.0000   1.0000
     1.0000   1.0000   1.0000   1.0000   1.0000   1.0000   1.0000   1.0000
     1.0000   1.0000   1.0000   1.0000   1.0000   1.0000   1.0000   1.0000
     1.0000   1.0000   1.0000   1.0000   1.0000   1.0000   1.0000   1.0000
     1.0000   1.0000   1.0000   1.0000   1.0000   1.0000   1.0000   1.0000
     1.0000   1.0000   1.0000   1.0000   1.0000   1.0000   1.0000   1.0000
     1.0000   1.0000   1.0000   1.0000   1.0000   1.0000   1.0000   1.0000
     1.0000   1.0000   1.0000   1.0000   1.0000   1.0000   1.0000   1.0000
     1.0000   1.0000   1.0000   1.0000   1.0000   1.0000   1.0000   1.0000
     1.0000   1.0000   1.0000   1.0000   1.0000   1.0000   1.0000   1.0000
     1.0000   1.0000   1.0000   1.0000   1.0000   1.0000   1.0000   1.0000
     1.0000   1.0000   1.0000   1.0000   1.0000   1.0000   1.0000   1.0000
     1.0000   1.0000   1.0000   1.0000   1.0000   1.0000   1.0000   1.0000
     1.0000   1.0000   1.0000   1.0000   1.0000   1.0000   1.0000   1.0000
     1.0000   1.0000   1.0000   1.0000   1.0000   1.0000   1.0000   1.0000
     1.0000   1.0000   1.0000   1.0000   1.0000   1.0000   1.0000   1.0000
     1.0000   1.0000   1.0000   1.0000   1.0000   1.0000   1.0000   1.0000
     1.0000   1.0000   1.0000   1.0000   1.0000   1.0000   1.0000   1.0000
     1.0000   1.0000   1.0000   1.0000   1.0000   1.0000   1.0000   1.0000
     1.0000   1.0000   1.0000   1.0000   1.0000   1.0000   1.0000   1.0000
     1.0000   1.0000   1.0000   1.0000   1.0000   1.0000   1.0000   1.0000
     1.0000   1.0000   1.0000   1.0000   1.0000   1.0000   1.0000   1.0000
     1.0000   1.0000   1.0000   1.0000   1.0000   1.0000   1.0000   1.0000
     1.0000   1.0000   1.0000   1.0000   1.0000   1.0000   1.0000   1.0000
     1.0000   1.0000   1.0000   1.0000   1.0000   1.0000   1.0000   1.0000
     1.0000   1.0000   1.0000   1.0000   1.0000   1.0000   1.0000   1.0000
     1.0000   1.0000   1.0000   1.0000   1.0000   1.0000   1.0000   1.0000
     1.0000   1.0000   1.0000   1.0000   1.0000   1.0000   1.0000   1.0000
     1.0000   1.0000   1.0000   1.0000   1.0000   1.0000   1.0000   1.0000
     1.0000   1.0000   1.0000   1.0000   1.0000   1.0000   1.0000   1.0000
     1.0000   1.0000   1.0000   1.0000   1.0000   1.0000   1.0000   1.0000
     1.0000   1.0000   1.0000   1.0000   1.0000   1.0000   1.0000   1.0000
     1.0000   1.0000   1.0000   1.0000   1.0000   1.0000   1.0000   1.0000
     1.0000   1.0000   1.0000   1.0000   1.0000   1.0000   1.0000   1.0000
     1.0000   1.0000   1.0000   0.1848   0.1848   0.1848   0.1848   0.1848
     0.1848   0.1226   0.1225   0.1225   0.1224   0.1223   0.1223   0.0000
     0.0000   0.0000   0.0000   0.0000   0.0000   0.0000   0.0000   0.0000
     0.0000   0.0000   0.0000   0.0000   0.0000   0.0000   0.0000   0.0000
     0.0000   0.0000   0.0000   0.0000   0.0000   0.0000   0.0000   0.0000
     0.0000   0.0000   0.0000   0.0000   0.0000   0.0000   0.0000   0.0000
     0.0000   0.0000   0.0000   0.0000   0.0000   0.0000   0.0000   0.0000
     0.0000   0.0000   0.0000   0.0000   0.0000   0.0000   0.0000   0.0000
     0.0000   0.0000   0.0000   0.0000   0.0000   0.0000   0.0000   0.0000
     0.0000   0.0000   0.0000   0.0000   0.0000   0.0000   0.0000   0.0000
     0.0000   0.0000   0.0000   0.0000   0.0000   0.0000   0.0000   0.0000
     0.0000   0.0000   0.0000   0.0000   0.0000   0.0000   0.0000   0.0000
     0.0000   0.0000   0.0000   0.0000   0.0000   0.0000   0.0000   0.0000

          k = 0.0000 0.2887 0.0000 ( 64808 PWs)   bands (ev):

  -125.0672-125.0662-125.0659-125.0658-125.0652-125.0651-125.0648-125.0643
  -125.0643-125.0640-125.0639-125.0639-125.0637-125.0635-125.0633-125.0633
  -124.8631-124.8627-124.8622-124.8618-124.8618-124.8617-124.8614-124.8613
  -124.8611-124.8611-124.8608-124.8607-124.8607-124.8604-124.8602-124.8602
  -124.8599-124.8598-124.8598-124.8598-124.8598-124.8597-124.8596-124.8596
  -124.8594-124.8594-124.8594-124.8593-124.8593-124.8591-124.8590-124.8589
   -79.2328 -79.2328 -79.2322 -79.2282 -79.2282 -79.2273 -79.2273 -79.2254
   -79.2254 -79.2224 -79.2192 -79.2192 -79.2166 -79.2166 -79.2159 -79.2148
   -79.2144 -79.2143 -79.2136 -79.2136 -79.2132 -79.2126 -79.2126 -79.2125
   -79.2125 -79.2123 -79.2122 -79.2122 -79.2121 -79.2121 -79.2120 -79.2118
   -79.2116 -79.2115 -79.2098 -79.2098 -79.2086 -79.2077 -79.2076 -79.2066
   -79.2040 -79.2037 -79.2037 -79.2017 -79.2017 -79.2004 -79.1988 -79.1978
   -79.0253 -79.0253 -79.0249 -79.0249 -79.0247 -79.0243 -79.0207 -79.0207
   -79.0203 -79.0203 -79.0203 -79.0199 -79.0198 -79.0198 -79.0194 -79.0194
   -79.0193 -79.0189 -79.0189 -79.0188 -79.0185 -79.0184 -79.0181 -79.0181
   -79.0179 -79.0179 -79.0178 -79.0178 -79.0177 -79.0175 -79.0175 -79.0174
   -79.0171 -79.0171 -79.0168 -79.0168 -79.0168 -79.0168 -79.0167 -79.0166
   -79.0165 -79.0165 -79.0164 -79.0163 -79.0163 -79.0163 -79.0162 -79.0161
   -79.0159 -79.0158 -79.0150 -79.0146 -79.0118 -79.0118 -79.0114 -79.0114
   -79.0091 -79.0091 -79.0087 -79.0087 -79.0051 -79.0051 -79.0048 -79.0048
   -79.0047 -79.0047 -79.0044 -79.0044 -79.0024 -79.0024 -79.0020 -79.0020
   -79.0012 -79.0008 -79.0002 -79.0002 -78.9998 -78.9998 -78.9991 -78.9987
   -78.9966 -78.9963 -78.9963 -78.9962 -78.9959 -78.9959 -78.9943 -78.9943
   -78.9939 -78.9939 -78.9930 -78.9926 -78.9914 -78.9910 -78.9904 -78.9900
    -8.5037  -7.6202  -7.3000  -7.2482  -7.2482  -7.0287  -6.8980  -6.8718
    -6.8718  -6.8492  -6.8459  -6.8459  -6.7065  -6.6917  -6.6917  -6.6901
    -6.6743  -6.6621  -6.6376  -6.6376  -6.5893  -6.5802  -6.5764  -6.5764
    -6.5674  -6.5674  -6.5476  -6.5476  -6.5279  -6.5279  -6.5188  -6.5188
    -6.5167  -6.5120  -6.5120  -6.5090  -6.5090  -6.5020  -6.5020  -6.4867
    -6.4867  -6.4611  -6.4611  -6.4228  -6.4228  -6.3949  -6.3949  -6.3801
    -6.3801  -6.3756  -6.3224  -6.3177  -6.3177  -6.3155  -6.3155  -6.3148
    -6.3148  -6.2682  -6.2682  -6.2579  -6.2517  -6.2290  -6.2290  -6.2230
    -6.2230  -6.2212  -6.2212  -6.2208  -6.2078  -6.2078  -6.2045  -6.2045
    -6.1957  -6.1957  -6.1840  -6.1840  -6.1792  -6.1774  -6.1774  -6.1539
    -6.1375  -6.1234  -6.1234  -6.1141  -6.1141  -6.1011  -6.1011  -6.0926
    -6.0913  -6.0913  -6.0789  -6.0640  -6.0640  -6.0490  -6.0490  -6.0477
    -6.0477  -5.9584  -5.9584  -5.9582  -5.9582  -5.9429  -5.9404  -5.9379
    -5.9361  -5.9338  -5.9338  -5.9234  -5.9234  -5.9121  -5.9118  -5.9118
    -5.8939  -5.8939  -5.8886  -5.8846  -5.8810  -5.8747  -5.8747  -5.8678
    -5.8466  -5.8466  -5.8390  -5.8390  -5.8256  -5.8105  -5.7961  -5.7961
    -5.7944  -5.7944  -5.7863  -5.7863  -5.7764  -5.7763  -5.7763  -5.7735
    -5.7735  -5.7549  -5.7549  -5.7463  -5.7463  -5.7401  -5.7302  -5.7302
    -5.7132  -5.7119  -5.7119  -5.7046  -5.7046  -5.6971  -5.6971  -5.6956
    -5.6956  -5.6927  -5.6927  -5.6802  -5.6681  -5.6681  -5.6562  -5.6432
    -5.6393  -5.6393  -5.6324  -5.6324  -5.6176  -5.6176  -5.6174  -5.6163
    -5.6163  -5.6121  -5.6099  -5.6059  -5.6059  -5.5795  -5.5647  -5.5609
    -5.5609  -5.5559  -5.5559  -5.5485  -5.5485  -5.5462  -5.5462  -5.5427
    -5.5427  -5.5411  -5.5268  -5.5259  -5.5259  -5.5222  -5.5222  -5.5123
    -5.5123  -5.4911  -5.4911  -5.4613  -5.4610  -5.4568  -5.4568  -5.4545
    -5.4545  -5.4525  -5.4525  -5.4407  -5.4406  -5.4314  -5.4263  -5.4263
    -5.4245  -5.4179  -5.4153  -5.4148  -5.4008  -5.4008  -5.4003  -5.4003
    -5.3895  -5.3863  -5.3863  -5.3813  -5.3669  -5.3669  -5.3652  -5.3596
    -5.3444  -5.3444  -5.3404  -5.3315  -5.3193  -5.3193  -5.3133  -5.3101
    -5.3101  -5.3004  -5.3004  -5.2921  -5.2921  -5.2815  -5.2815  -5.1435
    -5.1435  -5.1286  -5.1286  -5.1230  -5.1230  -5.1048  -5.1040  -4.9468
    -4.9344  -4.6380  -4.6380  -3.8810  -3.8810  -3.4799  -3.3937  -3.3937
    -3.3648  -2.6733  -2.3016  -2.3016  -2.2220  -2.0211  -2.0211  -1.9713
    -1.9713  -1.5147  -1.5147  -1.2921  -1.2921  -1.1168  -0.7950  -0.5729
    -0.5729  -0.5609  -0.5609  -0.5522   0.0238   0.0238   0.2690   0.2690
     0.5600   0.5600   0.6333   0.8766   0.8983   0.8983   1.1834   1.1834
     1.5565   1.5565   2.2263   2.2263   2.6473   2.6966   2.6966   2.7209
     2.7826   2.7826   2.9500   2.9500   3.2210   3.5466   3.6907   3.6907
     3.9087   3.9087   4.1134   4.1850   4.1850   4.5575   4.5575   4.8017
     4.8017   4.8432   4.8432   5.1517   5.1517   5.1604   5.1604   5.2036
     5.4207   5.4272   5.4272   5.5682   5.6427   5.7934   5.7934   5.8077
     6.0941   6.0941   6.1051   6.3129   6.3129   6.3397   6.3442   6.5395
     6.5546   6.5546   6.5944   6.5944   6.7105   6.7985   6.7985   7.0101
     7.0101   7.0868   7.0868   7.1731   7.1731   7.2689   7.3089   7.3089
     7.4377   7.4383   7.4383   7.4473   7.4473   7.6569   7.6569   7.7067
     7.7067   7.7283   7.7283   7.7517   7.8849   7.8849   7.9461   7.9461
     8.0255   8.0256   8.1740   8.3189   8.3524   8.4997   8.6642   8.6642
     8.6972   8.7354   8.8079   8.8079   8.8266   8.8269   8.8361   8.8363

     occupation numbers 
     1.0000   1.0000   1.0000   1.0000   1.0000   1.0000   1.0000   1.0000
     1.0000   1.0000   1.0000   1.0000   1.0000   1.0000   1.0000   1.0000
     1.0000   1.0000   1.0000   1.0000   1.0000   1.0000   1.0000   1.0000
     1.0000   1.0000   1.0000   1.0000   1.0000   1.0000   1.0000   1.0000
     1.0000   1.0000   1.0000   1.0000   1.0000   1.0000   1.0000   1.0000
     1.0000   1.0000   1.0000   1.0000   1.0000   1.0000   1.0000   1.0000
     1.0000   1.0000   1.0000   1.0000   1.0000   1.0000   1.0000   1.0000
     1.0000   1.0000   1.0000   1.0000   1.0000   1.0000   1.0000   1.0000
     1.0000   1.0000   1.0000   1.0000   1.0000   1.0000   1.0000   1.0000
     1.0000   1.0000   1.0000   1.0000   1.0000   1.0000   1.0000   1.0000
     1.0000   1.0000   1.0000   1.0000   1.0000   1.0000   1.0000   1.0000
     1.0000   1.0000   1.0000   1.0000   1.0000   1.0000   1.0000   1.0000
     1.0000   1.0000   1.0000   1.0000   1.0000   1.0000   1.0000   1.0000
     1.0000   1.0000   1.0000   1.0000   1.0000   1.0000   1.0000   1.0000
     1.0000   1.0000   1.0000   1.0000   1.0000   1.0000   1.0000   1.0000
     1.0000   1.0000   1.0000   1.0000   1.0000   1.0000   1.0000   1.0000
     1.0000   1.0000   1.0000   1.0000   1.0000   1.0000   1.0000   1.0000
     1.0000   1.0000   1.0000   1.0000   1.0000   1.0000   1.0000   1.0000
     1.0000   1.0000   1.0000   1.0000   1.0000   1.0000   1.0000   1.0000
     1.0000   1.0000   1.0000   1.0000   1.0000   1.0000   1.0000   1.0000
     1.0000   1.0000   1.0000   1.0000   1.0000   1.0000   1.0000   1.0000
     1.0000   1.0000   1.0000   1.0000   1.0000   1.0000   1.0000   1.0000
     1.0000   1.0000   1.0000   1.0000   1.0000   1.0000   1.0000   1.0000
     1.0000   1.0000   1.0000   1.0000   1.0000   1.0000   1.0000   1.0000
     1.0000   1.0000   1.0000   1.0000   1.0000   1.0000   1.0000   1.0000
     1.0000   1.0000   1.0000   1.0000   1.0000   1.0000   1.0000   1.0000
     1.0000   1.0000   1.0000   1.0000   1.0000   1.0000   1.0000   1.0000
     1.0000   1.0000   1.0000   1.0000   1.0000   1.0000   1.0000   1.0000
     1.0000   1.0000   1.0000   1.0000   1.0000   1.0000   1.0000   1.0000
     1.0000   1.0000   1.0000   1.0000   1.0000   1.0000   1.0000   1.0000
     1.0000   1.0000   1.0000   1.0000   1.0000   1.0000   1.0000   1.0000
     1.0000   1.0000   1.0000   1.0000   1.0000   1.0000   1.0000   1.0000
     1.0000   1.0000   1.0000   1.0000   1.0000   1.0000   1.0000   1.0000
     1.0000   1.0000   1.0000   1.0000   1.0000   1.0000   1.0000   1.0000
     1.0000   1.0000   1.0000   1.0000   1.0000   1.0000   1.0000   1.0000
     1.0000   1.0000   1.0000   1.0000   1.0000   1.0000   1.0000   1.0000
     1.0000   1.0000   1.0000   1.0000   1.0000   1.0000   1.0000   1.0000
     1.0000   1.0000   1.0000   1.0000   1.0000   1.0000   1.0000   1.0000
     1.0000   1.0000   1.0000   1.0000   1.0000   1.0000   1.0000   1.0000
     1.0000   1.0000   1.0000   1.0000   1.0000   1.0000   1.0000   1.0000
     1.0000   1.0000   1.0000   1.0000   1.0000   1.0000   1.0000   1.0000
     1.0000   1.0000   1.0000   1.0000   1.0000   1.0000   1.0000   1.0000
     1.0000   1.0000   1.0000   1.0000   1.0000   1.0000   1.0000   1.0000
     1.0000   1.0000   1.0000   1.0000   1.0000   1.0000   1.0000   1.0000
     1.0000   1.0000   1.0000   1.0000   1.0000   1.0000   1.0000   1.0000
     1.0000   1.0000   1.0000   1.0000   1.0000   1.0000   1.0000   1.0000
     1.0000   1.0000   1.0000   1.0000   1.0000   1.0000   1.0000   1.0000
     1.0000   1.0000   1.0000   1.0000   1.0000   1.0000   1.0000   1.0000
     1.0000   1.0000   1.0000   1.0000   1.0000   1.0000   1.0000   1.0000
     1.0000   1.0000   1.0000   1.0000   1.0000   1.0000   1.0000   1.0000
     1.0000   1.0000   1.0000   1.0000   1.0000   1.0000   1.0000   1.0000
     1.0000   1.0000   1.0000   1.0000   1.0000   1.0000   1.0000   1.0000
     1.0000   1.0000   1.0000   1.0000   1.0000   1.0000   1.0000   1.0000
     1.0000   1.0000   1.0000   1.0000   1.0000   1.0000   1.0000   1.0000
     1.0000   1.0000   1.0000   1.0000   1.0000   1.0000   1.0000   1.0000
     1.0000   1.0000   1.0000   1.0000   1.0000   1.0000   1.0000   1.0000
     1.0000   1.0000   1.0000   1.0000   1.0000   1.0000   1.0000   1.0000
     1.0000   1.0000   1.0000   1.0000   1.0000   1.0000   1.0000   1.0000
     1.0000   1.0000   1.0000   1.0000   1.0000   1.0000   1.0000   1.0000
     1.0006   1.0006   1.0019   1.0374   1.0444   1.0444   0.9986   0.9986
     0.1541   0.1541   0.0000   0.0000   0.0000   0.0000   0.0000   0.0000
     0.0000   0.0000   0.0000   0.0000   0.0000   0.0000   0.0000   0.0000
     0.0000   0.0000   0.0000   0.0000   0.0000   0.0000   0.0000   0.0000
     0.0000   0.0000   0.0000   0.0000   0.0000   0.0000   0.0000   0.0000
     0.0000   0.0000   0.0000   0.0000   0.0000   0.0000   0.0000   0.0000
     0.0000   0.0000   0.0000   0.0000   0.0000   0.0000   0.0000   0.0000
     0.0000   0.0000   0.0000   0.0000   0.0000   0.0000   0.0000   0.0000
     0.0000   0.0000   0.0000   0.0000   0.0000   0.0000   0.0000   0.0000
     0.0000   0.0000   0.0000   0.0000   0.0000   0.0000   0.0000   0.0000
     0.0000   0.0000   0.0000   0.0000   0.0000   0.0000   0.0000   0.0000
     0.0000   0.0000   0.0000   0.0000   0.0000   0.0000   0.0000   0.0000
     0.0000   0.0000   0.0000   0.0000   0.0000   0.0000   0.0000   0.0000

          k = 0.0000-0.5774 0.0000 ( 64842 PWs)   bands (ev):

  -125.0670-125.0666-125.0659-125.0659-125.0648-125.0647-125.0647-125.0647
  -125.0644-125.0641-125.0640-125.0639-125.0637-125.0635-125.0633-125.0632
  -124.8628-124.8626-124.8625-124.8622-124.8619-124.8618-124.8615-124.8614
  -124.8607-124.8606-124.8606-124.8606-124.8603-124.8603-124.8603-124.8602
  -124.8602-124.8601-124.8599-124.8599-124.8598-124.8597-124.8597-124.8596
  -124.8595-124.8594-124.8593-124.8593-124.8593-124.8591-124.8589-124.8588
   -79.2310 -79.2309 -79.2307 -79.2305 -79.2285 -79.2282 -79.2273 -79.2272
   -79.2227 -79.2227 -79.2227 -79.2227 -79.2178 -79.2178 -79.2156 -79.2153
   -79.2145 -79.2144 -79.2132 -79.2131 -79.2131 -79.2130 -79.2127 -79.2125
   -79.2123 -79.2121 -79.2120 -79.2118 -79.2115 -79.2115 -79.2112 -79.2112
   -79.2099 -79.2098 -79.2096 -79.2094 -79.2064 -79.2064 -79.2063 -79.2063
   -79.2057 -79.2053 -79.2029 -79.2026 -79.2017 -79.2017 -79.1990 -79.1987
   -79.0234 -79.0233 -79.0232 -79.0231 -79.0231 -79.0229 -79.0228 -79.0227
   -79.0209 -79.0207 -79.0206 -79.0203 -79.0200 -79.0198 -79.0198 -79.0198
   -79.0197 -79.0194 -79.0194 -79.0194 -79.0190 -79.0189 -79.0186 -79.0186
   -79.0176 -79.0176 -79.0176 -79.0176 -79.0173 -79.0173 -79.0173 -79.0172
   -79.0172 -79.0171 -79.0169 -79.0169 -79.0167 -79.0167 -79.0166 -79.0165
   -79.0165 -79.0163 -79.0162 -79.0162 -79.0162 -79.0160 -79.0158 -79.0158
   -79.0153 -79.0153 -79.0153 -79.0153 -79.0149 -79.0149 -79.0149 -79.0149
   -79.0104 -79.0104 -79.0100 -79.0100 -79.0038 -79.0038 -79.0034 -79.0034
   -79.0024 -79.0023 -79.0022 -79.0021 -79.0021 -79.0019 -79.0018 -79.0016
   -78.9989 -78.9989 -78.9989 -78.9989 -78.9986 -78.9985 -78.9985 -78.9985
   -78.9982 -78.9980 -78.9978 -78.9976 -78.9954 -78.9952 -78.9951 -78.9948
   -78.9943 -78.9943 -78.9940 -78.9939 -78.9915 -78.9913 -78.9912 -78.9909
    -8.1559  -8.1557  -7.3170  -7.3170  -7.0254  -7.0252  -6.8634  -6.8631
    -6.8595  -6.8592  -6.7495  -6.7494  -6.7492  -6.7491  -6.6536  -6.6534
    -6.6468  -6.6468  -6.6468  -6.6468  -6.6241  -6.6239  -6.6073  -6.6072
    -6.6070  -6.6069  -6.5528  -6.5528  -6.5285  -6.5284  -6.5282  -6.5281
    -6.5056  -6.5056  -6.4877  -6.4877  -6.4877  -6.4877  -6.4627  -6.4627
    -6.4627  -6.4627  -6.4606  -6.4604  -6.4500  -6.4500  -6.4258  -6.4258
    -6.4215  -6.4214  -6.4212  -6.4212  -6.3101  -6.3101  -6.3009  -6.3009
    -6.2923  -6.2923  -6.2923  -6.2923  -6.2919  -6.2917  -6.2712  -6.2710
    -6.2709  -6.2708  -6.2352  -6.2350  -6.2210  -6.2210  -6.2209  -6.2209
    -6.2060  -6.2060  -6.2004  -6.2004  -6.1697  -6.1695  -6.1410  -6.1409
    -6.1115  -6.1115  -6.1032  -6.1032  -6.0833  -6.0833  -6.0832  -6.0831
    -6.0608  -6.0608  -6.0608  -6.0608  -6.0412  -6.0412  -6.0315  -6.0315
    -6.0255  -6.0253  -6.0232  -6.0229  -6.0089  -6.0085  -5.9906  -5.9906
    -5.9906  -5.9906  -5.9463  -5.9463  -5.9450  -5.9448  -5.9146  -5.9145
    -5.9063  -5.9063  -5.8726  -5.8726  -5.8723  -5.8723  -5.8144  -5.8142
    -5.8099  -5.8099  -5.8081  -5.8081  -5.8081  -5.8081  -5.8058  -5.8055
    -5.7877  -5.7877  -5.7842  -5.7840  -5.7751  -5.7751  -5.7750  -5.7750
    -5.7670  -5.7668  -5.7663  -5.7663  -5.7663  -5.7663  -5.7553  -5.7553
    -5.7538  -5.7538  -5.7538  -5.7538  -5.6754  -5.6754  -5.6737  -5.6737
    -5.6676  -5.6676  -5.6456  -5.6456  -5.6456  -5.6456  -5.6314  -5.6311
    -5.6239  -5.6239  -5.6050  -5.6049  -5.6048  -5.6048  -5.5944  -5.5944
    -5.5713  -5.5711  -5.5425  -5.5423  -5.5288  -5.5288  -5.5286  -5.5286
    -5.5271  -5.5271  -5.5271  -5.5271  -5.5225  -5.5225  -5.5220  -5.5218
    -5.5000  -5.4999  -5.4997  -5.4997  -5.4900  -5.4898  -5.4870  -5.4867
    -5.4856  -5.4856  -5.4788  -5.4788  -5.4650  -5.4650  -5.4650  -5.4650
    -5.4501  -5.4500  -5.4498  -5.4497  -5.4408  -5.4407  -5.4238  -5.4235
    -5.4147  -5.4147  -5.4145  -5.4145  -5.4134  -5.4134  -5.4106  -5.4106
    -5.4038  -5.4036  -5.4035  -5.4035  -5.3999  -5.3996  -5.3716  -5.3714
    -5.3620  -5.3620  -5.3620  -5.3620  -5.3232  -5.3232  -5.3232  -5.3232
    -5.2534  -5.2533  -5.2532  -5.2530  -5.2349  -5.2349  -5.2336  -5.2334
    -5.2333  -5.2332  -5.2007  -5.2005  -5.1980  -5.1977  -4.7018  -4.7018
    -4.4182  -4.4182  -4.4182  -4.4182  -3.7283  -3.7282  -3.1102  -3.1100
    -3.0615  -3.0615  -3.0615  -3.0615  -2.3912  -2.3912  -2.2398  -2.2397
    -1.7579  -1.7579  -1.7577  -1.7577  -0.7552  -0.7552  -0.7552  -0.7552
    -0.3255  -0.3255  -0.3253  -0.3253  -0.0904  -0.0902   0.0132   0.0132
     1.0214   1.0214   1.0492   1.0492   1.3382   1.3382   1.3700   1.3700
     1.3701   1.3701   2.2237   2.2237   2.9000   2.9001   2.9001   2.9002
     3.1017   3.1017   3.1017   3.1017   3.3223   3.3223   3.5563   3.5565
     3.8667   3.8667   3.8668   3.8668   3.9983   3.9983   4.2581   4.2581
     4.4484   4.4484   4.7460   4.7460   4.8581   4.8581   5.4825   5.4825
     5.5420   5.5420   5.7655   5.7655   5.8012   5.8012   5.9295   5.9296
     5.9297   5.9298   5.9832   5.9832   5.9833   5.9833   6.1550   6.1550
     6.1550   6.1550   6.4431   6.4431   6.5599   6.5599   6.6840   6.6840
     6.6918   6.6918   6.8673   6.8673   6.8767   6.8768   7.0141   7.0141
     7.0141   7.0141   7.6144   7.6144   7.7743   7.7743   8.0645   8.0645
     8.0996   8.0996   8.0996   8.0996   8.2798   8.2799   8.5171   8.5171
     8.5172   8.5172   8.6351   8.6351   8.6351   8.6351   8.6982   8.6982
     8.7367   8.7367   8.8338   8.8339   9.0005   9.0005   9.0006   9.0007

     occupation numbers 
     1.0000   1.0000   1.0000   1.0000   1.0000   1.0000   1.0000   1.0000
     1.0000   1.0000   1.0000   1.0000   1.0000   1.0000   1.0000   1.0000
     1.0000   1.0000   1.0000   1.0000   1.0000   1.0000   1.0000   1.0000
     1.0000   1.0000   1.0000   1.0000   1.0000   1.0000   1.0000   1.0000
     1.0000   1.0000   1.0000   1.0000   1.0000   1.0000   1.0000   1.0000
     1.0000   1.0000   1.0000   1.0000   1.0000   1.0000   1.0000   1.0000
     1.0000   1.0000   1.0000   1.0000   1.0000   1.0000   1.0000   1.0000
     1.0000   1.0000   1.0000   1.0000   1.0000   1.0000   1.0000   1.0000
     1.0000   1.0000   1.0000   1.0000   1.0000   1.0000   1.0000   1.0000
     1.0000   1.0000   1.0000   1.0000   1.0000   1.0000   1.0000   1.0000
     1.0000   1.0000   1.0000   1.0000   1.0000   1.0000   1.0000   1.0000
     1.0000   1.0000   1.0000   1.0000   1.0000   1.0000   1.0000   1.0000
     1.0000   1.0000   1.0000   1.0000   1.0000   1.0000   1.0000   1.0000
     1.0000   1.0000   1.0000   1.0000   1.0000   1.0000   1.0000   1.0000
     1.0000   1.0000   1.0000   1.0000   1.0000   1.0000   1.0000   1.0000
     1.0000   1.0000   1.0000   1.0000   1.0000   1.0000   1.0000   1.0000
     1.0000   1.0000   1.0000   1.0000   1.0000   1.0000   1.0000   1.0000
     1.0000   1.0000   1.0000   1.0000   1.0000   1.0000   1.0000   1.0000
     1.0000   1.0000   1.0000   1.0000   1.0000   1.0000   1.0000   1.0000
     1.0000   1.0000   1.0000   1.0000   1.0000   1.0000   1.0000   1.0000
     1.0000   1.0000   1.0000   1.0000   1.0000   1.0000   1.0000   1.0000
     1.0000   1.0000   1.0000   1.0000   1.0000   1.0000   1.0000   1.0000
     1.0000   1.0000   1.0000   1.0000   1.0000   1.0000   1.0000   1.0000
     1.0000   1.0000   1.0000   1.0000   1.0000   1.0000   1.0000   1.0000
     1.0000   1.0000   1.0000   1.0000   1.0000   1.0000   1.0000   1.0000
     1.0000   1.0000   1.0000   1.0000   1.0000   1.0000   1.0000   1.0000
     1.0000   1.0000   1.0000   1.0000   1.0000   1.0000   1.0000   1.0000
     1.0000   1.0000   1.0000   1.0000   1.0000   1.0000   1.0000   1.0000
     1.0000   1.0000   1.0000   1.0000   1.0000   1.0000   1.0000   1.0000
     1.0000   1.0000   1.0000   1.0000   1.0000   1.0000   1.0000   1.0000
     1.0000   1.0000   1.0000   1.0000   1.0000   1.0000   1.0000   1.0000
     1.0000   1.0000   1.0000   1.0000   1.0000   1.0000   1.0000   1.0000
     1.0000   1.0000   1.0000   1.0000   1.0000   1.0000   1.0000   1.0000
     1.0000   1.0000   1.0000   1.0000   1.0000   1.0000   1.0000   1.0000
     1.0000   1.0000   1.0000   1.0000   1.0000   1.0000   1.0000   1.0000
     1.0000   1.0000   1.0000   1.0000   1.0000   1.0000   1.0000   1.0000
     1.0000   1.0000   1.0000   1.0000   1.0000   1.0000   1.0000   1.0000
     1.0000   1.0000   1.0000   1.0000   1.0000   1.0000   1.0000   1.0000
     1.0000   1.0000   1.0000   1.0000   1.0000   1.0000   1.0000   1.0000
     1.0000   1.0000   1.0000   1.0000   1.0000   1.0000   1.0000   1.0000
     1.0000   1.0000   1.0000   1.0000   1.0000   1.0000   1.0000   1.0000
     1.0000   1.0000   1.0000   1.0000   1.0000   1.0000   1.0000   1.0000
     1.0000   1.0000   1.0000   1.0000   1.0000   1.0000   1.0000   1.0000
     1.0000   1.0000   1.0000   1.0000   1.0000   1.0000   1.0000   1.0000
     1.0000   1.0000   1.0000   1.0000   1.0000   1.0000   1.0000   1.0000
     1.0000   1.0000   1.0000   1.0000   1.0000   1.0000   1.0000   1.0000
     1.0000   1.0000   1.0000   1.0000   1.0000   1.0000   1.0000   1.0000
     1.0000   1.0000   1.0000   1.0000   1.0000   1.0000   1.0000   1.0000
     1.0000   1.0000   1.0000   1.0000   1.0000   1.0000   1.0000   1.0000
     1.0000   1.0000   1.0000   1.0000   1.0000   1.0000   1.0000   1.0000
     1.0000   1.0000   1.0000   1.0000   1.0000   1.0000   1.0000   1.0000
     1.0000   1.0000   1.0000   1.0000   1.0000   1.0000   1.0000   1.0000
     1.0000   1.0000   1.0000   1.0000   1.0000   1.0000   1.0000   1.0000
     1.0000   1.0000   1.0000   1.0000   1.0000   1.0000   1.0000   1.0000
     1.0000   1.0000   1.0000   1.0000   1.0000   1.0000   1.0000   1.0000
     1.0000   1.0000   1.0000   1.0000   1.0000   1.0000   1.0000   1.0000
     1.0000   1.0000   1.0000   1.0000   1.0000   1.0000   1.0000   1.0000
     1.0000   1.0000   1.0000   1.0000   1.0000   1.0000   1.0000   1.0000
     1.0000   1.0000   1.0000   1.0000   1.0000   1.0000   1.0000   1.0000
     1.0812   1.0812   1.0833   1.0833   0.6570   0.6570   0.5690   0.5690
     0.5687   0.5686   0.0000   0.0000   0.0000   0.0000   0.0000   0.0000
     0.0000   0.0000   0.0000   0.0000   0.0000   0.0000   0.0000   0.0000
     0.0000   0.0000   0.0000   0.0000   0.0000   0.0000   0.0000   0.0000
     0.0000   0.0000   0.0000   0.0000   0.0000   0.0000   0.0000   0.0000
     0.0000   0.0000   0.0000   0.0000   0.0000   0.0000   0.0000   0.0000
     0.0000   0.0000   0.0000   0.0000   0.0000   0.0000   0.0000   0.0000
     0.0000   0.0000   0.0000   0.0000   0.0000   0.0000   0.0000   0.0000
     0.0000   0.0000   0.0000   0.0000   0.0000   0.0000   0.0000   0.0000
     0.0000   0.0000   0.0000   0.0000   0.0000   0.0000   0.0000   0.0000
     0.0000   0.0000   0.0000   0.0000   0.0000   0.0000   0.0000   0.0000
     0.0000   0.0000   0.0000   0.0000   0.0000   0.0000   0.0000   0.0000
     0.0000   0.0000   0.0000   0.0000   0.0000   0.0000   0.0000   0.0000

          k = 0.2500 0.1443 0.0000 ( 64808 PWs)   bands (ev):

  -125.0672-125.0663-125.0658-125.0657-125.0653-125.0651-125.0648-125.0644
  -125.0643-125.0639-125.0639-125.0638-125.0637-125.0637-125.0633-125.0633
  -124.8631-124.8627-124.8622-124.8618-124.8618-124.8617-124.8614-124.8613
  -124.8611-124.8611-124.8608-124.8608-124.8607-124.8603-124.8602-124.8602
  -124.8599-124.8599-124.8598-124.8598-124.8598-124.8597-124.8597-124.8595
  -124.8594-124.8594-124.8594-124.8593-124.8593-124.8592-124.8590-124.8589
   -79.2328 -79.2328 -79.2322 -79.2282 -79.2282 -79.2273 -79.2273 -79.2254
   -79.2254 -79.2224 -79.2192 -79.2192 -79.2166 -79.2166 -79.2159 -79.2149
   -79.2144 -79.2143 -79.2137 -79.2136 -79.2132 -79.2127 -79.2126 -79.2125
   -79.2125 -79.2122 -79.2122 -79.2122 -79.2122 -79.2121 -79.2119 -79.2119
   -79.2115 -79.2115 -79.2098 -79.2098 -79.2086 -79.2077 -79.2076 -79.2065
   -79.2040 -79.2037 -79.2036 -79.2017 -79.2017 -79.2004 -79.1988 -79.1978
   -79.0253 -79.0253 -79.0249 -79.0249 -79.0247 -79.0243 -79.0207 -79.0207
   -79.0204 -79.0204 -79.0203 -79.0199 -79.0198 -79.0198 -79.0194 -79.0194
   -79.0193 -79.0190 -79.0188 -79.0188 -79.0185 -79.0184 -79.0182 -79.0181
   -79.0179 -79.0179 -79.0178 -79.0178 -79.0177 -79.0175 -79.0175 -79.0174
   -79.0172 -79.0171 -79.0168 -79.0168 -79.0168 -79.0167 -79.0167 -79.0166
   -79.0166 -79.0164 -79.0164 -79.0163 -79.0163 -79.0162 -79.0162 -79.0161
   -79.0159 -79.0158 -79.0150 -79.0146 -79.0118 -79.0118 -79.0114 -79.0114
   -79.0091 -79.0091 -79.0087 -79.0087 -79.0051 -79.0051 -79.0048 -79.0048
   -79.0047 -79.0047 -79.0044 -79.0044 -79.0024 -79.0024 -79.0020 -79.0020
   -79.0012 -79.0008 -79.0002 -79.0002 -78.9998 -78.9998 -78.9991 -78.9987
   -78.9966 -78.9963 -78.9963 -78.9962 -78.9959 -78.9959 -78.9943 -78.9943
   -78.9939 -78.9939 -78.9930 -78.9926 -78.9914 -78.9910 -78.9904 -78.9900
    -8.5037  -7.6202  -7.3000  -7.2482  -7.2482  -7.0287  -6.8980  -6.8718
    -6.8718  -6.8492  -6.8459  -6.8459  -6.7065  -6.6917  -6.6917  -6.6901
    -6.6743  -6.6621  -6.6376  -6.6376  -6.5893  -6.5802  -6.5764  -6.5764
    -6.5674  -6.5674  -6.5476  -6.5476  -6.5279  -6.5279  -6.5188  -6.5188
    -6.5167  -6.5120  -6.5120  -6.5090  -6.5090  -6.5020  -6.5020  -6.4867
    -6.4867  -6.4611  -6.4611  -6.4228  -6.4228  -6.3949  -6.3949  -6.3801
    -6.3801  -6.3756  -6.3224  -6.3177  -6.3177  -6.3155  -6.3155  -6.3148
    -6.3148  -6.2682  -6.2682  -6.2579  -6.2517  -6.2290  -6.2290  -6.2230
    -6.2230  -6.2212  -6.2212  -6.2208  -6.2078  -6.2078  -6.2045  -6.2045
    -6.1957  -6.1957  -6.1840  -6.1840  -6.1792  -6.1774  -6.1774  -6.1539
    -6.1375  -6.1234  -6.1234  -6.1141  -6.1141  -6.1011  -6.1011  -6.0926
    -6.0913  -6.0913  -6.0789  -6.0640  -6.0640  -6.0490  -6.0490  -6.0477
    -6.0477  -5.9584  -5.9584  -5.9582  -5.9582  -5.9429  -5.9404  -5.9379
    -5.9361  -5.9338  -5.9338  -5.9234  -5.9234  -5.9121  -5.9118  -5.9118
    -5.8939  -5.8939  -5.8886  -5.8846  -5.8810  -5.8747  -5.8747  -5.8678
    -5.8466  -5.8466  -5.8390  -5.8390  -5.8256  -5.8105  -5.7961  -5.7961
    -5.7944  -5.7944  -5.7863  -5.7863  -5.7764  -5.7763  -5.7763  -5.7735
    -5.7735  -5.7549  -5.7549  -5.7463  -5.7463  -5.7401  -5.7302  -5.7302
    -5.7132  -5.7119  -5.7119  -5.7046  -5.7046  -5.6971  -5.6971  -5.6956
    -5.6956  -5.6927  -5.6927  -5.6802  -5.6681  -5.6681  -5.6562  -5.6432
    -5.6393  -5.6393  -5.6324  -5.6324  -5.6176  -5.6176  -5.6174  -5.6163
    -5.6163  -5.6121  -5.6099  -5.6059  -5.6059  -5.5795  -5.5647  -5.5609
    -5.5609  -5.5559  -5.5559  -5.5485  -5.5485  -5.5462  -5.5462  -5.5427
    -5.5427  -5.5411  -5.5268  -5.5259  -5.5259  -5.5222  -5.5222  -5.5123
    -5.5123  -5.4911  -5.4911  -5.4613  -5.4610  -5.4568  -5.4568  -5.4545
    -5.4545  -5.4525  -5.4525  -5.4407  -5.4406  -5.4314  -5.4263  -5.4263
    -5.4245  -5.4179  -5.4153  -5.4148  -5.4008  -5.4008  -5.4003  -5.4003
    -5.3895  -5.3863  -5.3863  -5.3813  -5.3669  -5.3669  -5.3652  -5.3596
    -5.3444  -5.3444  -5.3404  -5.3315  -5.3193  -5.3193  -5.3133  -5.3101
    -5.3101  -5.3004  -5.3004  -5.2921  -5.2921  -5.2815  -5.2815  -5.1435
    -5.1435  -5.1286  -5.1286  -5.1230  -5.1230  -5.1048  -5.1040  -4.9468
    -4.9344  -4.6380  -4.6380  -3.8810  -3.8810  -3.4799  -3.3937  -3.3937
    -3.3648  -2.6733  -2.3016  -2.3016  -2.2220  -2.0211  -2.0211  -1.9713
    -1.9713  -1.5147  -1.5147  -1.2921  -1.2921  -1.1168  -0.7950  -0.5729
    -0.5729  -0.5609  -0.5609  -0.5522   0.0238   0.0238   0.2690   0.2690
     0.5600   0.5600   0.6333   0.8766   0.8983   0.8983   1.1834   1.1834
     1.5565   1.5565   2.2263   2.2263   2.6473   2.6966   2.6966   2.7209
     2.7826   2.7826   2.9500   2.9500   3.2210   3.5466   3.6907   3.6907
     3.9087   3.9087   4.1134   4.1850   4.1850   4.5575   4.5575   4.8017
     4.8017   4.8432   4.8432   5.1517   5.1517   5.1604   5.1604   5.2036
     5.4207   5.4272   5.4272   5.5682   5.6427   5.7934   5.7934   5.8077
     6.0941   6.0941   6.1051   6.3129   6.3129   6.3397   6.3442   6.5395
     6.5546   6.5546   6.5944   6.5944   6.7105   6.7985   6.7985   7.0101
     7.0101   7.0868   7.0868   7.1731   7.1731   7.2689   7.3089   7.3089
     7.4377   7.4383   7.4383   7.4473   7.4473   7.6569   7.6569   7.7067
     7.7067   7.7283   7.7283   7.7517   7.8849   7.8849   7.9461   7.9461
     8.0255   8.0255   8.1739   8.3188   8.3524   8.4997   8.6642   8.6642
     8.6972   8.7354   8.8079   8.8079   8.8264   8.8269   8.8362   8.8363

     occupation numbers 
     1.0000   1.0000   1.0000   1.0000   1.0000   1.0000   1.0000   1.0000
     1.0000   1.0000   1.0000   1.0000   1.0000   1.0000   1.0000   1.0000
     1.0000   1.0000   1.0000   1.0000   1.0000   1.0000   1.0000   1.0000
     1.0000   1.0000   1.0000   1.0000   1.0000   1.0000   1.0000   1.0000
     1.0000   1.0000   1.0000   1.0000   1.0000   1.0000   1.0000   1.0000
     1.0000   1.0000   1.0000   1.0000   1.0000   1.0000   1.0000   1.0000
     1.0000   1.0000   1.0000   1.0000   1.0000   1.0000   1.0000   1.0000
     1.0000   1.0000   1.0000   1.0000   1.0000   1.0000   1.0000   1.0000
     1.0000   1.0000   1.0000   1.0000   1.0000   1.0000   1.0000   1.0000
     1.0000   1.0000   1.0000   1.0000   1.0000   1.0000   1.0000   1.0000
     1.0000   1.0000   1.0000   1.0000   1.0000   1.0000   1.0000   1.0000
     1.0000   1.0000   1.0000   1.0000   1.0000   1.0000   1.0000   1.0000
     1.0000   1.0000   1.0000   1.0000   1.0000   1.0000   1.0000   1.0000
     1.0000   1.0000   1.0000   1.0000   1.0000   1.0000   1.0000   1.0000
     1.0000   1.0000   1.0000   1.0000   1.0000   1.0000   1.0000   1.0000
     1.0000   1.0000   1.0000   1.0000   1.0000   1.0000   1.0000   1.0000
     1.0000   1.0000   1.0000   1.0000   1.0000   1.0000   1.0000   1.0000
     1.0000   1.0000   1.0000   1.0000   1.0000   1.0000   1.0000   1.0000
     1.0000   1.0000   1.0000   1.0000   1.0000   1.0000   1.0000   1.0000
     1.0000   1.0000   1.0000   1.0000   1.0000   1.0000   1.0000   1.0000
     1.0000   1.0000   1.0000   1.0000   1.0000   1.0000   1.0000   1.0000
     1.0000   1.0000   1.0000   1.0000   1.0000   1.0000   1.0000   1.0000
     1.0000   1.0000   1.0000   1.0000   1.0000   1.0000   1.0000   1.0000
     1.0000   1.0000   1.0000   1.0000   1.0000   1.0000   1.0000   1.0000
     1.0000   1.0000   1.0000   1.0000   1.0000   1.0000   1.0000   1.0000
     1.0000   1.0000   1.0000   1.0000   1.0000   1.0000   1.0000   1.0000
     1.0000   1.0000   1.0000   1.0000   1.0000   1.0000   1.0000   1.0000
     1.0000   1.0000   1.0000   1.0000   1.0000   1.0000   1.0000   1.0000
     1.0000   1.0000   1.0000   1.0000   1.0000   1.0000   1.0000   1.0000
     1.0000   1.0000   1.0000   1.0000   1.0000   1.0000   1.0000   1.0000
     1.0000   1.0000   1.0000   1.0000   1.0000   1.0000   1.0000   1.0000
     1.0000   1.0000   1.0000   1.0000   1.0000   1.0000   1.0000   1.0000
     1.0000   1.0000   1.0000   1.0000   1.0000   1.0000   1.0000   1.0000
     1.0000   1.0000   1.0000   1.0000   1.0000   1.0000   1.0000   1.0000
     1.0000   1.0000   1.0000   1.0000   1.0000   1.0000   1.0000   1.0000
     1.0000   1.0000   1.0000   1.0000   1.0000   1.0000   1.0000   1.0000
     1.0000   1.0000   1.0000   1.0000   1.0000   1.0000   1.0000   1.0000
     1.0000   1.0000   1.0000   1.0000   1.0000   1.0000   1.0000   1.0000
     1.0000   1.0000   1.0000   1.0000   1.0000   1.0000   1.0000   1.0000
     1.0000   1.0000   1.0000   1.0000   1.0000   1.0000   1.0000   1.0000
     1.0000   1.0000   1.0000   1.0000   1.0000   1.0000   1.0000   1.0000
     1.0000   1.0000   1.0000   1.0000   1.0000   1.0000   1.0000   1.0000
     1.0000   1.0000   1.0000   1.0000   1.0000   1.0000   1.0000   1.0000
     1.0000   1.0000   1.0000   1.0000   1.0000   1.0000   1.0000   1.0000
     1.0000   1.0000   1.0000   1.0000   1.0000   1.0000   1.0000   1.0000
     1.0000   1.0000   1.0000   1.0000   1.0000   1.0000   1.0000   1.0000
     1.0000   1.0000   1.0000   1.0000   1.0000   1.0000   1.0000   1.0000
     1.0000   1.0000   1.0000   1.0000   1.0000   1.0000   1.0000   1.0000
     1.0000   1.0000   1.0000   1.0000   1.0000   1.0000   1.0000   1.0000
     1.0000   1.0000   1.0000   1.0000   1.0000   1.0000   1.0000   1.0000
     1.0000   1.0000   1.0000   1.0000   1.0000   1.0000   1.0000   1.0000
     1.0000   1.0000   1.0000   1.0000   1.0000   1.0000   1.0000   1.0000
     1.0000   1.0000   1.0000   1.0000   1.0000   1.0000   1.0000   1.0000
     1.0000   1.0000   1.0000   1.0000   1.0000   1.0000   1.0000   1.0000
     1.0000   1.0000   1.0000   1.0000   1.0000   1.0000   1.0000   1.0000
     1.0000   1.0000   1.0000   1.0000   1.0000   1.0000   1.0000   1.0000
     1.0000   1.0000   1.0000   1.0000   1.0000   1.0000   1.0000   1.0000
     1.0000   1.0000   1.0000   1.0000   1.0000   1.0000   1.0000   1.0000
     1.0000   1.0000   1.0000   1.0000   1.0000   1.0000   1.0000   1.0000
     1.0006   1.0006   1.0019   1.0374   1.0444   1.0444   0.9986   0.9986
     0.1541   0.1541   0.0000   0.0000   0.0000   0.0000   0.0000   0.0000
     0.0000   0.0000   0.0000   0.0000   0.0000   0.0000   0.0000   0.0000
     0.0000   0.0000   0.0000   0.0000   0.0000   0.0000   0.0000   0.0000
     0.0000   0.0000   0.0000   0.0000   0.0000   0.0000   0.0000   0.0000
     0.0000   0.0000   0.0000   0.0000   0.0000   0.0000   0.0000   0.0000
     0.0000   0.0000   0.0000   0.0000   0.0000   0.0000   0.0000   0.0000
     0.0000   0.0000   0.0000   0.0000   0.0000   0.0000   0.0000   0.0000
     0.0000   0.0000   0.0000   0.0000   0.0000   0.0000   0.0000   0.0000
     0.0000   0.0000   0.0000   0.0000   0.0000   0.0000   0.0000   0.0000
     0.0000   0.0000   0.0000   0.0000   0.0000   0.0000   0.0000   0.0000
     0.0000   0.0000   0.0000   0.0000   0.0000   0.0000   0.0000   0.0000
     0.0000   0.0000   0.0000   0.0000   0.0000   0.0000   0.0000   0.0000

          k = 0.2500 0.4330 0.0000 ( 64876 PWs)   bands (ev):

  -125.0670-125.0665-125.0663-125.0653-125.0653-125.0648-125.0646-125.0644
  -125.0643-125.0641-125.0640-125.0639-125.0637-125.0635-125.0633-125.0632
  -124.8629-124.8625-124.8624-124.8623-124.8620-124.8619-124.8612-124.8612
  -124.8609-124.8608-124.8607-124.8606-124.8604-124.8603-124.8602-124.8602
  -124.8601-124.8600-124.8600-124.8599-124.8599-124.8597-124.8597-124.8595
  -124.8595-124.8595-124.8594-124.8593-124.8593-124.8591-124.8589-124.8588
   -79.2319 -79.2303 -79.2303 -79.2297 -79.2296 -79.2277 -79.2274 -79.2256
   -79.2254 -79.2250 -79.2215 -79.2207 -79.2170 -79.2170 -79.2157 -79.2152
   -79.2149 -79.2138 -79.2137 -79.2136 -79.2135 -79.2132 -79.2130 -79.2128
   -79.2127 -79.2124 -79.2123 -79.2122 -79.2120 -79.2118 -79.2115 -79.2115
   -79.2102 -79.2085 -79.2082 -79.2071 -79.2069 -79.2068 -79.2062 -79.2062
   -79.2056 -79.2054 -79.2040 -79.2040 -79.2014 -79.1999 -79.1999 -79.1985
   -79.0244 -79.0240 -79.0228 -79.0228 -79.0224 -79.0224 -79.0222 -79.0222
   -79.0218 -79.0218 -79.0201 -79.0201 -79.0200 -79.0198 -79.0197 -79.0196
   -79.0196 -79.0194 -79.0192 -79.0190 -79.0183 -79.0183 -79.0181 -79.0180
   -79.0179 -79.0179 -79.0177 -79.0177 -79.0176 -79.0175 -79.0175 -79.0174
   -79.0173 -79.0172 -79.0171 -79.0171 -79.0170 -79.0170 -79.0169 -79.0169
   -79.0168 -79.0166 -79.0166 -79.0165 -79.0164 -79.0164 -79.0163 -79.0162
   -79.0161 -79.0160 -79.0158 -79.0157 -79.0140 -79.0137 -79.0132 -79.0128
   -79.0096 -79.0096 -79.0092 -79.0092 -79.0061 -79.0061 -79.0057 -79.0057
   -79.0027 -79.0023 -79.0010 -79.0008 -79.0006 -79.0004 -78.9996 -78.9995
   -78.9994 -78.9992 -78.9991 -78.9990 -78.9988 -78.9988 -78.9984 -78.9984
   -78.9981 -78.9980 -78.9978 -78.9976 -78.9966 -78.9966 -78.9962 -78.9962
   -78.9940 -78.9936 -78.9925 -78.9925 -78.9921 -78.9921 -78.9911 -78.9907
    -8.2699  -7.8232  -7.8230  -7.1114  -6.9136  -6.8396  -6.8396  -6.8036
    -6.8036  -6.7968  -6.7967  -6.7924  -6.7923  -6.7684  -6.7270  -6.7268
    -6.6982  -6.6979  -6.6550  -6.6550  -6.6234  -6.6086  -6.6086  -6.6041
    -6.6040  -6.5880  -6.5879  -6.5674  -6.5673  -6.5601  -6.5599  -6.5433
    -6.5345  -6.5344  -6.4915  -6.4913  -6.4717  -6.4717  -6.4692  -6.4613
    -6.4613  -6.4405  -6.4394  -6.4170  -6.4125  -6.4125  -6.4116  -6.4115
    -6.4027  -6.4026  -6.3927  -6.3693  -6.3692  -6.3119  -6.3013  -6.3013
    -6.2975  -6.2975  -6.2915  -6.2915  -6.2912  -6.2788  -6.2670  -6.2633
    -6.2632  -6.2549  -6.2492  -6.2490  -6.2430  -6.2430  -6.2407  -6.2215
    -6.2215  -6.2021  -6.2020  -6.1768  -6.1767  -6.1653  -6.1470  -6.1449
    -6.1407  -6.1407  -6.1185  -6.1185  -6.1077  -6.1077  -6.0953  -6.0882
    -6.0569  -6.0569  -6.0473  -6.0472  -6.0415  -6.0326  -6.0191  -6.0191
    -5.9968  -5.9925  -5.9924  -5.9888  -5.9793  -5.9793  -5.9717  -5.9717
    -5.9694  -5.9694  -5.9562  -5.9489  -5.9413  -5.9150  -5.9150  -5.9083
    -5.9082  -5.9061  -5.8981  -5.8918  -5.8918  -5.8866  -5.8866  -5.8766
    -5.8765  -5.8525  -5.8525  -5.8459  -5.8459  -5.8342  -5.8340  -5.8328
    -5.8324  -5.8293  -5.8293  -5.8077  -5.7973  -5.7972  -5.7931  -5.7723
    -5.7629  -5.7629  -5.7563  -5.7513  -5.7513  -5.7492  -5.7137  -5.7137
    -5.6932  -5.6932  -5.6918  -5.6916  -5.6575  -5.6544  -5.6544  -5.6535
    -5.6534  -5.6473  -5.6328  -5.6307  -5.6306  -5.6231  -5.6230  -5.5930
    -5.5929  -5.5928  -5.5909  -5.5908  -5.5827  -5.5826  -5.5805  -5.5804
    -5.5773  -5.5772  -5.5752  -5.5751  -5.5663  -5.5663  -5.5496  -5.5495
    -5.5490  -5.5490  -5.5454  -5.5409  -5.5373  -5.5373  -5.5145  -5.5145
    -5.5121  -5.5098  -5.5097  -5.5061  -5.5038  -5.4847  -5.4845  -5.4830
    -5.4784  -5.4783  -5.4671  -5.4601  -5.4601  -5.4600  -5.4598  -5.4567
    -5.4565  -5.4562  -5.4562  -5.4438  -5.4438  -5.4414  -5.4414  -5.4345
    -5.4344  -5.4298  -5.4190  -5.4190  -5.4089  -5.4089  -5.4082  -5.3998
    -5.3936  -5.3874  -5.3873  -5.3755  -5.3739  -5.3739  -5.3679  -5.3669
    -5.3635  -5.3634  -5.3342  -5.3268  -5.3268  -5.3075  -5.3074  -5.2817
    -5.2751  -5.2750  -5.2720  -5.2719  -5.2708  -5.2708  -5.2561  -5.2277
    -5.1862  -5.1862  -5.1821  -5.1821  -5.1437  -5.1436  -5.0643  -5.0642
    -4.4561  -4.2331  -4.2329  -4.0437  -4.0437  -3.2450  -3.2450  -3.1951
    -3.1448  -2.8773  -2.8773  -2.8494  -2.8492  -2.7805  -2.7804  -1.7960
    -1.7959  -1.7013  -1.7013  -1.4133  -1.4133  -0.8449  -0.4758  -0.4756
    -0.4122  -0.4122  -0.3232  -0.2414   0.2946   0.3499   0.3501   0.4235
     0.4235   0.6998   0.6998   0.7891   0.9702   0.9702   1.0867   1.4156
     1.4158   1.9757   1.9757   2.5310   2.5520   2.8206   2.9855   3.0907
     3.3259   3.3259   3.3640   3.3641   3.4447   3.4464   3.4466   3.5747
     3.5747   3.6672   3.8913   3.8914   4.3746   4.3746   4.3918   4.4247
     4.4434   4.4434   4.5667   4.5668   4.8787   4.9328   5.1390   5.1390
     5.2213   5.2213   5.4293   5.4441   5.4442   5.4521   5.4521   5.6506
     5.8801   5.8802   6.0914   6.1101   6.1101   6.1238   6.1239   6.5429
     6.5430   6.5761   6.6436   6.6457   6.6457   6.7644   6.9518   6.9991
     6.9991   7.0018   7.0385   7.0386   7.0436   7.0436   7.1635   7.1635
     7.2137   7.2138   7.2225   7.2225   7.2266   7.2266   7.4858   7.4858
     8.1060   8.2156   8.2156   8.3617   8.3911   8.4116   8.4116   8.5392
     8.5513   8.5513   8.5831   8.5832   8.5833   8.6388   8.6388   8.6578
     8.6783   8.6783   8.7227   8.7458   8.8439   8.8439   9.0428   9.0428

     occupation numbers 
     1.0000   1.0000   1.0000   1.0000   1.0000   1.0000   1.0000   1.0000
     1.0000   1.0000   1.0000   1.0000   1.0000   1.0000   1.0000   1.0000
     1.0000   1.0000   1.0000   1.0000   1.0000   1.0000   1.0000   1.0000
     1.0000   1.0000   1.0000   1.0000   1.0000   1.0000   1.0000   1.0000
     1.0000   1.0000   1.0000   1.0000   1.0000   1.0000   1.0000   1.0000
     1.0000   1.0000   1.0000   1.0000   1.0000   1.0000   1.0000   1.0000
     1.0000   1.0000   1.0000   1.0000   1.0000   1.0000   1.0000   1.0000
     1.0000   1.0000   1.0000   1.0000   1.0000   1.0000   1.0000   1.0000
     1.0000   1.0000   1.0000   1.0000   1.0000   1.0000   1.0000   1.0000
     1.0000   1.0000   1.0000   1.0000   1.0000   1.0000   1.0000   1.0000
     1.0000   1.0000   1.0000   1.0000   1.0000   1.0000   1.0000   1.0000
     1.0000   1.0000   1.0000   1.0000   1.0000   1.0000   1.0000   1.0000
     1.0000   1.0000   1.0000   1.0000   1.0000   1.0000   1.0000   1.0000
     1.0000   1.0000   1.0000   1.0000   1.0000   1.0000   1.0000   1.0000
     1.0000   1.0000   1.0000   1.0000   1.0000   1.0000   1.0000   1.0000
     1.0000   1.0000   1.0000   1.0000   1.0000   1.0000   1.0000   1.0000
     1.0000   1.0000   1.0000   1.0000   1.0000   1.0000   1.0000   1.0000
     1.0000   1.0000   1.0000   1.0000   1.0000   1.0000   1.0000   1.0000
     1.0000   1.0000   1.0000   1.0000   1.0000   1.0000   1.0000   1.0000
     1.0000   1.0000   1.0000   1.0000   1.0000   1.0000   1.0000   1.0000
     1.0000   1.0000   1.0000   1.0000   1.0000   1.0000   1.0000   1.0000
     1.0000   1.0000   1.0000   1.0000   1.0000   1.0000   1.0000   1.0000
     1.0000   1.0000   1.0000   1.0000   1.0000   1.0000   1.0000   1.0000
     1.0000   1.0000   1.0000   1.0000   1.0000   1.0000   1.0000   1.0000
     1.0000   1.0000   1.0000   1.0000   1.0000   1.0000   1.0000   1.0000
     1.0000   1.0000   1.0000   1.0000   1.0000   1.0000   1.0000   1.0000
     1.0000   1.0000   1.0000   1.0000   1.0000   1.0000   1.0000   1.0000
     1.0000   1.0000   1.0000   1.0000   1.0000   1.0000   1.0000   1.0000
     1.0000   1.0000   1.0000   1.0000   1.0000   1.0000   1.0000   1.0000
     1.0000   1.0000   1.0000   1.0000   1.0000   1.0000   1.0000   1.0000
     1.0000   1.0000   1.0000   1.0000   1.0000   1.0000   1.0000   1.0000
     1.0000   1.0000   1.0000   1.0000   1.0000   1.0000   1.0000   1.0000
     1.0000   1.0000   1.0000   1.0000   1.0000   1.0000   1.0000   1.0000
     1.0000   1.0000   1.0000   1.0000   1.0000   1.0000   1.0000   1.0000
     1.0000   1.0000   1.0000   1.0000   1.0000   1.0000   1.0000   1.0000
     1.0000   1.0000   1.0000   1.0000   1.0000   1.0000   1.0000   1.0000
     1.0000   1.0000   1.0000   1.0000   1.0000   1.0000   1.0000   1.0000
     1.0000   1.0000   1.0000   1.0000   1.0000   1.0000   1.0000   1.0000
     1.0000   1.0000   1.0000   1.0000   1.0000   1.0000   1.0000   1.0000
     1.0000   1.0000   1.0000   1.0000   1.0000   1.0000   1.0000   1.0000
     1.0000   1.0000   1.0000   1.0000   1.0000   1.0000   1.0000   1.0000
     1.0000   1.0000   1.0000   1.0000   1.0000   1.0000   1.0000   1.0000
     1.0000   1.0000   1.0000   1.0000   1.0000   1.0000   1.0000   1.0000
     1.0000   1.0000   1.0000   1.0000   1.0000   1.0000   1.0000   1.0000
     1.0000   1.0000   1.0000   1.0000   1.0000   1.0000   1.0000   1.0000
     1.0000   1.0000   1.0000   1.0000   1.0000   1.0000   1.0000   1.0000
     1.0000   1.0000   1.0000   1.0000   1.0000   1.0000   1.0000   1.0000
     1.0000   1.0000   1.0000   1.0000   1.0000   1.0000   1.0000   1.0000
     1.0000   1.0000   1.0000   1.0000   1.0000   1.0000   1.0000   1.0000
     1.0000   1.0000   1.0000   1.0000   1.0000   1.0000   1.0000   1.0000
     1.0000   1.0000   1.0000   1.0000   1.0000   1.0000   1.0000   1.0000
     1.0000   1.0000   1.0000   1.0000   1.0000   1.0000   1.0000   1.0000
     1.0000   1.0000   1.0000   1.0000   1.0000   1.0000   1.0000   1.0000
     1.0000   1.0000   1.0000   1.0000   1.0000   1.0000   1.0000   1.0000
     1.0000   1.0000   1.0000   1.0000   1.0000   1.0000   1.0000   1.0000
     1.0000   1.0000   1.0000   1.0000   1.0000   1.0000   1.0000   1.0000
     1.0000   1.0000   1.0000   1.0000   1.0000   1.0000   1.0000   1.0000
     1.0000   1.0000   1.0000   1.0000   1.0000   1.0000   1.0000   1.0000
     1.0000   1.0000   1.0000   1.0000   1.0000   1.0000   1.0000   1.0000
     1.0000   1.0052   1.0052   1.0159   1.0686   1.0686   1.0779   0.4454
     0.4449   0.0003   0.0003   0.0000   0.0000   0.0000   0.0000   0.0000
     0.0000   0.0000   0.0000   0.0000   0.0000   0.0000   0.0000   0.0000
     0.0000   0.0000   0.0000   0.0000   0.0000   0.0000   0.0000   0.0000
     0.0000   0.0000   0.0000   0.0000   0.0000   0.0000   0.0000   0.0000
     0.0000   0.0000   0.0000   0.0000   0.0000   0.0000   0.0000   0.0000
     0.0000   0.0000   0.0000   0.0000   0.0000   0.0000   0.0000   0.0000
     0.0000   0.0000   0.0000   0.0000   0.0000   0.0000   0.0000   0.0000
     0.0000   0.0000   0.0000   0.0000   0.0000   0.0000   0.0000   0.0000
     0.0000   0.0000   0.0000   0.0000   0.0000   0.0000   0.0000   0.0000
     0.0000   0.0000   0.0000   0.0000   0.0000   0.0000   0.0000   0.0000
     0.0000   0.0000   0.0000   0.0000   0.0000   0.0000   0.0000   0.0000
     0.0000   0.0000   0.0000   0.0000   0.0000   0.0000   0.0000   0.0000

          k = 0.2500-0.4330 0.0000 ( 64876 PWs)   bands (ev):

  -125.0670-125.0665-125.0663-125.0653-125.0653-125.0648-125.0646-125.0645
  -125.0643-125.0641-125.0640-125.0639-125.0637-125.0635-125.0633-125.0632
  -124.8629-124.8625-124.8624-124.8623-124.8620-124.8619-124.8612-124.8612
  -124.8609-124.8608-124.8607-124.8605-124.8604-124.8603-124.8602-124.8602
  -124.8601-124.8600-124.8599-124.8599-124.8598-124.8597-124.8597-124.8595
  -124.8595-124.8595-124.8594-124.8593-124.8593-124.8591-124.8589-124.8588
   -79.2319 -79.2303 -79.2303 -79.2297 -79.2296 -79.2276 -79.2275 -79.2256
   -79.2254 -79.2250 -79.2215 -79.2207 -79.2170 -79.2170 -79.2157 -79.2151
   -79.2149 -79.2138 -79.2138 -79.2136 -79.2135 -79.2131 -79.2130 -79.2128
   -79.2126 -79.2125 -79.2123 -79.2122 -79.2120 -79.2118 -79.2115 -79.2115
   -79.2102 -79.2084 -79.2082 -79.2070 -79.2069 -79.2068 -79.2062 -79.2062
   -79.2056 -79.2054 -79.2040 -79.2040 -79.2014 -79.1999 -79.1999 -79.1985
   -79.0244 -79.0240 -79.0228 -79.0228 -79.0224 -79.0224 -79.0222 -79.0222
   -79.0218 -79.0218 -79.0201 -79.0201 -79.0200 -79.0198 -79.0197 -79.0196
   -79.0196 -79.0195 -79.0192 -79.0190 -79.0183 -79.0183 -79.0180 -79.0180
   -79.0179 -79.0179 -79.0177 -79.0177 -79.0176 -79.0175 -79.0175 -79.0174
   -79.0173 -79.0172 -79.0171 -79.0171 -79.0170 -79.0170 -79.0169 -79.0169
   -79.0168 -79.0167 -79.0166 -79.0165 -79.0165 -79.0164 -79.0163 -79.0162
   -79.0161 -79.0160 -79.0158 -79.0157 -79.0140 -79.0137 -79.0132 -79.0128
   -79.0096 -79.0096 -79.0092 -79.0092 -79.0061 -79.0061 -79.0057 -79.0057
   -79.0027 -79.0023 -79.0010 -79.0009 -79.0006 -79.0004 -78.9996 -78.9995
   -78.9994 -78.9992 -78.9991 -78.9990 -78.9988 -78.9988 -78.9984 -78.9984
   -78.9981 -78.9981 -78.9978 -78.9976 -78.9966 -78.9966 -78.9962 -78.9962
   -78.9940 -78.9936 -78.9925 -78.9925 -78.9921 -78.9921 -78.9911 -78.9907
    -8.2699  -7.8232  -7.8231  -7.1114  -6.9136  -6.8396  -6.8396  -6.8036
    -6.8036  -6.7968  -6.7967  -6.7924  -6.7923  -6.7684  -6.7270  -6.7269
    -6.6981  -6.6979  -6.6550  -6.6550  -6.6234  -6.6086  -6.6086  -6.6041
[...]
     1.0000   1.0000   1.0000   1.0000   1.0000   1.0000   1.0000   1.0000
     1.0000   1.0000   1.0000   1.0000   1.0000   1.0000   1.0000   1.0000
     1.0000   1.0000   1.0000   1.0000   1.0000   1.0000   1.0000   1.0000
     1.0000   1.0000   1.0000   1.0000   1.0000   1.0000   1.0000   1.0000
     1.0000   1.0000   1.0000   1.0000   1.0000   1.0000   1.0000   1.0000
     1.0000   1.0000   1.0000   1.0000   1.0000   1.0000   1.0000   1.0000
     1.0000   1.0000   1.0000   1.0000   1.0000   1.0000   1.0000   1.0000
     1.0000   1.0000   1.0000   1.0000   1.0000   1.0000   1.0000   1.0000
     1.0000   1.0000   1.0000   1.0000   1.0000   1.0000   1.0000   1.0000
     1.0000   1.0000   1.0000   1.0000   1.0000   1.0000   1.0000   1.0000
     1.0000   1.0000   1.0000   1.0000   1.0000   1.0000   1.0000   1.0000
     1.0000   1.0000   1.0000   1.0000   1.0000   1.0000   1.0000   1.0000
     1.0000   1.0000   1.0000   1.0000   1.0000   1.0000   1.0000   1.0000
     1.0000   1.0000   1.0000   1.0000   1.0000   1.0000   1.0000   1.0000
     1.0000   1.0000   1.0000   1.0000   1.0000   1.0000   1.0000   1.0000
     1.0000   1.0000   1.0000   1.0000   1.0000   1.0000   1.0000   1.0000
     1.0000   1.0000   1.0000   1.0000   1.0000   1.0000   1.0000   1.0000
     1.0000   1.0000   1.0000   1.0000   1.0000   1.0000   1.0000   1.0000
     1.0000   1.0000   1.0000   1.0000   1.0000   1.0000   1.0000   1.0000
     1.0000   1.0000   1.0000   1.0000   1.0000   1.0000   1.0000   1.0000
     1.0000   1.0000   1.0000   1.0000   1.0000   1.0000   1.0000   1.0000
     1.0000   1.0000   1.0000   1.0000   1.0000   1.0000   1.0000   1.0000
     1.0000   1.0000   1.0000   1.0000   1.0000   1.0000   1.0000   1.0000
     1.0000   1.0000   1.0000   1.0000   1.0000   1.0000   1.0000   1.0000
     1.0000   1.0000   1.0000   1.0000   1.0000   1.0000   1.0000   1.0000
     1.0000   1.0000   1.0000   1.0000   1.0000   1.0000   1.0000   1.0000
     1.0000   1.0000   1.0000   1.0000   1.0000   1.0000   1.0000   1.0000
     1.0000   1.0000   1.0000   1.0000   1.0000   1.0000   1.0000   1.0000
     1.0000   1.0000   1.0000   1.0000   1.0000   1.0000   1.0000   1.0000
     1.0000   1.0000   1.0000   1.0000   1.0000   1.0000   1.0000   1.0000
     1.0000   1.0000   1.0000   1.0000   1.0000   1.0000   1.0000   1.0000
     1.0000   1.0000   1.0000   1.0000   1.0000   1.0000   1.0000   1.0000
     1.0000   1.0000   1.0000   1.0000   1.0000   1.0000   1.0000   1.0000
     1.0000   1.0000   1.0000   1.0000   1.0000   1.0000   1.0000   1.0000
     1.0000   1.0000   1.0000   1.0000   1.0000   1.0000   1.0000   1.0000
     1.0000   1.0000   1.0000   1.0000   1.0000   1.0000   1.0000   1.0000
     1.0000   1.0000   1.0000   1.0000   1.0000   1.0000   1.0000   1.0000
     1.0000   1.0000   1.0000   1.0000   1.0000   1.0000   1.0000   1.0000
     1.0000   1.0000   1.0000   1.0000   1.0000   1.0000   1.0000   1.0000
     1.0000   1.0000   1.0000   1.0000   1.0000   1.0000   1.0000   1.0000
     1.0000   1.0052   1.0052   1.0159   1.0686   1.0686   1.0779   0.4454
     0.4449   0.0003   0.0003   0.0000   0.0000   0.0000   0.0000   0.0000
     0.0000   0.0000   0.0000   0.0000   0.0000   0.0000   0.0000   0.0000
     0.0000   0.0000   0.0000   0.0000   0.0000   0.0000   0.0000   0.0000
     0.0000   0.0000   0.0000   0.0000   0.0000   0.0000   0.0000   0.0000
     0.0000   0.0000   0.0000   0.0000   0.0000   0.0000   0.0000   0.0000
     0.0000   0.0000   0.0000   0.0000   0.0000   0.0000   0.0000   0.0000
     0.0000   0.0000   0.0000   0.0000   0.0000   0.0000   0.0000   0.0000
     0.0000   0.0000   0.0000   0.0000   0.0000   0.0000   0.0000   0.0000
     0.0000   0.0000   0.0000   0.0000   0.0000   0.0000   0.0000   0.0000
     0.0000   0.0000   0.0000   0.0000   0.0000   0.0000   0.0000   0.0000
     0.0000   0.0000   0.0000   0.0000   0.0000   0.0000   0.0000   0.0000
     0.0000   0.0000   0.0000   0.0000   0.0000   0.0000   0.0000   0.0000

          k =-0.5000-0.8660 0.0000 ( 64842 PWs)   bands (ev):

  -125.0670-125.0667-125.0659-125.0659-125.0648-125.0647-125.0647-125.0647
  -125.0643-125.0641-125.0640-125.0638-125.0637-125.0636-125.0633-125.0632
  -124.8628-124.8627-124.8625-124.8622-124.8619-124.8618-124.8615-124.8614
  -124.8607-124.8607-124.8606-124.8606-124.8603-124.8603-124.8603-124.8602
  -124.8602-124.8602-124.8599-124.8599-124.8598-124.8597-124.8597-124.8596
  -124.8595-124.8594-124.8593-124.8593-124.8592-124.8592-124.8589-124.8588
   -79.2310 -79.2308 -79.2307 -79.2305 -79.2285 -79.2282 -79.2273 -79.2272
   -79.2227 -79.2227 -79.2227 -79.2227 -79.2178 -79.2178 -79.2156 -79.2153
   -79.2145 -79.2144 -79.2132 -79.2131 -79.2131 -79.2130 -79.2127 -79.2125
   -79.2123 -79.2121 -79.2120 -79.2118 -79.2115 -79.2115 -79.2112 -79.2112
   -79.2099 -79.2097 -79.2096 -79.2095 -79.2064 -79.2064 -79.2063 -79.2063
   -79.2056 -79.2054 -79.2029 -79.2026 -79.2017 -79.2017 -79.1990 -79.1987
   -79.0234 -79.0233 -79.0232 -79.0232 -79.0230 -79.0230 -79.0228 -79.0227
   -79.0209 -79.0207 -79.0206 -79.0203 -79.0200 -79.0198 -79.0198 -79.0198
   -79.0197 -79.0194 -79.0194 -79.0193 -79.0189 -79.0189 -79.0186 -79.0185
   -79.0176 -79.0176 -79.0176 -79.0176 -79.0173 -79.0173 -79.0172 -79.0172
   -79.0172 -79.0171 -79.0169 -79.0168 -79.0167 -79.0167 -79.0166 -79.0165
   -79.0164 -79.0164 -79.0162 -79.0162 -79.0162 -79.0161 -79.0158 -79.0158
   -79.0153 -79.0153 -79.0153 -79.0153 -79.0149 -79.0149 -79.0149 -79.0149
   -79.0104 -79.0104 -79.0100 -79.0100 -79.0038 -79.0038 -79.0034 -79.0034
   -79.0024 -79.0023 -79.0022 -79.0021 -79.0020 -79.0020 -79.0018 -79.0017
   -78.9989 -78.9989 -78.9989 -78.9989 -78.9986 -78.9986 -78.9985 -78.9985
   -78.9982 -78.9980 -78.9978 -78.9976 -78.9954 -78.9953 -78.9951 -78.9949
   -78.9943 -78.9943 -78.9939 -78.9939 -78.9915 -78.9914 -78.9912 -78.9909
    -8.1559  -8.1557  -7.3170  -7.3170  -7.0254  -7.0253  -6.8633  -6.8631
    -6.8595  -6.8593  -6.7495  -6.7494  -6.7492  -6.7491  -6.6536  -6.6534
    -6.6468  -6.6468  -6.6468  -6.6468  -6.6241  -6.6239  -6.6073  -6.6072
    -6.6070  -6.6069  -6.5528  -6.5528  -6.5284  -6.5283  -6.5282  -6.5282
    -6.5056  -6.5056  -6.4877  -6.4877  -6.4877  -6.4877  -6.4627  -6.4627
    -6.4627  -6.4627  -6.4606  -6.4604  -6.4500  -6.4500  -6.4258  -6.4258
    -6.4214  -6.4214  -6.4212  -6.4212  -6.3101  -6.3101  -6.3009  -6.3009
    -6.2923  -6.2923  -6.2923  -6.2923  -6.2919  -6.2917  -6.2711  -6.2710
    -6.2709  -6.2708  -6.2352  -6.2350  -6.2210  -6.2210  -6.2210  -6.2209
    -6.2060  -6.2060  -6.2004  -6.2004  -6.1697  -6.1695  -6.1410  -6.1409
    -6.1115  -6.1115  -6.1032  -6.1032  -6.0833  -6.0833  -6.0832  -6.0832
    -6.0608  -6.0608  -6.0608  -6.0608  -6.0412  -6.0412  -6.0315  -6.0315
    -6.0254  -6.0253  -6.0231  -6.0230  -6.0088  -6.0086  -5.9906  -5.9906
    -5.9906  -5.9906  -5.9463  -5.9463  -5.9450  -5.9448  -5.9146  -5.9145
    -5.9063  -5.9063  -5.8726  -5.8725  -5.8724  -5.8724  -5.8144  -5.8142
    -5.8099  -5.8099  -5.8081  -5.8081  -5.8081  -5.8081  -5.8058  -5.8055
    -5.7877  -5.7877  -5.7842  -5.7840  -5.7751  -5.7751  -5.7750  -5.7750
    -5.7670  -5.7668  -5.7663  -5.7663  -5.7663  -5.7663  -5.7553  -5.7553
    -5.7538  -5.7538  -5.7538  -5.7538  -5.6754  -5.6754  -5.6737  -5.6737
    -5.6676  -5.6676  -5.6456  -5.6456  -5.6456  -5.6456  -5.6314  -5.6312
    -5.6239  -5.6239  -5.6050  -5.6050  -5.6048  -5.6048  -5.5944  -5.5944
    -5.5713  -5.5711  -5.5425  -5.5423  -5.5288  -5.5288  -5.5287  -5.5286
    -5.5271  -5.5271  -5.5271  -5.5271  -5.5225  -5.5225  -5.5219  -5.5218
    -5.4999  -5.4999  -5.4997  -5.4997  -5.4900  -5.4898  -5.4869  -5.4868
    -5.4856  -5.4856  -5.4788  -5.4788  -5.4650  -5.4650  -5.4650  -5.4650
    -5.4500  -5.4500  -5.4498  -5.4498  -5.4408  -5.4407  -5.4237  -5.4235
    -5.4147  -5.4147  -5.4146  -5.4145  -5.4134  -5.4134  -5.4106  -5.4106
    -5.4038  -5.4036  -5.4035  -5.4035  -5.3999  -5.3997  -5.3716  -5.3714
    -5.3620  -5.3620  -5.3620  -5.3620  -5.3232  -5.3232  -5.3232  -5.3232
    -5.2534  -5.2533  -5.2532  -5.2531  -5.2349  -5.2349  -5.2335  -5.2334
    -5.2333  -5.2333  -5.2007  -5.2005  -5.1980  -5.1978  -4.7018  -4.7018
    -4.4182  -4.4182  -4.4182  -4.4182  -3.7283  -3.7283  -3.1102  -3.1100
    -3.0615  -3.0615  -3.0615  -3.0615  -2.3912  -2.3912  -2.2397  -2.2397
    -1.7579  -1.7579  -1.7577  -1.7577  -0.7552  -0.7552  -0.7552  -0.7552
    -0.3255  -0.3254  -0.3253  -0.3253  -0.0903  -0.0902   0.0132   0.0132
     1.0214   1.0214   1.0492   1.0492   1.3382   1.3382   1.3700   1.3700
     1.3701   1.3701   2.2237   2.2237   2.9001   2.9001   2.9001   2.9002
     3.1017   3.1017   3.1017   3.1017   3.3223   3.3223   3.5563   3.5565
     3.8667   3.8667   3.8668   3.8668   3.9983   3.9983   4.2581   4.2581
     4.4484   4.4484   4.7460   4.7460   4.8581   4.8581   5.4825   5.4825
     5.5420   5.5420   5.7655   5.7655   5.8012   5.8012   5.9296   5.9296
     5.9297   5.9297   5.9832   5.9832   5.9833   5.9833   6.1550   6.1550
     6.1550   6.1550   6.4431   6.4431   6.5599   6.5599   6.6840   6.6840
     6.6918   6.6918   6.8673   6.8673   6.8768   6.8768   7.0141   7.0141
     7.0141   7.0141   7.6144   7.6144   7.7743   7.7743   8.0645   8.0645
     8.0996   8.0996   8.0996   8.0996   8.2798   8.2799   8.5172   8.5172
     8.5172   8.5172   8.6351   8.6351   8.6351   8.6351   8.6982   8.6982
     8.7367   8.7367   8.8338   8.8339   9.0004   9.0005   9.0005   9.0006

     occupation numbers 
     1.0000   1.0000   1.0000   1.0000   1.0000   1.0000   1.0000   1.0000
     1.0000   1.0000   1.0000   1.0000   1.0000   1.0000   1.0000   1.0000
     1.0000   1.0000   1.0000   1.0000   1.0000   1.0000   1.0000   1.0000
     1.0000   1.0000   1.0000   1.0000   1.0000   1.0000   1.0000   1.0000
     1.0000   1.0000   1.0000   1.0000   1.0000   1.0000   1.0000   1.0000
     1.0000   1.0000   1.0000   1.0000   1.0000   1.0000   1.0000   1.0000
     1.0000   1.0000   1.0000   1.0000   1.0000   1.0000   1.0000   1.0000
     1.0000   1.0000   1.0000   1.0000   1.0000   1.0000   1.0000   1.0000
     1.0000   1.0000   1.0000   1.0000   1.0000   1.0000   1.0000   1.0000
     1.0000   1.0000   1.0000   1.0000   1.0000   1.0000   1.0000   1.0000
     1.0000   1.0000   1.0000   1.0000   1.0000   1.0000   1.0000   1.0000
     1.0000   1.0000   1.0000   1.0000   1.0000   1.0000   1.0000   1.0000
     1.0000   1.0000   1.0000   1.0000   1.0000   1.0000   1.0000   1.0000
     1.0000   1.0000   1.0000   1.0000   1.0000   1.0000   1.0000   1.0000
     1.0000   1.0000   1.0000   1.0000   1.0000   1.0000   1.0000   1.0000
     1.0000   1.0000   1.0000   1.0000   1.0000   1.0000   1.0000   1.0000
     1.0000   1.0000   1.0000   1.0000   1.0000   1.0000   1.0000   1.0000
     1.0000   1.0000   1.0000   1.0000   1.0000   1.0000   1.0000   1.0000
     1.0000   1.0000   1.0000   1.0000   1.0000   1.0000   1.0000   1.0000
     1.0000   1.0000   1.0000   1.0000   1.0000   1.0000   1.0000   1.0000
     1.0000   1.0000   1.0000   1.0000   1.0000   1.0000   1.0000   1.0000
     1.0000   1.0000   1.0000   1.0000   1.0000   1.0000   1.0000   1.0000
     1.0000   1.0000   1.0000   1.0000   1.0000   1.0000   1.0000   1.0000
     1.0000   1.0000   1.0000   1.0000   1.0000   1.0000   1.0000   1.0000
     1.0000   1.0000   1.0000   1.0000   1.0000   1.0000   1.0000   1.0000
     1.0000   1.0000   1.0000   1.0000   1.0000   1.0000   1.0000   1.0000
     1.0000   1.0000   1.0000   1.0000   1.0000   1.0000   1.0000   1.0000
     1.0000   1.0000   1.0000   1.0000   1.0000   1.0000   1.0000   1.0000
     1.0000   1.0000   1.0000   1.0000   1.0000   1.0000   1.0000   1.0000
     1.0000   1.0000   1.0000   1.0000   1.0000   1.0000   1.0000   1.0000
     1.0000   1.0000   1.0000   1.0000   1.0000   1.0000   1.0000   1.0000
     1.0000   1.0000   1.0000   1.0000   1.0000   1.0000   1.0000   1.0000
     1.0000   1.0000   1.0000   1.0000   1.0000   1.0000   1.0000   1.0000
     1.0000   1.0000   1.0000   1.0000   1.0000   1.0000   1.0000   1.0000
     1.0000   1.0000   1.0000   1.0000   1.0000   1.0000   1.0000   1.0000
     1.0000   1.0000   1.0000   1.0000   1.0000   1.0000   1.0000   1.0000
     1.0000   1.0000   1.0000   1.0000   1.0000   1.0000   1.0000   1.0000
     1.0000   1.0000   1.0000   1.0000   1.0000   1.0000   1.0000   1.0000
     1.0000   1.0000   1.0000   1.0000   1.0000   1.0000   1.0000   1.0000
     1.0000   1.0000   1.0000   1.0000   1.0000   1.0000   1.0000   1.0000
     1.0000   1.0000   1.0000   1.0000   1.0000   1.0000   1.0000   1.0000
     1.0000   1.0000   1.0000   1.0000   1.0000   1.0000   1.0000   1.0000
     1.0000   1.0000   1.0000   1.0000   1.0000   1.0000   1.0000   1.0000
     1.0000   1.0000   1.0000   1.0000   1.0000   1.0000   1.0000   1.0000
     1.0000   1.0000   1.0000   1.0000   1.0000   1.0000   1.0000   1.0000
     1.0000   1.0000   1.0000   1.0000   1.0000   1.0000   1.0000   1.0000
     1.0000   1.0000   1.0000   1.0000   1.0000   1.0000   1.0000   1.0000
     1.0000   1.0000   1.0000   1.0000   1.0000   1.0000   1.0000   1.0000
     1.0000   1.0000   1.0000   1.0000   1.0000   1.0000   1.0000   1.0000
     1.0000   1.0000   1.0000   1.0000   1.0000   1.0000   1.0000   1.0000
     1.0000   1.0000   1.0000   1.0000   1.0000   1.0000   1.0000   1.0000
     1.0000   1.0000   1.0000   1.0000   1.0000   1.0000   1.0000   1.0000
     1.0000   1.0000   1.0000   1.0000   1.0000   1.0000   1.0000   1.0000
     1.0000   1.0000   1.0000   1.0000   1.0000   1.0000   1.0000   1.0000
     1.0000   1.0000   1.0000   1.0000   1.0000   1.0000   1.0000   1.0000
     1.0000   1.0000   1.0000   1.0000   1.0000   1.0000   1.0000   1.0000
     1.0000   1.0000   1.0000   1.0000   1.0000   1.0000   1.0000   1.0000
     1.0000   1.0000   1.0000   1.0000   1.0000   1.0000   1.0000   1.0000
     1.0000   1.0000   1.0000   1.0000   1.0000   1.0000   1.0000   1.0000
     1.0812   1.0812   1.0833   1.0833   0.6570   0.6570   0.5690   0.5689
     0.5687   0.5687   0.0000   0.0000   0.0000   0.0000   0.0000   0.0000
     0.0000   0.0000   0.0000   0.0000   0.0000   0.0000   0.0000   0.0000
     0.0000   0.0000   0.0000   0.0000   0.0000   0.0000   0.0000   0.0000
     0.0000   0.0000   0.0000   0.0000   0.0000   0.0000   0.0000   0.0000
     0.0000   0.0000   0.0000   0.0000   0.0000   0.0000   0.0000   0.0000
     0.0000   0.0000   0.0000   0.0000   0.0000   0.0000   0.0000   0.0000
     0.0000   0.0000   0.0000   0.0000   0.0000   0.0000   0.0000   0.0000
     0.0000   0.0000   0.0000   0.0000   0.0000   0.0000   0.0000   0.0000
     0.0000   0.0000   0.0000   0.0000   0.0000   0.0000   0.0000   0.0000
     0.0000   0.0000   0.0000   0.0000   0.0000   0.0000   0.0000   0.0000
     0.0000   0.0000   0.0000   0.0000   0.0000   0.0000   0.0000   0.0000
     0.0000   0.0000   0.0000   0.0000   0.0000   0.0000   0.0000   0.0000

     the Fermi energy is     1.4331 ev

!    total energy              =  -22154.25522574 Ry
     estimated scf accuracy    <       0.00000044 Ry
     smearing contrib. (-TS)   =       0.00133859 Ry
     internal energy E=F+TS    =  -22154.25656433 Ry

     The total energy is F=E-TS. E is the sum of the following terms:
     one-electron contribution = -144865.41754722 Ry
     hartree contribution      =   72366.06465757 Ry
     xc contribution           =   -2024.15161838 Ry
     ewald contribution        =   52369.24794369 Ry

     convergence has been achieved in  10 iterations

     Writing all to output data dir ./tmp/Zn002.save/ :
     XML data file, charge density, pseudopotentials, collected wavefunctions

     init_run     :    117.97s CPU    118.75s WALL (       1 calls)
     electrons    :   4620.27s CPU   4653.86s WALL (       1 calls)

     Called by init_run:
     wfcinit      :    116.35s CPU    117.08s WALL (       1 calls)
     wfcinit:atom :      0.07s CPU      0.13s WALL (      10 calls)
     wfcinit:wfcr :    115.21s CPU    115.80s WALL (      10 calls)
     potinit      :      0.10s CPU      0.11s WALL (       1 calls)
     hinit0       :      0.04s CPU      0.04s WALL (       1 calls)

     Called by electrons:
     c_bands      :   4297.09s CPU   4328.21s WALL (      11 calls)
     sum_band     :    311.12s CPU    313.06s WALL (      11 calls)
     v_of_rho     :      0.94s CPU      0.98s WALL (      11 calls)
     v_h          :      0.06s CPU      0.07s WALL (      11 calls)
     v_xc         :      0.88s CPU      0.92s WALL (      11 calls)
     newd         :     12.04s CPU     12.46s WALL (      11 calls)
     mix_rho      :      0.11s CPU      0.12s WALL (      11 calls)

     Called by c_bands:
     init_us_2    :      4.22s CPU      4.24s WALL (     230 calls)
     cegterg      :   4288.19s CPU   4319.21s WALL (     110 calls)

     Called by sum_band:
     sum_band:wei :      0.05s CPU      0.05s WALL (      11 calls)
     sum_band:loo :    299.22s CPU    300.70s WALL (      11 calls)
     sum_band:buf :      0.93s CPU      0.94s WALL (     110 calls)
     sum_band:ini :      2.04s CPU      2.04s WALL (     110 calls)
     sum_band:cal :    252.56s CPU    253.72s WALL (     110 calls)
     sum_band:bec :      2.24s CPU      2.24s WALL (     110 calls)
     addusdens    :     11.72s CPU     12.17s WALL (      11 calls)
                                        0.00s GPU  (      11 calls)
     addusd:skk   :      0.05s CPU      0.17s WALL (      11 calls)
                                        0.00s GPU  (      11 calls)

     Called by *egterg:
     cdiaghg      :    301.54s CPU    313.00s WALL (     690 calls)
     cegterg:over :    656.03s CPU    658.15s WALL (     590 calls)
     cegterg:upda :    294.79s CPU    296.54s WALL (     590 calls)
     cegterg:last :   1042.24s CPU   1048.40s WALL (     220 calls)
     cdiaghg:chol :     18.40s CPU     18.45s WALL (     690 calls)
     cdiaghg:inve :      3.01s CPU      3.02s WALL (     690 calls)
     cdiaghg:para :     76.78s CPU     78.24s WALL (    1380 calls)
     h_psi        :   1339.61s CPU   1345.96s WALL (     710 calls)
     s_psi        :    553.32s CPU    554.66s WALL (     710 calls)
     g_psi        :      0.58s CPU      0.58s WALL (     590 calls)

     Called by h_psi:
     h_psi:calbec :    600.73s CPU    603.50s WALL (     710 calls)
     vloc_psi     :    180.72s CPU    182.01s WALL (     710 calls)
     add_vuspsi   :    556.52s CPU    557.89s WALL (     710 calls)

     General routines
     calbec       :    853.29s CPU    857.22s WALL (     820 calls)
     fft          :      0.52s CPU      0.59s WALL (     141 calls)
     ffts         :      0.02s CPU      0.03s WALL (      22 calls)
     fftw         :    186.81s CPU    188.10s WALL (  363794 calls)
     interpolate  :      0.06s CPU      0.06s WALL (      11 calls)

     Parallel routines

     PWSCF        :      1h19m CPU      1h19m WALL


   This run was terminated on:  21:30:13  25Mar2025            

=------------------------------------------------------------------------------=
   JOB DONE.
=------------------------------------------------------------------------------=
Note: The following floating-point exceptions are signalling: IEEE_DENORMAL
Note: The following floating-point exceptions are signalling: IEEE_DENORMAL
Note: The following floating-point exceptions are signalling: IEEE_DENORMAL
Note: The following floating-point exceptions are signalling: IEEE_DENORMAL
Note: The following floating-point exceptions are signalling: IEEE_DENORMAL
Note: The following floating-point exceptions are signalling: IEEE_DENORMAL
Note: The following floating-point exceptions are signalling: IEEE_DENORMAL
Note: The following floating-point exceptions are signalling: IEEE_DENORMAL
Note: The following floating-point exceptions are signalling: IEEE_DENORMAL
Note: The following floating-point exceptions are signalling: IEEE_DENORMAL
Note: The following floating-point exceptions are signalling: IEEE_DENORMAL
Note: The following floating-point exceptions are signalling: IEEE_DENORMAL
