--------------------------------------------------------------------------
WARNING: There was an error initializing an OpenFabrics device.

  Local host:   ga00
  Local device: mlx5_0
--------------------------------------------------------------------------

     Program PWSCF v.7.3.1 starts on  5Apr2025 at 17:49:27 

     This program is part of the open-source Quantum ESPRESSO suite
     for quantum simulation of materials; please cite
         "P. Giannozzi et al., J. Phys.:Condens. Matter 21 395502 (2009);
         "P. Giannozzi et al., J. Phys.:Condens. Matter 29 465901 (2017);
         "P. Giannozzi et al., J. Chem. Phys. 152 154105 (2020);
          URL http://www.quantum-espresso.org", 
     in publications or presentations arising from this work. More details at
     http://www.quantum-espresso.org/quote

     Parallel version (MPI), running on    31 processors

     MPI processes distributed on     1 nodes
     95742 MiB available memory on the printing compute node when the environment starts

     Waiting for input...
     Reading input from standard input
Warning: card &CELL ignored
Warning: card   CELL_DOFREE = 'ALL' ignored
Warning: card / ignored

     Current dimensions of program PWSCF are:
     Max number of different atomic species (ntypx) = 10
     Max number of k-points (npk) =  40000
     Max angular momentum in pseudopotentials (lmaxx) =  4
     Presently stress not available with electric field and gates


     R & G space division:  proc/nbgrp/npool/nimage =      31
     Subspace diagonalization in iterative solution of the eigenvalue problem:
     one sub-group per band group will be used
     custom distributed-memory algorithm (size of sub-group:  5*  5 procs)


     Parallelization info
     --------------------
     sticks:   dense  smooth     PW     G-vecs:    dense   smooth      PW
     Min         243     138     37                38743    16729    2309
     Max         246     140     38                38746    16740    2312
     Sum        7555    4303   1159              1201061   518755   71619

     Using Slab Decomposition



     bravais-lattice index     =            0
     lattice parameter (alat)  =      19.7617  a.u.
     unit-cell volume          =   15176.5939 (a.u.)^3
     number of atoms/cell      =           48
     number of atomic types    =            1
     number of electrons       =       960.00
     number of Kohn-Sham states=          576
     kinetic-energy cutoff     =      40.0000  Ry
     charge density cutoff     =     280.0000  Ry
     scf convergence threshold =      1.0E-06
     mixing beta               =       0.4000
     number of iterations used =            8  plain     mixing
     Exchange-correlation= SLA  PW   PBE  PBE
                           (   1   4   3   4   0   0   0)

     celldm(1)=  19.761696  celldm(2)=   0.000000  celldm(3)=   0.000000
     celldm(4)=   0.000000  celldm(5)=   0.000000  celldm(6)=   0.000000

     crystal axes: (cart. coord. in units of alat)
               a(1) = (   1.000000   0.000000   0.000000 )  
               a(2) = (  -0.500000   0.866025   0.000000 )  
               a(3) = (   0.000000   0.000000   2.270759 )  

     reciprocal axes: (cart. coord. in units 2 pi/alat)
               b(1) = (  1.000000  0.577350 -0.000000 )  
               b(2) = (  0.000000  1.154701  0.000000 )  
               b(3) = (  0.000000 -0.000000  0.440381 )  


     PseudoPot. # 1 for Zn read from file:
     /home/yongsang/Research/PSID_server_room/qe/[00]QE/qepseudo/SSSP_1.3.0_PBE_efficiency/Zn_pbe_v1.uspp.F.UPF
     MD5 check sum: df62231357ef9e81f77b2b3087fa5675
     Pseudo is Ultrasoft, Zval = 20.0
     Generated by new atomic code, or converted to UPF format
     Using radial grid of  943 points,  6 beta functions with: 
                l(1) =   0
                l(2) =   0
                l(3) =   1
                l(4) =   1
                l(5) =   2
                l(6) =   2
     Q(r) pseudized with  8 coefficients,  rinner =    1.100   1.100   1.100
                                                       1.100   1.100

     atomic species   valence    mass     pseudopotential
     Zn               20.00    65.38000     Zn( 1.00)

     No symmetry found


                                    s                        frac. trans.

      isym =  1     identity                                     

 cryst.   s( 1) = (     1          0          0      )
                  (     0          1          0      )
                  (     0          0          1      )

 cart.    s( 1) = (  1.0000000  0.0000000  0.0000000 )
                  (  0.0000000  1.0000000  0.0000000 )
                  (  0.0000000  0.0000000  1.0000000 )


   Cartesian axes

     site n.     atom                  positions (alat units)
         1        Zn     tau(   1) = (   0.0000000   0.1443375   0.1164998  )
         2        Zn     tau(   2) = (   0.5000000   0.1443375   0.1164998  )
         3        Zn     tau(   3) = (  -0.0000028   0.1443288   0.5893147  )
         4        Zn     tau(   4) = (   0.5000063   0.1444162   0.5894224  )
         5        Zn     tau(   5) = (  -0.1250000   0.3608439   0.1164998  )
         6        Zn     tau(   6) = (   0.3750000   0.3608439   0.1164998  )
         7        Zn     tau(   7) = (  -0.1250519   0.3608939   0.5893373  )
         8        Zn     tau(   8) = (   0.3750559   0.3609312   0.5893259  )
         9        Zn     tau(   9) = (  -0.2500000   0.5773502   0.1164998  )
        10        Zn     tau(  10) = (   0.2500000   0.5773502   0.1164998  )
        11        Zn     tau(  11) = (  -0.2500755   0.5773115   0.5893062  )
        12        Zn     tau(  12) = (   0.2500706   0.5773194   0.5893683  )
        13        Zn     tau(  13) = (  -0.3750000   0.7938567   0.1164998  )
        14        Zn     tau(  14) = (   0.1250000   0.7938567   0.1164998  )
        15        Zn     tau(  15) = (  -0.3750282   0.7937620   0.5892922  )
        16        Zn     tau(  16) = (   0.1250261   0.7938119   0.5894597  )
        17        Zn     tau(  17) = (   0.2500000   0.1443375   0.1164998  )
        18        Zn     tau(  18) = (   0.7500000   0.1443375   0.1164998  )
        19        Zn     tau(  19) = (   0.2499869   0.1443517   0.5893259  )
        20        Zn     tau(  20) = (   0.7500091   0.1443904   0.5894171  )
        21        Zn     tau(  21) = (   0.1250000   0.3608439   0.1164998  )
        22        Zn     tau(  22) = (   0.6250000   0.3608439   0.1164998  )
        23        Zn     tau(  23) = (   0.1250128   0.3608820   0.5893185  )
        24        Zn     tau(  24) = (   0.6249827   0.3609428   0.5893301  )
        25        Zn     tau(  25) = (   0.0000000   0.5773502   0.1164998  )
        26        Zn     tau(  26) = (   0.5000000   0.5773502   0.1164998  )
        27        Zn     tau(  27) = (  -0.0000277   0.5773140   0.5893837  )
        28        Zn     tau(  28) = (   0.5000305   0.5773158   0.5892824  )
        29        Zn     tau(  29) = (  -0.1250000   0.7938567   0.1164998  )
        30        Zn     tau(  30) = (   0.3750000   0.7938567   0.1164998  )
        31        Zn     tau(  31) = (  -0.1250544   0.7937943   0.5893864  )
        32        Zn     tau(  32) = (   0.3750529   0.7937806   0.5893662  )
        33        Zn     tau(  33) = (   0.1249604   0.0721258   0.3528222  )
        34        Zn     tau(  34) = (   0.6250402   0.0722582   0.3530318  )
        35        Zn     tau(  35) = (  -0.0000909   0.2887357   0.3529168  )
        36        Zn     tau(  36) = (   0.5000909   0.2888123   0.3530366  )
        37        Zn     tau(  37) = (  -0.1251119   0.5051366   0.3530212  )
        38        Zn     tau(  38) = (   0.3751115   0.5051777   0.3530364  )
        39        Zn     tau(  39) = (  -0.2500579   0.7215434   0.3529342  )
        40        Zn     tau(  40) = (   0.2500581   0.7216415   0.3530241  )
        41        Zn     tau(  41) = (   0.3750642   0.0722100   0.3529096  )
        42        Zn     tau(  42) = (   0.8749335   0.0721725   0.3529557  )
        43        Zn     tau(  43) = (   0.2500889   0.2887828   0.3529046  )
        44        Zn     tau(  44) = (   0.7499090   0.2887654   0.3530512  )
        45        Zn     tau(  45) = (   0.1250386   0.5051978   0.3529893  )
        46        Zn     tau(  46) = (   0.6249614   0.5051196   0.3530706  )
        47        Zn     tau(  47) = (   0.0000156   0.7216406   0.3529879  )
        48        Zn     tau(  48) = (   0.4999831   0.7215417   0.3529641  )

     --------------------------------------------
     DFT-D3 Dispersion Correction (3-body terms):
     --------------------------------------------
       Reference C6 values for interpolation: 

         atom   Coordination number   C6
         Zn         0.000           681.04
         Zn         1.942           306.91

       Values used:

         atom   Coordination number  R0_AB[au]  C6      C8
         Zn         6.782            3.053    306.91  23930.67
         Zn         6.779            3.053    306.91  23930.67
         Zn         6.779            3.053    306.91  23930.67
         Zn         6.779            3.053    306.91  23930.67
         Zn         6.780            3.053    306.91  23930.67
         Zn         6.780            3.053    306.91  23930.67
         Zn         6.786            3.053    306.91  23930.67
         Zn         6.788            3.053    306.91  23930.67
         Zn         6.780            3.053    306.91  23930.67
         Zn         6.778            3.053    306.91  23930.67
         Zn         6.791            3.053    306.91  23930.67
         Zn         6.785            3.053    306.91  23930.67
         Zn         6.782            3.053    306.91  23930.67
         Zn         6.777            3.053    306.91  23930.67
         Zn         6.783            3.053    306.91  23930.67
         Zn         6.777            3.053    306.91  23930.67
         Zn         6.782            3.053    306.91  23930.67
         Zn         6.779            3.053    306.91  23930.67
         Zn         6.777            3.053    306.91  23930.67
         Zn         6.781            3.053    306.91  23930.67
         Zn         6.780            3.053    306.91  23930.67
         Zn         6.779            3.053    306.91  23930.67
         Zn         6.782            3.053    306.91  23930.67
         Zn         6.793            3.053    306.91  23930.67
         Zn         6.778            3.053    306.91  23930.67
         Zn         6.780            3.053    306.91  23930.67
         Zn         6.782            3.053    306.91  23930.67
         Zn         6.795            3.053    306.91  23930.67
         Zn         6.779            3.053    306.91  23930.67
         Zn         6.779            3.053    306.91  23930.67
         Zn         6.777            3.053    306.91  23930.67
         Zn         6.783            3.053    306.91  23930.67
         Zn         8.379            3.053    306.91  23930.67
         Zn         8.379            3.053    306.91  23930.67
         Zn         8.381            3.053    306.91  23930.67
         Zn         8.387            3.053    306.91  23930.67
         Zn         8.386            3.053    306.91  23930.67
         Zn         8.390            3.053    306.91  23930.67
         Zn         8.383            3.053    306.91  23930.67
         Zn         8.381            3.053    306.91  23930.67
         Zn         8.377            3.053    306.91  23930.67
         Zn         8.380            3.053    306.91  23930.67
         Zn         8.381            3.053    306.91  23930.67
         Zn         8.387            3.053    306.91  23930.67
         Zn         8.382            3.053    306.91  23930.67
         Zn         8.394            3.053    306.91  23930.67
         Zn         8.378            3.053    306.91  23930.67
         Zn         8.387            3.053    306.91  23930.67

         Molecular C6 ( Ry / a.u.^6 ) =    707110.50


   Crystallographic axes

     site n.     atom                  positions (cryst. coord.)
         1        Zn     tau(   1) = (  0.0833333  0.1666666  0.0513044  )
         2        Zn     tau(   2) = (  0.5833333  0.1666666  0.0513044  )
         3        Zn     tau(   3) = (  0.0833255  0.1666566  0.2595232  )
         4        Zn     tau(   4) = (  0.5833850  0.1667575  0.2595707  )
         5        Zn     tau(   5) = (  0.0833333  0.4166666  0.0513044  )
         6        Zn     tau(   6) = (  0.5833333  0.4166666  0.0513044  )
         7        Zn     tau(   7) = (  0.0833103  0.4167244  0.2595332  )
         8        Zn     tau(   8) = (  0.5834397  0.4167674  0.2595282  )
         9        Zn     tau(   9) = (  0.0833333  0.6666666  0.0513044  )
        10        Zn     tau(  10) = (  0.5833333  0.6666666  0.0513044  )
        11        Zn     tau(  11) = (  0.0832354  0.6666219  0.2595195  )
        12        Zn     tau(  12) = (  0.5833861  0.6666310  0.2595469  )
        13        Zn     tau(  13) = (  0.0833333  0.9166667  0.0513044  )
        14        Zn     tau(  14) = (  0.5833334  0.9166667  0.0513044  )
        15        Zn     tau(  15) = (  0.0832505  0.9165574  0.2595133  )
        16        Zn     tau(  16) = (  0.5833336  0.9166150  0.2595871  )
        17        Zn     tau(  17) = (  0.3333333  0.1666666  0.0513044  )
        18        Zn     tau(  18) = (  0.8333334  0.1666666  0.0513044  )
        19        Zn     tau(  19) = (  0.3333283  0.1666830  0.2595282  )
        20        Zn     tau(  20) = (  0.8333729  0.1667277  0.2595683  )
        21        Zn     tau(  21) = (  0.3333333  0.4166666  0.0513044  )
        22        Zn     tau(  22) = (  0.8333333  0.4166666  0.0513044  )
        23        Zn     tau(  23) = (  0.3333682  0.4167106  0.2595249  )
        24        Zn     tau(  24) = (  0.8333732  0.4167809  0.2595300  )
        25        Zn     tau(  25) = (  0.3333333  0.6666666  0.0513044  )
        26        Zn     tau(  26) = (  0.8333333  0.6666666  0.0513044  )
        27        Zn     tau(  27) = (  0.3332848  0.6666248  0.2595536  )
        28        Zn     tau(  28) = (  0.8333439  0.6666269  0.2595090  )
        29        Zn     tau(  29) = (  0.3333334  0.9166667  0.0513044  )
        30        Zn     tau(  30) = (  0.8333334  0.9166667  0.0513044  )
        31        Zn     tau(  31) = (  0.3332430  0.9165947  0.2595548  )
        32        Zn     tau(  32) = (  0.8333424  0.9165789  0.2595459  )
        33        Zn     tau(  33) = (  0.1666023  0.0832837  0.1553763  )
        34        Zn     tau(  34) = (  0.6667585  0.0834366  0.1554686  )
        35        Zn     tau(  35) = (  0.1666108  0.3334033  0.1554180  )
        36        Zn     tau(  36) = (  0.6668367  0.3334917  0.1554708  )
        37        Zn     tau(  37) = (  0.1665288  0.5832815  0.1554640  )
        38        Zn     tau(  38) = (  0.6667759  0.5833289  0.1554707  )
        39        Zn     tau(  39) = (  0.1665254  0.8331665  0.1554257  )
        40        Zn     tau(  40) = (  0.6666980  0.8332799  0.1554653  )
        41        Zn     tau(  41) = (  0.4167547  0.0833809  0.1554148  )
        42        Zn     tau(  42) = (  0.9166023  0.0833376  0.1554351  )
        43        Zn     tau(  43) = (  0.4168177  0.3334577  0.1554126  )
        44        Zn     tau(  44) = (  0.9166278  0.3334375  0.1554772  )
        45        Zn     tau(  45) = (  0.4167147  0.5833521  0.1554499  )
        46        Zn     tau(  46) = (  0.9165924  0.5832619  0.1554857  )
        47        Zn     tau(  47) = (  0.4166549  0.8332788  0.1554493  )
        48        Zn     tau(  48) = (  0.9165654  0.8331646  0.1554388  )

     number of k points=     5  Marzari-Vanderbilt smearing, width (Ry)=  0.0200
                       cart. coord. in units 2pi/alat
        k(    1) = (   0.0000000   0.0000000   0.0000000), wk =   0.2222222
        k(    2) = (   0.0000000   0.3849002   0.0000000), wk =   0.4444444
        k(    3) = (   0.3333333   0.1924501   0.0000000), wk =   0.4444444
        k(    4) = (   0.3333333   0.5773503   0.0000000), wk =   0.4444444
        k(    5) = (   0.3333333  -0.1924501   0.0000000), wk =   0.4444444

                       cryst. coord.
        k(    1) = (   0.0000000   0.0000000   0.0000000), wk =   0.2222222
        k(    2) = (   0.0000000   0.3333333   0.0000000), wk =   0.4444444
        k(    3) = (   0.3333333   0.0000000   0.0000000), wk =   0.4444444
        k(    4) = (   0.3333333   0.3333333   0.0000000), wk =   0.4444444
        k(    5) = (   0.3333333  -0.3333333   0.0000000), wk =   0.4444444

     Dense  grid:  1201061 G-vectors     FFT dimensions: ( 108, 108, 240)

     Smooth grid:   518755 G-vectors     FFT dimensions: (  80,  80, 192)

     Dynamical RAM for                 wfc:      18.38 MB

     Dynamical RAM for     wfc (w. buffer):     110.27 MB

     Dynamical RAM for           str. fact:       0.59 MB

     Dynamical RAM for           local pot:       0.00 MB

     Dynamical RAM for          nlocal pot:      27.57 MB

     Dynamical RAM for                qrad:       1.34 MB

     Dynamical RAM for          rho,v,vnew:       3.91 MB

     Dynamical RAM for               rhoin:       1.30 MB

     Dynamical RAM for            rho*nmix:       9.46 MB

     Dynamical RAM for           G-vectors:       2.34 MB

     Dynamical RAM for          h,s,v(r/c):       2.42 MB

     Dynamical RAM for          <psi|beta>:       7.59 MB

     Dynamical RAM for                 psi:      36.76 MB

     Dynamical RAM for                hpsi:      36.76 MB

     Dynamical RAM for                spsi:      36.76 MB

     Dynamical RAM for      wfcinit/wfcrot:      48.74 MB

     Dynamical RAM for           addusdens:     138.34 MB

     Dynamical RAM for          addusforce:     194.40 MB

     Estimated static dynamical RAM per process >     152.07 MB

     Estimated max dynamical RAM per process >     355.93 MB

     Estimated total dynamical RAM >      10.78 GB

     Initial potential from superposition of free atoms

     starting charge     959.9932, renormalised to     960.0000

     negative rho (up, down):  3.977E-03 0.000E+00

     Adding external electric field

     Computed dipole along edir(1) : 
        Elec. dipole         -0.3356 Ry au,         -0.8529 Debye
        Ion. dipole          -0.4919 Ry au,         -1.2502 Debye
        Dipole             -188.7414 Ry au,       -479.7328 Debye
        Dipole field         -0.1563 Ry au, 

        Potential amp.        5.5590 Ry
        Total length         17.7855 bohr

     Starting wfcs are  624 randomized atomic wfcs
[ga00:606413] 30 more processes have sent help message help-mpi-btl-openib.txt / error in device init
[ga00:606413] Set MCA parameter "orte_base_help_aggregate" to 0 to see all help / error messages

     total cpu time spent up to now is       23.5 secs

     Self-consistent Calculation

     iteration #  1     ecut=    40.00 Ry     beta= 0.40
     Davidson diagonalization with overlap

---- Real-time Memory Report at c_bands before calling an iterative solver
           391 MiB given to the printing process from OS
             0 MiB allocation reported by mallinfo(arena+hblkhd)
         89713 MiB available memory on the node where the printing process lives
------------------
     ethr =  1.00E-02,  avg # of iterations = 13.6

     negative rho (up, down):  8.670E-04 0.000E+00

     Adding external electric field

     Computed dipole along edir(1) : 
        Elec. dipole         -1.1368 Ry au,         -2.8894 Debye
        Ion. dipole          -0.4919 Ry au,         -1.2502 Debye
        Dipole              778.8999 Ry au,       1979.7662 Debye
        Dipole field          0.6449 Ry au, 

        Potential amp.      -22.9411 Ry
        Total length         17.7855 bohr


     total cpu time spent up to now is      240.3 secs

     total energy              =  -15349.77074607 Ry
     estimated scf accuracy    <   11399.39803175 Ry

     iteration #  2     ecut=    40.00 Ry     beta= 0.40
     Davidson diagonalization with overlap

---- Real-time Memory Report at c_bands before calling an iterative solver
           494 MiB given to the printing process from OS
             0 MiB allocation reported by mallinfo(arena+hblkhd)
         89195 MiB available memory on the node where the printing process lives
------------------
     ethr =  1.00E-02,  avg # of iterations = 31.4

     negative rho (up, down):  1.584E-03 0.000E+00

     Adding external electric field

     Computed dipole along edir(1) : 
        Elec. dipole         -0.6204 Ry au,         -1.5768 Debye
        Ion. dipole          -0.4919 Ry au,         -1.2502 Debye
        Dipole              155.2237 Ry au,        394.5394 Debye
        Dipole field          0.1285 Ry au, 

        Potential amp.       -4.5718 Ry
        Total length         17.7855 bohr


     total cpu time spent up to now is     1114.1 secs

     total energy              =  -19513.22768286 Ry
     estimated scf accuracy    <   66676.69607506 Ry

     iteration #  3     ecut=    40.00 Ry     beta= 0.40
     Davidson diagonalization with overlap

---- Real-time Memory Report at c_bands before calling an iterative solver
           506 MiB given to the printing process from OS
             0 MiB allocation reported by mallinfo(arena+hblkhd)
         89164 MiB available memory on the node where the printing process lives
------------------
     ethr =  1.00E-02,  avg # of iterations = 13.0

     negative rho (up, down):  2.533E-03 0.000E+00

     Adding external electric field

     Computed dipole along edir(1) : 
        Elec. dipole         -0.5612 Ry au,         -1.4264 Debye
        Ion. dipole          -0.4919 Ry au,         -1.2502 Debye
        Dipole               83.7280 Ry au,        212.8155 Debye
        Dipole field          0.0693 Ry au, 

        Potential amp.       -2.4661 Ry
        Total length         17.7855 bohr


     total cpu time spent up to now is     1468.0 secs

     total energy              =  -21860.16759851 Ry
     estimated scf accuracy    <    9874.86465985 Ry

     iteration #  4     ecut=    40.00 Ry     beta= 0.40
     Davidson diagonalization with overlap

---- Real-time Memory Report at c_bands before calling an iterative solver
           507 MiB given to the printing process from OS
             0 MiB allocation reported by mallinfo(arena+hblkhd)
         89148 MiB available memory on the node where the printing process lives
------------------
     ethr =  1.00E-02,  avg # of iterations = 10.6

     negative rho (up, down):  2.631E-03 0.000E+00

     Adding external electric field

     Computed dipole along edir(1) : 
        Elec. dipole         -0.5122 Ry au,         -1.3019 Debye
        Ion. dipole          -0.4919 Ry au,         -1.2502 Debye
        Dipole               24.5649 Ry au,         62.4377 Debye
        Dipole field          0.0203 Ry au, 

        Potential amp.       -0.7235 Ry
        Total length         17.7855 bohr


     total cpu time spent up to now is     1661.7 secs

     total energy              =  -22390.00554284 Ry
     estimated scf accuracy    <    1579.33406929 Ry

     iteration #  5     ecut=    40.00 Ry     beta= 0.40
     Davidson diagonalization with overlap

---- Real-time Memory Report at c_bands before calling an iterative solver
           512 MiB given to the printing process from OS
             0 MiB allocation reported by mallinfo(arena+hblkhd)
         89119 MiB available memory on the node where the printing process lives
------------------
     ethr =  1.00E-02,  avg # of iterations =  7.0

     negative rho (up, down):  2.973E-03 0.000E+00

     Adding external electric field

     Computed dipole along edir(1) : 
        Elec. dipole         -0.5153 Ry au,         -1.3096 Debye
        Ion. dipole          -0.4919 Ry au,         -1.2502 Debye
        Dipole               28.2640 Ry au,         71.8400 Debye
        Dipole field          0.0234 Ry au, 

        Potential amp.       -0.8325 Ry
        Total length         17.7855 bohr


     total cpu time spent up to now is     1780.6 secs

     total energy              =  -22376.55524415 Ry
     estimated scf accuracy    <     633.60184544 Ry

     iteration #  6     ecut=    40.00 Ry     beta= 0.40
     Davidson diagonalization with overlap

---- Real-time Memory Report at c_bands before calling an iterative solver
           512 MiB given to the printing process from OS
             0 MiB allocation reported by mallinfo(arena+hblkhd)
         89068 MiB available memory on the node where the printing process lives
------------------
     ethr =  1.00E-02,  avg # of iterations =  2.0

     negative rho (up, down):  2.915E-03 0.000E+00

     Adding external electric field

     Computed dipole along edir(1) : 
        Elec. dipole         -0.4877 Ry au,         -1.2396 Debye
        Ion. dipole          -0.4919 Ry au,         -1.2502 Debye
        Dipole               -5.0379 Ry au,        -12.8051 Debye
        Dipole field         -0.0042 Ry au, 

        Potential amp.        0.1484 Ry
        Total length         17.7855 bohr


     total cpu time spent up to now is     1855.5 secs

     total energy              =  -22243.13153267 Ry
     estimated scf accuracy    <     574.29515418 Ry

     iteration #  7     ecut=    40.00 Ry     beta= 0.40
     Davidson diagonalization with overlap

---- Real-time Memory Report at c_bands before calling an iterative solver
           513 MiB given to the printing process from OS
             0 MiB allocation reported by mallinfo(arena+hblkhd)
         89023 MiB available memory on the node where the printing process lives
------------------
     ethr =  1.00E-02,  avg # of iterations =  2.0

     negative rho (up, down):  4.296E-03 0.000E+00

     Adding external electric field

     Computed dipole along edir(1) : 
        Elec. dipole         -0.4832 Ry au,         -1.2281 Debye
        Ion. dipole          -0.4919 Ry au,         -1.2502 Debye
        Dipole              -10.4772 Ry au,        -26.6303 Debye
        Dipole field         -0.0087 Ry au, 

        Potential amp.        0.3086 Ry
        Total length         17.7855 bohr


     total cpu time spent up to now is     1934.5 secs

     total energy              =  -22238.79741791 Ry
     estimated scf accuracy    <     514.62336787 Ry

     iteration #  8     ecut=    40.00 Ry     beta= 0.40
     Davidson diagonalization with overlap

---- Real-time Memory Report at c_bands before calling an iterative solver
           518 MiB given to the printing process from OS
             0 MiB allocation reported by mallinfo(arena+hblkhd)
         89015 MiB available memory on the node where the printing process lives
------------------
     ethr =  1.00E-02,  avg # of iterations =  1.0

     negative rho (up, down):  3.935E-03 0.000E+00

     Adding external electric field

     Computed dipole along edir(1) : 
        Elec. dipole         -0.4806 Ry au,         -1.2216 Debye
        Ion. dipole          -0.4919 Ry au,         -1.2502 Debye
        Dipole              -13.5699 Ry au,        -34.4913 Debye
        Dipole field         -0.0112 Ry au, 

        Potential amp.        0.3997 Ry
        Total length         17.7855 bohr


     total cpu time spent up to now is     1992.5 secs

     total energy              =  -22233.95346925 Ry
     estimated scf accuracy    <     391.74128021 Ry

     iteration #  9     ecut=    40.00 Ry     beta= 0.40
     Davidson diagonalization with overlap

---- Real-time Memory Report at c_bands before calling an iterative solver
           519 MiB given to the printing process from OS
             0 MiB allocation reported by mallinfo(arena+hblkhd)
         88996 MiB available memory on the node where the printing process lives
------------------
     ethr =  1.00E-02,  avg # of iterations =  1.0

     negative rho (up, down):  3.437E-03 0.000E+00

     Adding external electric field

     Computed dipole along edir(1) : 
        Elec. dipole         -0.4771 Ry au,         -1.2127 Debye
        Ion. dipole          -0.4919 Ry au,         -1.2502 Debye
        Dipole              -17.8002 Ry au,        -45.2435 Debye
        Dipole field         -0.0147 Ry au, 

        Potential amp.        0.5243 Ry
        Total length         17.7855 bohr


     total cpu time spent up to now is     2050.5 secs

     total energy              =  -22227.30143219 Ry
     estimated scf accuracy    <     295.13083399 Ry

     iteration # 10     ecut=    40.00 Ry     beta= 0.40
     Davidson diagonalization with overlap

---- Real-time Memory Report at c_bands before calling an iterative solver
           519 MiB given to the printing process from OS
             0 MiB allocation reported by mallinfo(arena+hblkhd)
         88982 MiB available memory on the node where the printing process lives
------------------
     ethr =  1.00E-02,  avg # of iterations =  1.0

     negative rho (up, down):  5.802E-03 0.000E+00

     Adding external electric field

     Computed dipole along edir(1) : 
        Elec. dipole         -0.4220 Ry au,         -1.0725 Debye
        Ion. dipole          -0.4919 Ry au,         -1.2502 Debye
        Dipole              -84.4059 Ry au,       -214.5384 Debye
        Dipole field         -0.0699 Ry au, 

        Potential amp.        2.4860 Ry
        Total length         17.7855 bohr


     total cpu time spent up to now is     2108.5 secs

     total energy              =  -22111.96204237 Ry
     estimated scf accuracy    <     252.64549765 Ry

     iteration # 11     ecut=    40.00 Ry     beta= 0.40
     Davidson diagonalization with overlap

---- Real-time Memory Report at c_bands before calling an iterative solver
           520 MiB given to the printing process from OS
             0 MiB allocation reported by mallinfo(arena+hblkhd)
         89006 MiB available memory on the node where the printing process lives
------------------
     ethr =  1.00E-02,  avg # of iterations =  5.4

     negative rho (up, down):  5.076E-03 0.000E+00

     Adding external electric field

     Computed dipole along edir(1) : 
        Elec. dipole         -0.4321 Ry au,         -1.0984 Debye
        Ion. dipole          -0.4919 Ry au,         -1.2502 Debye
        Dipole              -72.1263 Ry au,       -183.3268 Debye
        Dipole field         -0.0597 Ry au, 

        Potential amp.        2.1243 Ry
        Total length         17.7855 bohr


     total cpu time spent up to now is     2225.8 secs

     total energy              =  -22130.58902287 Ry
     estimated scf accuracy    <     237.12983547 Ry

     iteration # 12     ecut=    40.00 Ry     beta= 0.40
     Davidson diagonalization with overlap

---- Real-time Memory Report at c_bands before calling an iterative solver
           520 MiB given to the printing process from OS
             0 MiB allocation reported by mallinfo(arena+hblkhd)
         88993 MiB available memory on the node where the printing process lives
------------------
     ethr =  1.00E-02,  avg # of iterations =  2.0

     negative rho (up, down):  4.370E-03 0.000E+00

     Adding external electric field

     Computed dipole along edir(1) : 
        Elec. dipole         -0.4361 Ry au,         -1.1085 Debye
        Ion. dipole          -0.4919 Ry au,         -1.2502 Debye
        Dipole              -67.2996 Ry au,       -171.0585 Debye
        Dipole field         -0.0557 Ry au, 

        Potential amp.        1.9822 Ry
        Total length         17.7855 bohr


     total cpu time spent up to now is     2298.4 secs

     total energy              =  -22144.66656611 Ry
     estimated scf accuracy    <      19.84230653 Ry

     iteration # 13     ecut=    40.00 Ry     beta= 0.40
     Davidson diagonalization with overlap

---- Real-time Memory Report at c_bands before calling an iterative solver
           520 MiB given to the printing process from OS
             0 MiB allocation reported by mallinfo(arena+hblkhd)
         88990 MiB available memory on the node where the printing process lives
------------------
     ethr =  2.07E-03,  avg # of iterations =  5.0

     negative rho (up, down):  5.592E-03 0.000E+00

     Adding external electric field

     Computed dipole along edir(1) : 
        Elec. dipole         -0.4312 Ry au,         -1.0959 Debye
        Ion. dipole          -0.4919 Ry au,         -1.2502 Debye
        Dipole              -73.2949 Ry au,       -186.2970 Debye
        Dipole field         -0.0607 Ry au, 

        Potential amp.        2.1588 Ry
        Total length         17.7855 bohr


     total cpu time spent up to now is     2375.1 secs

     total energy              =  -22143.58412619 Ry
     estimated scf accuracy    <      10.56450273 Ry

     iteration # 14     ecut=    40.00 Ry     beta= 0.40
     Davidson diagonalization with overlap

---- Real-time Memory Report at c_bands before calling an iterative solver
           520 MiB given to the printing process from OS
             0 MiB allocation reported by mallinfo(arena+hblkhd)
         88987 MiB available memory on the node where the printing process lives
------------------
     ethr =  1.10E-03,  avg # of iterations =  9.0

     negative rho (up, down):  3.677E-03 0.000E+00

     Adding external electric field

     Computed dipole along edir(1) : 
        Elec. dipole         -0.4348 Ry au,         -1.1050 Debye
        Ion. dipole          -0.4919 Ry au,         -1.2502 Debye
        Dipole              -68.9591 Ry au,       -175.2764 Debye
        Dipole field         -0.0571 Ry au, 

        Potential amp.        2.0311 Ry
        Total length         17.7855 bohr


     total cpu time spent up to now is     2496.2 secs

     total energy              =  -22138.88742754 Ry
     estimated scf accuracy    <      36.11322215 Ry

     iteration # 15     ecut=    40.00 Ry     beta= 0.40
     Davidson diagonalization with overlap

---- Real-time Memory Report at c_bands before calling an iterative solver
           520 MiB given to the printing process from OS
             0 MiB allocation reported by mallinfo(arena+hblkhd)
         88992 MiB available memory on the node where the printing process lives
------------------
     ethr =  1.10E-03,  avg # of iterations =  9.0

     negative rho (up, down):  3.531E-03 0.000E+00

     Adding external electric field

     Computed dipole along edir(1) : 
        Elec. dipole         -0.4359 Ry au,         -1.1080 Debye
        Ion. dipole          -0.4919 Ry au,         -1.2502 Debye
        Dipole              -67.5555 Ry au,       -171.7089 Debye
        Dipole field         -0.0559 Ry au, 

        Potential amp.        1.9897 Ry
        Total length         17.7855 bohr


     total cpu time spent up to now is     2586.7 secs

     total energy              =  -22144.42853798 Ry
     estimated scf accuracy    <       5.07554643 Ry

     iteration # 16     ecut=    40.00 Ry     beta= 0.40
     Davidson diagonalization with overlap

---- Real-time Memory Report at c_bands before calling an iterative solver
           521 MiB given to the printing process from OS
             0 MiB allocation reported by mallinfo(arena+hblkhd)
         88989 MiB available memory on the node where the printing process lives
------------------
     ethr =  5.29E-04,  avg # of iterations =  4.0

     negative rho (up, down):  3.301E-03 0.000E+00

     Adding external electric field

     Computed dipole along edir(1) : 
        Elec. dipole         -0.4337 Ry au,         -1.1024 Debye
        Ion. dipole          -0.4919 Ry au,         -1.2502 Debye
        Dipole              -70.1870 Ry au,       -178.3974 Debye
        Dipole field         -0.0581 Ry au, 

        Potential amp.        2.0672 Ry
        Total length         17.7855 bohr


     total cpu time spent up to now is     2660.7 secs

     total energy              =  -22143.71654714 Ry
     estimated scf accuracy    <       2.23430409 Ry

     iteration # 17     ecut=    40.00 Ry     beta= 0.40
     Davidson diagonalization with overlap

---- Real-time Memory Report at c_bands before calling an iterative solver
           521 MiB given to the printing process from OS
             0 MiB allocation reported by mallinfo(arena+hblkhd)
         88984 MiB available memory on the node where the printing process lives
------------------
     ethr =  2.33E-04,  avg # of iterations =  9.4

     negative rho (up, down):  3.128E-03 0.000E+00

     Adding external electric field

     Computed dipole along edir(1) : 
        Elec. dipole         -0.4355 Ry au,         -1.1069 Debye
        Ion. dipole          -0.4919 Ry au,         -1.2502 Debye
        Dipole              -68.0605 Ry au,       -172.9926 Debye
        Dipole field         -0.0564 Ry au, 

        Potential amp.        2.0046 Ry
        Total length         17.7855 bohr


     total cpu time spent up to now is     2760.4 secs

     total energy              =  -22143.88206820 Ry
     estimated scf accuracy    <       0.93202108 Ry

     iteration # 18     ecut=    40.00 Ry     beta= 0.40
     Davidson diagonalization with overlap

---- Real-time Memory Report at c_bands before calling an iterative solver
           521 MiB given to the printing process from OS
             0 MiB allocation reported by mallinfo(arena+hblkhd)
         88982 MiB available memory on the node where the printing process lives
------------------
     c_bands:  1 eigenvalues not converged
     c_bands:  1 eigenvalues not converged
     ethr =  9.71E-05,  avg # of iterations = 14.4

     negative rho (up, down):  3.103E-03 0.000E+00

     Adding external electric field

     Computed dipole along edir(1) : 
        Elec. dipole         -0.4344 Ry au,         -1.1040 Debye
        Ion. dipole          -0.4919 Ry au,         -1.2502 Debye
        Dipole              -69.4410 Ry au,       -176.5015 Debye
        Dipole field         -0.0575 Ry au, 

        Potential amp.        2.0453 Ry
        Total length         17.7855 bohr


     total cpu time spent up to now is     2852.6 secs

     total energy              =  -22143.91799203 Ry
     estimated scf accuracy    <       0.88331991 Ry

     iteration # 19     ecut=    40.00 Ry     beta= 0.40
     Davidson diagonalization with overlap

---- Real-time Memory Report at c_bands before calling an iterative solver
           521 MiB given to the printing process from OS
             0 MiB allocation reported by mallinfo(arena+hblkhd)
         88980 MiB available memory on the node where the printing process lives
------------------
     ethr =  9.20E-05,  avg # of iterations =  9.0

     negative rho (up, down):  3.068E-03 0.000E+00

     Adding external electric field

     Computed dipole along edir(1) : 
        Elec. dipole         -0.4345 Ry au,         -1.1044 Debye
        Ion. dipole          -0.4919 Ry au,         -1.2502 Debye
        Dipole              -69.2515 Ry au,       -176.0199 Debye
        Dipole field         -0.0573 Ry au, 

        Potential amp.        2.0397 Ry
        Total length         17.7855 bohr


     total cpu time spent up to now is     2933.2 secs

     total energy              =  -22143.93361044 Ry
     estimated scf accuracy    <       0.24178466 Ry

     iteration # 20     ecut=    40.00 Ry     beta= 0.40
     Davidson diagonalization with overlap

---- Real-time Memory Report at c_bands before calling an iterative solver
           521 MiB given to the printing process from OS
             0 MiB allocation reported by mallinfo(arena+hblkhd)
         88973 MiB available memory on the node where the printing process lives
------------------
     ethr =  2.52E-05,  avg # of iterations =  7.8

     negative rho (up, down):  3.152E-03 0.000E+00

     Adding external electric field

     Computed dipole along edir(1) : 
        Elec. dipole         -0.4343 Ry au,         -1.1038 Debye
        Ion. dipole          -0.4919 Ry au,         -1.2502 Debye
        Dipole              -69.5416 Ry au,       -176.7572 Debye
        Dipole field         -0.0576 Ry au, 

        Potential amp.        2.0482 Ry
        Total length         17.7855 bohr


     total cpu time spent up to now is     3012.3 secs

     total energy              =  -22143.84610342 Ry
     estimated scf accuracy    <       0.31347888 Ry

     iteration # 21     ecut=    40.00 Ry     beta= 0.40
     Davidson diagonalization with overlap

---- Real-time Memory Report at c_bands before calling an iterative solver
           521 MiB given to the printing process from OS
             0 MiB allocation reported by mallinfo(arena+hblkhd)
         88970 MiB available memory on the node where the printing process lives
------------------
     ethr =  2.52E-05,  avg # of iterations = 12.0

     negative rho (up, down):  3.056E-03 0.000E+00

     Adding external electric field

     Computed dipole along edir(1) : 
        Elec. dipole         -0.4343 Ry au,         -1.1038 Debye
        Ion. dipole          -0.4919 Ry au,         -1.2502 Debye
        Dipole              -69.5240 Ry au,       -176.7123 Debye
        Dipole field         -0.0576 Ry au, 

        Potential amp.        2.0477 Ry
        Total length         17.7855 bohr


     total cpu time spent up to now is     3109.3 secs

     total energy              =  -22143.86842825 Ry
     estimated scf accuracy    <       0.73688685 Ry

     iteration # 22     ecut=    40.00 Ry     beta= 0.40
     Davidson diagonalization with overlap

---- Real-time Memory Report at c_bands before calling an iterative solver
           521 MiB given to the printing process from OS
             0 MiB allocation reported by mallinfo(arena+hblkhd)
         88968 MiB available memory on the node where the printing process lives
------------------
     ethr =  2.52E-05,  avg # of iterations =  7.6

     negative rho (up, down):  3.058E-03 0.000E+00

     Adding external electric field

     Computed dipole along edir(1) : 
        Elec. dipole         -0.4344 Ry au,         -1.1042 Debye
        Ion. dipole          -0.4919 Ry au,         -1.2502 Debye
        Dipole              -69.3568 Ry au,       -176.2873 Debye
        Dipole field         -0.0574 Ry au, 

        Potential amp.        2.0428 Ry
        Total length         17.7855 bohr


     total cpu time spent up to now is     3188.1 secs

     total energy              =  -22143.90121293 Ry
     estimated scf accuracy    <       0.05052098 Ry

     iteration # 23     ecut=    40.00 Ry     beta= 0.40
     Davidson diagonalization with overlap

---- Real-time Memory Report at c_bands before calling an iterative solver
           521 MiB given to the printing process from OS
             0 MiB allocation reported by mallinfo(arena+hblkhd)
         88913 MiB available memory on the node where the printing process lives
------------------
     ethr =  5.26E-06,  avg # of iterations =  8.0

     negative rho (up, down):  3.070E-03 0.000E+00

     Adding external electric field

     Computed dipole along edir(1) : 
        Elec. dipole         -0.4345 Ry au,         -1.1043 Debye
        Ion. dipole          -0.4919 Ry au,         -1.2502 Debye
        Dipole              -69.2909 Ry au,       -176.1200 Debye
        Dipole field         -0.0574 Ry au, 

        Potential amp.        2.0408 Ry
        Total length         17.7855 bohr


     total cpu time spent up to now is     3265.8 secs

     total energy              =  -22143.90314573 Ry
     estimated scf accuracy    <       0.00626932 Ry

     iteration # 24     ecut=    40.00 Ry     beta= 0.40
     Davidson diagonalization with overlap

---- Real-time Memory Report at c_bands before calling an iterative solver
           521 MiB given to the printing process from OS
             0 MiB allocation reported by mallinfo(arena+hblkhd)
         88876 MiB available memory on the node where the printing process lives
------------------
     ethr =  6.53E-07,  avg # of iterations =  4.4

     negative rho (up, down):  3.066E-03 0.000E+00

     Adding external electric field

     Computed dipole along edir(1) : 
        Elec. dipole         -0.4345 Ry au,         -1.1043 Debye
        Ion. dipole          -0.4919 Ry au,         -1.2502 Debye
        Dipole              -69.3217 Ry au,       -176.1982 Debye
        Dipole field         -0.0574 Ry au, 

        Potential amp.        2.0417 Ry
        Total length         17.7855 bohr


     total cpu time spent up to now is     3340.2 secs

     total energy              =  -22143.90330620 Ry
     estimated scf accuracy    <       0.00086762 Ry

     iteration # 25     ecut=    40.00 Ry     beta= 0.40
     Davidson diagonalization with overlap

---- Real-time Memory Report at c_bands before calling an iterative solver
           521 MiB given to the printing process from OS
             0 MiB allocation reported by mallinfo(arena+hblkhd)
         88909 MiB available memory on the node where the printing process lives
------------------
     ethr =  9.04E-08,  avg # of iterations =  3.0

     negative rho (up, down):  3.068E-03 0.000E+00

     Adding external electric field

     Computed dipole along edir(1) : 
        Elec. dipole         -0.4345 Ry au,         -1.1044 Debye
        Ion. dipole          -0.4919 Ry au,         -1.2502 Debye
        Dipole              -69.2736 Ry au,       -176.0759 Debye
        Dipole field         -0.0574 Ry au, 

        Potential amp.        2.0403 Ry
        Total length         17.7855 bohr


     total cpu time spent up to now is     3413.4 secs

     total energy              =  -22143.90329620 Ry
     estimated scf accuracy    <       0.00111837 Ry

     iteration # 26     ecut=    40.00 Ry     beta= 0.40
     Davidson diagonalization with overlap

---- Real-time Memory Report at c_bands before calling an iterative solver
           521 MiB given to the printing process from OS
             0 MiB allocation reported by mallinfo(arena+hblkhd)
         88918 MiB available memory on the node where the printing process lives
------------------
     ethr =  9.04E-08,  avg # of iterations =  2.0

     negative rho (up, down):  3.065E-03 0.000E+00

     Adding external electric field

     Computed dipole along edir(1) : 
        Elec. dipole         -0.4345 Ry au,         -1.1043 Debye
        Ion. dipole          -0.4919 Ry au,         -1.2502 Debye
        Dipole              -69.2968 Ry au,       -176.1348 Debye
        Dipole field         -0.0574 Ry au, 

        Potential amp.        2.0410 Ry
        Total length         17.7855 bohr


     total cpu time spent up to now is     3484.3 secs

     total energy              =  -22143.90340693 Ry
     estimated scf accuracy    <       0.00064553 Ry

     iteration # 27     ecut=    40.00 Ry     beta= 0.40
     Davidson diagonalization with overlap

---- Real-time Memory Report at c_bands before calling an iterative solver
           521 MiB given to the printing process from OS
             0 MiB allocation reported by mallinfo(arena+hblkhd)
         88943 MiB available memory on the node where the printing process lives
------------------
     ethr =  6.72E-08,  avg # of iterations =  2.0

     negative rho (up, down):  3.063E-03 0.000E+00

     Adding external electric field

     Computed dipole along edir(1) : 
        Elec. dipole         -0.4345 Ry au,         -1.1043 Debye
        Ion. dipole          -0.4919 Ry au,         -1.2502 Debye
        Dipole              -69.2851 Ry au,       -176.1051 Debye
        Dipole field         -0.0574 Ry au, 

        Potential amp.        2.0407 Ry
        Total length         17.7855 bohr


     total cpu time spent up to now is     3555.1 secs

     total energy              =  -22143.90345523 Ry
     estimated scf accuracy    <       0.00005555 Ry

     iteration # 28     ecut=    40.00 Ry     beta= 0.40
     Davidson diagonalization with overlap

---- Real-time Memory Report at c_bands before calling an iterative solver
           521 MiB given to the printing process from OS
             0 MiB allocation reported by mallinfo(arena+hblkhd)
         88918 MiB available memory on the node where the printing process lives
------------------
     ethr =  5.79E-09,  avg # of iterations =  2.0

     negative rho (up, down):  3.063E-03 0.000E+00

     Adding external electric field

     Computed dipole along edir(1) : 
        Elec. dipole         -0.4345 Ry au,         -1.1043 Debye
        Ion. dipole          -0.4919 Ry au,         -1.2502 Debye
        Dipole              -69.2902 Ry au,       -176.1180 Debye
        Dipole field         -0.0574 Ry au, 

        Potential amp.        2.0408 Ry
        Total length         17.7855 bohr


     total cpu time spent up to now is     3626.5 secs

     total energy              =  -22143.90346103 Ry
     estimated scf accuracy    <       0.00002958 Ry

     iteration # 29     ecut=    40.00 Ry     beta= 0.40
     Davidson diagonalization with overlap

---- Real-time Memory Report at c_bands before calling an iterative solver
           521 MiB given to the printing process from OS
             0 MiB allocation reported by mallinfo(arena+hblkhd)
         88908 MiB available memory on the node where the printing process lives
------------------
     ethr =  3.08E-09,  avg # of iterations =  2.0

     negative rho (up, down):  3.064E-03 0.000E+00

     Adding external electric field

     Computed dipole along edir(1) : 
        Elec. dipole         -0.4345 Ry au,         -1.1043 Debye
        Ion. dipole          -0.4919 Ry au,         -1.2502 Debye
        Dipole              -69.2866 Ry au,       -176.1089 Debye
        Dipole field         -0.0574 Ry au, 

        Potential amp.        2.0407 Ry
        Total length         17.7855 bohr


     total cpu time spent up to now is     3697.3 secs

     total energy              =  -22143.90346275 Ry
     estimated scf accuracy    <       0.00000761 Ry

     iteration # 30     ecut=    40.00 Ry     beta= 0.40
     Davidson diagonalization with overlap

---- Real-time Memory Report at c_bands before calling an iterative solver
           521 MiB given to the printing process from OS
             0 MiB allocation reported by mallinfo(arena+hblkhd)
         88905 MiB available memory on the node where the printing process lives
------------------
     ethr =  7.92E-10,  avg # of iterations =  2.0

     negative rho (up, down):  3.064E-03 0.000E+00

     Adding external electric field

     Computed dipole along edir(1) : 
        Elec. dipole         -0.4345 Ry au,         -1.1043 Debye
        Ion. dipole          -0.4919 Ry au,         -1.2502 Debye
        Dipole              -69.2872 Ry au,       -176.1105 Debye
        Dipole field         -0.0574 Ry au, 

        Potential amp.        2.0407 Ry
        Total length         17.7855 bohr


     total cpu time spent up to now is     3768.4 secs

     total energy              =  -22143.90346186 Ry
     estimated scf accuracy    <       0.00000507 Ry

     iteration # 31     ecut=    40.00 Ry     beta= 0.40
     Davidson diagonalization with overlap

---- Real-time Memory Report at c_bands before calling an iterative solver
           521 MiB given to the printing process from OS
             0 MiB allocation reported by mallinfo(arena+hblkhd)
         88930 MiB available memory on the node where the printing process lives
------------------
     ethr =  5.28E-10,  avg # of iterations =  2.0

     negative rho (up, down):  3.064E-03 0.000E+00

     Adding external electric field

     Computed dipole along edir(1) : 
        Elec. dipole         -0.4345 Ry au,         -1.1043 Debye
        Ion. dipole          -0.4919 Ry au,         -1.2502 Debye
        Dipole              -69.2864 Ry au,       -176.1086 Debye
        Dipole field         -0.0574 Ry au, 

        Potential amp.        2.0407 Ry
        Total length         17.7855 bohr


     total cpu time spent up to now is     3839.4 secs

     total energy              =  -22143.90346092 Ry
     estimated scf accuracy    <       0.00005129 Ry

     iteration # 32     ecut=    40.00 Ry     beta= 0.40
     Davidson diagonalization with overlap

---- Real-time Memory Report at c_bands before calling an iterative solver
           521 MiB given to the printing process from OS
             0 MiB allocation reported by mallinfo(arena+hblkhd)
         88931 MiB available memory on the node where the printing process lives
------------------
     ethr =  5.28E-10,  avg # of iterations =  2.0

     negative rho (up, down):  3.065E-03 0.000E+00

     Adding external electric field

     Computed dipole along edir(1) : 
        Elec. dipole         -0.4345 Ry au,         -1.1043 Debye
        Ion. dipole          -0.4919 Ry au,         -1.2502 Debye
        Dipole              -69.2897 Ry au,       -176.1167 Debye
        Dipole field         -0.0574 Ry au, 

        Potential amp.        2.0408 Ry
        Total length         17.7855 bohr


     total cpu time spent up to now is     3910.5 secs

     End of self-consistent calculation

          k = 0.0000 0.0000 0.0000 ( 64855 PWs)   bands (ev):

  -129.3613-129.3602-129.3592-129.3581-129.1582-129.1557-129.1543-129.1540
  -129.1530-129.1529-129.1520-129.1520-127.5479-127.5466-127.5464-127.5451
  -127.5344-127.5333-127.5325-127.5323-127.5316-127.5315-127.5311-127.5306
  -127.4082-127.4070-127.4070-127.4058-127.2857-127.2852-127.2847-127.2846
  -127.2843-127.2843-127.2836-127.2833-126.7003-126.7002-126.6994-126.6994
  -126.6993-126.6992-126.6985-126.6983-125.8147-125.8138-125.8117-125.8108
   -83.6984 -83.6971 -83.6962 -83.6949 -83.6391 -83.6371 -83.6357 -83.6344
   -83.6334 -83.6331 -83.6321 -83.6320 -83.6311 -83.6310 -83.6239 -83.6234
   -83.6206 -83.6206 -83.6103 -83.6078 -83.4473 -83.4443 -83.4430 -83.4422
   -83.4409 -83.4346 -83.4344 -83.4217 -82.4540 -82.4526 -82.4522 -82.4513
   -82.4512 -82.4511 -82.4501 -82.4499 -81.7057 -81.7042 -81.7040 -81.7033
   -81.7025 -81.6978 -81.6963 -81.6961 -81.6952 -81.6926 -81.6911 -81.6910
   -81.6909 -81.6908 -81.6897 -81.6889 -81.6887 -81.6878 -81.6878 -81.6875
   -81.6867 -81.6859 -81.6849 -81.6842 -81.6837 -81.6833 -81.6832 -81.6829
   -81.6824 -81.6806 -81.6805 -81.6792 -81.6792 -81.6782 -81.6681 -81.6669
   -81.5701 -81.5603 -81.5590 -81.5590 -81.5578 -81.5578 -81.5577 -81.5548
   -81.5536 -81.5535 -81.5523 -81.5455 -81.4521 -81.4518 -81.4398 -81.4398
   -81.4395 -81.4394 -81.4365 -81.4361 -81.4354 -81.4354 -81.4351 -81.4350
   -81.4343 -81.4341 -81.4338 -81.4333 -81.4327 -81.4326 -81.4323 -81.4323
   -81.4316 -81.4313 -81.4275 -81.4271 -80.8981 -80.8980 -80.8857 -80.8857
   -80.8856 -80.8856 -80.8733 -80.8732 -80.8520 -80.8520 -80.8511 -80.8511
   -80.8510 -80.8509 -80.8501 -80.8499 -80.8334 -80.8334 -80.8325 -80.8325
   -80.8324 -80.8323 -80.8315 -80.8313 -80.0403 -80.0282 -80.0278 -80.0158
   -79.9987 -79.9977 -79.9957 -79.9947 -79.7727 -79.7717 -79.7695 -79.7685
   -11.7744 -11.2515 -11.2276 -10.9669 -10.9504 -10.8737 -10.8732 -10.8708
   -10.8057 -10.7784 -10.7784 -10.7284 -10.7032 -10.7032 -10.6678 -10.6678
   -10.6609 -10.6084 -10.5602 -10.5602 -10.4593 -10.4593 -10.4394 -10.4393
   -10.3965 -10.3694 -10.3689 -10.3682 -10.2895 -10.2828 -10.2681 -10.2680
   -10.2541 -10.1870 -10.1782 -10.1782 -10.1025 -10.0844  -9.9692  -9.9584
    -9.9496  -9.8999  -9.7267  -9.7249  -9.7248  -9.7181  -9.5953  -9.5259
    -9.5259  -9.5196  -9.5080  -9.5080  -9.4912  -9.4911  -9.4300  -9.4185
    -9.4145  -9.4015  -9.3989  -9.3987  -9.3266  -9.2563  -9.2563  -9.2337
    -9.2333  -9.2285  -9.1384  -9.1377  -9.1141  -9.1141  -9.0372  -9.0046
    -8.9979  -8.9978  -8.9301  -8.8875  -8.8875  -8.8753  -8.8753  -8.8686
    -8.8657  -8.8538  -8.8477  -8.8477  -8.8140  -8.8091  -8.8091  -8.8057
    -8.7674  -8.7670  -8.7146  -8.7145  -8.7041  -8.6923  -8.6869  -8.6868
    -8.6785  -8.6785  -8.6768  -8.6706  -8.6706  -8.6570  -8.6503  -8.5993
    -8.5992  -8.5985  -8.5688  -8.5578  -8.5578  -8.5344  -8.5344  -8.5242
    -8.5235  -8.5235  -8.4961  -8.4777  -8.4777  -8.4514  -8.4514  -8.4352
    -8.4352  -8.4156  -8.4073  -8.4029  -8.3867  -8.3867  -8.3816  -8.3550
    -8.3550  -8.3498  -8.3429  -8.3134  -8.3037  -8.3011  -8.3011  -8.2975
    -8.2775  -8.2759  -8.2664  -8.2648  -8.2648  -8.2644  -8.2381  -8.2207
    -8.2207  -8.2137  -8.2122  -8.2000  -8.1860  -8.1860  -8.1688  -8.1688
    -8.1484  -8.1484  -8.1433  -8.1406  -8.1406  -8.1382  -8.1363  -8.1358
    -8.1256  -8.1044  -8.1023  -8.1023  -8.0932  -8.0932  -8.0846  -8.0829
    -8.0792  -8.0602  -8.0530  -8.0530  -8.0309  -8.0309  -8.0126  -8.0110
    -7.9914  -7.9914  -7.9820  -7.9368  -7.9368  -7.9127  -7.9051  -7.8789
    -7.8717  -7.8678  -7.8601  -7.8396  -7.8101  -7.8086  -7.8021  -7.7614
    -7.7015  -7.7015  -7.6898  -7.6898  -7.6151  -7.6151  -7.6057  -7.6057
    -7.5801  -7.5801  -7.5686  -7.5675  -7.5665  -7.5653  -7.5490  -7.5490
    -7.5418  -7.5418  -7.5249  -7.5216  -7.4898  -7.4898  -7.4840  -7.4840
    -7.4815  -7.4393  -7.4392  -7.4391  -7.4228  -7.3902  -7.3723  -7.3548
    -7.3548  -7.3291  -7.3172  -7.2576  -7.2572  -7.2116  -7.1804  -7.1274
    -6.8805  -6.8805  -6.8433  -6.8344  -6.8253  -6.7601  -6.7600  -6.6865
    -6.6864  -6.5143  -6.5028  -6.5028  -6.4607  -6.4607  -6.4306  -6.4199
    -6.4062  -6.4030  -6.3468  -6.2249  -6.2249  -6.2237  -6.0029  -5.3829
    -5.3829  -5.0785  -4.9108  -4.8810  -4.8591  -4.8590  -4.0332  -4.0331
    -3.7782  -3.7394  -3.7282  -3.7281  -3.6652  -3.5839  -3.5376  -3.4805
    -3.4804  -3.3417  -3.2588  -2.4821  -2.2533  -2.1899  -2.1899  -2.1446
    -1.8958  -1.8958  -1.7918  -1.4673  -1.3950  -1.3270  -1.3270  -1.2871
    -1.2199  -1.2151  -1.1337  -0.6275  -0.6004  -0.3686  -0.2331  -0.2331
    -0.2290   0.0443   0.0443   0.1578   0.2494   0.2494   0.4042   0.4769
     0.5147   0.7418   0.7418   0.7921   0.9968   0.9968   1.0031   1.1148
     1.9828   2.0304   2.0507   2.0787   2.1326   2.1418   2.1419   2.2800
     2.2982   2.2982   2.3109   2.3109   2.6048   2.6048   2.7096   2.7251
     2.8473   2.8473   2.9602   3.1807   3.2600   3.2601   3.4995   3.4995
     3.6271   3.6272   3.7990   3.8750   3.8750   3.8778   3.9224   3.9739
     3.9739   4.0078   4.0453   4.1707   4.1750   4.2916   4.2917   4.3156
     4.3705   4.4040   4.4040   4.6853   4.7135   4.7135   4.7464   4.8730
     4.9020   5.0104   5.1037   5.1038   5.1314   5.1988   5.4016   5.4016
     5.4246   5.4246   5.4527   5.6921   5.7653   5.7879   5.9606   5.9694
     5.9695   6.0595   6.0774   6.0897   6.0898   6.1082   6.1277   6.4398

     occupation numbers 
     1.0000   1.0000   1.0000   1.0000   1.0000   1.0000   1.0000   1.0000
     1.0000   1.0000   1.0000   1.0000   1.0000   1.0000   1.0000   1.0000
     1.0000   1.0000   1.0000   1.0000   1.0000   1.0000   1.0000   1.0000
     1.0000   1.0000   1.0000   1.0000   1.0000   1.0000   1.0000   1.0000
     1.0000   1.0000   1.0000   1.0000   1.0000   1.0000   1.0000   1.0000
     1.0000   1.0000   1.0000   1.0000   1.0000   1.0000   1.0000   1.0000
     1.0000   1.0000   1.0000   1.0000   1.0000   1.0000   1.0000   1.0000
     1.0000   1.0000   1.0000   1.0000   1.0000   1.0000   1.0000   1.0000
     1.0000   1.0000   1.0000   1.0000   1.0000   1.0000   1.0000   1.0000
     1.0000   1.0000   1.0000   1.0000   1.0000   1.0000   1.0000   1.0000
     1.0000   1.0000   1.0000   1.0000   1.0000   1.0000   1.0000   1.0000
     1.0000   1.0000   1.0000   1.0000   1.0000   1.0000   1.0000   1.0000
     1.0000   1.0000   1.0000   1.0000   1.0000   1.0000   1.0000   1.0000
     1.0000   1.0000   1.0000   1.0000   1.0000   1.0000   1.0000   1.0000
     1.0000   1.0000   1.0000   1.0000   1.0000   1.0000   1.0000   1.0000
     1.0000   1.0000   1.0000   1.0000   1.0000   1.0000   1.0000   1.0000
     1.0000   1.0000   1.0000   1.0000   1.0000   1.0000   1.0000   1.0000
     1.0000   1.0000   1.0000   1.0000   1.0000   1.0000   1.0000   1.0000
     1.0000   1.0000   1.0000   1.0000   1.0000   1.0000   1.0000   1.0000
     1.0000   1.0000   1.0000   1.0000   1.0000   1.0000   1.0000   1.0000
     1.0000   1.0000   1.0000   1.0000   1.0000   1.0000   1.0000   1.0000
     1.0000   1.0000   1.0000   1.0000   1.0000   1.0000   1.0000   1.0000
     1.0000   1.0000   1.0000   1.0000   1.0000   1.0000   1.0000   1.0000
     1.0000   1.0000   1.0000   1.0000   1.0000   1.0000   1.0000   1.0000
     1.0000   1.0000   1.0000   1.0000   1.0000   1.0000   1.0000   1.0000
     1.0000   1.0000   1.0000   1.0000   1.0000   1.0000   1.0000   1.0000
     1.0000   1.0000   1.0000   1.0000   1.0000   1.0000   1.0000   1.0000
     1.0000   1.0000   1.0000   1.0000   1.0000   1.0000   1.0000   1.0000
     1.0000   1.0000   1.0000   1.0000   1.0000   1.0000   1.0000   1.0000
     1.0000   1.0000   1.0000   1.0000   1.0000   1.0000   1.0000   1.0000
     1.0000   1.0000   1.0000   1.0000   1.0000   1.0000   1.0000   1.0000
     1.0000   1.0000   1.0000   1.0000   1.0000   1.0000   1.0000   1.0000
     1.0000   1.0000   1.0000   1.0000   1.0000   1.0000   1.0000   1.0000
     1.0000   1.0000   1.0000   1.0000   1.0000   1.0000   1.0000   1.0000
     1.0000   1.0000   1.0000   1.0000   1.0000   1.0000   1.0000   1.0000
     1.0000   1.0000   1.0000   1.0000   1.0000   1.0000   1.0000   1.0000
     1.0000   1.0000   1.0000   1.0000   1.0000   1.0000   1.0000   1.0000
     1.0000   1.0000   1.0000   1.0000   1.0000   1.0000   1.0000   1.0000
     1.0000   1.0000   1.0000   1.0000   1.0000   1.0000   1.0000   1.0000
     1.0000   1.0000   1.0000   1.0000   1.0000   1.0000   1.0000   1.0000
     1.0000   1.0000   1.0000   1.0000   1.0000   1.0000   1.0000   1.0000
     1.0000   1.0000   1.0000   1.0000   1.0000   1.0000   1.0000   1.0000
     1.0000   1.0000   1.0000   1.0000   1.0000   1.0000   1.0000   1.0000
     1.0000   1.0000   1.0000   1.0000   1.0000   1.0000   1.0000   1.0000
     1.0000   1.0000   1.0000   1.0000   1.0000   1.0000   1.0000   1.0000
     1.0000   1.0000   1.0000   1.0000   1.0000   1.0000   1.0000   1.0000
     1.0000   1.0000   1.0000   1.0000   1.0000   1.0000   1.0000   1.0000
     1.0000   1.0000   1.0000   1.0000   1.0000   1.0000   1.0000   1.0000
     1.0000   1.0000   1.0000   1.0000   1.0000   1.0000   1.0000   1.0000
     1.0000   1.0000   1.0000   1.0000   1.0000   1.0000   1.0000   1.0000
     1.0000   1.0000   1.0000   1.0000   1.0000   1.0000   1.0000   1.0000
     1.0000   1.0000   1.0000   1.0000   1.0000   1.0000   1.0000   1.0000
     1.0000   1.0000   1.0000   1.0000   1.0000   1.0000   1.0000   1.0000
     1.0000   1.0000   1.0000   1.0000   1.0000   1.0000   1.0000   1.0000
     1.0000   1.0000   1.0000   1.0000   1.0000   1.0000   1.0000   1.0000
     1.0000   1.0000   1.0000   1.0000   1.0000   1.0000   1.0000   1.0000
     1.0000   1.0000   1.0000   1.0000   1.0000   1.0000   1.0000   1.0000
     1.0000   1.0000   1.0000   1.0000   1.0000   1.0000   1.0000   1.0000
     1.0000   1.0000   1.0000   1.0000   1.0000   1.0000   1.0000   1.0000
     1.0001   1.0001   1.0005   1.0390   1.0634   1.0813   1.0813   1.0827
     1.0561   1.0524   0.9477   0.0238   0.0163   0.0003   0.0000   0.0000
     0.0000   0.0000   0.0000   0.0000   0.0000   0.0000   0.0000   0.0000
     0.0000   0.0000   0.0000   0.0000   0.0000   0.0000   0.0000   0.0000
     0.0000   0.0000   0.0000   0.0000   0.0000   0.0000   0.0000   0.0000
     0.0000   0.0000   0.0000   0.0000   0.0000   0.0000   0.0000   0.0000
     0.0000   0.0000   0.0000   0.0000   0.0000   0.0000   0.0000   0.0000
     0.0000   0.0000   0.0000   0.0000   0.0000   0.0000   0.0000   0.0000
     0.0000   0.0000   0.0000   0.0000   0.0000   0.0000   0.0000   0.0000
     0.0000   0.0000   0.0000   0.0000   0.0000   0.0000   0.0000   0.0000
     0.0000   0.0000   0.0000   0.0000   0.0000   0.0000   0.0000   0.0000
     0.0000   0.0000   0.0000   0.0000   0.0000   0.0000   0.0000   0.0000
     0.0000   0.0000   0.0000   0.0000   0.0000   0.0000   0.0000   0.0000

          k = 0.0000 0.3849 0.0000 ( 64840 PWs)   bands (ev):

  -129.3613-129.3602-129.3592-129.3581-129.1582-129.1557-129.1543-129.1539
  -129.1534-129.1526-129.1521-129.1520-127.5479-127.5468-127.5462-127.5452
  -127.5344-127.5334-127.5324-127.5322-127.5319-127.5311-127.5311-127.5306
  -127.4082-127.4073-127.4067-127.4058-127.2857-127.2852-127.2850-127.2847
  -127.2843-127.2839-127.2837-127.2834-126.7001-126.7001-126.6998-126.6996
  -126.6989-126.6989-126.6986-126.6984-125.8147-125.8138-125.8117-125.8108
   -83.6984 -83.6972 -83.6961 -83.6949 -83.6390 -83.6357 -83.6357 -83.6343
   -83.6330 -83.6326 -83.6317 -83.6316 -83.6312 -83.6311 -83.6296 -83.6270
   -83.6177 -83.6142 -83.6117 -83.6095 -83.4457 -83.4443 -83.4431 -83.4421
   -83.4409 -83.4408 -83.4282 -83.4233 -82.4540 -82.4526 -82.4521 -82.4516
   -82.4513 -82.4507 -82.4502 -82.4499 -81.7056 -81.7045 -81.7037 -81.7026
   -81.7017 -81.6977 -81.6970 -81.6966 -81.6959 -81.6949 -81.6912 -81.6909
   -81.6898 -81.6896 -81.6888 -81.6887 -81.6883 -81.6875 -81.6874 -81.6868
   -81.6866 -81.6861 -81.6854 -81.6853 -81.6846 -81.6840 -81.6837 -81.6833
   -81.6830 -81.6828 -81.6825 -81.6798 -81.6745 -81.6730 -81.6697 -81.6685
   -81.5685 -81.5639 -81.5602 -81.5593 -81.5586 -81.5578 -81.5547 -81.5538
   -81.5533 -81.5524 -81.5517 -81.5471 -81.4505 -81.4501 -81.4459 -81.4456
   -81.4365 -81.4360 -81.4357 -81.4355 -81.4350 -81.4347 -81.4343 -81.4342
   -81.4337 -81.4336 -81.4333 -81.4332 -81.4331 -81.4327 -81.4323 -81.4319
   -81.4317 -81.4314 -81.4291 -81.4288 -80.8965 -80.8964 -80.8919 -80.8918
   -80.8795 -80.8794 -80.8750 -80.8749 -80.8519 -80.8519 -80.8515 -80.8514
   -80.8506 -80.8505 -80.8502 -80.8500 -80.8333 -80.8333 -80.8329 -80.8328
   -80.8320 -80.8319 -80.8317 -80.8314 -80.0388 -80.0339 -80.0221 -80.0173
   -79.9987 -79.9977 -79.9957 -79.9947 -79.7727 -79.7717 -79.7694 -79.7685
   -11.6152 -11.1984 -11.1570 -11.1527 -10.9611 -10.9400 -10.9197 -10.9158
   -10.8819 -10.8458 -10.8326 -10.7756 -10.7745 -10.6985 -10.6580 -10.6550
   -10.6494 -10.5914 -10.5842 -10.4799 -10.4310 -10.4280 -10.4145 -10.4024
   -10.4017 -10.3938 -10.3773 -10.3239 -10.3213 -10.2972 -10.2903 -10.2835
   -10.2565 -10.2409 -10.1514 -10.1420 -10.0919 -10.0909  -9.9094  -9.9091
    -9.8240  -9.8208  -9.7666  -9.7371  -9.7030  -9.6896  -9.6539  -9.5726
    -9.5304  -9.5082  -9.4962  -9.4800  -9.4473  -9.4325  -9.4306  -9.4191
    -9.4188  -9.4113  -9.4094  -9.4007  -9.3607  -9.3354  -9.2694  -9.2618
    -9.2433  -9.1520  -9.1120  -9.0861  -9.0842  -9.0649  -9.0323  -8.9905
    -8.9882  -8.9872  -8.9864  -8.9757  -8.9487  -8.9435  -8.9285  -8.9212
    -8.9009  -8.8876  -8.8745  -8.8437  -8.8430  -8.8405  -8.8216  -8.8120
    -8.8075  -8.7846  -8.7720  -8.7563  -8.7552  -8.7298  -8.7239  -8.7155
    -8.7042  -8.6901  -8.6769  -8.6650  -8.6471  -8.6385  -8.6266  -8.6256
    -8.6040  -8.5962  -8.5858  -8.5848  -8.5627  -8.5393  -8.5283  -8.5279
    -8.5028  -8.4993  -8.4958  -8.4740  -8.4644  -8.4482  -8.4344  -8.4237
    -8.4126  -8.4116  -8.4062  -8.3943  -8.3939  -8.3901  -8.3774  -8.3412
    -8.3333  -8.3319  -8.3260  -8.3207  -8.3013  -8.2989  -8.2833  -8.2704
    -8.2700  -8.2694  -8.2620  -8.2399  -8.2356  -8.2325  -8.2302  -8.2266
    -8.2068  -8.2003  -8.1942  -8.1875  -8.1809  -8.1807  -8.1783  -8.1765
    -8.1708  -8.1591  -8.1385  -8.1382  -8.1363  -8.1230  -8.1213  -8.1198
    -8.1004  -8.0998  -8.0965  -8.0950  -8.0888  -8.0800  -8.0705  -8.0632
    -8.0562  -8.0273  -8.0243  -8.0082  -8.0044  -7.9983  -7.9976  -7.9691
    -7.9621  -7.9617  -7.9521  -7.9339  -7.9270  -7.9207  -7.9181  -7.9136
    -7.8978  -7.8837  -7.8815  -7.8616  -7.8475  -7.8339  -7.8134  -7.7972
    -7.7611  -7.7284  -7.7093  -7.6960  -7.6686  -7.6229  -7.6220  -7.6095
    -7.6023  -7.5728  -7.5520  -7.5237  -7.5192  -7.5188  -7.5150  -7.5018
    -7.4863  -7.4665  -7.4651  -7.4646  -7.4634  -7.4572  -7.4423  -7.4376
    -7.4298  -7.4132  -7.4003  -7.3952  -7.3929  -7.3759  -7.3668  -7.3617
    -7.3504  -7.2671  -7.2654  -7.2540  -7.2204  -7.0829  -7.0244  -7.0187
    -6.9811  -6.9557  -6.8909  -6.8398  -6.7812  -6.7416  -6.7357  -6.6499
    -6.6052  -6.5822  -6.5481  -6.5113  -6.5044  -6.4798  -6.4147  -6.4097
    -6.3954  -6.3761  -6.3111  -6.2812  -6.2031  -6.1595  -6.0372  -5.8729
    -5.6168  -5.3086  -5.2902  -5.1818  -4.8410  -4.6305  -4.5885  -4.4768
    -4.2887  -4.0219  -3.7887  -3.7147  -3.6260  -3.5638  -3.2781  -3.2697
    -3.0206  -2.9834  -2.9028  -2.8402  -2.4069  -2.3079  -2.2514  -2.1386
    -1.8659  -1.8536  -1.3703  -1.2374  -1.0690  -1.0290  -0.9905  -0.9703
    -0.9687  -0.9602  -0.5537  -0.5326  -0.4742  -0.3166  -0.2154  -0.1835
    -0.0220  -0.0180   0.0835   0.2468   0.3220   0.5038   0.5796   0.6916
     0.7695   0.8599   0.9125   0.9665   0.9810   1.0207   1.1677   1.2134
     1.2656   1.2762   1.4279   1.4385   1.6473   1.7682   1.8073   1.8140
     2.0707   2.1296   2.1772   2.4327   2.4527   2.4825   2.5472   2.6589
     2.7290   2.8651   2.9352   3.0663   3.1404   3.1610   3.2274   3.2839
     3.3186   3.3230   3.3756   3.4506   3.5270   3.5516   3.6753   3.8118
     3.9139   3.9400   3.9997   4.0771   4.1069   4.1805   4.2447   4.3372
     4.3594   4.4344   4.5507   4.6750   4.6969   4.8581   4.8729   4.8737
     4.9131   5.0070   5.1709   5.2652   5.3038   5.3363   5.4292   5.5034
     5.5941   5.6043   5.6752   5.8335   5.8346   5.8362   5.9210   5.9484
     5.9788   6.1771   6.2486   6.2674   6.3380   6.3849   6.3965   6.4027

     occupation numbers 
     1.0000   1.0000   1.0000   1.0000   1.0000   1.0000   1.0000   1.0000
     1.0000   1.0000   1.0000   1.0000   1.0000   1.0000   1.0000   1.0000
     1.0000   1.0000   1.0000   1.0000   1.0000   1.0000   1.0000   1.0000
     1.0000   1.0000   1.0000   1.0000   1.0000   1.0000   1.0000   1.0000
     1.0000   1.0000   1.0000   1.0000   1.0000   1.0000   1.0000   1.0000
     1.0000   1.0000   1.0000   1.0000   1.0000   1.0000   1.0000   1.0000
     1.0000   1.0000   1.0000   1.0000   1.0000   1.0000   1.0000   1.0000
     1.0000   1.0000   1.0000   1.0000   1.0000   1.0000   1.0000   1.0000
     1.0000   1.0000   1.0000   1.0000   1.0000   1.0000   1.0000   1.0000
     1.0000   1.0000   1.0000   1.0000   1.0000   1.0000   1.0000   1.0000
     1.0000   1.0000   1.0000   1.0000   1.0000   1.0000   1.0000   1.0000
     1.0000   1.0000   1.0000   1.0000   1.0000   1.0000   1.0000   1.0000
     1.0000   1.0000   1.0000   1.0000   1.0000   1.0000   1.0000   1.0000
     1.0000   1.0000   1.0000   1.0000   1.0000   1.0000   1.0000   1.0000
     1.0000   1.0000   1.0000   1.0000   1.0000   1.0000   1.0000   1.0000
     1.0000   1.0000   1.0000   1.0000   1.0000   1.0000   1.0000   1.0000
     1.0000   1.0000   1.0000   1.0000   1.0000   1.0000   1.0000   1.0000
     1.0000   1.0000   1.0000   1.0000   1.0000   1.0000   1.0000   1.0000
     1.0000   1.0000   1.0000   1.0000   1.0000   1.0000   1.0000   1.0000
     1.0000   1.0000   1.0000   1.0000   1.0000   1.0000   1.0000   1.0000
     1.0000   1.0000   1.0000   1.0000   1.0000   1.0000   1.0000   1.0000
     1.0000   1.0000   1.0000   1.0000   1.0000   1.0000   1.0000   1.0000
     1.0000   1.0000   1.0000   1.0000   1.0000   1.0000   1.0000   1.0000
     1.0000   1.0000   1.0000   1.0000   1.0000   1.0000   1.0000   1.0000
     1.0000   1.0000   1.0000   1.0000   1.0000   1.0000   1.0000   1.0000
     1.0000   1.0000   1.0000   1.0000   1.0000   1.0000   1.0000   1.0000
     1.0000   1.0000   1.0000   1.0000   1.0000   1.0000   1.0000   1.0000
     1.0000   1.0000   1.0000   1.0000   1.0000   1.0000   1.0000   1.0000
     1.0000   1.0000   1.0000   1.0000   1.0000   1.0000   1.0000   1.0000
     1.0000   1.0000   1.0000   1.0000   1.0000   1.0000   1.0000   1.0000
     1.0000   1.0000   1.0000   1.0000   1.0000   1.0000   1.0000   1.0000
     1.0000   1.0000   1.0000   1.0000   1.0000   1.0000   1.0000   1.0000
     1.0000   1.0000   1.0000   1.0000   1.0000   1.0000   1.0000   1.0000
     1.0000   1.0000   1.0000   1.0000   1.0000   1.0000   1.0000   1.0000
     1.0000   1.0000   1.0000   1.0000   1.0000   1.0000   1.0000   1.0000
     1.0000   1.0000   1.0000   1.0000   1.0000   1.0000   1.0000   1.0000
     1.0000   1.0000   1.0000   1.0000   1.0000   1.0000   1.0000   1.0000
     1.0000   1.0000   1.0000   1.0000   1.0000   1.0000   1.0000   1.0000
     1.0000   1.0000   1.0000   1.0000   1.0000   1.0000   1.0000   1.0000
     1.0000   1.0000   1.0000   1.0000   1.0000   1.0000   1.0000   1.0000
     1.0000   1.0000   1.0000   1.0000   1.0000   1.0000   1.0000   1.0000
     1.0000   1.0000   1.0000   1.0000   1.0000   1.0000   1.0000   1.0000
     1.0000   1.0000   1.0000   1.0000   1.0000   1.0000   1.0000   1.0000
     1.0000   1.0000   1.0000   1.0000   1.0000   1.0000   1.0000   1.0000
     1.0000   1.0000   1.0000   1.0000   1.0000   1.0000   1.0000   1.0000
     1.0000   1.0000   1.0000   1.0000   1.0000   1.0000   1.0000   1.0000
     1.0000   1.0000   1.0000   1.0000   1.0000   1.0000   1.0000   1.0000
     1.0000   1.0000   1.0000   1.0000   1.0000   1.0000   1.0000   1.0000
     1.0000   1.0000   1.0000   1.0000   1.0000   1.0000   1.0000   1.0000
     1.0000   1.0000   1.0000   1.0000   1.0000   1.0000   1.0000   1.0000
     1.0000   1.0000   1.0000   1.0000   1.0000   1.0000   1.0000   1.0000
     1.0000   1.0000   1.0000   1.0000   1.0000   1.0000   1.0000   1.0000
     1.0000   1.0000   1.0000   1.0000   1.0000   1.0000   1.0000   1.0000
     1.0000   1.0000   1.0000   1.0000   1.0000   1.0000   1.0000   1.0000
     1.0000   1.0000   1.0000   1.0000   1.0000   1.0000   1.0000   1.0000
     1.0000   1.0000   1.0000   1.0000   1.0000   1.0000   1.0000   1.0000
     1.0000   1.0000   1.0000   1.0000   1.0000   1.0000   1.0000   1.0000
     1.0000   1.0000   1.0000   1.0000   1.0000   1.0000   1.0000   1.0000
     1.0000   1.0000   1.0000   1.0000   1.0000   1.0000   1.0000   1.0000
     1.0001   1.0002   1.0713   1.0673   0.8093   0.7062   0.6003   0.5445
     0.5403   0.5170   0.0082   0.0059   0.0022   0.0001   0.0000   0.0000
     0.0000   0.0000   0.0000   0.0000   0.0000   0.0000   0.0000   0.0000
     0.0000   0.0000   0.0000   0.0000   0.0000   0.0000   0.0000   0.0000
     0.0000   0.0000   0.0000   0.0000   0.0000   0.0000   0.0000   0.0000
     0.0000   0.0000   0.0000   0.0000   0.0000   0.0000   0.0000   0.0000
     0.0000   0.0000   0.0000   0.0000   0.0000   0.0000   0.0000   0.0000
     0.0000   0.0000   0.0000   0.0000   0.0000   0.0000   0.0000   0.0000
     0.0000   0.0000   0.0000   0.0000   0.0000   0.0000   0.0000   0.0000
     0.0000   0.0000   0.0000   0.0000   0.0000   0.0000   0.0000   0.0000
     0.0000   0.0000   0.0000   0.0000   0.0000   0.0000   0.0000   0.0000
     0.0000   0.0000   0.0000   0.0000   0.0000   0.0000   0.0000   0.0000
     0.0000   0.0000   0.0000   0.0000   0.0000   0.0000   0.0000   0.0000

          k = 0.3333 0.1925 0.0000 ( 64840 PWs)   bands (ev):

  -129.3613-129.3602-129.3592-129.3581-129.1582-129.1557-129.1543-129.1540
  -129.1530-129.1529-129.1520-129.1520-127.5479-127.5466-127.5464-127.5451
  -127.5344-127.5333-127.5325-127.5323-127.5316-127.5315-127.5311-127.5306
  -127.4082-127.4070-127.4070-127.4058-127.2857-127.2852-127.2847-127.2846
  -127.2843-127.2843-127.2836-127.2833-126.7003-126.7002-126.6994-126.6994
  -126.6993-126.6992-126.6985-126.6983-125.8147-125.8138-125.8117-125.8108
   -83.6984 -83.6971 -83.6962 -83.6949 -83.6391 -83.6371 -83.6357 -83.6344
   -83.6334 -83.6331 -83.6321 -83.6320 -83.6311 -83.6310 -83.6239 -83.6234
   -83.6206 -83.6206 -83.6103 -83.6078 -83.4473 -83.4443 -83.4430 -83.4422
   -83.4409 -83.4346 -83.4344 -83.4217 -82.4540 -82.4526 -82.4522 -82.4513
   -82.4512 -82.4511 -82.4501 -82.4499 -81.7057 -81.7042 -81.7040 -81.7033
   -81.7025 -81.6978 -81.6963 -81.6961 -81.6952 -81.6926 -81.6911 -81.6910
   -81.6909 -81.6908 -81.6897 -81.6889 -81.6887 -81.6878 -81.6878 -81.6875
   -81.6867 -81.6859 -81.6849 -81.6842 -81.6837 -81.6833 -81.6832 -81.6829
   -81.6824 -81.6806 -81.6805 -81.6792 -81.6792 -81.6782 -81.6681 -81.6669
   -81.5701 -81.5603 -81.5590 -81.5590 -81.5578 -81.5578 -81.5577 -81.5547
   -81.5536 -81.5535 -81.5523 -81.5455 -81.4521 -81.4518 -81.4398 -81.4398
   -81.4395 -81.4394 -81.4365 -81.4361 -81.4354 -81.4354 -81.4351 -81.4350
   -81.4343 -81.4341 -81.4338 -81.4333 -81.4327 -81.4326 -81.4323 -81.4323
   -81.4316 -81.4313 -81.4275 -81.4271 -80.8981 -80.8980 -80.8857 -80.8857
   -80.8856 -80.8856 -80.8733 -80.8732 -80.8520 -80.8520 -80.8511 -80.8511
   -80.8510 -80.8509 -80.8501 -80.8499 -80.8334 -80.8334 -80.8325 -80.8325
   -80.8324 -80.8323 -80.8315 -80.8313 -80.0403 -80.0282 -80.0278 -80.0158
   -79.9987 -79.9977 -79.9957 -79.9947 -79.7727 -79.7717 -79.7695 -79.7685
   -11.7431 -11.2477 -11.2265 -10.9661 -10.9504 -10.8762 -10.8759 -10.8711
   -10.8057 -10.7771 -10.7771 -10.7033 -10.7032 -10.6911 -10.6679 -10.6679
   -10.6611 -10.5999 -10.5588 -10.5588 -10.4586 -10.4586 -10.4395 -10.4395
   -10.3959 -10.3694 -10.3689 -10.3682 -10.2895 -10.2827 -10.2700 -10.2699
   -10.2542 -10.1932 -10.1932 -10.1869 -10.1024 -10.1001 -10.0825  -9.9455
    -9.9416  -9.8999  -9.7191  -9.7190  -9.7155  -9.6809  -9.6509  -9.5198
    -9.5196  -9.5183  -9.5165  -9.5102  -9.5102  -9.4894  -9.4893  -9.4073
    -9.4028  -9.3996  -9.3987  -9.3983  -9.3259  -9.3113  -9.3113  -9.2322
    -9.2274  -9.2225  -9.1567  -9.1561  -9.0469  -9.0460  -9.0456  -9.0436
    -9.0238  -9.0067  -8.9555  -8.8933  -8.8857  -8.8806  -8.8805  -8.8755
    -8.8728  -8.8728  -8.8369  -8.8369  -8.8347  -8.8337  -8.8039  -8.8039
    -8.7924  -8.7794  -8.7790  -8.7437  -8.7437  -8.7125  -8.7125  -8.6903
    -8.6805  -8.6805  -8.6711  -8.6711  -8.6676  -8.6536  -8.6408  -8.6400
    -8.6228  -8.6226  -8.6225  -8.5734  -8.5734  -8.5372  -8.5372  -8.5238
    -8.5234  -8.5234  -8.4953  -8.4750  -8.4750  -8.4532  -8.4531  -8.4302
    -8.4302  -8.4252  -8.4089  -8.3951  -8.3951  -8.3846  -8.3793  -8.3793
    -8.3686  -8.3462  -8.3255  -8.3237  -8.3237  -8.3147  -8.3098  -8.2983
    -8.2767  -8.2701  -8.2701  -8.2689  -8.2427  -8.2359  -8.2344  -8.2344
    -8.2184  -8.2093  -8.2038  -8.1712  -8.1712  -8.1577  -8.1577  -8.1518
    -8.1474  -8.1474  -8.1453  -8.1453  -8.1357  -8.1234  -8.1233  -8.1136
    -8.1092  -8.1092  -8.1083  -8.0839  -8.0797  -8.0792  -8.0791  -8.0693
    -8.0616  -8.0497  -8.0497  -8.0370  -8.0125  -8.0082  -7.9907  -7.9907
    -7.9837  -7.9837  -7.9640  -7.9093  -7.8924  -7.8748  -7.8738  -7.8738
    -7.8600  -7.8591  -7.8573  -7.8125  -7.8085  -7.8074  -7.7617  -7.7020
    -7.6921  -7.6920  -7.6842  -7.6842  -7.6708  -7.6583  -7.6583  -7.6208
    -7.6207  -7.5794  -7.5794  -7.5789  -7.5741  -7.5426  -7.5404  -7.5404
    -7.5228  -7.4953  -7.4953  -7.4941  -7.4745  -7.4745  -7.4656  -7.4656
    -7.4521  -7.4276  -7.4010  -7.3997  -7.3510  -7.3510  -7.3393  -7.3393
    -7.3295  -7.3175  -7.2625  -7.2619  -7.2451  -7.2353  -7.1950  -6.9250
    -6.8348  -6.8199  -6.7612  -6.7573  -6.7573  -6.7469  -6.7468  -6.6333
    -6.6332  -6.5207  -6.5077  -6.5076  -6.5025  -6.5024  -6.4999  -6.4199
    -6.4157  -6.4026  -6.3479  -6.2245  -5.9726  -5.9726  -5.8923  -5.8923
    -5.3694  -5.3694  -5.3098  -5.1076  -5.0994  -4.8316  -4.7297  -4.4195
    -4.4195  -3.7966  -3.7966  -3.7332  -3.7279  -3.7242  -3.7135  -3.4978
    -3.0508  -2.9031  -2.5583  -2.3327  -2.3327  -2.1187  -2.1187  -2.1159
    -2.1159  -1.9502  -1.8531  -1.7635  -1.7326  -1.1556  -1.0322  -0.9009
    -0.8024  -0.6369  -0.5713  -0.5713  -0.3590   0.0094   0.0094   0.1134
     0.1696   0.1879   0.1879   0.2581   0.3945   0.3946   0.7555   0.7555
     0.7691   0.7781   0.8180   0.9028   0.9887   0.9887   1.0201   1.2228
     1.4484   1.6251   1.6251   1.8226   1.8226   1.8308   1.9335   1.9895
     1.9896   2.0397   2.1265   2.1265   2.1855   2.2776   2.2777   2.3782
     2.3782   2.6836   2.8226   2.8980   2.9038   2.9109   3.0595   3.3301
[...]
     atom   45 type  1   force =     0.10954839    0.02960719    0.00789217
     atom   46 type  1   force =    -1.98517277   -1.17888618    0.02511397
     atom   47 type  1   force =     0.04745498   -0.05757573   -0.02791358
     atom   48 type  1   force =    -1.92471233   -1.32175691    0.07152540
     The core correction contribution to forces
     atom    1 type  1   force =     0.00000000    0.00000000    0.00000000
     atom    2 type  1   force =     0.00000000    0.00000000    0.00000000
     atom    3 type  1   force =     0.00000000    0.00000000    0.00000000
     atom    4 type  1   force =     0.00000000    0.00000000    0.00000000
     atom    5 type  1   force =     0.00000000    0.00000000    0.00000000
     atom    6 type  1   force =     0.00000000    0.00000000    0.00000000
     atom    7 type  1   force =     0.00000000    0.00000000    0.00000000
     atom    8 type  1   force =     0.00000000    0.00000000    0.00000000
     atom    9 type  1   force =     0.00000000    0.00000000    0.00000000
     atom   10 type  1   force =     0.00000000    0.00000000    0.00000000
     atom   11 type  1   force =     0.00000000    0.00000000    0.00000000
     atom   12 type  1   force =     0.00000000    0.00000000    0.00000000
     atom   13 type  1   force =     0.00000000    0.00000000    0.00000000
     atom   14 type  1   force =     0.00000000    0.00000000    0.00000000
     atom   15 type  1   force =     0.00000000    0.00000000    0.00000000
     atom   16 type  1   force =     0.00000000    0.00000000    0.00000000
     atom   17 type  1   force =     0.00000000    0.00000000    0.00000000
     atom   18 type  1   force =     0.00000000    0.00000000    0.00000000
     atom   19 type  1   force =     0.00000000    0.00000000    0.00000000
     atom   20 type  1   force =     0.00000000    0.00000000    0.00000000
     atom   21 type  1   force =     0.00000000    0.00000000    0.00000000
     atom   22 type  1   force =     0.00000000    0.00000000    0.00000000
     atom   23 type  1   force =     0.00000000    0.00000000    0.00000000
     atom   24 type  1   force =     0.00000000    0.00000000    0.00000000
     atom   25 type  1   force =     0.00000000    0.00000000    0.00000000
     atom   26 type  1   force =     0.00000000    0.00000000    0.00000000
     atom   27 type  1   force =     0.00000000    0.00000000    0.00000000
     atom   28 type  1   force =     0.00000000    0.00000000    0.00000000
     atom   29 type  1   force =     0.00000000    0.00000000    0.00000000
     atom   30 type  1   force =     0.00000000    0.00000000    0.00000000
     atom   31 type  1   force =     0.00000000    0.00000000    0.00000000
     atom   32 type  1   force =     0.00000000    0.00000000    0.00000000
     atom   33 type  1   force =     0.00000000    0.00000000    0.00000000
     atom   34 type  1   force =     0.00000000    0.00000000    0.00000000
     atom   35 type  1   force =     0.00000000    0.00000000    0.00000000
     atom   36 type  1   force =     0.00000000    0.00000000    0.00000000
     atom   37 type  1   force =     0.00000000    0.00000000    0.00000000
     atom   38 type  1   force =     0.00000000    0.00000000    0.00000000
     atom   39 type  1   force =     0.00000000    0.00000000    0.00000000
     atom   40 type  1   force =     0.00000000    0.00000000    0.00000000
     atom   41 type  1   force =     0.00000000    0.00000000    0.00000000
     atom   42 type  1   force =     0.00000000    0.00000000    0.00000000
     atom   43 type  1   force =     0.00000000    0.00000000    0.00000000
     atom   44 type  1   force =     0.00000000    0.00000000    0.00000000
     atom   45 type  1   force =     0.00000000    0.00000000    0.00000000
     atom   46 type  1   force =     0.00000000    0.00000000    0.00000000
     atom   47 type  1   force =     0.00000000    0.00000000    0.00000000
     atom   48 type  1   force =     0.00000000    0.00000000    0.00000000
     The Hubbard contrib.    to forces
     atom    1 type  1   force =     0.00000000    0.00000000    0.00000000
     atom    2 type  1   force =     0.00000000    0.00000000    0.00000000
     atom    3 type  1   force =     0.00000000    0.00000000    0.00000000
     atom    4 type  1   force =     0.00000000    0.00000000    0.00000000
     atom    5 type  1   force =     0.00000000    0.00000000    0.00000000
     atom    6 type  1   force =     0.00000000    0.00000000    0.00000000
     atom    7 type  1   force =     0.00000000    0.00000000    0.00000000
     atom    8 type  1   force =     0.00000000    0.00000000    0.00000000
     atom    9 type  1   force =     0.00000000    0.00000000    0.00000000
     atom   10 type  1   force =     0.00000000    0.00000000    0.00000000
     atom   11 type  1   force =     0.00000000    0.00000000    0.00000000
     atom   12 type  1   force =     0.00000000    0.00000000    0.00000000
     atom   13 type  1   force =     0.00000000    0.00000000    0.00000000
     atom   14 type  1   force =     0.00000000    0.00000000    0.00000000
     atom   15 type  1   force =     0.00000000    0.00000000    0.00000000
     atom   16 type  1   force =     0.00000000    0.00000000    0.00000000
     atom   17 type  1   force =     0.00000000    0.00000000    0.00000000
     atom   18 type  1   force =     0.00000000    0.00000000    0.00000000
     atom   19 type  1   force =     0.00000000    0.00000000    0.00000000
     atom   20 type  1   force =     0.00000000    0.00000000    0.00000000
     atom   21 type  1   force =     0.00000000    0.00000000    0.00000000
     atom   22 type  1   force =     0.00000000    0.00000000    0.00000000
     atom   23 type  1   force =     0.00000000    0.00000000    0.00000000
     atom   24 type  1   force =     0.00000000    0.00000000    0.00000000
     atom   25 type  1   force =     0.00000000    0.00000000    0.00000000
     atom   26 type  1   force =     0.00000000    0.00000000    0.00000000
     atom   27 type  1   force =     0.00000000    0.00000000    0.00000000
     atom   28 type  1   force =     0.00000000    0.00000000    0.00000000
     atom   29 type  1   force =     0.00000000    0.00000000    0.00000000
     atom   30 type  1   force =     0.00000000    0.00000000    0.00000000
     atom   31 type  1   force =     0.00000000    0.00000000    0.00000000
     atom   32 type  1   force =     0.00000000    0.00000000    0.00000000
     atom   33 type  1   force =     0.00000000    0.00000000    0.00000000
     atom   34 type  1   force =     0.00000000    0.00000000    0.00000000
     atom   35 type  1   force =     0.00000000    0.00000000    0.00000000
     atom   36 type  1   force =     0.00000000    0.00000000    0.00000000
     atom   37 type  1   force =     0.00000000    0.00000000    0.00000000
     atom   38 type  1   force =     0.00000000    0.00000000    0.00000000
     atom   39 type  1   force =     0.00000000    0.00000000    0.00000000
     atom   40 type  1   force =     0.00000000    0.00000000    0.00000000
     atom   41 type  1   force =     0.00000000    0.00000000    0.00000000
     atom   42 type  1   force =     0.00000000    0.00000000    0.00000000
     atom   43 type  1   force =     0.00000000    0.00000000    0.00000000
     atom   44 type  1   force =     0.00000000    0.00000000    0.00000000
     atom   45 type  1   force =     0.00000000    0.00000000    0.00000000
     atom   46 type  1   force =     0.00000000    0.00000000    0.00000000
     atom   47 type  1   force =     0.00000000    0.00000000    0.00000000
     atom   48 type  1   force =     0.00000000    0.00000000    0.00000000
     The SCF correction term to forces
     atom    1 type  1   force =     0.00000000    0.00000000   -0.00000000
     atom    2 type  1   force =    -0.00000000    0.00000000   -0.00000000
     atom    3 type  1   force =     0.00014136    0.00026442    0.00125037
     atom    4 type  1   force =     0.00038250    0.00098781    0.00081296
     atom    5 type  1   force =    -0.00000000    0.00000000   -0.00000000
     atom    6 type  1   force =     0.00000000    0.00000000   -0.00000000
     atom    7 type  1   force =    -0.00061213    0.00089836    0.00081947
     atom    8 type  1   force =     0.00122898    0.00063559    0.00047283
     atom    9 type  1   force =    -0.00000000   -0.00000000   -0.00000000
     atom   10 type  1   force =     0.00000000   -0.00000000   -0.00000000
     atom   11 type  1   force =    -0.00020619   -0.00029666    0.00047923
     atom   12 type  1   force =     0.00090081   -0.00025950    0.00093457
     atom   13 type  1   force =     0.00000000   -0.00000000   -0.00000000
     atom   14 type  1   force =    -0.00000000    0.00000000   -0.00000000
     atom   15 type  1   force =     0.00051509   -0.00094734    0.00093108
     atom   16 type  1   force =     0.00004974    0.00011741    0.00125554
     atom   17 type  1   force =     0.00000000    0.00000000   -0.00000000
     atom   18 type  1   force =    -0.00000000    0.00000000   -0.00000000
     atom   19 type  1   force =     0.00073171    0.00021393    0.00083397
     atom   20 type  1   force =    -0.00107494    0.00045578    0.00128132
     atom   21 type  1   force =     0.00000000    0.00000000   -0.00000000
     atom   22 type  1   force =    -0.00000000    0.00000000   -0.00000000
     atom   23 type  1   force =     0.00039926    0.00052968    0.00081910
     atom   24 type  1   force =    -0.00078939    0.00034383    0.00061840
     atom   25 type  1   force =    -0.00000000   -0.00000000   -0.00000000
     atom   26 type  1   force =    -0.00000000   -0.00000000   -0.00000000
     atom   27 type  1   force =    -0.00044454   -0.00005814    0.00078378
     atom   28 type  1   force =    -0.00001942   -0.00106203    0.00069652
     atom   29 type  1   force =    -0.00000000   -0.00000000   -0.00000000
     atom   30 type  1   force =    -0.00000000   -0.00000000   -0.00000000
     atom   31 type  1   force =    -0.00012715   -0.00036584    0.00079438
     atom   32 type  1   force =    -0.00029747   -0.00100928    0.00139582
     atom   33 type  1   force =     0.00098809   -0.00010024    0.00009910
     atom   34 type  1   force =    -0.00134185    0.00055320    0.00038502
     atom   35 type  1   force =     0.00018821    0.00099690    0.00015051
     atom   36 type  1   force =    -0.00060172    0.00065332    0.00016378
     atom   37 type  1   force =    -0.00064560    0.00025863    0.00040693
     atom   38 type  1   force =     0.00032420   -0.00112552    0.00021769
     atom   39 type  1   force =     0.00011502   -0.00078007    0.00036204
     atom   40 type  1   force =    -0.00040774   -0.00124655    0.00042781
     atom   41 type  1   force =    -0.00006177    0.00034357    0.00022949
     atom   42 type  1   force =    -0.00011510    0.00019315    0.00046204
     atom   43 type  1   force =     0.00084118    0.00043878    0.00008479
     atom   44 type  1   force =    -0.00095680    0.00126957    0.00040231
     atom   45 type  1   force =     0.00003359   -0.00034508    0.00029466
     atom   46 type  1   force =    -0.00021873   -0.00037310    0.00037065
     atom   47 type  1   force =    -0.00083273   -0.00044289    0.00043008
     atom   48 type  1   force =     0.00066361   -0.00145892    0.00041339

     DFT-D3 dispersion contribution to forces:
     atom    1 type  1   force =     0.00000071   -0.00000040    0.00268593
     atom    2 type  1   force =    -0.00000067   -0.00000109    0.00268009
     atom    3 type  1   force =    -0.00000065   -0.00000074   -0.00268389
     atom    4 type  1   force =     0.00000095    0.00000683   -0.00268239
     atom    5 type  1   force =     0.00000107    0.00000042    0.00268313
     atom    6 type  1   force =    -0.00000103    0.00000020    0.00268247
     atom    7 type  1   force =    -0.00000492    0.00000459   -0.00268704
     atom    8 type  1   force =     0.00000532    0.00000761   -0.00268673
     atom    9 type  1   force =     0.00000054    0.00000113    0.00268254
     atom   10 type  1   force =    -0.00000057    0.00000042    0.00267875
     atom   11 type  1   force =    -0.00000656   -0.00000351   -0.00268815
     atom   12 type  1   force =     0.00000616   -0.00000238   -0.00268508
     atom   13 type  1   force =     0.00000011    0.00000029    0.00268563
     atom   14 type  1   force =    -0.00000016   -0.00000097    0.00267668
     atom   15 type  1   force =    -0.00000231   -0.00000864   -0.00268429
     atom   16 type  1   force =     0.00000224   -0.00000368   -0.00268083
     atom   17 type  1   force =    -0.00000007   -0.00000024    0.00268555
     atom   18 type  1   force =     0.00000004   -0.00000131    0.00268044
     atom   19 type  1   force =    -0.00000057    0.00000123   -0.00268192
     atom   20 type  1   force =     0.00000031    0.00000468   -0.00268413
     atom   21 type  1   force =     0.00000041    0.00000061    0.00268355
     atom   22 type  1   force =    -0.00000041    0.00000002    0.00268189
     atom   23 type  1   force =     0.00000114    0.00000350   -0.00268485
     atom   24 type  1   force =    -0.00000149    0.00000860   -0.00268967
     atom   25 type  1   force =     0.00000087    0.00000077    0.00267924
     atom   26 type  1   force =    -0.00000085    0.00000088    0.00268223
     atom   27 type  1   force =    -0.00000252   -0.00000287   -0.00268375
     atom   28 type  1   force =     0.00000289   -0.00000318   -0.00268974
     atom   29 type  1   force =     0.00000050   -0.00000012    0.00268114
     atom   30 type  1   force =    -0.00000046   -0.00000069    0.00268091
     atom   31 type  1   force =    -0.00000445   -0.00000544   -0.00268124
     atom   32 type  1   force =     0.00000444   -0.00000671   -0.00268420
     atom   33 type  1   force =    -0.00000383   -0.00000423   -0.00000304
     atom   34 type  1   force =     0.00000394    0.00000896    0.00000234
     atom   35 type  1   force =    -0.00000882    0.00000568    0.00000036
     atom   36 type  1   force =     0.00000887    0.00001334    0.00000525
     atom   37 type  1   force =    -0.00001124   -0.00000455    0.00000517
     atom   38 type  1   force =     0.00001119   -0.00000048    0.00000709
     atom   39 type  1   force =    -0.00000591   -0.00001412    0.00000230
     atom   40 type  1   force =     0.00000606   -0.00000443    0.00000395
     atom   41 type  1   force =     0.00000583    0.00000415   -0.00000121
     atom   42 type  1   force =    -0.00000597    0.00000051    0.00000112
     atom   43 type  1   force =     0.00000864    0.00001027    0.00000016
     atom   44 type  1   force =    -0.00000876    0.00000893    0.00000539
     atom   45 type  1   force =     0.00000372    0.00000108    0.00000340
     atom   46 type  1   force =    -0.00000360   -0.00000602    0.00000938
     atom   47 type  1   force =     0.00000105   -0.00000459    0.00000177
     atom   48 type  1   force =    -0.00000117   -0.00001429    0.00000433

     Total force =    29.121389     Total SCF correction =     0.006646

     DFT-D3 dispersion Force =     0.015180

     Writing all to output data dir ./tmp/Zn002_3layer_relax.save/ :
     XML data file, charge density, pseudopotentials, collected wavefunctions

     init_run     :     23.02s CPU     23.38s WALL (       1 calls)
     electrons    :   3866.32s CPU   3887.11s WALL (       1 calls)
     forces       :     16.53s CPU     16.71s WALL (       1 calls)
     force_dftd3  :      0.07s CPU      0.07s WALL (       1 calls)

     Called by init_run:
     wfcinit      :     21.50s CPU     21.78s WALL (       1 calls)
     wfcinit:atom :      0.04s CPU      0.07s WALL (       5 calls)
     wfcinit:wfcr :     21.05s CPU     21.24s WALL (       5 calls)
     potinit      :      0.40s CPU      0.42s WALL (       1 calls)
     hinit0       :      0.37s CPU      0.38s WALL (       1 calls)

     Called by electrons:
     c_bands      :   3685.72s CPU   3703.43s WALL (      32 calls)
     sum_band     :    168.68s CPU    170.68s WALL (      32 calls)
     v_of_rho     :      2.78s CPU      2.95s WALL (      33 calls)
     v_h          :      0.13s CPU      0.17s WALL (      33 calls)
     v_xc         :      2.57s CPU      2.70s WALL (      33 calls)
     newd         :      8.95s CPU      9.79s WALL (      33 calls)
     mix_rho      :      0.42s CPU      0.44s WALL (      32 calls)
     energy_dftd3 :      0.03s CPU      0.03s WALL (       1 calls)

     Called by c_bands:
     init_us_2    :      6.50s CPU      6.56s WALL (     330 calls)
     cegterg      :   3672.51s CPU   3690.06s WALL (     165 calls)

     Called by sum_band:
     sum_band:wei :      0.04s CPU      0.04s WALL (      32 calls)
     sum_band:loo :    161.13s CPU    161.84s WALL (      32 calls)
     sum_band:buf :      1.62s CPU      1.64s WALL (     160 calls)
     sum_band:ini :      3.15s CPU      3.17s WALL (     160 calls)
     sum_band:cal :    116.80s CPU    117.14s WALL (     160 calls)
     sum_band:bec :      0.85s CPU      0.86s WALL (     160 calls)
     addusdens    :      7.25s CPU      8.48s WALL (      32 calls)
                                        0.00s GPU  (      32 calls)
     addusd:skk   :      0.39s CPU      0.42s WALL (      32 calls)
                                        0.00s GPU  (      32 calls)

     Called by *egterg:
     cdiaghg      :    468.59s CPU    470.28s WALL (    1198 calls)
     cegterg:over :    518.84s CPU    520.43s WALL (    1033 calls)
     cegterg:upda :    329.00s CPU    330.83s WALL (    1033 calls)
     cegterg:last :    942.08s CPU    944.59s WALL (     487 calls)
     cdiaghg:chol :     32.30s CPU     32.40s WALL (    1198 calls)
     cdiaghg:inve :      4.55s CPU      4.56s WALL (    1198 calls)
     cdiaghg:para :    117.63s CPU    118.43s WALL (    2396 calls)
     h_psi        :    961.07s CPU    967.22s WALL (    1203 calls)
     s_psi        :    361.94s CPU    362.92s WALL (    1203 calls)
     g_psi        :      2.76s CPU      2.78s WALL (    1033 calls)

     Called by h_psi:
     h_psi:calbec :    370.61s CPU    371.76s WALL (    1203 calls)
     vloc_psi     :    223.34s CPU    225.28s WALL (    1203 calls)
     add_vuspsi   :    362.52s CPU    363.56s WALL (    1203 calls)

     General routines
     calbec       :    501.94s CPU    503.48s WALL (    1383 calls)
     fft          :      2.23s CPU      2.46s WALL (     429 calls)
     ffts         :      0.37s CPU      0.41s WALL (      65 calls)
     fftw         :    211.62s CPU    213.34s WALL (  673856 calls)
     interpolate  :      0.44s CPU      0.49s WALL (      33 calls)

     Parallel routines

     PWSCF        :      1h 5m CPU      1h 5m WALL


   This run was terminated on:  18:54:58   5Apr2025            

=------------------------------------------------------------------------------=
   JOB DONE.
=------------------------------------------------------------------------------=
Note: The following floating-point exceptions are signalling: IEEE_DENORMAL
Note: The following floating-point exceptions are signalling: IEEE_DENORMAL
Note: The following floating-point exceptions are signalling: IEEE_DENORMAL
Note: The following floating-point exceptions are signalling: IEEE_DENORMAL
Note: The following floating-point exceptions are signalling: IEEE_DENORMAL
Note: The following floating-point exceptions are signalling: IEEE_DENORMAL
Note: The following floating-point exceptions are signalling: IEEE_DENORMAL
Note: The following floating-point exceptions are signalling: IEEE_DENORMAL
Note: The following floating-point exceptions are signalling: IEEE_DENORMAL
Note: The following floating-point exceptions are signalling: IEEE_DENORMAL
Note: The following floating-point exceptions are signalling: IEEE_DENORMAL
Note: The following floating-point exceptions are signalling: IEEE_DENORMAL
