--------------------------------------------------------------------------
By default, for Open MPI 4.0 and later, infiniband ports on a device
are not used by default.  The intent is to use UCX for these devices.
You can override this policy by setting the btl_openib_allow_ib MCA parameter
to true.

  Local host:              psid01
  Local adapter:           mlx5_0
  Local port:              1

--------------------------------------------------------------------------
--------------------------------------------------------------------------
WARNING: There was an error initializing an OpenFabrics device.

  Local host:   psid01
  Local device: mlx5_0
--------------------------------------------------------------------------

     Program PWSCF v.7.3.1 starts on 13Apr2025 at  0:57: 7 

     This program is part of the open-source Quantum ESPRESSO suite
     for quantum simulation of materials; please cite
         "P. Giannozzi et al., J. Phys.:Condens. Matter 21 395502 (2009);
         "P. Giannozzi et al., J. Phys.:Condens. Matter 29 465901 (2017);
         "P. Giannozzi et al., J. Chem. Phys. 152 154105 (2020);
          URL http://www.quantum-espresso.org", 
     in publications or presentations arising from this work. More details at
     http://www.quantum-espresso.org/quote

     Parallel version (MPI), running on    33 processors

     MPI processes distributed on     1 nodes
     21844 MiB available memory on the printing compute node when the environment starts

     Waiting for input...
     Reading input from standard input
Warning: card &CELL ignored
Warning: card   CELL_DOFREE = 'ALL' ignored
Warning: card / ignored

     Current dimensions of program PWSCF are:
     Max number of different atomic species (ntypx) = 10
     Max number of k-points (npk) =  40000
     Max angular momentum in pseudopotentials (lmaxx) =  4
     file C.pbe-n-kjpaw_psl.1.0.0.UPF: wavefunction(s)  2S 2P renormalized

     R & G space division:  proc/nbgrp/npool/nimage =      33
     Subspace diagonalization in iterative solution of the eigenvalue problem:
     one sub-group per band group will be used
     custom distributed-memory algorithm (size of sub-group:  5*  5 procs)


     Parallelization info
     --------------------
     sticks:   dense  smooth     PW     G-vecs:    dense   smooth      PW
     Min         270     154     42                40385    17444    2529
     Max         271     155     43                40396    17453    2536
     Sum        8941    5109   1411              1332973   575857   83601

     Using Slab Decomposition



     bravais-lattice index     =            0
     lattice parameter (alat)  =      20.9009  a.u.
     unit-cell volume          =   16846.7507 (a.u.)^3
     number of atoms/cell      =           62
     number of atomic types    =            4
     number of electrons       =       999.00
     number of Kohn-Sham states=          600
     kinetic-energy cutoff     =      40.0000  Ry
     charge density cutoff     =     280.0000  Ry
     scf convergence threshold =      1.0E-06
     mixing beta               =       0.4000
     number of iterations used =            8  plain     mixing
     energy convergence thresh.=      5.0E-05
     force convergence thresh. =      1.0E-03
     Exchange-correlation= PBE
                           (   1   4   3   4   0   0   0)
     nstep                     =          300


     celldm(1)=  20.900943  celldm(2)=   0.000000  celldm(3)=   0.000000
     celldm(4)=   0.000000  celldm(5)=   0.000000  celldm(6)=   0.000000

     crystal axes: (cart. coord. in units of alat)
               a(1) = (   1.000000   0.000000   0.000000 )  
               a(2) = (  -0.223489   0.918700   0.000000 )  
               a(3) = (  -4.200249  -1.021781   2.008375 )  

     reciprocal axes: (cart. coord. in units 2 pi/alat)
               b(1) = (  1.000000  0.243267  2.215131 )  
               b(2) = ( -0.000000  1.088495  0.553783 )  
               b(3) = (  0.000000 -0.000000  0.497915 )  


     PseudoPot. # 1 for Zn read from file:
     /home/ys/qepseudo/SSSP_1.3.0_PBE_efficiency/Zn_pbe_v1.uspp.F.UPF
     MD5 check sum: df62231357ef9e81f77b2b3087fa5675
     Pseudo is Ultrasoft, Zval = 20.0
     Generated by new atomic code, or converted to UPF format
     Using radial grid of  943 points,  6 beta functions with: 
                l(1) =   0
                l(2) =   0
                l(3) =   1
                l(4) =   1
                l(5) =   2
                l(6) =   2
     Q(r) pseudized with  8 coefficients,  rinner =    1.100   1.100   1.100
                                                       1.100   1.100

     PseudoPot. # 2 for N  read from file:
     /home/ys/qepseudo/SSSP_1.3.0_PBE_efficiency/N.pbe-n-radius_5.UPF
     MD5 check sum: 16739722b17309cd8fe442a2ace49922
     Pseudo is Ultrasoft + core correction, Zval =  5.0
     Generated using "atomic" code by A. Dal Corso  v.5.1
     Using radial grid of 1085 points,  4 beta functions with: 
                l(1) =   0
                l(2) =   0
                l(3) =   1
                l(4) =   1
     Q(r) pseudized with 0 coefficients 


     PseudoPot. # 3 for C  read from file:
     /home/ys/qepseudo/SSSP_1.3.0_PBE_efficiency/C.pbe-n-kjpaw_psl.1.0.0.UPF
     MD5 check sum: 5d2aebdfa2cae82b50a7e79e9516da0f
     Pseudo is Projector augmented-wave + core cor, Zval =  4.0
     Generated using "atomic" code by A. Dal Corso  v.5.1
     Shape of augmentation charge: PSQ
     Using radial grid of 1073 points,  4 beta functions with: 
                l(1) =   0
                l(2) =   0
                l(3) =   1
                l(4) =   1
     Q(r) pseudized with 0 coefficients 


     PseudoPot. # 4 for H  read from file:
     /home/ys/qepseudo/SSSP_1.3.0_PBE_efficiency/H.pbe-rrkjus_psl.1.0.0.UPF
     MD5 check sum: f52b6d4d1c606e5624b1dc7b2218f220
     Pseudo is Ultrasoft, Zval =  1.0
     Generated using "atomic" code by A. Dal Corso  v.5.1
     Using radial grid of  929 points,  2 beta functions with: 
                l(1) =   0
                l(2) =   0
     Q(r) pseudized with 0 coefficients 


     atomic species   valence    mass     pseudopotential
     Zn               20.00    65.38000     Zn( 1.00)
     N                 5.00    14.00674     N ( 1.00)
     C                 4.00    12.01070     C ( 1.00)
     H                 1.00     1.00794     H ( 1.00)

     No symmetry found


                                    s                        frac. trans.

      isym =  1     identity                                     

 cryst.   s( 1) = (     1          0          0      )
                  (     0          1          0      )
                  (     0          0          1      )

 cart.    s( 1) = (  1.0000000  0.0000000  0.0000000 )
                  (  0.0000000  1.0000000  0.0000000 )
                  (  0.0000000  0.0000000  1.0000000 )


   Cartesian axes

     site n.     atom                  positions (alat units)
         1        Zn     tau(   1) = (  -0.0970639   0.0980210   0.1082940  )
         2        Zn     tau(   2) = (  -0.2088085   0.5573710   0.1082940  )
         3        Zn     tau(   3) = (  -0.4499417   0.0126364   0.3361985  )
         4        Zn     tau(   4) = (  -0.5620602   0.4721528   0.3354850  )
         5        Zn     tau(   5) = (  -0.8166846  -0.0775287   0.5286314  )
         6        Zn     tau(   6) = (  -0.9281891   0.3817897   0.5220289  )
         7        Zn     tau(   7) = (  -0.1529361   0.3276960   0.1082940  )
         8        Zn     tau(   8) = (  -0.2646808   0.7870460   0.1082940  )
         9        Zn     tau(   9) = (  -0.5068626   0.2422848   0.3360568  )
        10        Zn     tau(  10) = (  -0.6174098   0.7018475   0.3359605  )
        11        Zn     tau(  11) = (  -0.8719281   0.1519061   0.5257025  )
        12        Zn     tau(  12) = (  -0.9851442   0.6111307   0.5251147  )
        13        Zn     tau(  13) = (   0.4029362   0.0980210   0.1082940  )
        14        Zn     tau(  14) = (   0.2911915   0.5573710   0.1082940  )
        15        Zn     tau(  15) = (   0.0466783   0.0116559   0.3220583  )
        16        Zn     tau(  16) = (  -0.0672396   0.4713014   0.3178759  )
        17        Zn     tau(  17) = (  -0.2948942  -0.0710623   0.5141346  )
        18        Zn     tau(  18) = (  -0.4072850   0.3878759   0.5156061  )
        19        Zn     tau(  19) = (   0.3470638   0.3276960   0.1082940  )
        20        Zn     tau(  20) = (   0.2353192   0.7870460   0.1082940  )
        21        Zn     tau(  21) = (  -0.0086351   0.2418060   0.3214040  )
        22        Zn     tau(  22) = (  -0.1211072   0.7010828   0.3216720  )
        23        Zn     tau(  23) = (  -0.3509502   0.1587603   0.5147339  )
        24        Zn     tau(  24) = (  -0.4627646   0.6176331   0.5148140  )
        25        Zn     tau(  25) = (   0.1529361   0.0372043   0.0773528  )
        26        Zn     tau(  26) = (   0.0411915   0.4965543   0.0773528  )
        27        Zn     tau(  27) = (  -0.2109518  -0.0516529   0.2712651  )
        28        Zn     tau(  28) = (  -0.3232628   0.4075503   0.2725661  )
        29        Zn     tau(  29) = (  -0.5847868  -0.1419838   0.4788901  )
        30        Zn     tau(  30) = (  -0.6939060   0.3180347   0.4862733  )
        31        Zn     tau(  31) = (   0.0970639   0.2668793   0.0773528  )
        32        Zn     tau(  32) = (  -0.0146808   0.7262293   0.0773528  )
        33        Zn     tau(  33) = (  -0.2672481   0.1778739   0.2717170  )
        34        Zn     tau(  34) = (  -0.3789979   0.6373507   0.2717162  )
        35        Zn     tau(  35) = (  -0.6392322   0.0878910   0.4829780  )
        36        Zn     tau(  36) = (  -0.7510423   0.5476435   0.4812654  )
        37        Zn     tau(  37) = (   0.6529362   0.0372043   0.0773528  )
        38        Zn     tau(  38) = (   0.5411915   0.4965543   0.0773528  )
        39        Zn     tau(  39) = (   0.2865375  -0.0524822   0.2742363  )
        40        Zn     tau(  40) = (   0.1760320   0.4076867   0.2749813  )
        41        Zn     tau(  41) = (  -0.0611979  -0.1355702   0.4946692  )
        42        Zn     tau(  42) = (  -0.1717527   0.3241913   0.4954837  )
        43        Zn     tau(  43) = (   0.5970639   0.2668793   0.0773528  )
        44        Zn     tau(  44) = (   0.4853193   0.7262293   0.0773528  )
        45        Zn     tau(  45) = (   0.2326156   0.1776990   0.2743222  )
        46        Zn     tau(  46) = (   0.1187394   0.6367859   0.2745790  )
        47        Zn     tau(  47) = (  -0.1168864   0.0942352   0.4943562  )
        48        Zn     tau(  48) = (  -0.2286046   0.5534404   0.4941579  )
        49        C      tau(  49) = (  -0.7957338  -0.0998053   0.9654044  )
        50        C      tau(  50) = (  -0.9725377   0.1622688   0.8677805  )
        51        C      tau(  51) = (  -0.7283210   0.1009077   0.9000647  )
        52        C      tau(  52) = (  -0.8728717   0.2491598   0.8494900  )
        53        C      tau(  53) = (  -0.8280216   0.0102939   0.9217140  )
        54        C      tau(  54) = (  -0.7508119   0.2150171   0.8670213  )
        55        C      tau(  55) = (  -0.9493636   0.0479698   0.9010600  )
        56        N      tau(  56) = (  -0.8992978   0.3602418   0.8092960  )
        57        H      tau(  57) = (  -0.7007724  -0.1179150   0.9833884  )
        58        H      tau(  58) = (  -1.0634802   0.1993576   0.8540617  )
        59        H      tau(  59) = (  -0.6367066   0.0657735   0.9150083  )
        60        H      tau(  60) = (  -0.8623495  -0.1699628   0.9832472  )
        61        H      tau(  61) = (  -0.8296676   0.4172618   0.7907633  )
        62        H      tau(  62) = (  -0.9844216   0.3876236   0.7880681  )

     --------------------------------------------
     DFT-D3 Dispersion Correction (3-body terms):
     --------------------------------------------
       Reference C6 values for interpolation: 

         atom   Coordination number   C6
         H          0.912             6.05
         H          0.000            15.18
         C          0.000            98.23
         C          0.987            86.49
         C          1.998            58.72
         C          2.999            51.56
         C          3.984            36.41
         N          0.000            50.54
         N          0.994            44.25
         N          2.014            39.35
         N          2.990            31.16
         Zn         0.000           681.04
         Zn         1.942           306.91

       Values used:

         atom   Coordination number  R0_AB[au]  C6      C8
         Zn         5.625            3.053    306.91  23930.67
         Zn         5.672            3.053    306.91  23930.67
         Zn         6.799            3.053    306.91  23930.67
         Zn         6.793            3.053    306.91  23930.67
         Zn         5.260            3.053    306.91  23930.67
         Zn         5.497            3.053    306.91  23930.67
         Zn         5.664            3.053    306.91  23930.67
         Zn         5.632            3.053    306.91  23930.67
         Zn         6.781            3.053    306.91  23930.67
         Zn         6.818            3.053    306.91  23930.67
         Zn         5.369            3.053    306.91  23930.67
         Zn         5.349            3.053    306.91  23930.67
         Zn         5.267            3.053    306.91  23930.67
         Zn         5.257            3.053    306.91  23930.67
         Zn         7.055            3.053    306.91  23930.67
         Zn         7.148            3.053    306.91  23930.67
         Zn         5.427            3.053    306.91  23930.67
         Zn         5.383            3.053    306.91  23930.67
         Zn         5.275            3.053    306.91  23930.67
         Zn         5.246            3.053    306.91  23930.67
         Zn         7.098            3.053    306.91  23930.67
         Zn         7.102            3.053    306.91  23930.67
         Zn         5.405            3.053    306.91  23930.67
         Zn         5.408            3.053    306.91  23930.67
         Zn         5.155            3.053    306.91  23930.67
         Zn         5.193            3.053    306.91  23930.67
         Zn         7.255            3.053    306.91  23930.67
         Zn         7.241            3.053    306.91  23930.67
         Zn         5.942            3.053    306.91  23930.67
         Zn         5.702            3.053    306.91  23930.67
         Zn         5.147            3.053    306.91  23930.67
         Zn         5.174            3.053    306.91  23930.67
         Zn         7.211            3.053    306.91  23930.67
         Zn         7.248            3.053    306.91  23930.67
         Zn         5.812            3.053    306.91  23930.67
         Zn         5.871            3.053    306.91  23930.67
         Zn         5.048            3.053    306.91  23930.67
         Zn         5.042            3.053    306.91  23930.67
         Zn         7.423            3.053    306.91  23930.67
         Zn         7.401            3.053    306.91  23930.67
         Zn         5.849            3.053    306.91  23930.67
         Zn         5.798            3.053    306.91  23930.67
         Zn         5.034            3.053    306.91  23930.67
         Zn         5.052            3.053    306.91  23930.67
         Zn         7.354            3.053    306.91  23930.67
         Zn         7.467            3.053    306.91  23930.67
         Zn         5.846            3.053    306.91  23930.67
         Zn         5.860            3.053    306.91  23930.67
         C          3.088            2.750     50.95   1473.57
         C          3.150            2.750     50.53   1461.48
         C          3.170            2.750     50.36   1456.56
         C          3.167            2.750     50.39   1457.35
         C          3.128            2.750     50.70   1466.42
         C          2.145            2.750     58.43   1689.88
         C          2.150            2.750     58.41   1689.22
         N          3.112            2.478     31.23    688.93
         H          1.001            2.062      6.18     74.71
         H          1.003            2.062      6.18     74.69
         H          1.002            2.062      6.18     74.70
         H          1.000            2.062      6.18     74.72
         H          1.010            2.062      6.17     74.61
         H          1.009            2.062      6.17     74.63

         Molecular C6 ( Ry / a.u.^6 ) =    830219.36


   Crystallographic axes

     site n.     atom                  positions (cryst. coord.)
         1        Zn     tau(   1) = (  0.1666667  0.1666667  0.0539212  )
         2        Zn     tau(   2) = (  0.1666668  0.6666667  0.0539212  )
         3        Zn     tau(   3) = (  0.2978562  0.1999356  0.1673983  )
         4        Zn     tau(   4) = (  0.2959424  0.6997216  0.1670430  )
         5        Zn     tau(   5) = (  0.3354432  0.2083574  0.2632135  )
         6        Zn     tau(   6) = (  0.3210502  0.7046667  0.2599260  )
         7        Zn     tau(   7) = (  0.1666668  0.4166667  0.0539212  )
         8        Zn     tau(   8) = (  0.1666667  0.9166667  0.0539212  )
         9        Zn     tau(   9) = (  0.2964872  0.4498281  0.1673277  )
        10        Zn     tau(  10) = (  0.2975230  0.9500063  0.1672798  )
        11        Zn     tau(  11) = (  0.3295257  0.4564740  0.2617552  )
        12        Zn     tau(  12) = (  0.3267217  0.9560120  0.2614625  )
        13        Zn     tau(  13) = (  0.6666668  0.1666667  0.0539212  )
        14        Zn     tau(  14) = (  0.6666667  0.6666667  0.0539212  )
        15        Zn     tau(  15) = (  0.7629152  0.1910377  0.1603576  )
        16        Zn     tau(  16) = (  0.7515494  0.6890433  0.1582752  )
        17        Zn     tau(  17) = (  0.8266944  0.2073679  0.2559953  )
        18        Zn     tau(  18) = (  0.8292077  0.7077347  0.2567280  )
        19        Zn     tau(  19) = (  0.6666668  0.4166667  0.0539212  )
        20        Zn     tau(  20) = (  0.6666668  0.9166667  0.0539212  )
        21        Zn     tau(  21) = (  0.7621405  0.4411926  0.1600319  )
        22        Zn     tau(  22) = (  0.7619886  0.9412612  0.1601653  )
        23        Zn     tau(  23) = (  0.8278740  0.4578605  0.2562937  )
        24        Zn     tau(  24) = (  0.8278657  0.9573855  0.2563336  )
        25        Zn     tau(  25) = (  0.3333333  0.0833333  0.0385151  )
        26        Zn     tau(  26) = (  0.3333333  0.5833333  0.0385151  )
        27        Zn     tau(  27) = (  0.3773706  0.0939981  0.1350670  )
        28        Zn     tau(  28) = (  0.3796504  0.5945588  0.1357147  )
        29        Zn     tau(  29) = (  0.4414776  0.1106524  0.2384465  )
        30        Zn     tau(  30) = (  0.4606205  0.6154689  0.2421228  )
        31        Zn     tau(  31) = (  0.3333333  0.3333333  0.0385151  )
        32        Zn     tau(  32) = (  0.3333333  0.8333333  0.0385151  )
        33        Zn     tau(  33) = (  0.3779116  0.3440870  0.1352920  )
        34        Zn     tau(  34) = (  0.3779355  0.8442246  0.1352916  )
        35        Zn     tau(  35) = (  0.4520085  0.3631338  0.2404820  )
        36        Zn     tau(  36) = (  0.4482473  0.8626236  0.2396293  )
        37        Zn     tau(  37) = (  0.8333333  0.0833333  0.0385151  )
        38        Zn     tau(  38) = (  0.8333333  0.5833333  0.0385151  )
        39        Zn     tau(  39) = (  0.8812397  0.0947407  0.1365463  )
        40        Zn     tau(  40) = (  0.8843284  0.5960447  0.1369173  )
        41        Zn     tau(  41) = (  1.0015796  0.1263718  0.2463032  )
        42        Zn     tau(  42) = (  1.0046739  0.6272709  0.2467088  )
        43        Zn     tau(  43) = (  0.8333333  0.3333333  0.0385151  )
        44        Zn     tau(  44) = (  0.8333333  0.8333333  0.0385151  )
        45        Zn     tau(  45) = (  0.8835036  0.3453393  0.1365891  )
        46        Zn     tau(  46) = (  0.8818769  0.8451951  0.1367170  )
        47        Zn     tau(  47) = (  1.0011018  0.3763404  0.2461473  )
        48        Zn     tau(  48) = (  1.0006538  0.8760730  0.2460486  )
        49        C      tau(  49) = (  1.3184844  0.4259868  0.4806893  )
        50        C      tau(  50) = (  0.9891846  0.6571906  0.4320809  )
        51        C      tau(  51) = (  1.2899881  0.6082779  0.4481557  )
        52        C      tau(  52) = (  1.0694725  0.7416420  0.4229738  )
        53        C      tau(  53) = (  1.2162001  0.5216342  0.4589352  )
        54        C      tau(  54) = (  1.2220608  0.7141865  0.4317029  )
        55        C      tau(  55) = (  1.0582721  0.5512064  0.4486513  )
        56        N      tau(  56) = (  0.9810341  0.8402954  0.4029606  )
        57        H      tau(  57) = (  1.4488772  0.4162338  0.4896438  )
        58        H      tau(  58) = (  0.8768758  0.6899643  0.4252501  )
        59        H      tau(  59) = (  1.4061574  0.5783099  0.4555963  )
        60        H      tau(  60) = (  1.2743259  0.3595018  0.4895735  )
        61        H      tau(  61) = (  1.0234830  0.8920984  0.3937329  )
        62        H      tau(  62) = (  0.8555487  0.8583448  0.3923909  )

     number of k points=     5  Marzari-Vanderbilt smearing, width (Ry)=  0.0200
                       cart. coord. in units 2pi/alat
        k(    1) = (   0.0000000   0.0000000   0.0000000), wk =   0.2222222
        k(    2) = (   0.0000000   0.3628315   0.1845943), wk =   0.4444444
        k(    3) = (   0.3333333   0.0810890   0.7383771), wk =   0.4444444
        k(    4) = (   0.3333333   0.4439205   0.9229714), wk =   0.4444444
        k(    5) = (   0.3333333  -0.2817426   0.5537829), wk =   0.4444444

                       cryst. coord.
        k(    1) = (   0.0000000   0.0000000   0.0000000), wk =   0.2222222
        k(    2) = (   0.0000000   0.3333333   0.0000000), wk =   0.4444444
        k(    3) = (   0.3333333   0.0000000   0.0000000), wk =   0.4444444
        k(    4) = (   0.3333333   0.3333333   0.0000000), wk =   0.4444444
        k(    5) = (   0.3333333  -0.3333333   0.0000000), wk =   0.4444444

     Dense  grid:  1332973 G-vectors     FFT dimensions: ( 120, 108, 540)

     Smooth grid:   575857 G-vectors     FFT dimensions: (  90,  80, 405)

     Dynamical RAM for                 wfc:      19.96 MB

     Dynamical RAM for     wfc (w. buffer):     119.75 MB

     Dynamical RAM for           str. fact:       2.47 MB

     Dynamical RAM for           local pot:       0.00 MB

     Dynamical RAM for          nlocal pot:      31.27 MB

     Dynamical RAM for                qrad:       5.37 MB

     Dynamical RAM for          rho,v,vnew:       6.89 MB

     Dynamical RAM for               rhoin:       2.30 MB

     Dynamical RAM for            rho*nmix:       9.86 MB

     Dynamical RAM for           G-vectors:       2.44 MB

     Dynamical RAM for          h,s,v(r/c):       2.64 MB

     Dynamical RAM for          <psi|beta>:       8.61 MB

     Dynamical RAM for                 psi:      39.92 MB

     Dynamical RAM for                hpsi:      39.92 MB

     Dynamical RAM for                spsi:      39.92 MB

     Dynamical RAM for      wfcinit/wfcrot:      54.08 MB

     Dynamical RAM for           addusdens:     144.24 MB

     Dynamical RAM for          addusforce:     202.67 MB

     Dynamical RAM for         addusstress:     123.90 MB

     Estimated static dynamical RAM per process >     181.98 MB

     Estimated max dynamical RAM per process >     394.51 MB

     Estimated total dynamical RAM >      12.71 GB

     Initial potential from superposition of free atoms

     starting charge     998.9929, renormalised to     999.0000

     negative rho (up, down):  2.784E-03 0.000E+00
     Starting wfcs are  662 randomized atomic wfcs
[psid01:168397] 32 more processes have sent help message help-mpi-btl-openib.txt / ib port not selected
[psid01:168397] Set MCA parameter "orte_base_help_aggregate" to 0 to see all help / error messages
[psid01:168397] 32 more processes have sent help message help-mpi-btl-openib.txt / error in device init
     Checking if some PAW data can be deallocated... 
       PAW data deallocated on   29 nodes for type:  3

     total cpu time spent up to now is       83.6 secs

     Self-consistent Calculation

     iteration #  1     ecut=    40.00 Ry     beta= 0.40
     Davidson diagonalization with overlap

---- Real-time Memory Report at c_bands before calling an iterative solver
           262 MiB given to the printing process from OS
             0 MiB allocation reported by mallinfo(arena+hblkhd)
         15151 MiB available memory on the node where the printing process lives
------------------
     ethr =  1.00E-02,  avg # of iterations =  7.8

     negative rho (up, down):  3.296E-03 0.000E+00

     total cpu time spent up to now is      402.0 secs

     total energy              =  -22304.37117528 Ry
     estimated scf accuracy    <      12.92930189 Ry

     iteration #  2     ecut=    40.00 Ry     beta= 0.40
     Davidson diagonalization with overlap

---- Real-time Memory Report at c_bands before calling an iterative solver
           364 MiB given to the printing process from OS
             0 MiB allocation reported by mallinfo(arena+hblkhd)
         13812 MiB available memory on the node where the printing process lives
------------------
     ethr =  1.29E-03,  avg # of iterations =  9.0

     negative rho (up, down):  4.608E-03 0.000E+00

     total cpu time spent up to now is      715.2 secs

     total energy              =  -22290.89181319 Ry
     estimated scf accuracy    <     311.68075782 Ry

     iteration #  3     ecut=    40.00 Ry     beta= 0.40
     Davidson diagonalization with overlap

---- Real-time Memory Report at c_bands before calling an iterative solver
           381 MiB given to the printing process from OS
             0 MiB allocation reported by mallinfo(arena+hblkhd)
         13790 MiB available memory on the node where the printing process lives
------------------
     ethr =  1.29E-03,  avg # of iterations =  7.0

     negative rho (up, down):  4.522E-03 0.000E+00

     total cpu time spent up to now is     1083.5 secs

     total energy              =  -22309.15518352 Ry
     estimated scf accuracy    <      19.65173176 Ry

     iteration #  4     ecut=    40.00 Ry     beta= 0.40
     Davidson diagonalization with overlap

---- Real-time Memory Report at c_bands before calling an iterative solver
           382 MiB given to the printing process from OS
             0 MiB allocation reported by mallinfo(arena+hblkhd)
         13768 MiB available memory on the node where the printing process lives
------------------
     ethr =  1.29E-03,  avg # of iterations =  3.8

     negative rho (up, down):  4.410E-03 0.000E+00

     total cpu time spent up to now is     1341.2 secs

     total energy              =  -22310.13075935 Ry
     estimated scf accuracy    <       4.11395855 Ry

     iteration #  5     ecut=    40.00 Ry     beta= 0.40
     Davidson diagonalization with overlap

---- Real-time Memory Report at c_bands before calling an iterative solver
           382 MiB given to the printing process from OS
             0 MiB allocation reported by mallinfo(arena+hblkhd)
         13747 MiB available memory on the node where the printing process lives
------------------
     ethr =  4.12E-04,  avg # of iterations =  2.0

     negative rho (up, down):  4.481E-03 0.000E+00

     total cpu time spent up to now is     1588.1 secs

     total energy              =  -22310.41023493 Ry
     estimated scf accuracy    <       0.59408528 Ry

     iteration #  6     ecut=    40.00 Ry     beta= 0.40
     Davidson diagonalization with overlap

---- Real-time Memory Report at c_bands before calling an iterative solver
           383 MiB given to the printing process from OS
             0 MiB allocation reported by mallinfo(arena+hblkhd)
         13720 MiB available memory on the node where the printing process lives
------------------
     ethr =  5.95E-05,  avg # of iterations = 11.6

     negative rho (up, down):  4.438E-03 0.000E+00

     total cpu time spent up to now is     1859.9 secs

     total energy              =  -22310.40670403 Ry
     estimated scf accuracy    <       0.20193412 Ry

     iteration #  7     ecut=    40.00 Ry     beta= 0.40
     Davidson diagonalization with overlap

---- Real-time Memory Report at c_bands before calling an iterative solver
           384 MiB given to the printing process from OS
             0 MiB allocation reported by mallinfo(arena+hblkhd)
         13697 MiB available memory on the node where the printing process lives
------------------
     ethr =  2.02E-05,  avg # of iterations =  8.8

     negative rho (up, down):  4.385E-03 0.000E+00

     total cpu time spent up to now is     2127.7 secs

     total energy              =  -22310.39999277 Ry
     estimated scf accuracy    <       0.21662643 Ry

     iteration #  8     ecut=    40.00 Ry     beta= 0.40
     Davidson diagonalization with overlap

---- Real-time Memory Report at c_bands before calling an iterative solver
           385 MiB given to the printing process from OS
             0 MiB allocation reported by mallinfo(arena+hblkhd)
         13673 MiB available memory on the node where the printing process lives
------------------
     ethr =  2.02E-05,  avg # of iterations =  2.0

     negative rho (up, down):  4.403E-03 0.000E+00

     total cpu time spent up to now is     2378.1 secs

     total energy              =  -22310.41540763 Ry
     estimated scf accuracy    <       0.04746256 Ry

     iteration #  9     ecut=    40.00 Ry     beta= 0.40
     Davidson diagonalization with overlap

---- Real-time Memory Report at c_bands before calling an iterative solver
           385 MiB given to the printing process from OS
             0 MiB allocation reported by mallinfo(arena+hblkhd)
         13649 MiB available memory on the node where the printing process lives
------------------
     c_bands:  1 eigenvalues not converged
     ethr =  4.75E-06,  avg # of iterations = 14.2

     negative rho (up, down):  4.419E-03 0.000E+00

     total cpu time spent up to now is     2668.0 secs

     total energy              =  -22310.41816095 Ry
     estimated scf accuracy    <       0.03246512 Ry

     iteration # 10     ecut=    40.00 Ry     beta= 0.40
     Davidson diagonalization with overlap

---- Real-time Memory Report at c_bands before calling an iterative solver
           386 MiB given to the printing process from OS
             0 MiB allocation reported by mallinfo(arena+hblkhd)
         13630 MiB available memory on the node where the printing process lives
------------------
     ethr =  3.25E-06,  avg # of iterations =  2.8

     negative rho (up, down):  4.422E-03 0.000E+00

     total cpu time spent up to now is     2919.5 secs

     total energy              =  -22310.42064432 Ry
     estimated scf accuracy    <       0.00576790 Ry

     iteration # 11     ecut=    40.00 Ry     beta= 0.40
     Davidson diagonalization with overlap

---- Real-time Memory Report at c_bands before calling an iterative solver
           387 MiB given to the printing process from OS
             0 MiB allocation reported by mallinfo(arena+hblkhd)
         13629 MiB available memory on the node where the printing process lives
------------------
     ethr =  5.77E-07,  avg # of iterations =  2.2

     negative rho (up, down):  4.424E-03 0.000E+00

     total cpu time spent up to now is     3167.7 secs

     total energy              =  -22310.42094772 Ry
     estimated scf accuracy    <       0.00212935 Ry

     iteration # 12     ecut=    40.00 Ry     beta= 0.40
     Davidson diagonalization with overlap

---- Real-time Memory Report at c_bands before calling an iterative solver
           387 MiB given to the printing process from OS
             0 MiB allocation reported by mallinfo(arena+hblkhd)
         13628 MiB available memory on the node where the printing process lives
------------------
     ethr =  2.13E-07,  avg # of iterations =  2.0

     negative rho (up, down):  4.428E-03 0.000E+00

     total cpu time spent up to now is     3416.5 secs

     total energy              =  -22310.42108611 Ry
     estimated scf accuracy    <       0.00046038 Ry

     iteration # 13     ecut=    40.00 Ry     beta= 0.40
     Davidson diagonalization with overlap

---- Real-time Memory Report at c_bands before calling an iterative solver
           387 MiB given to the printing process from OS
             0 MiB allocation reported by mallinfo(arena+hblkhd)
         13630 MiB available memory on the node where the printing process lives
------------------
     ethr =  4.61E-08,  avg # of iterations =  2.0

     negative rho (up, down):  4.429E-03 0.000E+00

     total cpu time spent up to now is     3668.8 secs

     total energy              =  -22310.42110471 Ry
     estimated scf accuracy    <       0.00010215 Ry

     iteration # 14     ecut=    40.00 Ry     beta= 0.40
     Davidson diagonalization with overlap

---- Real-time Memory Report at c_bands before calling an iterative solver
           387 MiB given to the printing process from OS
             0 MiB allocation reported by mallinfo(arena+hblkhd)
         13630 MiB available memory on the node where the printing process lives
------------------
     ethr =  1.02E-08,  avg # of iterations =  2.0

     negative rho (up, down):  4.429E-03 0.000E+00

     total cpu time spent up to now is     3923.0 secs

     total energy              =  -22310.42110585 Ry
     estimated scf accuracy    <       0.00023652 Ry

     iteration # 15     ecut=    40.00 Ry     beta= 0.40
     Davidson diagonalization with overlap

---- Real-time Memory Report at c_bands before calling an iterative solver
           387 MiB given to the printing process from OS
             0 MiB allocation reported by mallinfo(arena+hblkhd)
         13629 MiB available memory on the node where the printing process lives
------------------
     ethr =  1.02E-08,  avg # of iterations =  2.0

     negative rho (up, down):  4.430E-03 0.000E+00

     total cpu time spent up to now is     4174.4 secs

     total energy              =  -22310.42111495 Ry
     estimated scf accuracy    <       0.00010532 Ry

     iteration # 16     ecut=    40.00 Ry     beta= 0.40
     Davidson diagonalization with overlap

---- Real-time Memory Report at c_bands before calling an iterative solver
           387 MiB given to the printing process from OS
             0 MiB allocation reported by mallinfo(arena+hblkhd)
         13628 MiB available memory on the node where the printing process lives
------------------
     ethr =  1.02E-08,  avg # of iterations =  1.2

     negative rho (up, down):  4.430E-03 0.000E+00

     total cpu time spent up to now is     4392.3 secs

     total energy              =  -22310.42112153 Ry
     estimated scf accuracy    <       0.00002193 Ry

     iteration # 17     ecut=    40.00 Ry     beta= 0.40
     Davidson diagonalization with overlap

---- Real-time Memory Report at c_bands before calling an iterative solver
           387 MiB given to the printing process from OS
             0 MiB allocation reported by mallinfo(arena+hblkhd)
         13628 MiB available memory on the node where the printing process lives
------------------
     ethr =  2.20E-09,  avg # of iterations =  1.4

     negative rho (up, down):  4.430E-03 0.000E+00

     total cpu time spent up to now is     4614.9 secs

     total energy              =  -22310.42112258 Ry
     estimated scf accuracy    <       0.00000225 Ry

     iteration # 18     ecut=    40.00 Ry     beta= 0.40
     Davidson diagonalization with overlap

---- Real-time Memory Report at c_bands before calling an iterative solver
           387 MiB given to the printing process from OS
             0 MiB allocation reported by mallinfo(arena+hblkhd)
         13628 MiB available memory on the node where the printing process lives
------------------
     ethr =  2.25E-10,  avg # of iterations =  2.0

     negative rho (up, down):  4.431E-03 0.000E+00

     total cpu time spent up to now is     4863.4 secs

     End of self-consistent calculation

          k = 0.0000 0.0000 0.0000 ( 71933 PWs)   bands (ev):

  -125.0715-125.0692-125.0656-125.0646-125.0629-125.0611-125.0592-125.0568
  -125.0421-125.0393-125.0376-125.0354-125.0345-125.0337-125.0314-125.0299
  -124.9804-124.9790-124.9721-124.9701-124.9692-124.9676-124.9618-124.9515
  -124.9337-124.9329-124.9312-124.9302-124.9125-124.9109-124.9078-124.9046
  -124.9000-124.8738-124.8730-124.8699-124.8675-124.8641-124.8592-124.8442
  -124.8427-124.8426-124.8414-124.8404-124.8311-124.8262-124.8245-124.8236
   -79.2282 -79.2272 -79.2263 -79.2243 -79.2243 -79.2235 -79.2232 -79.2215
   -79.2204 -79.2190 -79.2179 -79.2165 -79.2156 -79.2154 -79.2153 -79.2144
   -79.2135 -79.2117 -79.2111 -79.2100 -79.2092 -79.2077 -79.1994 -79.1987
   -79.1970 -79.1968 -79.1961 -79.1957 -79.1955 -79.1940 -79.1911 -79.1905
   -79.1895 -79.1893 -79.1891 -79.1886 -79.1884 -79.1881 -79.1854 -79.1852
   -79.1849 -79.1844 -79.1839 -79.1838 -79.1832 -79.1830 -79.1713 -79.1710
   -79.1428 -79.1415 -79.1353 -79.1349 -79.1303 -79.1296 -79.1288 -79.1283
   -79.1273 -79.1261 -79.1251 -79.1235 -79.1228 -79.1213 -79.1211 -79.1192
   -79.1183 -79.1166 -79.1148 -79.1117 -79.1109 -79.1099 -79.1013 -79.0960
   -79.0958 -79.0941 -79.0931 -79.0917 -79.0905 -79.0841 -79.0835 -79.0833
   -79.0829 -79.0817 -79.0806 -79.0738 -79.0728 -79.0721 -79.0709 -79.0692
   -79.0659 -79.0644 -79.0637 -79.0620 -79.0604 -79.0592 -79.0588 -79.0558
   -79.0516 -79.0467 -79.0458 -79.0420 -79.0411 -79.0378 -79.0357 -79.0279
   -79.0265 -79.0246 -79.0246 -79.0237 -79.0208 -79.0183 -79.0167 -79.0146
   -79.0134 -79.0121 -79.0099 -79.0095 -79.0082 -79.0081 -79.0065 -79.0058
   -79.0048 -79.0031 -79.0012 -78.9953 -78.9951 -78.9948 -78.9936 -78.9935
   -78.9914 -78.9910 -78.9905 -78.9899 -78.9885 -78.9882 -78.9871 -78.9828
   -78.9825 -78.9784 -78.9777 -78.9764 -78.9762 -78.9753 -78.9743 -78.9626
   -18.8810 -15.8273 -13.8706 -13.0699 -11.3946  -9.9853  -9.1140  -8.2764
    -7.9736  -7.1612  -7.0826  -6.9157  -6.8320  -6.7203  -6.7192  -6.7162
    -6.7054  -6.6755  -6.6168  -6.5886  -6.5794  -6.5750  -6.5515  -6.5475
    -6.5449  -6.5029  -6.5027  -6.4978  -6.4956  -6.4914  -6.4829  -6.4695
    -6.4405  -6.4390  -6.4359  -6.3965  -6.3961  -6.3855  -6.3847  -6.3627
    -6.3615  -6.3497  -6.3487  -6.3455  -6.3438  -6.3418  -6.3352  -6.3332
    -6.3305  -6.3274  -6.3246  -6.3231  -6.3199  -6.3047  -6.3031  -6.3011
    -6.3001  -6.2894  -6.2889  -6.2820  -6.2748  -6.2733  -6.2587  -6.2343
    -6.2326  -6.2283  -6.2133  -6.2118  -6.2026  -6.2003  -6.1907  -6.1902
    -6.1874  -6.1850  -6.1809  -6.1760  -6.1750  -6.1554  -6.1550  -6.1478
    -6.1327  -6.1306  -6.1224  -6.1122  -6.1116  -6.1092  -6.1057  -6.0971
    -6.0809  -6.0800  -6.0768  -6.0744  -6.0627  -6.0622  -6.0609  -6.0542
    -6.0536  -6.0380  -6.0354  -6.0203  -6.0193  -6.0010  -5.9997  -5.9991
    -5.9822  -5.9795  -5.9787  -5.9778  -5.9751  -5.9691  -5.9626  -5.9526
    -5.9516  -5.9421  -5.9397  -5.9388  -5.9309  -5.9301  -5.9150  -5.9045
    -5.9035  -5.8978  -5.8967  -5.8904  -5.8887  -5.8650  -5.8620  -5.8584
    -5.8574  -5.8511  -5.8421  -5.8355  -5.8353  -5.8300  -5.8279  -5.8184
    -5.8180  -5.8167  -5.8094  -5.8076  -5.8067  -5.8043  -5.7990  -5.7965
    -5.7867  -5.7819  -5.7803  -5.7795  -5.7764  -5.7753  -5.7667  -5.7623
    -5.7606  -5.7545  -5.7529  -5.7474  -5.7467  -5.7436  -5.7372  -5.7330
    -5.7320  -5.7279  -5.7254  -5.7250  -5.7121  -5.7119  -5.7076  -5.7015
    -5.7014  -5.6926  -5.6920  -5.6864  -5.6842  -5.6830  -5.6827  -5.6741
    -5.6730  -5.6715  -5.6671  -5.6630  -5.6559  -5.6519  -5.6506  -5.6455
    -5.6413  -5.6298  -5.6261  -5.6235  -5.6230  -5.6169  -5.6156  -5.6130
    -5.6054  -5.6033  -5.6010  -5.6000  -5.5918  -5.5899  -5.5840  -5.5818
    -5.5815  -5.5802  -5.5737  -5.5702  -5.5694  -5.5580  -5.5496  -5.5493
    -5.5470  -5.5443  -5.5395  -5.5390  -5.5373  -5.5366  -5.5357  -5.5284
    -5.5256  -5.5240  -5.5236  -5.5186  -5.5178  -5.5159  -5.5130  -5.5041
    -5.5036  -5.5023  -5.4932  -5.4929  -5.4900  -5.4891  -5.4741  -5.4734
    -5.4698  -5.4688  -5.4669  -5.4668  -5.4574  -5.4436  -5.4401  -5.4393
    -5.4312  -5.4267  -5.4150  -5.3986  -5.3751  -5.3722  -5.3626  -5.3566
    -5.3547  -5.3512  -5.3405  -5.3374  -5.3285  -5.2849  -5.2592  -5.2422
    -5.2317  -5.1013  -5.0951  -4.9523  -4.8771  -4.5129  -4.2868  -4.2720
    -4.2587  -4.1395  -3.8577  -3.8556  -3.8168  -3.6194  -3.6066  -3.3247
    -2.7790  -2.2729  -2.2681  -2.1329  -1.9516  -1.8640  -1.8606  -1.7609
    -1.5070  -1.4845  -1.4784  -1.4497  -1.3090  -1.2725  -1.2634  -1.1121
    -1.0121  -0.7958  -0.7720  -0.4348  -0.2287  -0.1703  -0.0800  -0.0783
    -0.0399   0.2447   0.4410   0.4535   0.4902   0.5548   0.6604   0.6731
     0.6793   0.7710   0.7772   1.2758   1.3883   1.6668   1.7165   1.7378
     1.9149   1.9339   2.0295   2.1673   2.4598   2.4758   2.4904   2.5359
     2.5618   2.5663   2.8045   2.8183   2.8435   2.9810   3.0200   3.1864
     3.2463   3.4719   3.5891   3.6849   4.0020   4.0321   4.1806   4.2310
     4.2458   4.3067   4.4437   4.7299   4.8519   4.8922   5.0261   5.1063
     5.2003   5.2455   5.3028   5.3209   5.3599   5.3847   5.4199   5.5572
     5.5757   5.6026   5.6548   5.7963   5.8545   5.8664   5.8891   5.8935
     5.9408   6.0631   6.0663   6.1080   6.1753   6.1820   6.2400   6.2848
     6.2867   6.3284   6.3464   6.4154   6.4627   6.4691   6.5461   6.5807
     6.6341   6.6844   6.7198   6.7336   6.7480   6.8375   6.9170   7.0083
     7.0329   7.0673   7.1184   7.2068   7.2556   7.2657   7.3360   7.4736
     7.5351   7.5962   7.6156   7.6368   7.6491   7.6548   7.7416   7.8080
     7.8955   7.9026   7.9213   7.9562   7.9689   8.0195   8.0327   8.0646

     occupation numbers 
     1.0000   1.0000   1.0000   1.0000   1.0000   1.0000   1.0000   1.0000
     1.0000   1.0000   1.0000   1.0000   1.0000   1.0000   1.0000   1.0000
     1.0000   1.0000   1.0000   1.0000   1.0000   1.0000   1.0000   1.0000
     1.0000   1.0000   1.0000   1.0000   1.0000   1.0000   1.0000   1.0000
     1.0000   1.0000   1.0000   1.0000   1.0000   1.0000   1.0000   1.0000
     1.0000   1.0000   1.0000   1.0000   1.0000   1.0000   1.0000   1.0000
     1.0000   1.0000   1.0000   1.0000   1.0000   1.0000   1.0000   1.0000
     1.0000   1.0000   1.0000   1.0000   1.0000   1.0000   1.0000   1.0000
     1.0000   1.0000   1.0000   1.0000   1.0000   1.0000   1.0000   1.0000
     1.0000   1.0000   1.0000   1.0000   1.0000   1.0000   1.0000   1.0000
     1.0000   1.0000   1.0000   1.0000   1.0000   1.0000   1.0000   1.0000
     1.0000   1.0000   1.0000   1.0000   1.0000   1.0000   1.0000   1.0000
     1.0000   1.0000   1.0000   1.0000   1.0000   1.0000   1.0000   1.0000
     1.0000   1.0000   1.0000   1.0000   1.0000   1.0000   1.0000   1.0000
     1.0000   1.0000   1.0000   1.0000   1.0000   1.0000   1.0000   1.0000
     1.0000   1.0000   1.0000   1.0000   1.0000   1.0000   1.0000   1.0000
     1.0000   1.0000   1.0000   1.0000   1.0000   1.0000   1.0000   1.0000
     1.0000   1.0000   1.0000   1.0000   1.0000   1.0000   1.0000   1.0000
     1.0000   1.0000   1.0000   1.0000   1.0000   1.0000   1.0000   1.0000
     1.0000   1.0000   1.0000   1.0000   1.0000   1.0000   1.0000   1.0000
     1.0000   1.0000   1.0000   1.0000   1.0000   1.0000   1.0000   1.0000
     1.0000   1.0000   1.0000   1.0000   1.0000   1.0000   1.0000   1.0000
     1.0000   1.0000   1.0000   1.0000   1.0000   1.0000   1.0000   1.0000
     1.0000   1.0000   1.0000   1.0000   1.0000   1.0000   1.0000   1.0000
     1.0000   1.0000   1.0000   1.0000   1.0000   1.0000   1.0000   1.0000
     1.0000   1.0000   1.0000   1.0000   1.0000   1.0000   1.0000   1.0000
     1.0000   1.0000   1.0000   1.0000   1.0000   1.0000   1.0000   1.0000
     1.0000   1.0000   1.0000   1.0000   1.0000   1.0000   1.0000   1.0000
     1.0000   1.0000   1.0000   1.0000   1.0000   1.0000   1.0000   1.0000
     1.0000   1.0000   1.0000   1.0000   1.0000   1.0000   1.0000   1.0000
     1.0000   1.0000   1.0000   1.0000   1.0000   1.0000   1.0000   1.0000
     1.0000   1.0000   1.0000   1.0000   1.0000   1.0000   1.0000   1.0000
     1.0000   1.0000   1.0000   1.0000   1.0000   1.0000   1.0000   1.0000
     1.0000   1.0000   1.0000   1.0000   1.0000   1.0000   1.0000   1.0000
     1.0000   1.0000   1.0000   1.0000   1.0000   1.0000   1.0000   1.0000
     1.0000   1.0000   1.0000   1.0000   1.0000   1.0000   1.0000   1.0000
     1.0000   1.0000   1.0000   1.0000   1.0000   1.0000   1.0000   1.0000
     1.0000   1.0000   1.0000   1.0000   1.0000   1.0000   1.0000   1.0000
     1.0000   1.0000   1.0000   1.0000   1.0000   1.0000   1.0000   1.0000
     1.0000   1.0000   1.0000   1.0000   1.0000   1.0000   1.0000   1.0000
     1.0000   1.0000   1.0000   1.0000   1.0000   1.0000   1.0000   1.0000
     1.0000   1.0000   1.0000   1.0000   1.0000   1.0000   1.0000   1.0000
     1.0000   1.0000   1.0000   1.0000   1.0000   1.0000   1.0000   1.0000
     1.0000   1.0000   1.0000   1.0000   1.0000   1.0000   1.0000   1.0000
     1.0000   1.0000   1.0000   1.0000   1.0000   1.0000   1.0000   1.0000
     1.0000   1.0000   1.0000   1.0000   1.0000   1.0000   1.0000   1.0000
     1.0000   1.0000   1.0000   1.0000   1.0000   1.0000   1.0000   1.0000
     1.0000   1.0000   1.0000   1.0000   1.0000   1.0000   1.0000   1.0000
     1.0000   1.0000   1.0000   1.0000   1.0000   1.0000   1.0000   1.0000
     1.0000   1.0000   1.0000   1.0000   1.0000   1.0000   1.0000   1.0000
     1.0000   1.0000   1.0000   1.0000   1.0000   1.0000   1.0000   1.0000
     1.0000   1.0000   1.0000   1.0000   1.0000   1.0000   1.0000   1.0000
     1.0000   1.0000   1.0000   1.0000   1.0000   1.0000   1.0000   1.0000
     1.0000   1.0000   1.0000   1.0000   1.0000   1.0000   1.0000   1.0000
     1.0000   1.0000   1.0000   1.0000   1.0000   1.0000   1.0000   1.0000
     1.0000   1.0000   1.0000   1.0000   1.0000   1.0000   1.0000   1.0000
     1.0000   1.0000   1.0000   1.0000   1.0000   1.0000   1.0000   1.0000
     1.0000   1.0000   1.0000   1.0000   1.0000   1.0000   1.0000   1.0000
     1.0000   1.0000   1.0000   1.0000   1.0000   1.0000   1.0000   1.0000
     1.0000   1.0000   1.0000   1.0000   1.0000   1.0000   1.0000   1.0000
     1.0000   1.0000   1.0000   1.0000   1.0000   1.0000   1.0000   1.0000
     1.0000   1.0000   1.0007   1.0008   1.0016   1.0042   1.0160   1.0184
     1.0197   1.0450   1.0470   0.4736   0.2168   0.0081   0.0037   0.0026
     0.0001   0.0001   0.0000   0.0000   0.0000   0.0000   0.0000   0.0000
     0.0000   0.0000   0.0000   0.0000   0.0000   0.0000   0.0000   0.0000
     0.0000   0.0000   0.0000   0.0000   0.0000   0.0000   0.0000   0.0000
     0.0000   0.0000   0.0000   0.0000   0.0000   0.0000   0.0000   0.0000
     0.0000   0.0000   0.0000   0.0000   0.0000   0.0000   0.0000   0.0000
     0.0000   0.0000   0.0000   0.0000   0.0000   0.0000   0.0000   0.0000
     0.0000   0.0000   0.0000   0.0000   0.0000   0.0000   0.0000   0.0000
     0.0000   0.0000   0.0000   0.0000   0.0000   0.0000   0.0000   0.0000
     0.0000   0.0000   0.0000   0.0000   0.0000   0.0000   0.0000   0.0000
     0.0000   0.0000   0.0000   0.0000   0.0000   0.0000   0.0000   0.0000
     0.0000   0.0000   0.0000   0.0000   0.0000   0.0000   0.0000   0.0000
     0.0000   0.0000   0.0000   0.0000   0.0000   0.0000   0.0000   0.0000

          k = 0.0000 0.3628 0.1846 ( 71963 PWs)   bands (ev):

  -125.0715-125.0692-125.0656-125.0646-125.0629-125.0611-125.0592-125.0568
  -125.0421-125.0393-125.0376-125.0354-125.0345-125.0336-125.0314-125.0299
  -124.9804-124.9790-124.9721-124.9701-124.9691-124.9676-124.9618-124.9515
  -124.9337-124.9329-124.9312-124.9302-124.9125-124.9109-124.9078-124.9046
  -124.9000-124.8738-124.8730-124.8699-124.8675-124.8641-124.8592-124.8442
  -124.8428-124.8425-124.8414-124.8405-124.8311-124.8262-124.8245-124.8236
   -79.2282 -79.2264 -79.2261 -79.2243 -79.2243 -79.2232 -79.2223 -79.2215
   -79.2204 -79.2190 -79.2184 -79.2179 -79.2165 -79.2158 -79.2156 -79.2153
   -79.2152 -79.2135 -79.2100 -79.2077 -79.2076 -79.2046 -79.2004 -79.1980
   -79.1978 -79.1960 -79.1958 -79.1957 -79.1955 -79.1940 -79.1911 -79.1905
   -79.1899 -79.1896 -79.1895 -79.1892 -79.1891 -79.1886 -79.1884 -79.1881
   -79.1853 -79.1840 -79.1838 -79.1831 -79.1796 -79.1783 -79.1724 -79.1723
   -79.1428 -79.1415 -79.1349 -79.1333 -79.1303 -79.1296 -79.1288 -79.1286
   -79.1283 -79.1272 -79.1261 -79.1251 -79.1238 -79.1212 -79.1193 -79.1183
   -79.1166 -79.1161 -79.1148 -79.1116 -79.1115 -79.1100 -79.1014 -79.0963
   -79.0944 -79.0940 -79.0931 -79.0917 -79.0905 -79.0893 -79.0840 -79.0831
   -79.0816 -79.0806 -79.0773 -79.0738 -79.0724 -79.0721 -79.0715 -79.0692
   -79.0660 -79.0655 -79.0644 -79.0637 -79.0620 -79.0589 -79.0559 -79.0542
   -79.0516 -79.0480 -79.0458 -79.0420 -79.0411 -79.0378 -79.0357 -79.0279
   -79.0250 -79.0246 -79.0246 -79.0238 -79.0208 -79.0198 -79.0183 -79.0167
   -79.0121 -79.0103 -79.0099 -79.0084 -79.0082 -79.0080 -79.0065 -79.0058
   -79.0039 -79.0026 -79.0016 -78.9968 -78.9953 -78.9951 -78.9948 -78.9937
   -78.9933 -78.9913 -78.9899 -78.9883 -78.9872 -78.9870 -78.9847 -78.9829
   -78.9825 -78.9811 -78.9800 -78.9777 -78.9762 -78.9753 -78.9695 -78.9640
   -18.8810 -15.8274 -13.8702 -13.0699 -11.3958  -9.9853  -9.1121  -8.2760
    -7.8064  -7.3295  -7.1616  -6.9974  -6.7727  -6.7290  -6.7194  -6.6476
    -6.6333  -6.5991  -6.5550  -6.5492  -6.5371  -6.5254  -6.5195  -6.5136
    -6.5083  -6.5065  -6.4872  -6.4858  -6.4847  -6.4770  -6.4740  -6.4695
    -6.4578  -6.4551  -6.4473  -6.4369  -6.4337  -6.4277  -6.4242  -6.4202
    -6.4148  -6.4131  -6.4093  -6.4043  -6.3896  -6.3875  -6.3742  -6.3705
    -6.3491  -6.3484  -6.3391  -6.3353  -6.3293  -6.3244  -6.3075  -6.3052
    -6.3034  -6.3029  -6.2886  -6.2880  -6.2835  -6.2728  -6.2585  -6.2556
    -6.2493  -6.2401  -6.2238  -6.2223  -6.2126  -6.2109  -6.2076  -6.2013
    -6.1949  -6.1888  -6.1872  -6.1754  -6.1729  -6.1661  -6.1609  -6.1554
    -6.1404  -6.1375  -6.1317  -6.1289  -6.1268  -6.1216  -6.1192  -6.1116
    -6.1088  -6.1028  -6.0959  -6.0855  -6.0767  -6.0708  -6.0664  -6.0614
    -6.0593  -6.0556  -6.0431  -6.0321  -6.0258  -6.0236  -6.0225  -6.0211
    -6.0143  -6.0091  -6.0023  -5.9915  -5.9879  -5.9845  -5.9811  -5.9735
    -5.9702  -5.9671  -5.9605  -5.9471  -5.9440  -5.9331  -5.9252  -5.9135
    -5.9106  -5.9099  -5.8968  -5.8869  -5.8860  -5.8828  -5.8704  -5.8666
    -5.8633  -5.8585  -5.8470  -5.8431  -5.8402  -5.8366  -5.8302  -5.8194
    -5.8186  -5.8169  -5.8141  -5.8128  -5.8013  -5.7981  -5.7906  -5.7878
    -5.7835  -5.7812  -5.7769  -5.7733  -5.7701  -5.7638  -5.7595  -5.7556
    -5.7472  -5.7447  -5.7404  -5.7358  -5.7346  -5.7325  -5.7294  -5.7114
    -5.7089  -5.7046  -5.6953  -5.6932  -5.6924  -5.6848  -5.6816  -5.6796
    -5.6752  -5.6705  -5.6686  -5.6668  -5.6640  -5.6616  -5.6568  -5.6537
    -5.6500  -5.6459  -5.6361  -5.6325  -5.6299  -5.6265  -5.6160  -5.6139
    -5.6090  -5.6065  -5.6043  -5.6024  -5.6003  -5.5985  -5.5963  -5.5936
    -5.5871  -5.5855  -5.5839  -5.5790  -5.5756  -5.5727  -5.5713  -5.5692
    -5.5654  -5.5636  -5.5626  -5.5603  -5.5592  -5.5538  -5.5493  -5.5485
    -5.5438  -5.5422  -5.5415  -5.5347  -5.5290  -5.5261  -5.5231  -5.5215
    -5.5172  -5.5096  -5.5072  -5.5054  -5.5037  -5.4969  -5.4961  -5.4942
    -5.4930  -5.4911  -5.4861  -5.4841  -5.4787  -5.4761  -5.4749  -5.4737
    -5.4716  -5.4602  -5.4544  -5.4483  -5.4457  -5.4451  -5.4432  -5.4397
    -5.4382  -5.4355  -5.4303  -5.4263  -5.4232  -5.4155  -5.3926  -5.3897
    -5.3814  -5.3596  -5.3397  -5.3268  -5.3125  -5.3042  -5.2906  -5.2466
    -5.2217  -4.9643  -4.9352  -4.8286  -4.7445  -4.7215  -4.4250  -4.3315
    -4.2846  -4.1444  -3.8955  -3.8151  -3.3618  -3.2495  -3.2407  -3.1701
    -3.0345  -2.7181  -2.6402  -2.5460  -2.2968  -2.2731  -2.1586  -1.6984
    -1.6892  -1.4413  -1.4130  -1.3878  -1.2080  -1.1798  -1.0309  -0.9673
    -0.9344  -0.8921  -0.5464  -0.5374  -0.4470  -0.4303  -0.2851  -0.2421
     0.0890   0.1801   0.2517   0.4874   0.6229   0.6510   0.6969   0.7554
     0.9279   1.0617   1.2562   1.2784   1.4570   1.4899   1.6524   1.7095
     1.8677   1.9613   2.0976   2.1525   2.2474   2.3272   2.4051   2.6118
     2.8653   3.0132   3.0742   3.1836   3.3218   3.3748   3.5509   3.5628
     3.6600   3.8283   3.9085   3.9151   3.9393   4.0907   4.1256   4.2095
     4.2837   4.3590   4.4434   4.5077   4.5835   4.5987   4.6818   4.7943
     4.8396   4.8626   4.9619   5.0299   5.0557   5.0895   5.1855   5.2872
     5.3051   5.3316   5.3644   5.4670   5.4976   5.5409   5.5777   5.6442
     5.6722   5.8247   5.8770   5.9120   6.0367   6.1062   6.1501   6.2704
     6.2929   6.3127   6.3430   6.4057   6.4638   6.5102   6.5609   6.6219
     6.7009   6.7901   6.8091   6.8382   6.8943   6.9247   6.9768   6.9920
     7.0361   7.1251   7.2619   7.2916   7.3039   7.3630   7.3718   7.4328
     7.5012   7.5208   7.5872   7.5996   7.6449   7.6637   7.7106   7.7353
     7.7707   7.7931   7.8819   7.9134   7.9425   8.0000   8.0970   8.1542

     occupation numbers 
     1.0000   1.0000   1.0000   1.0000   1.0000   1.0000   1.0000   1.0000
     1.0000   1.0000   1.0000   1.0000   1.0000   1.0000   1.0000   1.0000
     1.0000   1.0000   1.0000   1.0000   1.0000   1.0000   1.0000   1.0000
     1.0000   1.0000   1.0000   1.0000   1.0000   1.0000   1.0000   1.0000
     1.0000   1.0000   1.0000   1.0000   1.0000   1.0000   1.0000   1.0000
     1.0000   1.0000   1.0000   1.0000   1.0000   1.0000   1.0000   1.0000
     1.0000   1.0000   1.0000   1.0000   1.0000   1.0000   1.0000   1.0000
     1.0000   1.0000   1.0000   1.0000   1.0000   1.0000   1.0000   1.0000
     1.0000   1.0000   1.0000   1.0000   1.0000   1.0000   1.0000   1.0000
     1.0000   1.0000   1.0000   1.0000   1.0000   1.0000   1.0000   1.0000
     1.0000   1.0000   1.0000   1.0000   1.0000   1.0000   1.0000   1.0000
     1.0000   1.0000   1.0000   1.0000   1.0000   1.0000   1.0000   1.0000
     1.0000   1.0000   1.0000   1.0000   1.0000   1.0000   1.0000   1.0000
     1.0000   1.0000   1.0000   1.0000   1.0000   1.0000   1.0000   1.0000
     1.0000   1.0000   1.0000   1.0000   1.0000   1.0000   1.0000   1.0000
     1.0000   1.0000   1.0000   1.0000   1.0000   1.0000   1.0000   1.0000
     1.0000   1.0000   1.0000   1.0000   1.0000   1.0000   1.0000   1.0000
     1.0000   1.0000   1.0000   1.0000   1.0000   1.0000   1.0000   1.0000
     1.0000   1.0000   1.0000   1.0000   1.0000   1.0000   1.0000   1.0000
     1.0000   1.0000   1.0000   1.0000   1.0000   1.0000   1.0000   1.0000
     1.0000   1.0000   1.0000   1.0000   1.0000   1.0000   1.0000   1.0000
     1.0000   1.0000   1.0000   1.0000   1.0000   1.0000   1.0000   1.0000
     1.0000   1.0000   1.0000   1.0000   1.0000   1.0000   1.0000   1.0000
     1.0000   1.0000   1.0000   1.0000   1.0000   1.0000   1.0000   1.0000
     1.0000   1.0000   1.0000   1.0000   1.0000   1.0000   1.0000   1.0000
     1.0000   1.0000   1.0000   1.0000   1.0000   1.0000   1.0000   1.0000
     1.0000   1.0000   1.0000   1.0000   1.0000   1.0000   1.0000   1.0000
     1.0000   1.0000   1.0000   1.0000   1.0000   1.0000   1.0000   1.0000
     1.0000   1.0000   1.0000   1.0000   1.0000   1.0000   1.0000   1.0000
     1.0000   1.0000   1.0000   1.0000   1.0000   1.0000   1.0000   1.0000
     1.0000   1.0000   1.0000   1.0000   1.0000   1.0000   1.0000   1.0000
     1.0000   1.0000   1.0000   1.0000   1.0000   1.0000   1.0000   1.0000
     1.0000   1.0000   1.0000   1.0000   1.0000   1.0000   1.0000   1.0000
     1.0000   1.0000   1.0000   1.0000   1.0000   1.0000   1.0000   1.0000
     1.0000   1.0000   1.0000   1.0000   1.0000   1.0000   1.0000   1.0000
     1.0000   1.0000   1.0000   1.0000   1.0000   1.0000   1.0000   1.0000
     1.0000   1.0000   1.0000   1.0000   1.0000   1.0000   1.0000   1.0000
     1.0000   1.0000   1.0000   1.0000   1.0000   1.0000   1.0000   1.0000
     1.0000   1.0000   1.0000   1.0000   1.0000   1.0000   1.0000   1.0000
     1.0000   1.0000   1.0000   1.0000   1.0000   1.0000   1.0000   1.0000
     1.0000   1.0000   1.0000   1.0000   1.0000   1.0000   1.0000   1.0000
     1.0000   1.0000   1.0000   1.0000   1.0000   1.0000   1.0000   1.0000
     1.0000   1.0000   1.0000   1.0000   1.0000   1.0000   1.0000   1.0000
     1.0000   1.0000   1.0000   1.0000   1.0000   1.0000   1.0000   1.0000
     1.0000   1.0000   1.0000   1.0000   1.0000   1.0000   1.0000   1.0000
     1.0000   1.0000   1.0000   1.0000   1.0000   1.0000   1.0000   1.0000
     1.0000   1.0000   1.0000   1.0000   1.0000   1.0000   1.0000   1.0000
     1.0000   1.0000   1.0000   1.0000   1.0000   1.0000   1.0000   1.0000
     1.0000   1.0000   1.0000   1.0000   1.0000   1.0000   1.0000   1.0000
     1.0000   1.0000   1.0000   1.0000   1.0000   1.0000   1.0000   1.0000
     1.0000   1.0000   1.0000   1.0000   1.0000   1.0000   1.0000   1.0000
     1.0000   1.0000   1.0000   1.0000   1.0000   1.0000   1.0000   1.0000
     1.0000   1.0000   1.0000   1.0000   1.0000   1.0000   1.0000   1.0000
     1.0000   1.0000   1.0000   1.0000   1.0000   1.0000   1.0000   1.0000
     1.0000   1.0000   1.0000   1.0000   1.0000   1.0000   1.0000   1.0000
     1.0000   1.0000   1.0000   1.0000   1.0000   1.0000   1.0000   1.0000
     1.0000   1.0000   1.0000   1.0000   1.0000   1.0000   1.0000   1.0000
     1.0000   1.0000   1.0000   1.0000   1.0000   1.0000   1.0000   1.0000
     1.0000   1.0000   1.0000   1.0000   1.0000   1.0000   1.0000   1.0000
     1.0000   1.0000   1.0000   1.0000   1.0000   1.0000   1.0000   1.0000
     1.0000   1.0000   1.0000   1.0000   1.0000   1.0000   1.0000   1.0000
     1.0000   1.0000   1.0000   1.0015   1.0103   1.0144   1.0236   1.0399
     1.0831   0.9878   0.5267   0.4667   0.1158   0.0823   0.0101   0.0041
     0.0002   0.0000   0.0000   0.0000   0.0000   0.0000   0.0000   0.0000
     0.0000   0.0000   0.0000   0.0000   0.0000   0.0000   0.0000   0.0000
     0.0000   0.0000   0.0000   0.0000   0.0000   0.0000   0.0000   0.0000
     0.0000   0.0000   0.0000   0.0000   0.0000   0.0000   0.0000   0.0000
     0.0000   0.0000   0.0000   0.0000   0.0000   0.0000   0.0000   0.0000
     0.0000   0.0000   0.0000   0.0000   0.0000   0.0000   0.0000   0.0000
     0.0000   0.0000   0.0000   0.0000   0.0000   0.0000   0.0000   0.0000
     0.0000   0.0000   0.0000   0.0000   0.0000   0.0000   0.0000   0.0000
     0.0000   0.0000   0.0000   0.0000   0.0000   0.0000   0.0000   0.0000
     0.0000   0.0000   0.0000   0.0000   0.0000   0.0000   0.0000   0.0000
     0.0000   0.0000   0.0000   0.0000   0.0000   0.0000   0.0000   0.0000
     0.0000   0.0000   0.0000   0.0000   0.0000   0.0000   0.0000   0.0000

          k = 0.3333 0.0811 0.7384 ( 72005 PWs)   bands (ev):

  -125.0715-125.0692-125.0656-125.0646-125.0629-125.0611-125.0592-125.0568
  -125.0421-125.0393-125.0376-125.0354-125.0345-125.0337-125.0314-125.0299
  -124.9804-124.9790-124.9721-124.9701-124.9692-124.9676-124.9618-124.9515
  -124.9337-124.9329-124.9312-124.9302-124.9125-124.9109-124.9078-124.9046
  -124.9000-124.8738-124.8730-124.8699-124.8675-124.8641-124.8592-124.8442
  -124.8427-124.8426-124.8414-124.8404-124.8311-124.8262-124.8245-124.8236
   -79.2282 -79.2272 -79.2263 -79.2243 -79.2243 -79.2235 -79.2232 -79.2215
   -79.2204 -79.2190 -79.2179 -79.2165 -79.2156 -79.2154 -79.2153 -79.2144
   -79.2135 -79.2117 -79.2111 -79.2100 -79.2092 -79.2077 -79.1994 -79.1987
   -79.1970 -79.1968 -79.1961 -79.1957 -79.1955 -79.1940 -79.1911 -79.1905
   -79.1895 -79.1893 -79.1891 -79.1886 -79.1885 -79.1881 -79.1854 -79.1852
   -79.1849 -79.1844 -79.1840 -79.1838 -79.1832 -79.1830 -79.1713 -79.1710
   -79.1428 -79.1415 -79.1353 -79.1349 -79.1303 -79.1296 -79.1288 -79.1283
   -79.1273 -79.1261 -79.1251 -79.1235 -79.1228 -79.1213 -79.1211 -79.1192
   -79.1183 -79.1166 -79.1148 -79.1117 -79.1109 -79.1099 -79.1013 -79.0960
   -79.0958 -79.0941 -79.0931 -79.0917 -79.0905 -79.0841 -79.0835 -79.0833
   -79.0829 -79.0817 -79.0806 -79.0738 -79.0728 -79.0721 -79.0709 -79.0692
   -79.0659 -79.0644 -79.0637 -79.0620 -79.0604 -79.0592 -79.0588 -79.0558
   -79.0516 -79.0467 -79.0458 -79.0420 -79.0411 -79.0378 -79.0357 -79.0279
   -79.0265 -79.0246 -79.0246 -79.0237 -79.0208 -79.0183 -79.0167 -79.0146
   -79.0134 -79.0121 -79.0099 -79.0095 -79.0082 -79.0081 -79.0065 -79.0058
   -79.0048 -79.0031 -79.0012 -78.9953 -78.9951 -78.9948 -78.9936 -78.9935
   -78.9914 -78.9910 -78.9905 -78.9899 -78.9885 -78.9882 -78.9871 -78.9828
   -78.9825 -78.9784 -78.9777 -78.9764 -78.9762 -78.9753 -78.9743 -78.9626
   -18.8810 -15.8273 -13.8706 -13.0699 -11.3946  -9.9853  -9.1140  -8.2765
    -7.8407  -7.4605  -7.1605  -6.8050  -6.7747  -6.7560  -6.7221  -6.7118
    -6.6604  -6.6563  -6.6170  -6.5935  -6.5909  -6.5900  -6.5664  -6.5575
    -6.5488  -6.5476  -6.5015  -6.4969  -6.4938  -6.4783  -6.4630  -6.4544
    -6.4451  -6.4185  -6.4091  -6.4030  -6.3975  -6.3882  -6.3793  -6.3731
    -6.3684  -6.3617  -6.3543  -6.3511  -6.3480  -6.3421  -6.3412  -6.3393
    -6.3325  -6.3298  -6.3263  -6.3211  -6.3065  -6.3028  -6.2996  -6.2911
    -6.2875  -6.2851  -6.2798  -6.2791  -6.2731  -6.2571  -6.2542  -6.2507
    -6.2379  -6.2296  -6.2148  -6.2096  -6.2027  -6.1965  -6.1932  -6.1891
    -6.1834  -6.1790  -6.1766  -6.1632  -6.1616  -6.1493  -6.1446  -6.1415
    -6.1324  -6.1305  -6.1232  -6.1220  -6.1124  -6.1090  -6.1059  -6.0906
    -6.0889  -6.0828  -6.0809  -6.0775  -6.0744  -6.0667  -6.0619  -6.0609
    -6.0574  -6.0483  -6.0474  -6.0329  -6.0220  -6.0209  -5.9985  -5.9941
    -5.9842  -5.9805  -5.9795  -5.9748  -5.9739  -5.9694  -5.9569  -5.9550
    -5.9505  -5.9466  -5.9410  -5.9367  -5.9314  -5.9237  -5.9151  -5.9111
    -5.9030  -5.9007  -5.8968  -5.8885  -5.8776  -5.8702  -5.8641  -5.8610
    -5.8562  -5.8553  -5.8405  -5.8347  -5.8337  -5.8312  -5.8301  -5.8262
    -5.8245  -5.8162  -5.8097  -5.8093  -5.8059  -5.8022  -5.7992  -5.7975
    -5.7887  -5.7865  -5.7806  -5.7789  -5.7727  -5.7699  -5.7651  -5.7630
    -5.7590  -5.7540  -5.7519  -5.7469  -5.7453  -5.7402  -5.7382  -5.7375
    -5.7328  -5.7312  -5.7303  -5.7283  -5.7249  -5.7231  -5.7132  -5.7115
    -5.7032  -5.7029  -5.6959  -5.6948  -5.6927  -5.6830  -5.6810  -5.6774
    -5.6702  -5.6652  -5.6639  -5.6624  -5.6531  -5.6509  -5.6463  -5.6439
    -5.6421  -5.6386  -5.6349  -5.6315  -5.6309  -5.6293  -5.6260  -5.6094
    -5.6062  -5.6020  -5.5998  -5.5976  -5.5953  -5.5914  -5.5890  -5.5814
    -5.5801  -5.5750  -5.5741  -5.5707  -5.5661  -5.5654  -5.5642  -5.5603
    -5.5562  -5.5511  -5.5472  -5.5438  -5.5366  -5.5334  -5.5320  -5.5294
    -5.5261  -5.5224  -5.5183  -5.5173  -5.5109  -5.5084  -5.5056  -5.5032
    -5.4967  -5.4932  -5.4922  -5.4848  -5.4808  -5.4765  -5.4681  -5.4668
    -5.4664  -5.4602  -5.4531  -5.4394  -5.4356  -5.4317  -5.4282  -5.4254
    -5.4193  -5.4114  -5.3987  -5.3833  -5.3709  -5.3647  -5.3640  -5.3600
    -5.3477  -5.3454  -5.3318  -5.3047  -5.2888  -5.2775  -5.2515  -5.2372
    -5.2242  -5.0012  -4.9426  -4.8824  -4.8417  -4.7914  -4.3402  -4.3307
    -4.2858  -4.1350  -3.8828  -3.8164  -3.6518  -3.3768  -3.3484  -3.2780
    -3.2492  -2.7365  -2.6970  -2.5967  -2.2480  -1.7946  -1.7476  -1.6532
    -1.6505  -1.5539  -1.4529  -1.1791  -1.0960  -1.0381  -0.9661  -0.8478
    -0.8385  -0.6135  -0.5488  -0.4801  -0.2673  -0.2238  -0.1519  -0.1363
    -0.0467  -0.0331   0.2286   0.2835   0.4732   0.6629   0.7507   0.7843
     0.8599   0.9638   1.1947   1.2943   1.5459   1.5537   1.5706   1.5999
     1.6937   1.7494   1.8429   2.0640   2.1422   2.2329   2.4162   2.6505
     2.7998   2.8168   2.8526   3.0442   3.1365   3.1469   3.3503   3.4358
     3.4950   3.6281   3.6674   3.7438   3.9264   4.0993   4.1943   4.2564
     4.2740   4.3855   4.4157   4.4850   4.5295   4.5362   4.6194   4.7601
     4.7941   4.8827   4.8856   4.9651   5.0718   5.1890   5.2964   5.3494
     5.3804   5.4448   5.5509   5.6207   5.6950   5.7684   5.7769   5.8261
     5.9052   5.9981   6.0784   6.1356   6.1687   6.2770   6.3084   6.4123
     6.4763   6.5100   6.5174   6.5645   6.6207   6.6423   6.6892   6.7399
     6.8134   6.8645   6.8937   6.9363   6.9787   7.0213   7.1050   7.1298
     7.1569   7.1929   7.2146   7.2350   7.2914   7.3557   7.3718   7.4503
     7.4573   7.4800   7.5278   7.5667   7.5950   7.6326   7.6745   7.7330
     7.8168   7.8709   7.8838   7.9058   7.9364   7.9485   7.9908   8.0884

     occupation numbers 
     1.0000   1.0000   1.0000   1.0000   1.0000   1.0000   1.0000   1.0000
     1.0000   1.0000   1.0000   1.0000   1.0000   1.0000   1.0000   1.0000
     1.0000   1.0000   1.0000   1.0000   1.0000   1.0000   1.0000   1.0000
     1.0000   1.0000   1.0000   1.0000   1.0000   1.0000   1.0000   1.0000
     1.0000   1.0000   1.0000   1.0000   1.0000   1.0000   1.0000   1.0000
     1.0000   1.0000   1.0000   1.0000   1.0000   1.0000   1.0000   1.0000
     1.0000   1.0000   1.0000   1.0000   1.0000   1.0000   1.0000   1.0000
     1.0000   1.0000   1.0000   1.0000   1.0000   1.0000   1.0000   1.0000
     1.0000   1.0000   1.0000   1.0000   1.0000   1.0000   1.0000   1.0000
     1.0000   1.0000   1.0000   1.0000   1.0000   1.0000   1.0000   1.0000
     1.0000   1.0000   1.0000   1.0000   1.0000   1.0000   1.0000   1.0000
     1.0000   1.0000   1.0000   1.0000   1.0000   1.0000   1.0000   1.0000
     1.0000   1.0000   1.0000   1.0000   1.0000   1.0000   1.0000   1.0000
     1.0000   1.0000   1.0000   1.0000   1.0000   1.0000   1.0000   1.0000
     1.0000   1.0000   1.0000   1.0000   1.0000   1.0000   1.0000   1.0000
     1.0000   1.0000   1.0000   1.0000   1.0000   1.0000   1.0000   1.0000
     1.0000   1.0000   1.0000   1.0000   1.0000   1.0000   1.0000   1.0000
     1.0000   1.0000   1.0000   1.0000   1.0000   1.0000   1.0000   1.0000
     1.0000   1.0000   1.0000   1.0000   1.0000   1.0000   1.0000   1.0000
     1.0000   1.0000   1.0000   1.0000   1.0000   1.0000   1.0000   1.0000
     1.0000   1.0000   1.0000   1.0000   1.0000   1.0000   1.0000   1.0000
     1.0000   1.0000   1.0000   1.0000   1.0000   1.0000   1.0000   1.0000
     1.0000   1.0000   1.0000   1.0000   1.0000   1.0000   1.0000   1.0000
     1.0000   1.0000   1.0000   1.0000   1.0000   1.0000   1.0000   1.0000
     1.0000   1.0000   1.0000   1.0000   1.0000   1.0000   1.0000   1.0000
     1.0000   1.0000   1.0000   1.0000   1.0000   1.0000   1.0000   1.0000
     1.0000   1.0000   1.0000   1.0000   1.0000   1.0000   1.0000   1.0000
     1.0000   1.0000   1.0000   1.0000   1.0000   1.0000   1.0000   1.0000
     1.0000   1.0000   1.0000   1.0000   1.0000   1.0000   1.0000   1.0000
     1.0000   1.0000   1.0000   1.0000   1.0000   1.0000   1.0000   1.0000
     1.0000   1.0000   1.0000   1.0000   1.0000   1.0000   1.0000   1.0000
     1.0000   1.0000   1.0000   1.0000   1.0000   1.0000   1.0000   1.0000
     1.0000   1.0000   1.0000   1.0000   1.0000   1.0000   1.0000   1.0000
     1.0000   1.0000   1.0000   1.0000   1.0000   1.0000   1.0000   1.0000
     1.0000   1.0000   1.0000   1.0000   1.0000   1.0000   1.0000   1.0000
     1.0000   1.0000   1.0000   1.0000   1.0000   1.0000   1.0000   1.0000
     1.0000   1.0000   1.0000   1.0000   1.0000   1.0000   1.0000   1.0000
     1.0000   1.0000   1.0000   1.0000   1.0000   1.0000   1.0000   1.0000
     1.0000   1.0000   1.0000   1.0000   1.0000   1.0000   1.0000   1.0000
     1.0000   1.0000   1.0000   1.0000   1.0000   1.0000   1.0000   1.0000
     1.0000   1.0000   1.0000   1.0000   1.0000   1.0000   1.0000   1.0000
     1.0000   1.0000   1.0000   1.0000   1.0000   1.0000   1.0000   1.0000
     1.0000   1.0000   1.0000   1.0000   1.0000   1.0000   1.0000   1.0000
     1.0000   1.0000   1.0000   1.0000   1.0000   1.0000   1.0000   1.0000
     1.0000   1.0000   1.0000   1.0000   1.0000   1.0000   1.0000   1.0000
     1.0000   1.0000   1.0000   1.0000   1.0000   1.0000   1.0000   1.0000
     1.0000   1.0000   1.0000   1.0000   1.0000   1.0000   1.0000   1.0000
     1.0000   1.0000   1.0000   1.0000   1.0000   1.0000   1.0000   1.0000
     1.0000   1.0000   1.0000   1.0000   1.0000   1.0000   1.0000   1.0000
     1.0000   1.0000   1.0000   1.0000   1.0000   1.0000   1.0000   1.0000
     1.0000   1.0000   1.0000   1.0000   1.0000   1.0000   1.0000   1.0000
     1.0000   1.0000   1.0000   1.0000   1.0000   1.0000   1.0000   1.0000
     1.0000   1.0000   1.0000   1.0000   1.0000   1.0000   1.0000   1.0000
     1.0000   1.0000   1.0000   1.0000   1.0000   1.0000   1.0000   1.0000
     1.0000   1.0000   1.0000   1.0000   1.0000   1.0000   1.0000   1.0000
     1.0000   1.0000   1.0000   1.0000   1.0000   1.0000   1.0000   1.0000
     1.0000   1.0000   1.0000   1.0000   1.0000   1.0000   1.0000   1.0000
     1.0000   1.0000   1.0000   1.0000   1.0000   1.0000   1.0000   1.0000
     1.0000   1.0000   1.0000   1.0000   1.0000   1.0000   1.0000   1.0000
     1.0000   1.0000   1.0000   1.0000   1.0000   1.0000   1.0000   1.0000
     1.0000   1.0000   1.0000   1.0000   1.0000   1.0000   1.0000   1.0000
     1.0000   1.0000   1.0000   1.0000   1.0012   1.0165   1.0384   1.0494
     1.0742   1.0758   0.6959   0.4251   0.0432   0.0392   0.0317   0.0215
     0.0053   0.0021   0.0004   0.0000   0.0000   0.0000   0.0000   0.0000
     0.0000   0.0000   0.0000   0.0000   0.0000   0.0000   0.0000   0.0000
     0.0000   0.0000   0.0000   0.0000   0.0000   0.0000   0.0000   0.0000
     0.0000   0.0000   0.0000   0.0000   0.0000   0.0000   0.0000   0.0000
     0.0000   0.0000   0.0000   0.0000   0.0000   0.0000   0.0000   0.0000
     0.0000   0.0000   0.0000   0.0000   0.0000   0.0000   0.0000   0.0000
     0.0000   0.0000   0.0000   0.0000   0.0000   0.0000   0.0000   0.0000
     0.0000   0.0000   0.0000   0.0000   0.0000   0.0000   0.0000   0.0000
     0.0000   0.0000   0.0000   0.0000   0.0000   0.0000   0.0000   0.0000
     0.0000   0.0000   0.0000   0.0000   0.0000   0.0000   0.0000   0.0000
     0.0000   0.0000   0.0000   0.0000   0.0000   0.0000   0.0000   0.0000
     0.0000   0.0000   0.0000   0.0000   0.0000   0.0000   0.0000   0.0000

          k = 0.3333 0.4439 0.9230 ( 71974 PWs)   bands (ev):

  -125.0715-125.0692-125.0656-125.0646-125.0629-125.0611-125.0592-125.0568
  -125.0421-125.0393-125.0376-125.0354-125.0345-125.0336-125.0314-125.0299
  -124.9804-124.9790-124.9721-124.9701-124.9691-124.9676-124.9618-124.9515
  -124.9337-124.9329-124.9312-124.9302-124.9125-124.9109-124.9078-124.9046
  -124.9000-124.8738-124.8730-124.8699-124.8675-124.8641-124.8592-124.8442
  -124.8428-124.8425-124.8414-124.8405-124.8311-124.8262-124.8245-124.8236
   -79.2282 -79.2264 -79.2261 -79.2243 -79.2242 -79.2232 -79.2223 -79.2215
   -79.2204 -79.2190 -79.2184 -79.2179 -79.2165 -79.2158 -79.2156 -79.2153
   -79.2152 -79.2135 -79.2100 -79.2077 -79.2076 -79.2046 -79.2004 -79.1980
   -79.1978 -79.1960 -79.1958 -79.1957 -79.1955 -79.1940 -79.1911 -79.1905
   -79.1899 -79.1896 -79.1895 -79.1892 -79.1891 -79.1886 -79.1884 -79.1881
   -79.1853 -79.1840 -79.1838 -79.1831 -79.1796 -79.1783 -79.1724 -79.1723
   -79.1428 -79.1415 -79.1349 -79.1333 -79.1303 -79.1296 -79.1288 -79.1286
   -79.1283 -79.1272 -79.1261 -79.1251 -79.1238 -79.1212 -79.1193 -79.1183
   -79.1166 -79.1161 -79.1148 -79.1116 -79.1115 -79.1100 -79.1014 -79.0963
   -79.0944 -79.0940 -79.0931 -79.0917 -79.0905 -79.0893 -79.0840 -79.0831
   -79.0816 -79.0806 -79.0773 -79.0738 -79.0724 -79.0721 -79.0715 -79.0692
   -79.0660 -79.0655 -79.0644 -79.0637 -79.0620 -79.0588 -79.0559 -79.0542
   -79.0516 -79.0480 -79.0458 -79.0420 -79.0411 -79.0378 -79.0357 -79.0279
   -79.0250 -79.0246 -79.0246 -79.0238 -79.0208 -79.0198 -79.0183 -79.0167
   -79.0121 -79.0103 -79.0099 -79.0084 -79.0082 -79.0080 -79.0065 -79.0058
   -79.0039 -79.0026 -79.0016 -78.9968 -78.9953 -78.9951 -78.9948 -78.9937
   -78.9933 -78.9913 -78.9899 -78.9883 -78.9872 -78.9870 -78.9847 -78.9829
   -78.9825 -78.9811 -78.9800 -78.9777 -78.9762 -78.9753 -78.9695 -78.9640
   -18.8810 -15.8274 -13.8702 -13.0699 -11.3957  -9.9853  -9.1121  -8.2760
    -7.6142  -7.4145  -7.3291  -7.1612  -6.7286  -6.7049  -6.6741  -6.6482
    -6.6392  -6.5718  -6.5703  -6.5614  -6.5388  -6.5320  -6.5287  -6.5223
    -6.5091  -6.5075  -6.4867  -6.4853  -6.4839  -6.4728  -6.4692  -6.4594
    -6.4562  -6.4543  -6.4466  -6.4346  -6.4340  -6.4274  -6.4209  -6.4163
    -6.4094  -6.4067  -6.3945  -6.3932  -6.3892  -6.3867  -6.3742  -6.3698
    -6.3635  -6.3492  -6.3484  -6.3382  -6.3358  -6.3280  -6.3166  -6.3142
    -6.3053  -6.3041  -6.2842  -6.2748  -6.2659  -6.2587  -6.2557  -6.2546
    -6.2334  -6.2287  -6.2249  -6.2222  -6.2216  -6.2128  -6.2098  -6.2011
    -6.2001  -6.1941  -6.1823  -6.1760  -6.1736  -6.1584  -6.1538  -6.1396
    -6.1369  -6.1302  -6.1282  -6.1262  -6.1249  -6.1202  -6.1166  -6.1103
    -6.1043  -6.1017  -6.0852  -6.0817  -6.0771  -6.0704  -6.0681  -6.0652
    -6.0623  -6.0599  -6.0544  -6.0448  -6.0426  -6.0244  -6.0231  -6.0200
    -6.0192  -6.0135  -6.0090  -6.0030  -5.9961  -5.9892  -5.9854  -5.9808
    -5.9726  -5.9671  -5.9476  -5.9446  -5.9429  -5.9270  -5.9228  -5.9122
    -5.9111  -5.9090  -5.8993  -5.8970  -5.8865  -5.8850  -5.8761  -5.8745
    -5.8708  -5.8588  -5.8481  -5.8407  -5.8367  -5.8300  -5.8258  -5.8184
    -5.8144  -5.8132  -5.8104  -5.8011  -5.8007  -5.7973  -5.7947  -5.7881
    -5.7820  -5.7813  -5.7806  -5.7770  -5.7740  -5.7706  -5.7626  -5.7588
    -5.7569  -5.7549  -5.7462  -5.7452  -5.7358  -5.7336  -5.7295  -5.7170
    -5.7140  -5.7077  -5.7059  -5.6982  -5.6955  -5.6929  -5.6919  -5.6801
    -5.6787  -5.6740  -5.6702  -5.6661  -5.6658  -5.6562  -5.6550  -5.6502
    -5.6479  -5.6463  -5.6448  -5.6430  -5.6330  -5.6310  -5.6294  -5.6170
    -5.6161  -5.6130  -5.6082  -5.6048  -5.6034  -5.6016  -5.5959  -5.5908
    -5.5868  -5.5857  -5.5825  -5.5811  -5.5769  -5.5754  -5.5723  -5.5706
    -5.5676  -5.5617  -5.5608  -5.5561  -5.5493  -5.5486  -5.5441  -5.5422
    -5.5419  -5.5394  -5.5292  -5.5273  -5.5263  -5.5249  -5.5225  -5.5186
    -5.5175  -5.5165  -5.5085  -5.5056  -5.5040  -5.5025  -5.4996  -5.4979
    -5.4955  -5.4930  -5.4918  -5.4857  -5.4841  -5.4784  -5.4741  -5.4608
    -5.4590  -5.4524  -5.4519  -5.4480  -5.4455  -5.4447  -5.4430  -5.4399
    -5.4364  -5.4318  -5.4271  -5.4230  -5.4150  -5.4031  -5.3992  -5.3895
    -5.3794  -5.3779  -5.3439  -5.3264  -5.3106  -5.2862  -5.2702  -5.1268
    -4.9693  -4.9382  -4.9046  -4.7999  -4.7436  -4.7204  -4.4490  -4.3315
    -4.2846  -4.1445  -3.8212  -3.8156  -3.4423  -3.3556  -3.2435  -3.1711
    -2.9381  -2.7172  -2.5650  -2.5457  -2.4378  -2.2767  -2.2518  -2.1571
    -1.9403  -1.8931  -1.8371  -1.3905  -1.2070  -1.1572  -1.0444  -0.9404
    -0.8196  -0.5378  -0.4480  -0.4302  -0.3166  -0.2828  -0.0537   0.0868
     0.2036   0.2698   0.4238   0.6471   0.6528   0.6697   0.8121   0.9232
     1.0178   1.0503   1.2924   1.3343   1.4642   1.5719   1.7040   1.8453
     1.8729   1.9624   2.1541   2.1899   2.2481   2.3716   2.4170   2.5000
     2.7697   2.8634   2.9803   3.0097   3.0687   3.1993   3.3408   3.3855
     3.5533   3.6227   3.6611   3.8075   3.9016   3.9540   4.0930   4.1413
     4.1752   4.2548   4.2913   4.3039   4.3977   4.5113   4.5366   4.6091
     4.8475   4.8983   4.9693   5.0639   5.0866   5.1361   5.2609   5.3001
     5.3046   5.4821   5.5064   5.5227   5.5768   5.6028   5.6451   5.6770
     5.7898   5.8792   5.9850   6.0209   6.0552   6.0903   6.1948   6.2061
     6.2580   6.3009   6.3611   6.3997   6.4881   6.5458   6.5651   6.6157
     6.6643   6.6824   6.7862   6.7974   6.8159   6.8660   6.9839   7.0072
     7.0427   7.0904   7.1333   7.1924   7.2215   7.2908   7.4333   7.4731
     7.5632   7.6048   7.6555   7.6914   7.7387   7.7637   7.8656   7.9268
     7.9726   7.9986   8.0671   8.1106   8.1234   8.1720   8.2171   8.3026

     occupation numbers 
     1.0000   1.0000   1.0000   1.0000   1.0000   1.0000   1.0000   1.0000
     1.0000   1.0000   1.0000   1.0000   1.0000   1.0000   1.0000   1.0000
     1.0000   1.0000   1.0000   1.0000   1.0000   1.0000   1.0000   1.0000
     1.0000   1.0000   1.0000   1.0000   1.0000   1.0000   1.0000   1.0000
     1.0000   1.0000   1.0000   1.0000   1.0000   1.0000   1.0000   1.0000
     1.0000   1.0000   1.0000   1.0000   1.0000   1.0000   1.0000   1.0000
     1.0000   1.0000   1.0000   1.0000   1.0000   1.0000   1.0000   1.0000
     1.0000   1.0000   1.0000   1.0000   1.0000   1.0000   1.0000   1.0000
     1.0000   1.0000   1.0000   1.0000   1.0000   1.0000   1.0000   1.0000
     1.0000   1.0000   1.0000   1.0000   1.0000   1.0000   1.0000   1.0000
     1.0000   1.0000   1.0000   1.0000   1.0000   1.0000   1.0000   1.0000
     1.0000   1.0000   1.0000   1.0000   1.0000   1.0000   1.0000   1.0000
     1.0000   1.0000   1.0000   1.0000   1.0000   1.0000   1.0000   1.0000
     1.0000   1.0000   1.0000   1.0000   1.0000   1.0000   1.0000   1.0000
     1.0000   1.0000   1.0000   1.0000   1.0000   1.0000   1.0000   1.0000
     1.0000   1.0000   1.0000   1.0000   1.0000   1.0000   1.0000   1.0000
     1.0000   1.0000   1.0000   1.0000   1.0000   1.0000   1.0000   1.0000
     1.0000   1.0000   1.0000   1.0000   1.0000   1.0000   1.0000   1.0000
     1.0000   1.0000   1.0000   1.0000   1.0000   1.0000   1.0000   1.0000
     1.0000   1.0000   1.0000   1.0000   1.0000   1.0000   1.0000   1.0000
     1.0000   1.0000   1.0000   1.0000   1.0000   1.0000   1.0000   1.0000
     1.0000   1.0000   1.0000   1.0000   1.0000   1.0000   1.0000   1.0000
     1.0000   1.0000   1.0000   1.0000   1.0000   1.0000   1.0000   1.0000
     1.0000   1.0000   1.0000   1.0000   1.0000   1.0000   1.0000   1.0000
     1.0000   1.0000   1.0000   1.0000   1.0000   1.0000   1.0000   1.0000
     1.0000   1.0000   1.0000   1.0000   1.0000   1.0000   1.0000   1.0000
     1.0000   1.0000   1.0000   1.0000   1.0000   1.0000   1.0000   1.0000
     1.0000   1.0000   1.0000   1.0000   1.0000   1.0000   1.0000   1.0000
     1.0000   1.0000   1.0000   1.0000   1.0000   1.0000   1.0000   1.0000
     1.0000   1.0000   1.0000   1.0000   1.0000   1.0000   1.0000   1.0000
     1.0000   1.0000   1.0000   1.0000   1.0000   1.0000   1.0000   1.0000
     1.0000   1.0000   1.0000   1.0000   1.0000   1.0000   1.0000   1.0000
     1.0000   1.0000   1.0000   1.0000   1.0000   1.0000   1.0000   1.0000
     1.0000   1.0000   1.0000   1.0000   1.0000   1.0000   1.0000   1.0000
     1.0000   1.0000   1.0000   1.0000   1.0000   1.0000   1.0000   1.0000
     1.0000   1.0000   1.0000   1.0000   1.0000   1.0000   1.0000   1.0000
     1.0000   1.0000   1.0000   1.0000   1.0000   1.0000   1.0000   1.0000
     1.0000   1.0000   1.0000   1.0000   1.0000   1.0000   1.0000   1.0000
     1.0000   1.0000   1.0000   1.0000   1.0000   1.0000   1.0000   1.0000
     1.0000   1.0000   1.0000   1.0000   1.0000   1.0000   1.0000   1.0000
     1.0000   1.0000   1.0000   1.0000   1.0000   1.0000   1.0000   1.0000
     1.0000   1.0000   1.0000   1.0000   1.0000   1.0000   1.0000   1.0000
     1.0000   1.0000   1.0000   1.0000   1.0000   1.0000   1.0000   1.0000
     1.0000   1.0000   1.0000   1.0000   1.0000   1.0000   1.0000   1.0000
     1.0000   1.0000   1.0000   1.0000   1.0000   1.0000   1.0000   1.0000
     1.0000   1.0000   1.0000   1.0000   1.0000   1.0000   1.0000   1.0000
     1.0000   1.0000   1.0000   1.0000   1.0000   1.0000   1.0000   1.0000
     1.0000   1.0000   1.0000   1.0000   1.0000   1.0000   1.0000   1.0000
     1.0000   1.0000   1.0000   1.0000   1.0000   1.0000   1.0000   1.0000
     1.0000   1.0000   1.0000   1.0000   1.0000   1.0000   1.0000   1.0000
[...]
     atom   46 type  1   force =     0.00003685   -0.00004711   -0.00004372
     atom   47 type  1   force =     0.00013581    0.00012413    0.00010661
     atom   48 type  1   force =     0.00019655   -0.00003113    0.00005549
     atom   49 type  3   force =     0.00001808   -0.00000310    0.00000542
     atom   50 type  3   force =     0.00002587    0.00006899   -0.00000508
     atom   51 type  3   force =     0.00000393    0.00008125   -0.00001088
     atom   52 type  3   force =     0.00005190    0.00002476   -0.00000819
     atom   53 type  3   force =     0.00002475    0.00003548    0.00000193
     atom   54 type  3   force =     0.00000602    0.00005830   -0.00001906
     atom   55 type  3   force =     0.00002188    0.00004754   -0.00000132
     atom   56 type  2   force =     0.00003873   -0.00001000   -0.00001432
     atom   57 type  4   force =     0.00000858   -0.00000031    0.00000261
     atom   58 type  4   force =     0.00000510    0.00000780    0.00000138
     atom   59 type  4   force =     0.00000278    0.00000742   -0.00000007
     atom   60 type  4   force =    -0.00000295   -0.00000757    0.00000140
     atom   61 type  4   force =    -0.00000219   -0.00000903    0.00000041
     atom   62 type  4   force =     0.00001197   -0.00000204    0.00000059

     DFT-D3 dispersion contribution to forces:
     atom    1 type  1   force =    -0.00082250   -0.00018945    0.00272653
     atom    2 type  1   force =    -0.00081776   -0.00021115    0.00272314
     atom    3 type  1   force =     0.00146192    0.00041469    0.00119407
     atom    4 type  1   force =     0.00143264    0.00032973    0.00117569
     atom    5 type  1   force =    -0.00033380    0.00032593   -0.00010115
     atom    6 type  1   force =    -0.00020179   -0.00038829   -0.00032576
     atom    7 type  1   force =    -0.00080670   -0.00018482    0.00274041
     atom    8 type  1   force =    -0.00083788   -0.00020229    0.00271064
     atom    9 type  1   force =     0.00139742    0.00037631    0.00122681
     atom   10 type  1   force =     0.00148421    0.00037171    0.00117608
     atom   11 type  1   force =    -0.00034404    0.00023431    0.00038952
     atom   12 type  1   force =    -0.00013359   -0.00049698   -0.00046708
     atom   13 type  1   force =    -0.00140123   -0.00031899    0.00169108
     atom   14 type  1   force =    -0.00140030   -0.00033477    0.00167398
     atom   15 type  1   force =    -0.00013489    0.00003916   -0.00017919
     atom   16 type  1   force =    -0.00006299   -0.00001403   -0.00013073
     atom   17 type  1   force =     0.00061393    0.00019917   -0.00243886
     atom   18 type  1   force =     0.00052506    0.00007601   -0.00243743
     atom   19 type  1   force =    -0.00141444   -0.00032739    0.00172360
     atom   20 type  1   force =    -0.00138446   -0.00033114    0.00164525
     atom   21 type  1   force =    -0.00004280    0.00003286   -0.00001894
     atom   22 type  1   force =    -0.00011051    0.00000850   -0.00021409
     atom   23 type  1   force =     0.00060916    0.00013139   -0.00234525
     atom   24 type  1   force =     0.00057728    0.00014940   -0.00252444
     atom   25 type  1   force =     0.00057469    0.00014888    0.00286278
     atom   26 type  1   force =     0.00056203    0.00014606    0.00290305
     atom   27 type  1   force =    -0.00062260   -0.00014149   -0.00037772
     atom   28 type  1   force =    -0.00060845   -0.00016658   -0.00028432
     atom   29 type  1   force =    -0.00001962    0.00005932   -0.00308120
     atom   30 type  1   force =    -0.00039128   -0.00007844   -0.00234144
     atom   31 type  1   force =     0.00056479    0.00015027    0.00289460
     atom   32 type  1   force =     0.00057475    0.00015226    0.00283868
     atom   33 type  1   force =    -0.00059224   -0.00011926   -0.00028606
     atom   34 type  1   force =    -0.00062478   -0.00018108   -0.00034567
     atom   35 type  1   force =    -0.00020980    0.00011048   -0.00267828
     atom   36 type  1   force =    -0.00019877   -0.00026728   -0.00274622
     atom   37 type  1   force =     0.00072102    0.00016764    0.00229510
     atom   38 type  1   force =     0.00072994    0.00018694    0.00232260
     atom   39 type  1   force =    -0.00099501   -0.00025221    0.00002391
     atom   40 type  1   force =    -0.00093577   -0.00029597    0.00014432
     atom   41 type  1   force =     0.00099935    0.00033359   -0.00233739
     atom   42 type  1   force =     0.00127311    0.00015161   -0.00204095
     atom   43 type  1   force =     0.00072731    0.00018965    0.00229604
     atom   44 type  1   force =     0.00072334    0.00016893    0.00231656
     atom   45 type  1   force =    -0.00093240   -0.00022767    0.00003196
     atom   46 type  1   force =    -0.00097510   -0.00030677    0.00007451
     atom   47 type  1   force =     0.00119580    0.00034982   -0.00193152
     atom   48 type  1   force =     0.00096712    0.00017306   -0.00253793
     atom   49 type  3   force =    -0.00016309   -0.00015384   -0.00053415
     atom   50 type  3   force =    -0.00034224   -0.00038101   -0.00100372
     atom   51 type  3   force =     0.00027007    0.00022213   -0.00097427
     atom   52 type  3   force =     0.00010995    0.00025016   -0.00124643
     atom   53 type  3   force =    -0.00023101   -0.00016848   -0.00083180
     atom   54 type  3   force =     0.00030309   -0.00003658   -0.00111865
     atom   55 type  3   force =    -0.00028667   -0.00015127   -0.00103326
     atom   56 type  2   force =     0.00006264    0.00013125   -0.00110232
     atom   57 type  4   force =     0.00004765   -0.00016264   -0.00004595
     atom   58 type  4   force =    -0.00007831   -0.00014317   -0.00059974
     atom   59 type  4   force =     0.00013978    0.00020728   -0.00026822
     atom   60 type  4   force =    -0.00002148   -0.00002644   -0.00011237
     atom   61 type  4   force =    -0.00023122    0.00004857   -0.00137674
     atom   62 type  4   force =     0.00006145    0.00022238   -0.00138168

     Total force =     0.010717     Total SCF correction =     0.001221

     DFT-D3 dispersion Force =     0.015029
     SCF correction compared to forces is large: reduce conv_thr to get better values


     Computing stress (Cartesian axis) and pressure


     negative rho (up, down):  4.394E-03 0.000E+00
          total   stress  (Ry/bohr**3)                   (kbar)     P=      -13.53
  -0.00015796  -0.00000093   0.00000782          -23.24       -0.14        1.15
  -0.00000093  -0.00011274   0.00000307           -0.14      -16.58        0.45
   0.00000782   0.00000307  -0.00000513            1.15        0.45       -0.75

     kinetic stress (kbar)  11615.26     14.37      1.47
                               14.37  11601.06     18.10
                                1.47     18.10  11696.52

     local   stress (kbar)-862749.34   3403.31   1933.40
                             3403.31-875523.39   1090.72
                             1933.40   1090.72 871773.55

     nonloc. stress (kbar)  -1117.51     -6.59     -2.28
                               -6.59  -1096.06     -2.52
                               -2.28     -2.52  -1138.83

     hartree stress (kbar) 456213.46  -1495.81   -832.38
                            -1495.81 461872.20   -435.81
                             -832.38   -435.81-404294.55

     exc-cor stress (kbar)  -5685.50     -1.00     -0.21
                               -1.00  -5682.75     -1.21
                               -0.21     -1.21  -5692.81

     corecor stress (kbar)    -71.97      0.18     -0.15
                                0.18    -72.18      0.40
                               -0.15      0.40    -70.93

     ewald   stress (kbar) 401779.06  -1915.00  -1099.01
                            -1915.00 408892.71   -669.27
                            -1099.01   -669.27-472270.09

     hubbard stress (kbar)      0.00      0.00      0.00
                                0.00      0.00      0.00
                                0.00      0.00      0.00

     DFT-D   stress (kbar)     -6.69      0.41      0.31
                                0.41     -8.17      0.05
                                0.31      0.05     -3.61

     XDM     stress (kbar)      0.00      0.00      0.00
                                0.00      0.00      0.00
                                0.00      0.00      0.00

     dft-nl  stress (kbar)      0.00      0.00      0.00
                                0.00      0.00      0.00
                                0.00      0.00      0.00

     TS-vdW  stress (kbar)      0.00      0.00      0.00
                                0.00      0.00      0.00
                                0.00      0.00      0.00

     MDB     stress (kbar)      0.00      0.00      0.00
                                0.00      0.00      0.00
                                0.00      0.00      0.00

     3D-RISM stress (kbar)      0.00      0.00      0.00
                                0.00      0.00      0.00
                                0.00      0.00      0.00

     Energy error            =      2.7E-04 Ry
     Gradient error          =      2.9E-03 Ry/Bohr

     number of scf cycles    =  27
     number of bfgs steps    =  26

     energy             old  =  -22310.4435174612 Ry
     energy             new  =  -22310.4437856571 Ry

     CASE: energy            _new < energy            _old

     new trust radius        =       0.0280297666 bohr
     new conv_thr            =       0.0000000288 Ry


ATOMIC_POSITIONS (angstrom)
Zn              -1.0735560000        1.0841420000        1.1977640000    0   0   0
Zn              -2.3094850000        6.1646920000        1.1977640000    0   0   0
Zn              -4.8643905683        0.1647949409        3.8102103791
Zn              -6.1070910452        5.2379023746        3.7990755206
Zn              -9.0093578368       -0.8662019541        5.8380902199
Zn             -10.2594353011        4.2155712086        5.7258468206
Zn              -1.6915200000        3.6244170000        1.1977640000    0   0   0
Zn              -2.9274500000        8.7049670000        1.1977640000    0   0   0
Zn              -5.4906019228        2.7002377163        3.8130503198
Zn              -6.7180138253        7.7841272867        3.8027186557
Zn              -9.6309611206        1.6650900558        5.7854631584
Zn             -10.8716389309        6.7597161061        5.7991088174
Zn               4.4565960000        1.0841420000        1.1977640000    0   0   0
Zn               3.2206660000        6.1646920000        1.1977640000    0   0   0
Zn               0.5234910303        0.1244729141        3.4594931623
Zn              -0.7155025956        5.2093040750        3.4437848254
Zn              -3.1426517879       -0.7676011338        5.7402514660
Zn              -4.3931051671        4.3076073992        5.7443535491
Zn               3.8386310000        3.6244170000        1.1977640000    0   0   0
Zn               2.6027020000        8.7049670000        1.1977640000    0   0   0
Zn              -0.0899722870        2.6636891913        3.4542433804
Zn              -1.3272008538        7.7512590977        3.4650159628
Zn              -3.7663457741        1.7699857796        5.7484416197
Zn              -5.0043653313        6.8507409467        5.7340922557
Zn               1.6915200000        0.4114910000        0.8555450000    0   0   0
Zn               0.4555910000        5.4920410000        0.8555450000    0   0   0
Zn              -2.3426539461       -0.5719281542        2.9425670778
Zn              -3.5844774756        4.5049725114        2.9482803544
Zn              -6.5430075943       -1.5962367915        4.9648355890
Zn              -7.7831252509        3.4775382846        4.9829898844
Zn               1.0735560000        2.9517660000        0.8555450000    0   0   0
Zn              -0.1623740000        8.0323160000        0.8555450000    0   0   0
Zn              -2.9621591222        1.9680480494        2.9536982891
Zn              -4.1994143928        7.0461852336        2.9418051403
Zn              -7.1631313080        0.9397202465        4.9777569732
Zn              -8.3917536943        6.0239286472        4.9714764702
Zn               7.2216720000        0.4114910000        0.8555450000    0   0   0
Zn               5.9857420000        5.4920410000        0.8555450000    0   0   0
Zn               3.1385832661       -0.5886654336        2.9014642905
Zn               1.9109644505        4.4898929154        2.8996670549
Zn              -0.6571396045       -1.5081516505        5.2022232421
Zn              -1.9027874916        3.5707497631        5.1855988121
Zn               6.6037070000        2.9517660000        0.8555450000    0   0   0
Zn               5.3677780000        8.0323160000        0.8555450000    0   0   0
Zn               2.5288769300        1.9502929978        2.8946637362
Zn               1.2872236539        7.0305964517        2.9052667573
Zn              -1.2753154618        1.0354469903        5.2048373096
Zn              -2.5221891024        6.1068782307        5.1807633810
C               -8.7958015525       -1.1055292650       10.5769975523
C              -10.7468623528        1.8248706119        9.5779572675
C               -8.0457155025        1.1274792621        9.8482916718
C               -9.6481335604        2.7834795368        9.3359799250
C               -9.1415275148        0.1025342435       10.0486403494
C               -8.3056763517        2.3955237123        9.5159108003
C              -10.4756552930        0.5360186880        9.8267550334
N               -9.9686515642        4.0024589915        8.8681698739
H               -7.7563923640       -1.3351452011       10.8137012246
H              -11.7595213974        2.2077318847        9.4016094438
H               -7.0425641338        0.7495460091       10.0837611322
H               -9.5635300198       -1.8350222073       10.8296510343
H               -9.2287479743        4.6456637284        8.6042330787
H              -10.9253781500        4.2738867132        8.6666238027



     Writing config-only to output data dir ./tmp/Zn101_3layer_ptoluidine_relax.save/ :
     XML data file
     NEW-OLD atomic charge density approx. for the potential

     negative rho (up, down):  4.405E-03 0.000E+00

     total cpu time spent up to now is    92598.1 secs

     Self-consistent Calculation

     iteration #  1     ecut=    40.00 Ry     beta= 0.40
     Davidson diagonalization with overlap

---- Real-time Memory Report at c_bands before calling an iterative solver
           483 MiB given to the printing process from OS
             0 MiB allocation reported by mallinfo(arena+hblkhd)
         13759 MiB available memory on the node where the printing process lives
------------------
     ethr =  1.00E-06,  avg # of iterations =  5.0

     Threshold (ethr) on eigenvalues was too large:
     Diagonalizing with lowered threshold

     Davidson diagonalization with overlap

---- Real-time Memory Report at c_bands before calling an iterative solver
           483 MiB given to the printing process from OS
             0 MiB allocation reported by mallinfo(arena+hblkhd)
         13756 MiB available memory on the node where the printing process lives
------------------
     ethr =  2.82E-08,  avg # of iterations =  3.6

     negative rho (up, down):  4.404E-03 0.000E+00

     total cpu time spent up to now is    93326.1 secs

     total energy              =  -22310.44399500 Ry
     estimated scf accuracy    <       0.00029086 Ry

     iteration #  2     ecut=    40.00 Ry     beta= 0.40
     Davidson diagonalization with overlap

---- Real-time Memory Report at c_bands before calling an iterative solver
           483 MiB given to the printing process from OS
             0 MiB allocation reported by mallinfo(arena+hblkhd)
         13645 MiB available memory on the node where the printing process lives
------------------
     ethr =  2.91E-08,  avg # of iterations =  3.0

     negative rho (up, down):  4.408E-03 0.000E+00

     total cpu time spent up to now is    93581.5 secs

     total energy              =  -22310.44391688 Ry
     estimated scf accuracy    <       0.00065239 Ry

     iteration #  3     ecut=    40.00 Ry     beta= 0.40
     Davidson diagonalization with overlap

---- Real-time Memory Report at c_bands before calling an iterative solver
           483 MiB given to the printing process from OS
             0 MiB allocation reported by mallinfo(arena+hblkhd)
         13621 MiB available memory on the node where the printing process lives
------------------
     ethr =  2.91E-08,  avg # of iterations =  2.2

     negative rho (up, down):  4.405E-03 0.000E+00

     total cpu time spent up to now is    93831.8 secs

     total energy              =  -22310.44389237 Ry
     estimated scf accuracy    <       0.00365929 Ry

     iteration #  4     ecut=    40.00 Ry     beta= 0.40
     Davidson diagonalization with overlap

---- Real-time Memory Report at c_bands before calling an iterative solver
           483 MiB given to the printing process from OS
             0 MiB allocation reported by mallinfo(arena+hblkhd)
         13595 MiB available memory on the node where the printing process lives
------------------
     ethr =  2.91E-08,  avg # of iterations =  2.0

     negative rho (up, down):  4.405E-03 0.000E+00

     total cpu time spent up to now is    94083.3 secs

     total energy              =  -22310.44397521 Ry
     estimated scf accuracy    <       0.00078225 Ry

     iteration #  5     ecut=    40.00 Ry     beta= 0.40
     Davidson diagonalization with overlap

---- Real-time Memory Report at c_bands before calling an iterative solver
           483 MiB given to the printing process from OS
             0 MiB allocation reported by mallinfo(arena+hblkhd)
         13574 MiB available memory on the node where the printing process lives
------------------
     ethr =  2.91E-08,  avg # of iterations =  2.0

     negative rho (up, down):  4.403E-03 0.000E+00

     total cpu time spent up to now is    94332.9 secs

     total energy              =  -22310.44402365 Ry
     estimated scf accuracy    <       0.00002430 Ry

     iteration #  6     ecut=    40.00 Ry     beta= 0.40
     Davidson diagonalization with overlap

---- Real-time Memory Report at c_bands before calling an iterative solver
           483 MiB given to the printing process from OS
             0 MiB allocation reported by mallinfo(arena+hblkhd)
         13551 MiB available memory on the node where the printing process lives
------------------
     ethr =  2.43E-09,  avg # of iterations =  3.0

     negative rho (up, down):  4.402E-03 0.000E+00

     total cpu time spent up to now is    94586.0 secs

     total energy              =  -22310.44402518 Ry
     estimated scf accuracy    <       0.00002728 Ry

     iteration #  7     ecut=    40.00 Ry     beta= 0.40
     Davidson diagonalization with overlap

---- Real-time Memory Report at c_bands before calling an iterative solver
           483 MiB given to the printing process from OS
             0 MiB allocation reported by mallinfo(arena+hblkhd)
         13529 MiB available memory on the node where the printing process lives
------------------
     ethr =  2.43E-09,  avg # of iterations =  2.0

     negative rho (up, down):  4.402E-03 0.000E+00

     total cpu time spent up to now is    94834.4 secs

     total energy              =  -22310.44402769 Ry
     estimated scf accuracy    <       0.00000324 Ry

     iteration #  8     ecut=    40.00 Ry     beta= 0.40
     Davidson diagonalization with overlap

---- Real-time Memory Report at c_bands before calling an iterative solver
           483 MiB given to the printing process from OS
             0 MiB allocation reported by mallinfo(arena+hblkhd)
         13504 MiB available memory on the node where the printing process lives
------------------
