--------------------------------------------------------------------------
By default, for Open MPI 4.0 and later, infiniband ports on a device
are not used by default.  The intent is to use UCX for these devices.
You can override this policy by setting the btl_openib_allow_ib MCA parameter
to true.

  Local host:              psid01
  Local adapter:           mlx5_0
  Local port:              1

--------------------------------------------------------------------------
--------------------------------------------------------------------------
WARNING: There was an error initializing an OpenFabrics device.

  Local host:   psid01
  Local device: mlx5_0
--------------------------------------------------------------------------
[psid01:222601] [[18971,0],0] ORTE_ERROR_LOG: Out of resource in file util/show_help.c at line 507

     Program PWSCF v.7.3.1 starts on 26Mar2025 at  1:14:12 

     This program is part of the open-source Quantum ESPRESSO suite
     for quantum simulation of materials; please cite
         "P. Giannozzi et al., J. Phys.:Condens. Matter 21 395502 (2009);
         "P. Giannozzi et al., J. Phys.:Condens. Matter 29 465901 (2017);
         "P. Giannozzi et al., J. Chem. Phys. 152 154105 (2020);
          URL http://www.quantum-espresso.org", 
     in publications or presentations arising from this work. More details at
     http://www.quantum-espresso.org/quote

     Parallel version (MPI), running on    33 processors

     MPI processes distributed on     1 nodes
     41629 MiB available memory on the printing compute node when the environment starts

     Waiting for input...
     Reading input from standard input

     Current dimensions of program PWSCF are:
     Max number of different atomic species (ntypx) = 10
     Max number of k-points (npk) =  40000
     Max angular momentum in pseudopotentials (lmaxx) =  4
     Found identity + ( -0.5000  0.0000  0.0000) symmetry
     This is a supercell, fractional translations are disabled

     R & G space division:  proc/nbgrp/npool/nimage =      33
     Subspace diagonalization in iterative solution of the eigenvalue problem:
     one sub-group per band group will be used
     custom distributed-memory algorithm (size of sub-group:  5*  5 procs)


     Parallelization info
     --------------------
     sticks:   dense  smooth     PW     G-vecs:    dense   smooth      PW
     Min         293     130     36                53045    15714    2270
     Max         294     131     37                53056    15723    2280
     Sum        9685    4303   1189              1750627   518755   75035

     Using Slab Decomposition



     bravais-lattice index     =            0
     lattice parameter (alat)  =      19.7617  a.u.
     unit-cell volume          =   15176.5939 (a.u.)^3
     number of atoms/cell      =           48
     number of atomic types    =            1
     number of electrons       =       960.00
     number of Kohn-Sham states=          576
     kinetic-energy cutoff     =      40.0000  Ry
     charge density cutoff     =     360.0000  Ry
     scf convergence threshold =      1.0E-06
     mixing beta               =       0.4000
     number of iterations used =            8  plain     mixing
     Exchange-correlation= SLA  PW   PBE  PBE
                           (   1   4   3   4   0   0   0)

     celldm(1)=  19.761696  celldm(2)=   0.000000  celldm(3)=   0.000000
     celldm(4)=   0.000000  celldm(5)=   0.000000  celldm(6)=   0.000000

     crystal axes: (cart. coord. in units of alat)
               a(1) = (   1.000000   0.000000   0.000000 )  
               a(2) = (  -0.500000   0.866025   0.000000 )  
               a(3) = (   0.000000   0.000000   2.270759 )  

     reciprocal axes: (cart. coord. in units 2 pi/alat)
               b(1) = (  1.000000  0.577350 -0.000000 )  
               b(2) = (  0.000000  1.154701  0.000000 )  
               b(3) = (  0.000000 -0.000000  0.440381 )  


     PseudoPot. # 1 for Zn read from file:
     /home/ys/qepseudo/SSSP_1.3.0_PBE_efficiency/Zn_pbe_v1.uspp.F.UPF
     MD5 check sum: df62231357ef9e81f77b2b3087fa5675
     Pseudo is Ultrasoft, Zval = 20.0
     Generated by new atomic code, or converted to UPF format
     Using radial grid of  943 points,  6 beta functions with: 
                l(1) =   0
                l(2) =   0
                l(3) =   1
                l(4) =   1
                l(5) =   2
                l(6) =   2
     Q(r) pseudized with  8 coefficients,  rinner =    1.100   1.100   1.100
                                                       1.100   1.100

     atomic species   valence    mass     pseudopotential
     Zn               20.00    65.38000     Zn( 1.00)

     No symmetry found


                                    s                        frac. trans.

      isym =  1     identity                                     

 cryst.   s( 1) = (     1          0          0      )
                  (     0          1          0      )
                  (     0          0          1      )

 cart.    s( 1) = (  1.0000000  0.0000000  0.0000000 )
                  (  0.0000000  1.0000000  0.0000000 )
                  (  0.0000000  0.0000000  1.0000000 )


   Cartesian axes

     site n.     atom                  positions (alat units)
         1        Zn     tau(   1) = (   0.0000000   0.1443375   0.1164998  )
         2        Zn     tau(   2) = (   0.5000000   0.1443375   0.1164998  )
         3        Zn     tau(   3) = (   0.0000000   0.1443375   0.5824993  )
         4        Zn     tau(   4) = (   0.5000000   0.1443375   0.5824993  )
         5        Zn     tau(   5) = (  -0.1250000   0.3608439   0.1164998  )
         6        Zn     tau(   6) = (   0.3750000   0.3608439   0.1164998  )
         7        Zn     tau(   7) = (  -0.1250000   0.3608439   0.5824993  )
         8        Zn     tau(   8) = (   0.3750000   0.3608439   0.5824993  )
         9        Zn     tau(   9) = (  -0.2500000   0.5773502   0.1164998  )
        10        Zn     tau(  10) = (   0.2500000   0.5773502   0.1164998  )
        11        Zn     tau(  11) = (  -0.2500000   0.5773502   0.5824993  )
        12        Zn     tau(  12) = (   0.2500000   0.5773502   0.5824993  )
        13        Zn     tau(  13) = (  -0.3750000   0.7938567   0.1164998  )
        14        Zn     tau(  14) = (   0.1250000   0.7938567   0.1164998  )
        15        Zn     tau(  15) = (  -0.3750000   0.7938567   0.5824993  )
        16        Zn     tau(  16) = (   0.1250000   0.7938567   0.5824993  )
        17        Zn     tau(  17) = (   0.2500000   0.1443375   0.1164998  )
        18        Zn     tau(  18) = (   0.7500000   0.1443375   0.1164998  )
        19        Zn     tau(  19) = (   0.2500000   0.1443375   0.5824993  )
        20        Zn     tau(  20) = (   0.7500000   0.1443375   0.5824993  )
        21        Zn     tau(  21) = (   0.1250000   0.3608439   0.1164998  )
        22        Zn     tau(  22) = (   0.6250000   0.3608439   0.1164998  )
        23        Zn     tau(  23) = (   0.1250000   0.3608439   0.5824993  )
        24        Zn     tau(  24) = (   0.6250000   0.3608439   0.5824993  )
        25        Zn     tau(  25) = (   0.0000000   0.5773502   0.1164998  )
        26        Zn     tau(  26) = (   0.5000000   0.5773502   0.1164998  )
        27        Zn     tau(  27) = (   0.0000000   0.5773502   0.5824993  )
        28        Zn     tau(  28) = (   0.5000000   0.5773502   0.5824993  )
        29        Zn     tau(  29) = (  -0.1250000   0.7938567   0.1164998  )
        30        Zn     tau(  30) = (   0.3750000   0.7938567   0.1164998  )
        31        Zn     tau(  31) = (  -0.1250000   0.7938567   0.5824993  )
        32        Zn     tau(  32) = (   0.3750000   0.7938567   0.5824993  )
        33        Zn     tau(  33) = (   0.1250000   0.0721688   0.3494996  )
        34        Zn     tau(  34) = (   0.6250000   0.0721688   0.3494996  )
        35        Zn     tau(  35) = (   0.0000000   0.2886752   0.3494996  )
        36        Zn     tau(  36) = (   0.5000000   0.2886752   0.3494996  )
        37        Zn     tau(  37) = (  -0.1250000   0.5051815   0.3494996  )
        38        Zn     tau(  38) = (   0.3750000   0.5051815   0.3494996  )
        39        Zn     tau(  39) = (  -0.2500000   0.7216879   0.3494996  )
        40        Zn     tau(  40) = (   0.2500000   0.7216879   0.3494996  )
        41        Zn     tau(  41) = (   0.3750000   0.0721688   0.3494996  )
        42        Zn     tau(  42) = (   0.8750000   0.0721688   0.3494996  )
        43        Zn     tau(  43) = (   0.2500000   0.2886752   0.3494996  )
        44        Zn     tau(  44) = (   0.7500000   0.2886752   0.3494996  )
        45        Zn     tau(  45) = (   0.1250000   0.5051815   0.3494996  )
        46        Zn     tau(  46) = (   0.6250000   0.5051815   0.3494996  )
        47        Zn     tau(  47) = (   0.0000000   0.7216879   0.3494996  )
        48        Zn     tau(  48) = (   0.5000000   0.7216879   0.3494996  )

   Crystallographic axes

     site n.     atom                  positions (cryst. coord.)
         1        Zn     tau(   1) = (  0.0833333  0.1666666  0.0513044  )
         2        Zn     tau(   2) = (  0.5833333  0.1666666  0.0513044  )
         3        Zn     tau(   3) = (  0.0833333  0.1666666  0.2565219  )
         4        Zn     tau(   4) = (  0.5833333  0.1666666  0.2565219  )
         5        Zn     tau(   5) = (  0.0833333  0.4166666  0.0513044  )
         6        Zn     tau(   6) = (  0.5833333  0.4166666  0.0513044  )
         7        Zn     tau(   7) = (  0.0833333  0.4166666  0.2565219  )
         8        Zn     tau(   8) = (  0.5833333  0.4166666  0.2565219  )
         9        Zn     tau(   9) = (  0.0833333  0.6666666  0.0513044  )
        10        Zn     tau(  10) = (  0.5833333  0.6666666  0.0513044  )
        11        Zn     tau(  11) = (  0.0833333  0.6666666  0.2565219  )
        12        Zn     tau(  12) = (  0.5833333  0.6666666  0.2565219  )
        13        Zn     tau(  13) = (  0.0833333  0.9166667  0.0513044  )
        14        Zn     tau(  14) = (  0.5833334  0.9166667  0.0513044  )
        15        Zn     tau(  15) = (  0.0833333  0.9166667  0.2565219  )
        16        Zn     tau(  16) = (  0.5833334  0.9166667  0.2565219  )
        17        Zn     tau(  17) = (  0.3333333  0.1666666  0.0513044  )
        18        Zn     tau(  18) = (  0.8333334  0.1666666  0.0513044  )
        19        Zn     tau(  19) = (  0.3333333  0.1666666  0.2565219  )
        20        Zn     tau(  20) = (  0.8333334  0.1666666  0.2565219  )
        21        Zn     tau(  21) = (  0.3333333  0.4166666  0.0513044  )
        22        Zn     tau(  22) = (  0.8333333  0.4166666  0.0513044  )
        23        Zn     tau(  23) = (  0.3333333  0.4166666  0.2565219  )
        24        Zn     tau(  24) = (  0.8333333  0.4166666  0.2565219  )
        25        Zn     tau(  25) = (  0.3333333  0.6666666  0.0513044  )
        26        Zn     tau(  26) = (  0.8333333  0.6666666  0.0513044  )
        27        Zn     tau(  27) = (  0.3333333  0.6666666  0.2565219  )
        28        Zn     tau(  28) = (  0.8333333  0.6666666  0.2565219  )
        29        Zn     tau(  29) = (  0.3333334  0.9166667  0.0513044  )
        30        Zn     tau(  30) = (  0.8333334  0.9166667  0.0513044  )
        31        Zn     tau(  31) = (  0.3333334  0.9166667  0.2565219  )
        32        Zn     tau(  32) = (  0.8333334  0.9166667  0.2565219  )
        33        Zn     tau(  33) = (  0.1666667  0.0833334  0.1539131  )
        34        Zn     tau(  34) = (  0.6666667  0.0833334  0.1539131  )
        35        Zn     tau(  35) = (  0.1666667  0.3333334  0.1539131  )
        36        Zn     tau(  36) = (  0.6666667  0.3333334  0.1539131  )
        37        Zn     tau(  37) = (  0.1666667  0.5833334  0.1539131  )
        38        Zn     tau(  38) = (  0.6666667  0.5833334  0.1539131  )
        39        Zn     tau(  39) = (  0.1666667  0.8333334  0.1539131  )
        40        Zn     tau(  40) = (  0.6666667  0.8333334  0.1539131  )
        41        Zn     tau(  41) = (  0.4166667  0.0833334  0.1539131  )
        42        Zn     tau(  42) = (  0.9166667  0.0833334  0.1539131  )
        43        Zn     tau(  43) = (  0.4166667  0.3333334  0.1539131  )
        44        Zn     tau(  44) = (  0.9166667  0.3333334  0.1539131  )
        45        Zn     tau(  45) = (  0.4166667  0.5833334  0.1539131  )
        46        Zn     tau(  46) = (  0.9166667  0.5833334  0.1539131  )
        47        Zn     tau(  47) = (  0.4166667  0.8333334  0.1539131  )
        48        Zn     tau(  48) = (  0.9166667  0.8333334  0.1539131  )

     number of k points=    10  Marzari-Vanderbilt smearing, width (Ry)=  0.0200
                       cart. coord. in units 2pi/alat
        k(    1) = (   0.0000000   0.0000000   0.0000000), wk =   0.1250000
        k(    2) = (   0.0000000   0.2886751   0.0000000), wk =   0.2500000
        k(    3) = (   0.0000000  -0.5773503   0.0000000), wk =   0.1250000
        k(    4) = (   0.2500000   0.1443376   0.0000000), wk =   0.2500000
        k(    5) = (   0.2500000   0.4330127   0.0000000), wk =   0.2500000
        k(    6) = (   0.2500000  -0.4330127   0.0000000), wk =   0.2500000
        k(    7) = (   0.2500000  -0.1443376   0.0000000), wk =   0.2500000
        k(    8) = (  -0.5000000  -0.2886751   0.0000000), wk =   0.1250000
        k(    9) = (  -0.5000000   0.0000000   0.0000000), wk =   0.2500000
        k(   10) = (  -0.5000000  -0.8660254   0.0000000), wk =   0.1250000

                       cryst. coord.
        k(    1) = (   0.0000000   0.0000000   0.0000000), wk =   0.1250000
        k(    2) = (   0.0000000   0.2500000   0.0000000), wk =   0.2500000
        k(    3) = (   0.0000000  -0.5000000   0.0000000), wk =   0.1250000
        k(    4) = (   0.2500000   0.0000000   0.0000000), wk =   0.2500000
        k(    5) = (   0.2500000   0.2500000   0.0000000), wk =   0.2500000
        k(    6) = (   0.2500000  -0.5000000   0.0000000), wk =   0.2500000
        k(    7) = (   0.2500000  -0.2500000   0.0000000), wk =   0.2500000
        k(    8) = (  -0.5000000   0.0000000   0.0000000), wk =   0.1250000
        k(    9) = (  -0.5000000   0.2500000   0.0000000), wk =   0.2500000
        k(   10) = (  -0.5000000  -0.5000000   0.0000000), wk =   0.1250000

     Dense  grid:  1750627 G-vectors     FFT dimensions: ( 120, 120, 288)

     Smooth grid:   518755 G-vectors     FFT dimensions: (  80,  80, 192)

     Dynamical RAM for                 wfc:      17.26 MB

     Dynamical RAM for     wfc (w. buffer):     189.88 MB

     Dynamical RAM for           str. fact:       0.81 MB

     Dynamical RAM for           local pot:       0.00 MB

     Dynamical RAM for          nlocal pot:      25.89 MB

     Dynamical RAM for                qrad:       1.52 MB

     Dynamical RAM for          rho,v,vnew:       5.39 MB

     Dynamical RAM for               rhoin:       1.80 MB

     Dynamical RAM for            rho*nmix:      12.95 MB

     Dynamical RAM for           G-vectors:       3.16 MB

     Dynamical RAM for          h,s,v(r/c):       2.42 MB

     Dynamical RAM for          <psi|beta>:       7.59 MB

     Dynamical RAM for                 psi:      34.52 MB

     Dynamical RAM for                hpsi:      34.52 MB

     Dynamical RAM for                spsi:      34.52 MB

     Dynamical RAM for      wfcinit/wfcrot:      46.32 MB

     Dynamical RAM for           addusdens:     189.41 MB

     Estimated static dynamical RAM per process >     235.01 MB

     Estimated max dynamical RAM per process >     437.38 MB

     Estimated total dynamical RAM >      14.10 GB

     Initial potential from superposition of free atoms

     starting charge     959.9932, renormalised to     960.0000

     negative rho (up, down):  2.927E-03 0.000E+00
     Starting wfcs are  624 randomized atomic wfcs
[psid01:222601] 32 more processes have sent help message help-mpi-btl-openib.txt / ib port not selected
[psid01:222601] Set MCA parameter "orte_base_help_aggregate" to 0 to see all help / error messages
[psid01:222601] 31 more processes have sent help message help-mpi-btl-openib.txt / error in device init

     total cpu time spent up to now is      117.1 secs

     Self-consistent Calculation

     iteration #  1     ecut=    40.00 Ry     beta= 0.40
     Davidson diagonalization with overlap

---- Real-time Memory Report at c_bands before calling an iterative solver
           304 MiB given to the printing process from OS
             0 MiB allocation reported by mallinfo(arena+hblkhd)
         33430 MiB available memory on the node where the printing process lives
------------------
     ethr =  1.00E-02,  avg # of iterations =  9.9

     Threshold (ethr) on eigenvalues was too large:
     Diagonalizing with lowered threshold

     Davidson diagonalization with overlap

---- Real-time Memory Report at c_bands before calling an iterative solver
           460 MiB given to the printing process from OS
             0 MiB allocation reported by mallinfo(arena+hblkhd)
         32888 MiB available memory on the node where the printing process lives
------------------
     ethr =  1.61E-04,  avg # of iterations = 11.9

     negative rho (up, down):  3.858E-03 0.000E+00

     total cpu time spent up to now is     1020.9 secs

     total energy              =  -22153.85661221 Ry
     estimated scf accuracy    <       1.57421898 Ry

     iteration #  2     ecut=    40.00 Ry     beta= 0.40
     Davidson diagonalization with overlap

---- Real-time Memory Report at c_bands before calling an iterative solver
           463 MiB given to the printing process from OS
             0 MiB allocation reported by mallinfo(arena+hblkhd)
         32801 MiB available memory on the node where the printing process lives
------------------
     ethr =  1.64E-04,  avg # of iterations =  2.5

     negative rho (up, down):  4.460E-03 0.000E+00

     total cpu time spent up to now is     1458.0 secs

     total energy              =  -22154.23561131 Ry
     estimated scf accuracy    <       0.27642351 Ry

     iteration #  3     ecut=    40.00 Ry     beta= 0.40
     Davidson diagonalization with overlap

---- Real-time Memory Report at c_bands before calling an iterative solver
           464 MiB given to the printing process from OS
             0 MiB allocation reported by mallinfo(arena+hblkhd)
         32774 MiB available memory on the node where the printing process lives
------------------
     c_bands:  2 eigenvalues not converged
     c_bands:  2 eigenvalues not converged
     ethr =  2.88E-05,  avg # of iterations =  9.0

     negative rho (up, down):  4.962E-03 0.000E+00

     total cpu time spent up to now is     1864.3 secs

     total energy              =  -22154.25255317 Ry
     estimated scf accuracy    <       0.04708885 Ry

     iteration #  4     ecut=    40.00 Ry     beta= 0.40
     Davidson diagonalization with overlap

---- Real-time Memory Report at c_bands before calling an iterative solver
           464 MiB given to the printing process from OS
             0 MiB allocation reported by mallinfo(arena+hblkhd)
         32761 MiB available memory on the node where the printing process lives
------------------
     ethr =  4.91E-06,  avg # of iterations = 10.0

     negative rho (up, down):  5.007E-03 0.000E+00

     total cpu time spent up to now is     2282.2 secs

     total energy              =  -22154.25389918 Ry
     estimated scf accuracy    <       0.01469393 Ry

     iteration #  5     ecut=    40.00 Ry     beta= 0.40
     Davidson diagonalization with overlap

---- Real-time Memory Report at c_bands before calling an iterative solver
           465 MiB given to the printing process from OS
             0 MiB allocation reported by mallinfo(arena+hblkhd)
         32745 MiB available memory on the node where the printing process lives
------------------
     ethr =  1.53E-06,  avg # of iterations =  3.7

     negative rho (up, down):  5.069E-03 0.000E+00

     total cpu time spent up to now is     2666.4 secs

     total energy              =  -22154.25494138 Ry
     estimated scf accuracy    <       0.00220105 Ry

     iteration #  6     ecut=    40.00 Ry     beta= 0.40
     Davidson diagonalization with overlap

---- Real-time Memory Report at c_bands before calling an iterative solver
           465 MiB given to the printing process from OS
             0 MiB allocation reported by mallinfo(arena+hblkhd)
         32723 MiB available memory on the node where the printing process lives
------------------
     ethr =  2.29E-07,  avg # of iterations =  2.0

     negative rho (up, down):  5.110E-03 0.000E+00

     total cpu time spent up to now is     3085.6 secs

     total energy              =  -22154.25526663 Ry
     estimated scf accuracy    <       0.00050478 Ry

     iteration #  7     ecut=    40.00 Ry     beta= 0.40
     Davidson diagonalization with overlap

---- Real-time Memory Report at c_bands before calling an iterative solver
           466 MiB given to the printing process from OS
             0 MiB allocation reported by mallinfo(arena+hblkhd)
         32709 MiB available memory on the node where the printing process lives
------------------
     ethr =  5.26E-08,  avg # of iterations =  1.7

     negative rho (up, down):  5.142E-03 0.000E+00

     total cpu time spent up to now is     3437.8 secs

     total energy              =  -22154.25532798 Ry
     estimated scf accuracy    <       0.00084700 Ry

     iteration #  8     ecut=    40.00 Ry     beta= 0.40
     Davidson diagonalization with overlap

---- Real-time Memory Report at c_bands before calling an iterative solver
           466 MiB given to the printing process from OS
             0 MiB allocation reported by mallinfo(arena+hblkhd)
         32692 MiB available memory on the node where the printing process lives
------------------
     ethr =  5.26E-08,  avg # of iterations =  1.0

     negative rho (up, down):  5.164E-03 0.000E+00

     total cpu time spent up to now is     3743.8 secs

     total energy              =  -22154.25535116 Ry
     estimated scf accuracy    <       0.00004822 Ry

     iteration #  9     ecut=    40.00 Ry     beta= 0.40
     Davidson diagonalization with overlap

---- Real-time Memory Report at c_bands before calling an iterative solver
           467 MiB given to the printing process from OS
             0 MiB allocation reported by mallinfo(arena+hblkhd)
         32677 MiB available memory on the node where the printing process lives
------------------
     ethr =  5.02E-09,  avg # of iterations =  2.0

     negative rho (up, down):  5.178E-03 0.000E+00

     total cpu time spent up to now is     4213.4 secs

     total energy              =  -22154.25536548 Ry
     estimated scf accuracy    <       0.00001262 Ry

     iteration # 10     ecut=    40.00 Ry     beta= 0.40
     Davidson diagonalization with overlap

---- Real-time Memory Report at c_bands before calling an iterative solver
           467 MiB given to the printing process from OS
             0 MiB allocation reported by mallinfo(arena+hblkhd)
         32660 MiB available memory on the node where the printing process lives
------------------
     ethr =  1.31E-09,  avg # of iterations =  2.0

     negative rho (up, down):  5.202E-03 0.000E+00

     total cpu time spent up to now is     4644.5 secs

     End of self-consistent calculation

          k = 0.0000 0.0000 0.0000 ( 64855 PWs)   bands (ev):

  -125.0675-125.0660-125.0659-125.0657-125.0657-125.0655-125.0654-125.0644
  -125.0642-125.0641-125.0641-125.0639-125.0638-125.0637-125.0635-125.0634
  -124.8635-124.8631-124.8619-124.8619-124.8617-124.8617-124.8615-124.8615
  -124.8615-124.8614-124.8614-124.8613-124.8612-124.8612-124.8603-124.8602
  -124.8601-124.8600-124.8599-124.8598-124.8598-124.8598-124.8597-124.8597
  -124.8596-124.8596-124.8596-124.8595-124.8595-124.8594-124.8594-124.8593
   -79.2338 -79.2338 -79.2338 -79.2272 -79.2272 -79.2271 -79.2271 -79.2270
   -79.2270 -79.2161 -79.2159 -79.2159 -79.2158 -79.2157 -79.2156 -79.2156
   -79.2143 -79.2143 -79.2141 -79.2140 -79.2138 -79.2138 -79.2138 -79.2138
   -79.2137 -79.2137 -79.2136 -79.2136 -79.2125 -79.2123 -79.2122 -79.2122
   -79.2120 -79.2119 -79.2118 -79.2116 -79.2115 -79.2071 -79.2071 -79.2071
   -79.2025 -79.2025 -79.2024 -79.2024 -79.2023 -79.2022 -79.1977 -79.1976
   -79.0264 -79.0264 -79.0264 -79.0260 -79.0260 -79.0260 -79.0204 -79.0200
   -79.0198 -79.0198 -79.0197 -79.0197 -79.0196 -79.0196 -79.0195 -79.0195
   -79.0194 -79.0194 -79.0193 -79.0193 -79.0187 -79.0186 -79.0185 -79.0184
   -79.0183 -79.0182 -79.0182 -79.0182 -79.0182 -79.0181 -79.0180 -79.0179
   -79.0169 -79.0168 -79.0167 -79.0166 -79.0165 -79.0165 -79.0164 -79.0164
   -79.0163 -79.0163 -79.0162 -79.0162 -79.0162 -79.0162 -79.0161 -79.0161
   -79.0160 -79.0159 -79.0085 -79.0085 -79.0084 -79.0084 -79.0083 -79.0083
   -79.0082 -79.0081 -79.0081 -79.0081 -79.0080 -79.0080 -79.0065 -79.0065
   -79.0064 -79.0064 -79.0063 -79.0062 -79.0061 -79.0061 -79.0061 -79.0061
   -79.0060 -79.0060 -78.9998 -78.9998 -78.9998 -78.9995 -78.9995 -78.9995
   -78.9952 -78.9952 -78.9951 -78.9950 -78.9950 -78.9949 -78.9948 -78.9948
   -78.9948 -78.9947 -78.9947 -78.9947 -78.9904 -78.9903 -78.9900 -78.9900
    -8.6226  -7.4000  -7.0915  -7.0687  -7.0687  -7.0686  -7.0686  -7.0685
    -7.0685  -6.9143  -6.9143  -6.9143  -6.7256  -6.7256  -6.7256  -6.6776
    -6.6776  -6.6776  -6.5885  -6.5885  -6.5884  -6.5884  -6.5884  -6.5884
    -6.5398  -6.5398  -6.5398  -6.5397  -6.5397  -6.5397  -6.5364  -6.5364
    -6.5364  -6.4795  -6.4795  -6.4794  -6.4793  -6.4792  -6.4792  -6.4321
    -6.4321  -6.4320  -6.4320  -6.4319  -6.4319  -6.3349  -6.3349  -6.3348
    -6.3348  -6.3346  -6.3346  -6.3338  -6.3338  -6.3338  -6.2733  -6.2733
    -6.2732  -6.2732  -6.2731  -6.2731  -6.2690  -6.2111  -6.2111  -6.2110
    -6.2110  -6.2109  -6.2109  -6.1716  -6.1716  -6.1716  -6.1716  -6.1716
    -6.1716  -6.1457  -6.1457  -6.1457  -6.1457  -6.1457  -6.1457  -6.1227
    -6.1227  -6.1227  -6.1227  -6.1226  -6.1226  -6.1220  -6.1220  -6.0982
    -6.0982  -6.0982  -6.0960  -6.0960  -6.0960  -6.0960  -6.0960  -6.0960
    -5.9939  -5.9939  -5.9938  -5.9938  -5.9938  -5.9938  -5.9161  -5.9161
    -5.8973  -5.8973  -5.8653  -5.8653  -5.8653  -5.8653  -5.8653  -5.8653
    -5.8642  -5.8642  -5.8641  -5.8641  -5.8640  -5.8640  -5.8327  -5.8327
    -5.8326  -5.7825  -5.7825  -5.7824  -5.7824  -5.7824  -5.7824  -5.7759
    -5.7759  -5.7759  -5.7759  -5.7759  -5.7759  -5.7754  -5.7754  -5.7754
    -5.7754  -5.7753  -5.7753  -5.7546  -5.7546  -5.7546  -5.7546  -5.7545
    -5.7545  -5.7456  -5.7456  -5.7455  -5.7455  -5.7454  -5.7454  -5.7280
    -5.7280  -5.7279  -5.7279  -5.7278  -5.7278  -5.7148  -5.7096  -5.7096
    -5.7095  -5.7095  -5.7094  -5.7094  -5.6963  -5.6963  -5.6963  -5.6111
    -5.6111  -5.5763  -5.5763  -5.5762  -5.5762  -5.5760  -5.5760  -5.5688
    -5.5687  -5.5687  -5.5686  -5.5685  -5.5685  -5.5464  -5.5464  -5.5463
    -5.5463  -5.5462  -5.5462  -5.5303  -5.5303  -5.5303  -5.5022  -5.5022
    -5.5021  -5.5021  -5.5020  -5.5020  -5.4937  -5.4937  -5.4937  -5.4937
    -5.4936  -5.4936  -5.4468  -5.4468  -5.4467  -5.4467  -5.4466  -5.4466
    -5.4342  -5.4341  -5.4341  -5.4329  -5.4329  -5.4329  -5.3961  -5.3961
    -5.3961  -5.3918  -5.3918  -5.3918  -5.3917  -5.3917  -5.3917  -5.3843
    -5.3843  -5.3630  -5.3630  -5.3189  -5.3189  -5.3188  -5.3188  -5.3187
    -5.3187  -5.2895  -5.2895  -5.2894  -5.2894  -5.2894  -5.2894  -5.2808
    -5.2808  -5.2808  -5.0711  -5.0711  -5.0711  -5.0708  -5.0708  -5.0708
    -4.3977  -4.3977  -4.3976  -4.3976  -4.3974  -4.3974  -3.4499  -2.1037
    -2.1037  -2.1037  -2.1037  -2.1037  -2.1037  -2.0203  -2.0202  -2.0201
    -2.0201  -2.0199  -2.0199  -0.8427  -0.8427  -0.8427  -0.7124  -0.6403
    -0.6403  -0.6403  -0.6403  -0.6402  -0.6402  -0.0847  -0.0847  -0.0847
     0.2448   0.2448   0.2448   1.5361   1.5361   1.5361   1.5361   1.5361
     1.5361   1.5803   1.5804   1.5805   1.5805   1.5806   1.5806   2.3089
     2.3089   2.3089   3.1084   3.3010   3.3010   3.3010   4.1413   4.1413
     4.1413   4.8838   4.8839   4.8840   4.8840   4.8841   4.8841   5.0839
     5.2907   5.4269   5.4269   5.4269   5.4269   5.4270   5.4270   5.4344
     5.4344   5.4345   5.4345   5.4346   5.4346   5.6050   5.6050   5.6051
     5.6051   5.6052   5.6052   6.2165   6.4165   6.5620   6.5620   6.5620
     6.8818   6.8818   6.8819   6.8819   6.8819   6.8819   7.0105   7.0105
     7.0106   7.0106   7.0107   7.0107   7.1267   7.1267   7.1268   7.1268
     7.1268   7.1268   7.1885   7.1885   7.1886   7.1886   7.1887   7.1887
     8.0553   8.0553   8.0553   8.0553   8.0554   8.0554   8.1450   8.1450
     8.1450   8.1450   8.1450   8.1450   8.2039   8.2040   8.2040   8.2040
     8.2040   8.2040   8.2251   8.3755   8.3755   8.3755   8.3797   9.2837

     occupation numbers 
     1.0000   1.0000   1.0000   1.0000   1.0000   1.0000   1.0000   1.0000
     1.0000   1.0000   1.0000   1.0000   1.0000   1.0000   1.0000   1.0000
     1.0000   1.0000   1.0000   1.0000   1.0000   1.0000   1.0000   1.0000
     1.0000   1.0000   1.0000   1.0000   1.0000   1.0000   1.0000   1.0000
     1.0000   1.0000   1.0000   1.0000   1.0000   1.0000   1.0000   1.0000
     1.0000   1.0000   1.0000   1.0000   1.0000   1.0000   1.0000   1.0000
     1.0000   1.0000   1.0000   1.0000   1.0000   1.0000   1.0000   1.0000
     1.0000   1.0000   1.0000   1.0000   1.0000   1.0000   1.0000   1.0000
     1.0000   1.0000   1.0000   1.0000   1.0000   1.0000   1.0000   1.0000
     1.0000   1.0000   1.0000   1.0000   1.0000   1.0000   1.0000   1.0000
     1.0000   1.0000   1.0000   1.0000   1.0000   1.0000   1.0000   1.0000
     1.0000   1.0000   1.0000   1.0000   1.0000   1.0000   1.0000   1.0000
     1.0000   1.0000   1.0000   1.0000   1.0000   1.0000   1.0000   1.0000
     1.0000   1.0000   1.0000   1.0000   1.0000   1.0000   1.0000   1.0000
     1.0000   1.0000   1.0000   1.0000   1.0000   1.0000   1.0000   1.0000
     1.0000   1.0000   1.0000   1.0000   1.0000   1.0000   1.0000   1.0000
     1.0000   1.0000   1.0000   1.0000   1.0000   1.0000   1.0000   1.0000
     1.0000   1.0000   1.0000   1.0000   1.0000   1.0000   1.0000   1.0000
     1.0000   1.0000   1.0000   1.0000   1.0000   1.0000   1.0000   1.0000
     1.0000   1.0000   1.0000   1.0000   1.0000   1.0000   1.0000   1.0000
     1.0000   1.0000   1.0000   1.0000   1.0000   1.0000   1.0000   1.0000
     1.0000   1.0000   1.0000   1.0000   1.0000   1.0000   1.0000   1.0000
     1.0000   1.0000   1.0000   1.0000   1.0000   1.0000   1.0000   1.0000
     1.0000   1.0000   1.0000   1.0000   1.0000   1.0000   1.0000   1.0000
     1.0000   1.0000   1.0000   1.0000   1.0000   1.0000   1.0000   1.0000
     1.0000   1.0000   1.0000   1.0000   1.0000   1.0000   1.0000   1.0000
     1.0000   1.0000   1.0000   1.0000   1.0000   1.0000   1.0000   1.0000
     1.0000   1.0000   1.0000   1.0000   1.0000   1.0000   1.0000   1.0000
     1.0000   1.0000   1.0000   1.0000   1.0000   1.0000   1.0000   1.0000
     1.0000   1.0000   1.0000   1.0000   1.0000   1.0000   1.0000   1.0000
     1.0000   1.0000   1.0000   1.0000   1.0000   1.0000   1.0000   1.0000
     1.0000   1.0000   1.0000   1.0000   1.0000   1.0000   1.0000   1.0000
     1.0000   1.0000   1.0000   1.0000   1.0000   1.0000   1.0000   1.0000
     1.0000   1.0000   1.0000   1.0000   1.0000   1.0000   1.0000   1.0000
     1.0000   1.0000   1.0000   1.0000   1.0000   1.0000   1.0000   1.0000
     1.0000   1.0000   1.0000   1.0000   1.0000   1.0000   1.0000   1.0000
     1.0000   1.0000   1.0000   1.0000   1.0000   1.0000   1.0000   1.0000
     1.0000   1.0000   1.0000   1.0000   1.0000   1.0000   1.0000   1.0000
     1.0000   1.0000   1.0000   1.0000   1.0000   1.0000   1.0000   1.0000
     1.0000   1.0000   1.0000   1.0000   1.0000   1.0000   1.0000   1.0000
     1.0000   1.0000   1.0000   1.0000   1.0000   1.0000   1.0000   1.0000
     1.0000   1.0000   1.0000   1.0000   1.0000   1.0000   1.0000   1.0000
     1.0000   1.0000   1.0000   1.0000   1.0000   1.0000   1.0000   1.0000
     1.0000   1.0000   1.0000   1.0000   1.0000   1.0000   1.0000   1.0000
     1.0000   1.0000   1.0000   1.0000   1.0000   1.0000   1.0000   1.0000
     1.0000   1.0000   1.0000   1.0000   1.0000   1.0000   1.0000   1.0000
     1.0000   1.0000   1.0000   1.0000   1.0000   1.0000   1.0000   1.0000
     1.0000   1.0000   1.0000   1.0000   1.0000   1.0000   1.0000   1.0000
     1.0000   1.0000   1.0000   1.0000   1.0000   1.0000   1.0000   1.0000
     1.0000   1.0000   1.0000   1.0000   1.0000   1.0000   1.0000   1.0000
     1.0000   1.0000   1.0000   1.0000   1.0000   1.0000   1.0000   1.0000
     1.0000   1.0000   1.0000   1.0000   1.0000   1.0000   1.0000   1.0000
     1.0000   1.0000   1.0000   1.0000   1.0000   1.0000   1.0000   1.0000
     1.0000   1.0000   1.0000   1.0000   1.0000   1.0000   1.0000   1.0000
     1.0000   1.0000   1.0000   1.0000   1.0000   1.0000   1.0000   1.0000
     1.0000   1.0000   1.0000   1.0000   1.0000   1.0000   1.0000   1.0000
     1.0000   1.0000   1.0000   1.0000   1.0000   1.0000   1.0000   1.0000
     1.0000   1.0000   1.0000   1.0000   1.0000   1.0000   1.0000   1.0000
     1.0000   1.0000   1.0000   1.0000   1.0000   1.0000   1.0000   1.0000
     1.0000   1.0000   1.0000   0.1848   0.1848   0.1848   0.1848   0.1848
     0.1848   0.1226   0.1226   0.1224   0.1224   0.1222   0.1222   0.0000
     0.0000   0.0000   0.0000   0.0000   0.0000   0.0000   0.0000   0.0000
     0.0000   0.0000   0.0000   0.0000   0.0000   0.0000   0.0000   0.0000
     0.0000   0.0000   0.0000   0.0000   0.0000   0.0000   0.0000   0.0000
     0.0000   0.0000   0.0000   0.0000   0.0000   0.0000   0.0000   0.0000
     0.0000   0.0000   0.0000   0.0000   0.0000   0.0000   0.0000   0.0000
     0.0000   0.0000   0.0000   0.0000   0.0000   0.0000   0.0000   0.0000
     0.0000   0.0000   0.0000   0.0000   0.0000   0.0000   0.0000   0.0000
     0.0000   0.0000   0.0000   0.0000   0.0000   0.0000   0.0000   0.0000
     0.0000   0.0000   0.0000   0.0000   0.0000   0.0000   0.0000   0.0000
     0.0000   0.0000   0.0000   0.0000   0.0000   0.0000   0.0000   0.0000
     0.0000   0.0000   0.0000   0.0000   0.0000   0.0000   0.0000   0.0000

          k = 0.0000 0.2887 0.0000 ( 64808 PWs)   bands (ev):

  -125.0674-125.0664-125.0660-125.0659-125.0654-125.0653-125.0649-125.0645
  -125.0644-125.0642-125.0641-125.0640-125.0638-125.0637-125.0634-125.0634
  -124.8633-124.8630-124.8624-124.8620-124.8620-124.8619-124.8616-124.8616
  -124.8614-124.8613-124.8610-124.8609-124.8609-124.8606-124.8605-124.8604
  -124.8601-124.8601-124.8601-124.8600-124.8600-124.8598-124.8597-124.8597
  -124.8597-124.8597-124.8595-124.8595-124.8594-124.8594-124.8593-124.8592
   -79.2330 -79.2330 -79.2324 -79.2284 -79.2284 -79.2275 -79.2275 -79.2256
   -79.2256 -79.2226 -79.2194 -79.2194 -79.2168 -79.2168 -79.2159 -79.2149
   -79.2144 -79.2143 -79.2137 -79.2136 -79.2132 -79.2127 -79.2127 -79.2127
   -79.2126 -79.2124 -79.2124 -79.2123 -79.2122 -79.2121 -79.2119 -79.2118
   -79.2115 -79.2115 -79.2100 -79.2100 -79.2088 -79.2079 -79.2078 -79.2067
   -79.2042 -79.2039 -79.2038 -79.2019 -79.2019 -79.2006 -79.1990 -79.1980
   -79.0256 -79.0256 -79.0253 -79.0253 -79.0250 -79.0247 -79.0210 -79.0210
   -79.0207 -79.0207 -79.0203 -79.0201 -79.0201 -79.0199 -79.0198 -79.0198
   -79.0192 -79.0189 -79.0187 -79.0187 -79.0184 -79.0184 -79.0182 -79.0182
   -79.0181 -79.0180 -79.0179 -79.0179 -79.0177 -79.0177 -79.0176 -79.0174
   -79.0171 -79.0170 -79.0167 -79.0167 -79.0167 -79.0167 -79.0166 -79.0164
   -79.0164 -79.0163 -79.0163 -79.0163 -79.0161 -79.0161 -79.0161 -79.0160
   -79.0159 -79.0158 -79.0153 -79.0150 -79.0121 -79.0121 -79.0118 -79.0118
   -79.0094 -79.0094 -79.0091 -79.0091 -79.0054 -79.0053 -79.0051 -79.0050
   -79.0050 -79.0050 -79.0047 -79.0047 -79.0027 -79.0027 -79.0024 -79.0024
   -79.0015 -79.0012 -79.0005 -79.0005 -79.0002 -79.0002 -78.9994 -78.9991
   -78.9969 -78.9966 -78.9966 -78.9965 -78.9963 -78.9962 -78.9946 -78.9946
   -78.9943 -78.9943 -78.9933 -78.9929 -78.9917 -78.9914 -78.9907 -78.9904
    -8.5038  -7.6203  -7.3001  -7.2483  -7.2483  -7.0289  -6.8982  -6.8720
    -6.8719  -6.8493  -6.8460  -6.8460  -6.7068  -6.6919  -6.6919  -6.6902
    -6.6745  -6.6623  -6.6379  -6.6379  -6.5895  -6.5805  -6.5766  -6.5766
    -6.5676  -6.5676  -6.5478  -6.5478  -6.5281  -6.5281  -6.5190  -6.5190
    -6.5168  -6.5123  -6.5123  -6.5091  -6.5091  -6.5021  -6.5021  -6.4869
    -6.4869  -6.4612  -6.4612  -6.4230  -6.4230  -6.3950  -6.3950  -6.3801
    -6.3801  -6.3758  -6.3225  -6.3177  -6.3177  -6.3155  -6.3155  -6.3150
    -6.3150  -6.2685  -6.2685  -6.2581  -6.2519  -6.2292  -6.2292  -6.2232
    -6.2232  -6.2214  -6.2214  -6.2211  -6.2081  -6.2081  -6.2048  -6.2048
    -6.1959  -6.1959  -6.1842  -6.1842  -6.1794  -6.1776  -6.1776  -6.1542
    -6.1377  -6.1237  -6.1237  -6.1142  -6.1142  -6.1011  -6.1011  -6.0928
    -6.0912  -6.0912  -6.0789  -6.0641  -6.0641  -6.0492  -6.0492  -6.0479
    -6.0479  -5.9586  -5.9586  -5.9585  -5.9585  -5.9432  -5.9407  -5.9378
    -5.9365  -5.9341  -5.9341  -5.9236  -5.9236  -5.9125  -5.9117  -5.9117
    -5.8939  -5.8939  -5.8889  -5.8848  -5.8812  -5.8747  -5.8747  -5.8682
    -5.8467  -5.8467  -5.8391  -5.8391  -5.8256  -5.8108  -5.7961  -5.7961
    -5.7947  -5.7947  -5.7865  -5.7865  -5.7765  -5.7765  -5.7764  -5.7734
    -5.7734  -5.7551  -5.7551  -5.7466  -5.7466  -5.7402  -5.7304  -5.7304
    -5.7134  -5.7121  -5.7121  -5.7048  -5.7048  -5.6975  -5.6975  -5.6956
    -5.6956  -5.6926  -5.6926  -5.6801  -5.6680  -5.6680  -5.6566  -5.6434
    -5.6394  -5.6394  -5.6327  -5.6327  -5.6180  -5.6180  -5.6175  -5.6164
    -5.6164  -5.6124  -5.6103  -5.6060  -5.6059  -5.5797  -5.5647  -5.5610
    -5.5610  -5.5560  -5.5560  -5.5485  -5.5485  -5.5462  -5.5461  -5.5429
    -5.5429  -5.5412  -5.5267  -5.5263  -5.5263  -5.5221  -5.5221  -5.5126
    -5.5126  -5.4913  -5.4913  -5.4615  -5.4609  -5.4571  -5.4570  -5.4544
    -5.4544  -5.4524  -5.4524  -5.4406  -5.4406  -5.4313  -5.4263  -5.4263
    -5.4243  -5.4183  -5.4152  -5.4148  -5.4012  -5.4012  -5.4002  -5.4002
    -5.3893  -5.3865  -5.3865  -5.3812  -5.3673  -5.3673  -5.3651  -5.3596
    -5.3446  -5.3446  -5.3408  -5.3319  -5.3196  -5.3196  -5.3135  -5.3105
    -5.3105  -5.3008  -5.3008  -5.2923  -5.2923  -5.2817  -5.2817  -5.1437
    -5.1437  -5.1290  -5.1290  -5.1235  -5.1235  -5.1052  -5.1044  -4.9470
    -4.9345  -4.6382  -4.6382  -3.8812  -3.8812  -3.4801  -3.3939  -3.3939
    -3.3650  -2.6735  -2.3017  -2.3017  -2.2221  -2.0213  -2.0213  -1.9715
    -1.9715  -1.5149  -1.5149  -1.2923  -1.2923  -1.1170  -0.7951  -0.5730
    -0.5730  -0.5610  -0.5610  -0.5523   0.0237   0.0237   0.2689   0.2689
     0.5599   0.5599   0.6332   0.8764   0.8982   0.8982   1.1833   1.1833
     1.5563   1.5563   2.2262   2.2262   2.6471   2.6964   2.6964   2.7208
     2.7825   2.7825   2.9499   2.9499   3.2203   3.5465   3.6906   3.6906
     3.9086   3.9086   4.1127   4.1849   4.1849   4.5568   4.5568   4.8016
     4.8016   4.8431   4.8431   5.1516   5.1516   5.1603   5.1603   5.1967
     5.4057   5.4265   5.4265   5.5681   5.6426   5.7933   5.7933   5.8071
     6.0939   6.0939   6.0984   6.3128   6.3128   6.3247   6.3326   6.5290
     6.5480   6.5480   6.5943   6.5943   6.7102   6.7835   6.7835   7.0100
     7.0100   7.0867   7.0867   7.1725   7.1725   7.2573   7.3088   7.3088
     7.4272   7.4320   7.4320   7.4472   7.4472   7.6567   7.6567   7.6922
     7.6922   7.7168   7.7168   7.7478   7.8744   7.8744   7.9459   7.9459
     8.0246   8.0246   8.1589   8.3152   8.3406   8.4914   8.6529   8.6530
     8.6965   8.7253   8.7254   8.8078   8.8078   8.8262   8.8361   8.8361

     occupation numbers 
     1.0000   1.0000   1.0000   1.0000   1.0000   1.0000   1.0000   1.0000
     1.0000   1.0000   1.0000   1.0000   1.0000   1.0000   1.0000   1.0000
     1.0000   1.0000   1.0000   1.0000   1.0000   1.0000   1.0000   1.0000
     1.0000   1.0000   1.0000   1.0000   1.0000   1.0000   1.0000   1.0000
     1.0000   1.0000   1.0000   1.0000   1.0000   1.0000   1.0000   1.0000
     1.0000   1.0000   1.0000   1.0000   1.0000   1.0000   1.0000   1.0000
     1.0000   1.0000   1.0000   1.0000   1.0000   1.0000   1.0000   1.0000
     1.0000   1.0000   1.0000   1.0000   1.0000   1.0000   1.0000   1.0000
     1.0000   1.0000   1.0000   1.0000   1.0000   1.0000   1.0000   1.0000
     1.0000   1.0000   1.0000   1.0000   1.0000   1.0000   1.0000   1.0000
     1.0000   1.0000   1.0000   1.0000   1.0000   1.0000   1.0000   1.0000
     1.0000   1.0000   1.0000   1.0000   1.0000   1.0000   1.0000   1.0000
     1.0000   1.0000   1.0000   1.0000   1.0000   1.0000   1.0000   1.0000
     1.0000   1.0000   1.0000   1.0000   1.0000   1.0000   1.0000   1.0000
     1.0000   1.0000   1.0000   1.0000   1.0000   1.0000   1.0000   1.0000
     1.0000   1.0000   1.0000   1.0000   1.0000   1.0000   1.0000   1.0000
     1.0000   1.0000   1.0000   1.0000   1.0000   1.0000   1.0000   1.0000
     1.0000   1.0000   1.0000   1.0000   1.0000   1.0000   1.0000   1.0000
     1.0000   1.0000   1.0000   1.0000   1.0000   1.0000   1.0000   1.0000
     1.0000   1.0000   1.0000   1.0000   1.0000   1.0000   1.0000   1.0000
     1.0000   1.0000   1.0000   1.0000   1.0000   1.0000   1.0000   1.0000
     1.0000   1.0000   1.0000   1.0000   1.0000   1.0000   1.0000   1.0000
     1.0000   1.0000   1.0000   1.0000   1.0000   1.0000   1.0000   1.0000
     1.0000   1.0000   1.0000   1.0000   1.0000   1.0000   1.0000   1.0000
     1.0000   1.0000   1.0000   1.0000   1.0000   1.0000   1.0000   1.0000
     1.0000   1.0000   1.0000   1.0000   1.0000   1.0000   1.0000   1.0000
     1.0000   1.0000   1.0000   1.0000   1.0000   1.0000   1.0000   1.0000
     1.0000   1.0000   1.0000   1.0000   1.0000   1.0000   1.0000   1.0000
     1.0000   1.0000   1.0000   1.0000   1.0000   1.0000   1.0000   1.0000
     1.0000   1.0000   1.0000   1.0000   1.0000   1.0000   1.0000   1.0000
     1.0000   1.0000   1.0000   1.0000   1.0000   1.0000   1.0000   1.0000
     1.0000   1.0000   1.0000   1.0000   1.0000   1.0000   1.0000   1.0000
     1.0000   1.0000   1.0000   1.0000   1.0000   1.0000   1.0000   1.0000
     1.0000   1.0000   1.0000   1.0000   1.0000   1.0000   1.0000   1.0000
     1.0000   1.0000   1.0000   1.0000   1.0000   1.0000   1.0000   1.0000
     1.0000   1.0000   1.0000   1.0000   1.0000   1.0000   1.0000   1.0000
     1.0000   1.0000   1.0000   1.0000   1.0000   1.0000   1.0000   1.0000
     1.0000   1.0000   1.0000   1.0000   1.0000   1.0000   1.0000   1.0000
     1.0000   1.0000   1.0000   1.0000   1.0000   1.0000   1.0000   1.0000
     1.0000   1.0000   1.0000   1.0000   1.0000   1.0000   1.0000   1.0000
     1.0000   1.0000   1.0000   1.0000   1.0000   1.0000   1.0000   1.0000
     1.0000   1.0000   1.0000   1.0000   1.0000   1.0000   1.0000   1.0000
     1.0000   1.0000   1.0000   1.0000   1.0000   1.0000   1.0000   1.0000
     1.0000   1.0000   1.0000   1.0000   1.0000   1.0000   1.0000   1.0000
     1.0000   1.0000   1.0000   1.0000   1.0000   1.0000   1.0000   1.0000
     1.0000   1.0000   1.0000   1.0000   1.0000   1.0000   1.0000   1.0000
     1.0000   1.0000   1.0000   1.0000   1.0000   1.0000   1.0000   1.0000
     1.0000   1.0000   1.0000   1.0000   1.0000   1.0000   1.0000   1.0000
     1.0000   1.0000   1.0000   1.0000   1.0000   1.0000   1.0000   1.0000
     1.0000   1.0000   1.0000   1.0000   1.0000   1.0000   1.0000   1.0000
     1.0000   1.0000   1.0000   1.0000   1.0000   1.0000   1.0000   1.0000
     1.0000   1.0000   1.0000   1.0000   1.0000   1.0000   1.0000   1.0000
     1.0000   1.0000   1.0000   1.0000   1.0000   1.0000   1.0000   1.0000
     1.0000   1.0000   1.0000   1.0000   1.0000   1.0000   1.0000   1.0000
     1.0000   1.0000   1.0000   1.0000   1.0000   1.0000   1.0000   1.0000
     1.0000   1.0000   1.0000   1.0000   1.0000   1.0000   1.0000   1.0000
     1.0000   1.0000   1.0000   1.0000   1.0000   1.0000   1.0000   1.0000
     1.0000   1.0000   1.0000   1.0000   1.0000   1.0000   1.0000   1.0000
     1.0000   1.0000   1.0000   1.0000   1.0000   1.0000   1.0000   1.0000
     1.0006   1.0006   1.0019   1.0374   1.0443   1.0443   0.9985   0.9985
     0.1541   0.1541   0.0000   0.0000   0.0000   0.0000   0.0000   0.0000
     0.0000   0.0000   0.0000   0.0000   0.0000   0.0000   0.0000   0.0000
     0.0000   0.0000   0.0000   0.0000   0.0000   0.0000   0.0000   0.0000
     0.0000   0.0000   0.0000   0.0000   0.0000   0.0000   0.0000   0.0000
     0.0000   0.0000   0.0000   0.0000   0.0000   0.0000   0.0000   0.0000
     0.0000   0.0000   0.0000   0.0000   0.0000   0.0000   0.0000   0.0000
     0.0000   0.0000   0.0000   0.0000   0.0000   0.0000   0.0000   0.0000
     0.0000   0.0000   0.0000   0.0000   0.0000   0.0000   0.0000   0.0000
     0.0000   0.0000   0.0000   0.0000   0.0000   0.0000   0.0000   0.0000
     0.0000   0.0000   0.0000   0.0000   0.0000   0.0000   0.0000   0.0000
     0.0000   0.0000   0.0000   0.0000   0.0000   0.0000   0.0000   0.0000
     0.0000   0.0000   0.0000   0.0000   0.0000   0.0000   0.0000   0.0000

          k = 0.0000-0.5774 0.0000 ( 64842 PWs)   bands (ev):

  -125.0671-125.0668-125.0661-125.0660-125.0650-125.0649-125.0648-125.0648
  -125.0645-125.0643-125.0641-125.0640-125.0638-125.0637-125.0634-125.0633
  -124.8631-124.8628-124.8627-124.8625-124.8620-124.8620-124.8617-124.8617
  -124.8609-124.8609-124.8608-124.8608-124.8605-124.8605-124.8605-124.8605
  -124.8605-124.8603-124.8602-124.8601-124.8600-124.8600-124.8598-124.8597
  -124.8597-124.8597-124.8595-124.8594-124.8594-124.8594-124.8592-124.8591
   -79.2312 -79.2311 -79.2308 -79.2307 -79.2287 -79.2284 -79.2274 -79.2274
   -79.2229 -79.2229 -79.2229 -79.2229 -79.2180 -79.2180 -79.2157 -79.2153
   -79.2145 -79.2144 -79.2132 -79.2131 -79.2131 -79.2130 -79.2127 -79.2125
   -79.2123 -79.2121 -79.2119 -79.2118 -79.2115 -79.2114 -79.2114 -79.2114
   -79.2101 -79.2100 -79.2098 -79.2096 -79.2066 -79.2066 -79.2065 -79.2065
   -79.2059 -79.2055 -79.2031 -79.2028 -79.2019 -79.2019 -79.1992 -79.1989
   -79.0238 -79.0237 -79.0234 -79.0234 -79.0234 -79.0234 -79.0231 -79.0231
   -79.0213 -79.0210 -79.0209 -79.0207 -79.0201 -79.0200 -79.0200 -79.0198
   -79.0197 -79.0197 -79.0196 -79.0194 -79.0188 -79.0188 -79.0185 -79.0185
   -79.0176 -79.0176 -79.0175 -79.0175 -79.0172 -79.0172 -79.0172 -79.0172
   -79.0171 -79.0170 -79.0168 -79.0167 -79.0167 -79.0167 -79.0164 -79.0164
   -79.0163 -79.0163 -79.0161 -79.0161 -79.0160 -79.0160 -79.0158 -79.0157
   -79.0156 -79.0156 -79.0156 -79.0156 -79.0153 -79.0152 -79.0152 -79.0152
   -79.0107 -79.0107 -79.0104 -79.0104 -79.0041 -79.0041 -79.0038 -79.0038
   -79.0027 -79.0027 -79.0024 -79.0024 -79.0024 -79.0024 -79.0021 -79.0021
   -78.9992 -78.9992 -78.9992 -78.9992 -78.9989 -78.9989 -78.9989 -78.9989
   -78.9985 -78.9982 -78.9982 -78.9980 -78.9958 -78.9955 -78.9954 -78.9952
   -78.9946 -78.9946 -78.9943 -78.9943 -78.9919 -78.9916 -78.9915 -78.9913
    -8.1560  -8.1558  -7.3171  -7.3171  -7.0256  -7.0254  -6.8635  -6.8633
    -6.8597  -6.8594  -6.7497  -6.7496  -6.7494  -6.7493  -6.6539  -6.6536
    -6.6470  -6.6470  -6.6469  -6.6469  -6.6244  -6.6242  -6.6075  -6.6074
    -6.6072  -6.6071  -6.5529  -6.5529  -6.5286  -6.5286  -6.5284  -6.5284
    -6.5058  -6.5058  -6.4878  -6.4878  -6.4878  -6.4878  -6.4629  -6.4629
    -6.4629  -6.4628  -6.4608  -6.4605  -6.4502  -6.4502  -6.4260  -6.4260
    -6.4217  -6.4216  -6.4214  -6.4214  -6.3101  -6.3101  -6.3011  -6.3011
    -6.2926  -6.2926  -6.2926  -6.2926  -6.2920  -6.2918  -6.2713  -6.2712
    -6.2710  -6.2710  -6.2354  -6.2353  -6.2212  -6.2212  -6.2212  -6.2212
    -6.2062  -6.2062  -6.2007  -6.2007  -6.1699  -6.1697  -6.1412  -6.1412
    -6.1116  -6.1116  -6.1035  -6.1035  -6.0833  -6.0833  -6.0832  -6.0831
    -6.0610  -6.0610  -6.0610  -6.0610  -6.0416  -6.0416  -6.0320  -6.0319
    -6.0257  -6.0256  -6.0231  -6.0229  -6.0091  -6.0088  -5.9905  -5.9905
    -5.9905  -5.9905  -5.9465  -5.9465  -5.9454  -5.9452  -5.9149  -5.9148
    -5.9063  -5.9063  -5.8726  -5.8725  -5.8724  -5.8723  -5.8148  -5.8145
    -5.8099  -5.8099  -5.8084  -5.8084  -5.8084  -5.8084  -5.8058  -5.8055
    -5.7877  -5.7877  -5.7846  -5.7844  -5.7753  -5.7753  -5.7752  -5.7751
    -5.7673  -5.7671  -5.7666  -5.7666  -5.7666  -5.7666  -5.7555  -5.7555
    -5.7540  -5.7540  -5.7540  -5.7540  -5.6754  -5.6754  -5.6740  -5.6740
    -5.6676  -5.6676  -5.6456  -5.6456  -5.6456  -5.6456  -5.6316  -5.6313
    -5.6240  -5.6240  -5.6050  -5.6049  -5.6048  -5.6047  -5.5947  -5.5947
    -5.5713  -5.5710  -5.5427  -5.5425  -5.5289  -5.5289  -5.5288  -5.5287
    -5.5272  -5.5272  -5.5272  -5.5272  -5.5229  -5.5229  -5.5219  -5.5217
    -5.4999  -5.4998  -5.4997  -5.4996  -5.4899  -5.4897  -5.4874  -5.4871
    -5.4858  -5.4858  -5.4790  -5.4790  -5.4649  -5.4649  -5.4649  -5.4649
    -5.4504  -5.4504  -5.4502  -5.4501  -5.4407  -5.4407  -5.4237  -5.4234
    -5.4150  -5.4150  -5.4149  -5.4148  -5.4133  -5.4133  -5.4108  -5.4108
    -5.4039  -5.4039  -5.4037  -5.4034  -5.4001  -5.3998  -5.3715  -5.3712
    -5.3622  -5.3622  -5.3622  -5.3622  -5.3236  -5.3236  -5.3236  -5.3236
    -5.2538  -5.2538  -5.2535  -5.2535  -5.2351  -5.2351  -5.2339  -5.2338
    -5.2336  -5.2336  -5.2011  -5.2009  -5.1984  -5.1982  -4.7020  -4.7020
    -4.4184  -4.4184  -4.4184  -4.4184  -3.7284  -3.7284  -3.1104  -3.1102
    -3.0617  -3.0617  -3.0616  -3.0616  -2.3913  -2.3913  -2.2399  -2.2399
    -1.7581  -1.7580  -1.7578  -1.7578  -0.7553  -0.7553  -0.7553  -0.7553
    -0.3256  -0.3256  -0.3254  -0.3254  -0.0905  -0.0903   0.0130   0.0131
     1.0212   1.0212   1.0491   1.0491   1.3381   1.3381   1.3698   1.3699
     1.3700   1.3700   2.2235   2.2235   2.8999   2.9000   2.9000   2.9001
     3.1016   3.1016   3.1016   3.1016   3.3222   3.3222   3.5556   3.5558
     3.8665   3.8666   3.8666   3.8666   3.9982   3.9982   4.2580   4.2580
     4.4477   4.4477   4.7459   4.7459   4.8580   4.8580   5.4824   5.4824
     5.5351   5.5352   5.7505   5.7506   5.8010   5.8011   5.9294   5.9295
     5.9296   5.9297   5.9831   5.9831   5.9831   5.9831   6.1543   6.1543
     6.1543   6.1543   6.4364   6.4364   6.5597   6.5597   6.6690   6.6690
     6.6802   6.6803   6.8662   6.8663   6.8668   6.8669   7.0139   7.0139
     7.0139   7.0139   7.6029   7.6029   7.7638   7.7638   8.0644   8.0644
     8.0957   8.0957   8.0957   8.0957   8.2793   8.2793   8.5022   8.5022
     8.5022   8.5022   8.6317   8.6317   8.6317   8.6317   8.6865   8.6865
     8.7365   8.7365   8.8255   8.8256   8.9999   8.9999   9.0000   9.0000

     occupation numbers 
     1.0000   1.0000   1.0000   1.0000   1.0000   1.0000   1.0000   1.0000
     1.0000   1.0000   1.0000   1.0000   1.0000   1.0000   1.0000   1.0000
     1.0000   1.0000   1.0000   1.0000   1.0000   1.0000   1.0000   1.0000
     1.0000   1.0000   1.0000   1.0000   1.0000   1.0000   1.0000   1.0000
     1.0000   1.0000   1.0000   1.0000   1.0000   1.0000   1.0000   1.0000
     1.0000   1.0000   1.0000   1.0000   1.0000   1.0000   1.0000   1.0000
     1.0000   1.0000   1.0000   1.0000   1.0000   1.0000   1.0000   1.0000
     1.0000   1.0000   1.0000   1.0000   1.0000   1.0000   1.0000   1.0000
     1.0000   1.0000   1.0000   1.0000   1.0000   1.0000   1.0000   1.0000
     1.0000   1.0000   1.0000   1.0000   1.0000   1.0000   1.0000   1.0000
     1.0000   1.0000   1.0000   1.0000   1.0000   1.0000   1.0000   1.0000
     1.0000   1.0000   1.0000   1.0000   1.0000   1.0000   1.0000   1.0000
     1.0000   1.0000   1.0000   1.0000   1.0000   1.0000   1.0000   1.0000
     1.0000   1.0000   1.0000   1.0000   1.0000   1.0000   1.0000   1.0000
     1.0000   1.0000   1.0000   1.0000   1.0000   1.0000   1.0000   1.0000
     1.0000   1.0000   1.0000   1.0000   1.0000   1.0000   1.0000   1.0000
     1.0000   1.0000   1.0000   1.0000   1.0000   1.0000   1.0000   1.0000
     1.0000   1.0000   1.0000   1.0000   1.0000   1.0000   1.0000   1.0000
     1.0000   1.0000   1.0000   1.0000   1.0000   1.0000   1.0000   1.0000
     1.0000   1.0000   1.0000   1.0000   1.0000   1.0000   1.0000   1.0000
     1.0000   1.0000   1.0000   1.0000   1.0000   1.0000   1.0000   1.0000
     1.0000   1.0000   1.0000   1.0000   1.0000   1.0000   1.0000   1.0000
     1.0000   1.0000   1.0000   1.0000   1.0000   1.0000   1.0000   1.0000
     1.0000   1.0000   1.0000   1.0000   1.0000   1.0000   1.0000   1.0000
     1.0000   1.0000   1.0000   1.0000   1.0000   1.0000   1.0000   1.0000
     1.0000   1.0000   1.0000   1.0000   1.0000   1.0000   1.0000   1.0000
     1.0000   1.0000   1.0000   1.0000   1.0000   1.0000   1.0000   1.0000
     1.0000   1.0000   1.0000   1.0000   1.0000   1.0000   1.0000   1.0000
     1.0000   1.0000   1.0000   1.0000   1.0000   1.0000   1.0000   1.0000
     1.0000   1.0000   1.0000   1.0000   1.0000   1.0000   1.0000   1.0000
     1.0000   1.0000   1.0000   1.0000   1.0000   1.0000   1.0000   1.0000
     1.0000   1.0000   1.0000   1.0000   1.0000   1.0000   1.0000   1.0000
     1.0000   1.0000   1.0000   1.0000   1.0000   1.0000   1.0000   1.0000
     1.0000   1.0000   1.0000   1.0000   1.0000   1.0000   1.0000   1.0000
     1.0000   1.0000   1.0000   1.0000   1.0000   1.0000   1.0000   1.0000
     1.0000   1.0000   1.0000   1.0000   1.0000   1.0000   1.0000   1.0000
     1.0000   1.0000   1.0000   1.0000   1.0000   1.0000   1.0000   1.0000
     1.0000   1.0000   1.0000   1.0000   1.0000   1.0000   1.0000   1.0000
     1.0000   1.0000   1.0000   1.0000   1.0000   1.0000   1.0000   1.0000
     1.0000   1.0000   1.0000   1.0000   1.0000   1.0000   1.0000   1.0000
     1.0000   1.0000   1.0000   1.0000   1.0000   1.0000   1.0000   1.0000
     1.0000   1.0000   1.0000   1.0000   1.0000   1.0000   1.0000   1.0000
     1.0000   1.0000   1.0000   1.0000   1.0000   1.0000   1.0000   1.0000
     1.0000   1.0000   1.0000   1.0000   1.0000   1.0000   1.0000   1.0000
     1.0000   1.0000   1.0000   1.0000   1.0000   1.0000   1.0000   1.0000
     1.0000   1.0000   1.0000   1.0000   1.0000   1.0000   1.0000   1.0000
     1.0000   1.0000   1.0000   1.0000   1.0000   1.0000   1.0000   1.0000
     1.0000   1.0000   1.0000   1.0000   1.0000   1.0000   1.0000   1.0000
     1.0000   1.0000   1.0000   1.0000   1.0000   1.0000   1.0000   1.0000
     1.0000   1.0000   1.0000   1.0000   1.0000   1.0000   1.0000   1.0000
     1.0000   1.0000   1.0000   1.0000   1.0000   1.0000   1.0000   1.0000
     1.0000   1.0000   1.0000   1.0000   1.0000   1.0000   1.0000   1.0000
     1.0000   1.0000   1.0000   1.0000   1.0000   1.0000   1.0000   1.0000
     1.0000   1.0000   1.0000   1.0000   1.0000   1.0000   1.0000   1.0000
     1.0000   1.0000   1.0000   1.0000   1.0000   1.0000   1.0000   1.0000
     1.0000   1.0000   1.0000   1.0000   1.0000   1.0000   1.0000   1.0000
     1.0000   1.0000   1.0000   1.0000   1.0000   1.0000   1.0000   1.0000
     1.0000   1.0000   1.0000   1.0000   1.0000   1.0000   1.0000   1.0000
     1.0000   1.0000   1.0000   1.0000   1.0000   1.0000   1.0000   1.0000
     1.0812   1.0812   1.0833   1.0833   0.6570   0.6570   0.5691   0.5690
     0.5688   0.5686   0.0000   0.0000   0.0000   0.0000   0.0000   0.0000
     0.0000   0.0000   0.0000   0.0000   0.0000   0.0000   0.0000   0.0000
     0.0000   0.0000   0.0000   0.0000   0.0000   0.0000   0.0000   0.0000
     0.0000   0.0000   0.0000   0.0000   0.0000   0.0000   0.0000   0.0000
     0.0000   0.0000   0.0000   0.0000   0.0000   0.0000   0.0000   0.0000
     0.0000   0.0000   0.0000   0.0000   0.0000   0.0000   0.0000   0.0000
     0.0000   0.0000   0.0000   0.0000   0.0000   0.0000   0.0000   0.0000
     0.0000   0.0000   0.0000   0.0000   0.0000   0.0000   0.0000   0.0000
     0.0000   0.0000   0.0000   0.0000   0.0000   0.0000   0.0000   0.0000
     0.0000   0.0000   0.0000   0.0000   0.0000   0.0000   0.0000   0.0000
     0.0000   0.0000   0.0000   0.0000   0.0000   0.0000   0.0000   0.0000
     0.0000   0.0000   0.0000   0.0000   0.0000   0.0000   0.0000   0.0000

          k = 0.2500 0.1443 0.0000 ( 64808 PWs)   bands (ev):

  -125.0674-125.0664-125.0660-125.0660-125.0653-125.0652-125.0650-125.0645
  -125.0644-125.0642-125.0641-125.0640-125.0638-125.0636-125.0635-125.0634
  -124.8633-124.8630-124.8624-124.8620-124.8620-124.8620-124.8616-124.8616
  -124.8613-124.8612-124.8610-124.8610-124.8609-124.8606-124.8604-124.8604
  -124.8602-124.8601-124.8601-124.8600-124.8600-124.8598-124.8598-124.8597
  -124.8597-124.8597-124.8595-124.8595-124.8594-124.8594-124.8593-124.8592
   -79.2330 -79.2330 -79.2324 -79.2284 -79.2284 -79.2275 -79.2275 -79.2256
   -79.2256 -79.2226 -79.2194 -79.2194 -79.2168 -79.2168 -79.2159 -79.2148
   -79.2144 -79.2144 -79.2136 -79.2135 -79.2132 -79.2127 -79.2127 -79.2126
   -79.2126 -79.2124 -79.2124 -79.2123 -79.2122 -79.2121 -79.2119 -79.2117
   -79.2116 -79.2115 -79.2100 -79.2100 -79.2088 -79.2078 -79.2078 -79.2068
   -79.2042 -79.2039 -79.2039 -79.2019 -79.2019 -79.2006 -79.1990 -79.1980
   -79.0256 -79.0256 -79.0253 -79.0253 -79.0250 -79.0247 -79.0210 -79.0210
   -79.0207 -79.0207 -79.0203 -79.0201 -79.0201 -79.0199 -79.0198 -79.0198
   -79.0192 -79.0188 -79.0188 -79.0187 -79.0184 -79.0184 -79.0182 -79.0182
   -79.0180 -79.0180 -79.0179 -79.0179 -79.0177 -79.0177 -79.0177 -79.0174
   -79.0171 -79.0170 -79.0168 -79.0167 -79.0167 -79.0167 -79.0166 -79.0164
   -79.0164 -79.0163 -79.0163 -79.0163 -79.0161 -79.0161 -79.0160 -79.0160
   -79.0159 -79.0158 -79.0153 -79.0150 -79.0121 -79.0121 -79.0118 -79.0118
   -79.0094 -79.0094 -79.0091 -79.0091 -79.0054 -79.0053 -79.0051 -79.0051
   -79.0050 -79.0050 -79.0047 -79.0047 -79.0027 -79.0027 -79.0024 -79.0024
   -79.0015 -79.0012 -79.0005 -79.0005 -79.0002 -79.0002 -78.9994 -78.9991
   -78.9969 -78.9966 -78.9966 -78.9966 -78.9963 -78.9962 -78.9946 -78.9946
   -78.9943 -78.9943 -78.9933 -78.9929 -78.9917 -78.9914 -78.9907 -78.9904
    -8.5038  -7.6203  -7.3001  -7.2483  -7.2483  -7.0289  -6.8982  -6.8719
    -6.8719  -6.8493  -6.8460  -6.8460  -6.7068  -6.6919  -6.6919  -6.6902
    -6.6745  -6.6623  -6.6379  -6.6379  -6.5895  -6.5805  -6.5766  -6.5766
    -6.5676  -6.5676  -6.5478  -6.5478  -6.5281  -6.5281  -6.5190  -6.5190
    -6.5168  -6.5123  -6.5123  -6.5091  -6.5091  -6.5021  -6.5021  -6.4869
    -6.4869  -6.4612  -6.4612  -6.4230  -6.4230  -6.3950  -6.3950  -6.3801
    -6.3801  -6.3758  -6.3225  -6.3177  -6.3177  -6.3155  -6.3155  -6.3150
    -6.3150  -6.2685  -6.2685  -6.2581  -6.2519  -6.2292  -6.2292  -6.2232
    -6.2232  -6.2214  -6.2214  -6.2211  -6.2081  -6.2081  -6.2048  -6.2048
    -6.1959  -6.1959  -6.1842  -6.1842  -6.1794  -6.1776  -6.1776  -6.1542
    -6.1377  -6.1237  -6.1237  -6.1142  -6.1142  -6.1011  -6.1011  -6.0928
    -6.0912  -6.0912  -6.0789  -6.0641  -6.0641  -6.0492  -6.0492  -6.0479
    -6.0479  -5.9586  -5.9586  -5.9585  -5.9585  -5.9432  -5.9407  -5.9378
    -5.9365  -5.9341  -5.9341  -5.9236  -5.9236  -5.9125  -5.9117  -5.9117
    -5.8939  -5.8939  -5.8889  -5.8848  -5.8812  -5.8747  -5.8747  -5.8682
    -5.8467  -5.8467  -5.8391  -5.8391  -5.8256  -5.8108  -5.7961  -5.7961
    -5.7947  -5.7947  -5.7865  -5.7865  -5.7765  -5.7765  -5.7764  -5.7734
    -5.7734  -5.7551  -5.7551  -5.7466  -5.7466  -5.7402  -5.7304  -5.7304
    -5.7134  -5.7121  -5.7121  -5.7048  -5.7048  -5.6975  -5.6975  -5.6956
    -5.6956  -5.6926  -5.6926  -5.6801  -5.6680  -5.6680  -5.6566  -5.6434
    -5.6394  -5.6394  -5.6327  -5.6327  -5.6180  -5.6180  -5.6175  -5.6164
    -5.6164  -5.6124  -5.6103  -5.6059  -5.6059  -5.5797  -5.5647  -5.5610
    -5.5610  -5.5560  -5.5560  -5.5485  -5.5485  -5.5461  -5.5461  -5.5429
    -5.5429  -5.5412  -5.5267  -5.5263  -5.5263  -5.5221  -5.5221  -5.5126
    -5.5126  -5.4913  -5.4913  -5.4615  -5.4609  -5.4571  -5.4570  -5.4544
    -5.4544  -5.4524  -5.4524  -5.4406  -5.4406  -5.4313  -5.4263  -5.4263
    -5.4243  -5.4183  -5.4152  -5.4148  -5.4012  -5.4012  -5.4002  -5.4002
    -5.3893  -5.3865  -5.3865  -5.3812  -5.3673  -5.3673  -5.3651  -5.3596
    -5.3446  -5.3446  -5.3408  -5.3319  -5.3196  -5.3196  -5.3135  -5.3105
    -5.3105  -5.3008  -5.3008  -5.2923  -5.2923  -5.2817  -5.2817  -5.1437
    -5.1437  -5.1290  -5.1290  -5.1235  -5.1235  -5.1052  -5.1044  -4.9470
    -4.9345  -4.6382  -4.6382  -3.8812  -3.8812  -3.4801  -3.3939  -3.3939
    -3.3650  -2.6735  -2.3017  -2.3017  -2.2221  -2.0213  -2.0213  -1.9715
    -1.9715  -1.5149  -1.5149  -1.2923  -1.2923  -1.1170  -0.7951  -0.5730
    -0.5730  -0.5610  -0.5610  -0.5523   0.0237   0.0237   0.2689   0.2689
     0.5599   0.5599   0.6332   0.8764   0.8982   0.8982   1.1833   1.1833
     1.5563   1.5563   2.2262   2.2262   2.6471   2.6964   2.6964   2.7208
     2.7825   2.7825   2.9499   2.9499   3.2203   3.5465   3.6906   3.6906
     3.9086   3.9086   4.1127   4.1849   4.1849   4.5568   4.5568   4.8016
     4.8016   4.8431   4.8431   5.1516   5.1516   5.1603   5.1603   5.1967
     5.4057   5.4265   5.4265   5.5681   5.6426   5.7933   5.7933   5.8071
     6.0939   6.0939   6.0984   6.3128   6.3128   6.3247   6.3326   6.5290
     6.5480   6.5480   6.5943   6.5943   6.7102   6.7835   6.7835   7.0100
     7.0100   7.0867   7.0867   7.1725   7.1725   7.2573   7.3088   7.3088
     7.4272   7.4320   7.4320   7.4472   7.4472   7.6567   7.6567   7.6922
     7.6922   7.7168   7.7168   7.7478   7.8744   7.8744   7.9459   7.9459
     8.0246   8.0246   8.1589   8.3152   8.3406   8.4914   8.6529   8.6530
     8.6965   8.7253   8.8078   8.8078   8.8260   8.8262   8.8359   8.8361

     occupation numbers 
     1.0000   1.0000   1.0000   1.0000   1.0000   1.0000   1.0000   1.0000
     1.0000   1.0000   1.0000   1.0000   1.0000   1.0000   1.0000   1.0000
     1.0000   1.0000   1.0000   1.0000   1.0000   1.0000   1.0000   1.0000
     1.0000   1.0000   1.0000   1.0000   1.0000   1.0000   1.0000   1.0000
     1.0000   1.0000   1.0000   1.0000   1.0000   1.0000   1.0000   1.0000
     1.0000   1.0000   1.0000   1.0000   1.0000   1.0000   1.0000   1.0000
     1.0000   1.0000   1.0000   1.0000   1.0000   1.0000   1.0000   1.0000
     1.0000   1.0000   1.0000   1.0000   1.0000   1.0000   1.0000   1.0000
     1.0000   1.0000   1.0000   1.0000   1.0000   1.0000   1.0000   1.0000
     1.0000   1.0000   1.0000   1.0000   1.0000   1.0000   1.0000   1.0000
     1.0000   1.0000   1.0000   1.0000   1.0000   1.0000   1.0000   1.0000
     1.0000   1.0000   1.0000   1.0000   1.0000   1.0000   1.0000   1.0000
     1.0000   1.0000   1.0000   1.0000   1.0000   1.0000   1.0000   1.0000
     1.0000   1.0000   1.0000   1.0000   1.0000   1.0000   1.0000   1.0000
     1.0000   1.0000   1.0000   1.0000   1.0000   1.0000   1.0000   1.0000
     1.0000   1.0000   1.0000   1.0000   1.0000   1.0000   1.0000   1.0000
     1.0000   1.0000   1.0000   1.0000   1.0000   1.0000   1.0000   1.0000
     1.0000   1.0000   1.0000   1.0000   1.0000   1.0000   1.0000   1.0000
     1.0000   1.0000   1.0000   1.0000   1.0000   1.0000   1.0000   1.0000
     1.0000   1.0000   1.0000   1.0000   1.0000   1.0000   1.0000   1.0000
     1.0000   1.0000   1.0000   1.0000   1.0000   1.0000   1.0000   1.0000
     1.0000   1.0000   1.0000   1.0000   1.0000   1.0000   1.0000   1.0000
     1.0000   1.0000   1.0000   1.0000   1.0000   1.0000   1.0000   1.0000
     1.0000   1.0000   1.0000   1.0000   1.0000   1.0000   1.0000   1.0000
     1.0000   1.0000   1.0000   1.0000   1.0000   1.0000   1.0000   1.0000
     1.0000   1.0000   1.0000   1.0000   1.0000   1.0000   1.0000   1.0000
     1.0000   1.0000   1.0000   1.0000   1.0000   1.0000   1.0000   1.0000
     1.0000   1.0000   1.0000   1.0000   1.0000   1.0000   1.0000   1.0000
     1.0000   1.0000   1.0000   1.0000   1.0000   1.0000   1.0000   1.0000
     1.0000   1.0000   1.0000   1.0000   1.0000   1.0000   1.0000   1.0000
     1.0000   1.0000   1.0000   1.0000   1.0000   1.0000   1.0000   1.0000
     1.0000   1.0000   1.0000   1.0000   1.0000   1.0000   1.0000   1.0000
     1.0000   1.0000   1.0000   1.0000   1.0000   1.0000   1.0000   1.0000
     1.0000   1.0000   1.0000   1.0000   1.0000   1.0000   1.0000   1.0000
     1.0000   1.0000   1.0000   1.0000   1.0000   1.0000   1.0000   1.0000
     1.0000   1.0000   1.0000   1.0000   1.0000   1.0000   1.0000   1.0000
     1.0000   1.0000   1.0000   1.0000   1.0000   1.0000   1.0000   1.0000
     1.0000   1.0000   1.0000   1.0000   1.0000   1.0000   1.0000   1.0000
     1.0000   1.0000   1.0000   1.0000   1.0000   1.0000   1.0000   1.0000
     1.0000   1.0000   1.0000   1.0000   1.0000   1.0000   1.0000   1.0000
     1.0000   1.0000   1.0000   1.0000   1.0000   1.0000   1.0000   1.0000
     1.0000   1.0000   1.0000   1.0000   1.0000   1.0000   1.0000   1.0000
     1.0000   1.0000   1.0000   1.0000   1.0000   1.0000   1.0000   1.0000
     1.0000   1.0000   1.0000   1.0000   1.0000   1.0000   1.0000   1.0000
     1.0000   1.0000   1.0000   1.0000   1.0000   1.0000   1.0000   1.0000
     1.0000   1.0000   1.0000   1.0000   1.0000   1.0000   1.0000   1.0000
     1.0000   1.0000   1.0000   1.0000   1.0000   1.0000   1.0000   1.0000
     1.0000   1.0000   1.0000   1.0000   1.0000   1.0000   1.0000   1.0000
     1.0000   1.0000   1.0000   1.0000   1.0000   1.0000   1.0000   1.0000
     1.0000   1.0000   1.0000   1.0000   1.0000   1.0000   1.0000   1.0000
     1.0000   1.0000   1.0000   1.0000   1.0000   1.0000   1.0000   1.0000
     1.0000   1.0000   1.0000   1.0000   1.0000   1.0000   1.0000   1.0000
     1.0000   1.0000   1.0000   1.0000   1.0000   1.0000   1.0000   1.0000
     1.0000   1.0000   1.0000   1.0000   1.0000   1.0000   1.0000   1.0000
     1.0000   1.0000   1.0000   1.0000   1.0000   1.0000   1.0000   1.0000
     1.0000   1.0000   1.0000   1.0000   1.0000   1.0000   1.0000   1.0000
     1.0000   1.0000   1.0000   1.0000   1.0000   1.0000   1.0000   1.0000
     1.0000   1.0000   1.0000   1.0000   1.0000   1.0000   1.0000   1.0000
     1.0000   1.0000   1.0000   1.0000   1.0000   1.0000   1.0000   1.0000
     1.0006   1.0006   1.0019   1.0374   1.0443   1.0443   0.9985   0.9985
     0.1541   0.1541   0.0000   0.0000   0.0000   0.0000   0.0000   0.0000
     0.0000   0.0000   0.0000   0.0000   0.0000   0.0000   0.0000   0.0000
     0.0000   0.0000   0.0000   0.0000   0.0000   0.0000   0.0000   0.0000
     0.0000   0.0000   0.0000   0.0000   0.0000   0.0000   0.0000   0.0000
     0.0000   0.0000   0.0000   0.0000   0.0000   0.0000   0.0000   0.0000
     0.0000   0.0000   0.0000   0.0000   0.0000   0.0000   0.0000   0.0000
     0.0000   0.0000   0.0000   0.0000   0.0000   0.0000   0.0000   0.0000
     0.0000   0.0000   0.0000   0.0000   0.0000   0.0000   0.0000   0.0000
     0.0000   0.0000   0.0000   0.0000   0.0000   0.0000   0.0000   0.0000
     0.0000   0.0000   0.0000   0.0000   0.0000   0.0000   0.0000   0.0000
     0.0000   0.0000   0.0000   0.0000   0.0000   0.0000   0.0000   0.0000
     0.0000   0.0000   0.0000   0.0000   0.0000   0.0000   0.0000   0.0000

          k = 0.2500 0.4330 0.0000 ( 64876 PWs)   bands (ev):

  -125.0672-125.0666-125.0665-125.0655-125.0655-125.0649-125.0647-125.0647
  -125.0645-125.0643-125.0641-125.0641-125.0638-125.0636-125.0634-125.0633
  -124.8631-124.8627-124.8626-124.8625-124.8622-124.8622-124.8615-124.8614
  -124.8611-124.8611-124.8609-124.8607-124.8607-124.8605-124.8604-124.8604
  -124.8603-124.8603-124.8601-124.8601-124.8600-124.8600-124.8598-124.8598
  -124.8598-124.8596-124.8595-124.8594-124.8594-124.8593-124.8592-124.8591
   -79.2321 -79.2305 -79.2305 -79.2299 -79.2298 -79.2278 -79.2277 -79.2258
   -79.2257 -79.2251 -79.2217 -79.2209 -79.2172 -79.2172 -79.2157 -79.2151
   -79.2150 -79.2138 -79.2138 -79.2137 -79.2137 -79.2131 -79.2129 -79.2129
   -79.2126 -79.2125 -79.2123 -79.2122 -79.2120 -79.2117 -79.2115 -79.2114
   -79.2104 -79.2086 -79.2085 -79.2072 -79.2071 -79.2071 -79.2064 -79.2064
   -79.2057 -79.2057 -79.2042 -79.2042 -79.2017 -79.2001 -79.2001 -79.1987
   -79.0247 -79.0244 -79.0231 -79.0231 -79.0228 -79.0227 -79.0225 -79.0225
   -79.0222 -79.0222 -79.0204 -79.0204 -79.0201 -79.0200 -79.0200 -79.0196
   -79.0194 -79.0194 -79.0191 -79.0190 -79.0184 -79.0183 -79.0182 -79.0182
   -79.0180 -79.0180 -79.0179 -79.0178 -79.0178 -79.0175 -79.0175 -79.0174
   -79.0173 -79.0172 -79.0171 -79.0171 -79.0170 -79.0170 -79.0168 -79.0167
   -79.0167 -79.0166 -79.0165 -79.0164 -79.0164 -79.0162 -79.0161 -79.0161
   -79.0160 -79.0159 -79.0158 -79.0157 -79.0143 -79.0140 -79.0135 -79.0132
   -79.0099 -79.0099 -79.0096 -79.0095 -79.0064 -79.0064 -79.0061 -79.0061
   -79.0030 -79.0027 -79.0012 -79.0012 -79.0009 -79.0009 -78.9998 -78.9998
   -78.9998 -78.9995 -78.9995 -78.9994 -78.9991 -78.9991 -78.9988 -78.9988
   -78.9984 -78.9984 -78.9981 -78.9981 -78.9969 -78.9969 -78.9966 -78.9966
   -78.9943 -78.9940 -78.9928 -78.9928 -78.9925 -78.9925 -78.9914 -78.9911
    -8.2700  -7.8233  -7.8232  -7.1115  -6.9138  -6.8398  -6.8398  -6.8037
    -6.8037  -6.7969  -6.7969  -6.7925  -6.7925  -6.7686  -6.7271  -6.7271
    -6.6983  -6.6982  -6.6553  -6.6553  -6.6236  -6.6089  -6.6089  -6.6043
    -6.6042  -6.5882  -6.5882  -6.5676  -6.5676  -6.5602  -6.5602  -6.5435
    -6.5346  -6.5346  -6.4916  -6.4916  -6.4718  -6.4718  -6.4693  -6.4614
    -6.4614  -6.4406  -6.4397  -6.4172  -6.4126  -6.4126  -6.4117  -6.4117
    -6.4028  -6.4028  -6.3928  -6.3695  -6.3695  -6.3120  -6.3016  -6.3016
    -6.2976  -6.2976  -6.2917  -6.2917  -6.2914  -6.2789  -6.2671  -6.2634
    -6.2633  -6.2550  -6.2493  -6.2493  -6.2432  -6.2432  -6.2410  -6.2218
    -6.2218  -6.2023  -6.2023  -6.1770  -6.1770  -6.1655  -6.1472  -6.1452
    -6.1410  -6.1409  -6.1185  -6.1185  -6.1079  -6.1079  -6.0953  -6.0886
    -6.0569  -6.0568  -6.0472  -6.0472  -6.0417  -6.0328  -6.0194  -6.0194
    -5.9971  -5.9924  -5.9924  -5.9889  -5.9797  -5.9797  -5.9720  -5.9720
    -5.9697  -5.9697  -5.9565  -5.9490  -5.9417  -5.9152  -5.9152  -5.9082
    -5.9082  -5.9064  -5.8985  -5.8918  -5.8918  -5.8867  -5.8866  -5.8768
    -5.8768  -5.8527  -5.8527  -5.8460  -5.8460  -5.8342  -5.8341  -5.8328
    -5.8328  -5.8293  -5.8293  -5.8081  -5.7973  -5.7973  -5.7934  -5.7726
    -5.7631  -5.7631  -5.7563  -5.7515  -5.7515  -5.7494  -5.7137  -5.7137
    -5.6936  -5.6936  -5.6917  -5.6917  -5.6575  -5.6544  -5.6544  -5.6536
    -5.6536  -5.6474  -5.6329  -5.6307  -5.6307  -5.6232  -5.6232  -5.5930
    -5.5930  -5.5930  -5.5912  -5.5912  -5.5828  -5.5828  -5.5806  -5.5806
    -5.5777  -5.5776  -5.5750  -5.5750  -5.5665  -5.5665  -5.5495  -5.5495
    -5.5490  -5.5490  -5.5455  -5.5409  -5.5372  -5.5372  -5.5146  -5.5146
    -5.5122  -5.5100  -5.5100  -5.5063  -5.5038  -5.4846  -5.4845  -5.4829
    -5.4788  -5.4788  -5.4670  -5.4605  -5.4605  -5.4600  -5.4600  -5.4569
    -5.4569  -5.4561  -5.4561  -5.4437  -5.4437  -5.4414  -5.4414  -5.4343
    -5.4343  -5.4300  -5.4188  -5.4188  -5.4093  -5.4093  -5.4085  -5.3996
    -5.3940  -5.3872  -5.3872  -5.3754  -5.3741  -5.3741  -5.3682  -5.3671
    -5.3639  -5.3639  -5.3346  -5.3271  -5.3271  -5.3078  -5.3078  -5.2818
    -5.2754  -5.2754  -5.2722  -5.2722  -5.2712  -5.2712  -5.2565  -5.2281
    -5.1866  -5.1866  -5.1825  -5.1825  -5.1439  -5.1439  -5.0645  -5.0645
    -4.4563  -4.2332  -4.2332  -4.0439  -4.0439  -3.2451  -3.2451  -3.1953
    -3.1450  -2.8774  -2.8774  -2.8495  -2.8495  -2.7806  -2.7806  -1.7961
    -1.7961  -1.7015  -1.7015  -1.4135  -1.4135  -0.8450  -0.4759  -0.4758
    -0.4123  -0.4123  -0.3233  -0.2415   0.2945   0.3499   0.3499   0.4233
     0.4233   0.6996   0.6996   0.7889   0.9700   0.9700   1.0865   1.4156
     1.4156   1.9756   1.9756   2.5308   2.5518   2.8205   2.9854   3.0905
     3.3258   3.3258   3.3639   3.3639   3.4440   3.4464   3.4464   3.5746
     3.5746   3.6671   3.8906   3.8906   4.3745   4.3745   4.3916   4.4246
     4.4433   4.4433   4.5666   4.5666   4.8786   4.9326   5.1388   5.1388
     5.2206   5.2206   5.4224   5.4440   5.4441   5.4520   5.4520   5.6356
     5.8734   5.8734   6.0907   6.0952   6.0952   6.1237   6.1237   6.5423
     6.5423   6.5645   6.6435   6.6455   6.6455   6.7539   6.9517   6.9989
     6.9989   7.0016   7.0270   7.0270   7.0435   7.0435   7.1634   7.1634
     7.2032   7.2032   7.2201   7.2201   7.2220   7.2220   7.4709   7.4709
     8.0999   8.2149   8.2149   8.3616   8.3768   8.4001   8.4001   8.5390
     8.5408   8.5408   8.5713   8.5827   8.5828   8.6322   8.6322   8.6577
     8.6782   8.6782   8.7144   8.7445   8.8296   8.8296   9.0311   9.0311

     occupation numbers 
     1.0000   1.0000   1.0000   1.0000   1.0000   1.0000   1.0000   1.0000
     1.0000   1.0000   1.0000   1.0000   1.0000   1.0000   1.0000   1.0000
     1.0000   1.0000   1.0000   1.0000   1.0000   1.0000   1.0000   1.0000
     1.0000   1.0000   1.0000   1.0000   1.0000   1.0000   1.0000   1.0000
     1.0000   1.0000   1.0000   1.0000   1.0000   1.0000   1.0000   1.0000
     1.0000   1.0000   1.0000   1.0000   1.0000   1.0000   1.0000   1.0000
     1.0000   1.0000   1.0000   1.0000   1.0000   1.0000   1.0000   1.0000
     1.0000   1.0000   1.0000   1.0000   1.0000   1.0000   1.0000   1.0000
     1.0000   1.0000   1.0000   1.0000   1.0000   1.0000   1.0000   1.0000
     1.0000   1.0000   1.0000   1.0000   1.0000   1.0000   1.0000   1.0000
     1.0000   1.0000   1.0000   1.0000   1.0000   1.0000   1.0000   1.0000
     1.0000   1.0000   1.0000   1.0000   1.0000   1.0000   1.0000   1.0000
     1.0000   1.0000   1.0000   1.0000   1.0000   1.0000   1.0000   1.0000
     1.0000   1.0000   1.0000   1.0000   1.0000   1.0000   1.0000   1.0000
     1.0000   1.0000   1.0000   1.0000   1.0000   1.0000   1.0000   1.0000
     1.0000   1.0000   1.0000   1.0000   1.0000   1.0000   1.0000   1.0000
     1.0000   1.0000   1.0000   1.0000   1.0000   1.0000   1.0000   1.0000
     1.0000   1.0000   1.0000   1.0000   1.0000   1.0000   1.0000   1.0000
     1.0000   1.0000   1.0000   1.0000   1.0000   1.0000   1.0000   1.0000
     1.0000   1.0000   1.0000   1.0000   1.0000   1.0000   1.0000   1.0000
     1.0000   1.0000   1.0000   1.0000   1.0000   1.0000   1.0000   1.0000
     1.0000   1.0000   1.0000   1.0000   1.0000   1.0000   1.0000   1.0000
     1.0000   1.0000   1.0000   1.0000   1.0000   1.0000   1.0000   1.0000
     1.0000   1.0000   1.0000   1.0000   1.0000   1.0000   1.0000   1.0000
     1.0000   1.0000   1.0000   1.0000   1.0000   1.0000   1.0000   1.0000
     1.0000   1.0000   1.0000   1.0000   1.0000   1.0000   1.0000   1.0000
     1.0000   1.0000   1.0000   1.0000   1.0000   1.0000   1.0000   1.0000
     1.0000   1.0000   1.0000   1.0000   1.0000   1.0000   1.0000   1.0000
     1.0000   1.0000   1.0000   1.0000   1.0000   1.0000   1.0000   1.0000
     1.0000   1.0000   1.0000   1.0000   1.0000   1.0000   1.0000   1.0000
     1.0000   1.0000   1.0000   1.0000   1.0000   1.0000   1.0000   1.0000
     1.0000   1.0000   1.0000   1.0000   1.0000   1.0000   1.0000   1.0000
     1.0000   1.0000   1.0000   1.0000   1.0000   1.0000   1.0000   1.0000
     1.0000   1.0000   1.0000   1.0000   1.0000   1.0000   1.0000   1.0000
     1.0000   1.0000   1.0000   1.0000   1.0000   1.0000   1.0000   1.0000
     1.0000   1.0000   1.0000   1.0000   1.0000   1.0000   1.0000   1.0000
     1.0000   1.0000   1.0000   1.0000   1.0000   1.0000   1.0000   1.0000
     1.0000   1.0000   1.0000   1.0000   1.0000   1.0000   1.0000   1.0000
     1.0000   1.0000   1.0000   1.0000   1.0000   1.0000   1.0000   1.0000
     1.0000   1.0000   1.0000   1.0000   1.0000   1.0000   1.0000   1.0000
     1.0000   1.0000   1.0000   1.0000   1.0000   1.0000   1.0000   1.0000
     1.0000   1.0000   1.0000   1.0000   1.0000   1.0000   1.0000   1.0000
     1.0000   1.0000   1.0000   1.0000   1.0000   1.0000   1.0000   1.0000
     1.0000   1.0000   1.0000   1.0000   1.0000   1.0000   1.0000   1.0000
     1.0000   1.0000   1.0000   1.0000   1.0000   1.0000   1.0000   1.0000
     1.0000   1.0000   1.0000   1.0000   1.0000   1.0000   1.0000   1.0000
     1.0000   1.0000   1.0000   1.0000   1.0000   1.0000   1.0000   1.0000
     1.0000   1.0000   1.0000   1.0000   1.0000   1.0000   1.0000   1.0000
     1.0000   1.0000   1.0000   1.0000   1.0000   1.0000   1.0000   1.0000
     1.0000   1.0000   1.0000   1.0000   1.0000   1.0000   1.0000   1.0000
     1.0000   1.0000   1.0000   1.0000   1.0000   1.0000   1.0000   1.0000
     1.0000   1.0000   1.0000   1.0000   1.0000   1.0000   1.0000   1.0000
     1.0000   1.0000   1.0000   1.0000   1.0000   1.0000   1.0000   1.0000
     1.0000   1.0000   1.0000   1.0000   1.0000   1.0000   1.0000   1.0000
     1.0000   1.0000   1.0000   1.0000   1.0000   1.0000   1.0000   1.0000
     1.0000   1.0000   1.0000   1.0000   1.0000   1.0000   1.0000   1.0000
     1.0000   1.0000   1.0000   1.0000   1.0000   1.0000   1.0000   1.0000
     1.0000   1.0000   1.0000   1.0000   1.0000   1.0000   1.0000   1.0000
     1.0000   1.0000   1.0000   1.0000   1.0000   1.0000   1.0000   1.0000
     1.0000   1.0052   1.0052   1.0159   1.0686   1.0686   1.0779   0.4452
     0.4451   0.0003   0.0003   0.0000   0.0000   0.0000   0.0000   0.0000
     0.0000   0.0000   0.0000   0.0000   0.0000   0.0000   0.0000   0.0000
     0.0000   0.0000   0.0000   0.0000   0.0000   0.0000   0.0000   0.0000
     0.0000   0.0000   0.0000   0.0000   0.0000   0.0000   0.0000   0.0000
     0.0000   0.0000   0.0000   0.0000   0.0000   0.0000   0.0000   0.0000
     0.0000   0.0000   0.0000   0.0000   0.0000   0.0000   0.0000   0.0000
     0.0000   0.0000   0.0000   0.0000   0.0000   0.0000   0.0000   0.0000
     0.0000   0.0000   0.0000   0.0000   0.0000   0.0000   0.0000   0.0000
     0.0000   0.0000   0.0000   0.0000   0.0000   0.0000   0.0000   0.0000
     0.0000   0.0000   0.0000   0.0000   0.0000   0.0000   0.0000   0.0000
     0.0000   0.0000   0.0000   0.0000   0.0000   0.0000   0.0000   0.0000
     0.0000   0.0000   0.0000   0.0000   0.0000   0.0000   0.0000   0.0000

          k = 0.2500-0.4330 0.0000 ( 64876 PWs)   bands (ev):

  -125.0671-125.0668-125.0664-125.0655-125.0654-125.0650-125.0649-125.0645
  -125.0645-125.0642-125.0641-125.0641-125.0639-125.0637-125.0634-125.0633
  -124.8631-124.8627-124.8627-124.8624-124.8623-124.8621-124.8615-124.8614
  -124.8611-124.8611-124.8610-124.8608-124.8606-124.8605-124.8605-124.8604
  -124.8602-124.8602-124.8601-124.8601-124.8601-124.8599-124.8598-124.8598
  -124.8598-124.8597-124.8595-124.8594-124.8594-124.8594-124.8592-124.8591
   -79.2321 -79.2305 -79.2304 -79.2300 -79.2298 -79.2279 -79.2276 -79.2258
   -79.2256 -79.2252 -79.2217 -79.2209 -79.2172 -79.2172 -79.2157 -79.2152
   -79.2149 -79.2138 -79.2138 -79.2137 -79.2137 -79.2132 -79.2131 -79.2127
   -79.2127 -79.2124 -79.2123 -79.2122 -79.2120 -79.2118 -79.2115 -79.2114
   -79.2104 -79.2087 -79.2083 -79.2074 -79.2071 -79.2069 -79.2064 -79.2064
   -79.2058 -79.2056 -79.2042 -79.2042 -79.2016 -79.2001 -79.2001 -79.1987
   -79.0247 -79.0244 -79.0231 -79.0230 -79.0227 -79.0227 -79.0226 -79.0224
   -79.0222 -79.0221 -79.0205 -79.0202 -79.0202 -79.0200 -79.0199 -79.0196
   -79.0196 -79.0192 -79.0192 -79.0189 -79.0184 -79.0182 -79.0182 -79.0181
   -79.0181 -79.0179 -79.0179 -79.0178 -79.0178 -79.0176 -79.0175 -79.0175
   -79.0173 -79.0172 -79.0171 -79.0171 -79.0169 -79.0169 -79.0168 -79.0167
   -79.0167 -79.0165 -79.0165 -79.0165 -79.0164 -79.0163 -79.0161 -79.0160
   -79.0160 -79.0159 -79.0158 -79.0157 -79.0143 -79.0140 -79.0135 -79.0132
   -79.0099 -79.0099 -79.0095 -79.0095 -79.0065 -79.0063 -79.0061 -79.0060
   -79.0030 -79.0027 -79.0014 -79.0010 -79.0010 -79.0008 -79.0000 -78.9998
   -78.9996 -78.9996 -78.9995 -78.9993 -78.9991 -78.9991 -78.9988 -78.9988
   -78.9985 -78.9983 -78.9981 -78.9980 -78.9969 -78.9969 -78.9966 -78.9966
   -78.9943 -78.9940 -78.9928 -78.9928 -78.9925 -78.9925 -78.9914 -78.9911
    -8.2700  -7.8234  -7.8231  -7.1115  -6.9138  -6.8398  -6.8398  -6.8037
    -6.8037  -6.7970  -6.7969  -6.7926  -6.7924  -6.7686  -6.7273  -6.7269
[...]
     1.0000   1.0000   1.0000   1.0000   1.0000   1.0000   1.0000   1.0000
     1.0000   1.0000   1.0000   1.0000   1.0000   1.0000   1.0000   1.0000
     1.0000   1.0000   1.0000   1.0000   1.0000   1.0000   1.0000   1.0000
     1.0000   1.0000   1.0000   1.0000   1.0000   1.0000   1.0000   1.0000
     1.0000   1.0000   1.0000   1.0000   1.0000   1.0000   1.0000   1.0000
     1.0000   1.0000   1.0000   1.0000   1.0000   1.0000   1.0000   1.0000
     1.0000   1.0000   1.0000   1.0000   1.0000   1.0000   1.0000   1.0000
     1.0000   1.0000   1.0000   1.0000   1.0000   1.0000   1.0000   1.0000
     1.0000   1.0000   1.0000   1.0000   1.0000   1.0000   1.0000   1.0000
     1.0000   1.0000   1.0000   1.0000   1.0000   1.0000   1.0000   1.0000
     1.0000   1.0000   1.0000   1.0000   1.0000   1.0000   1.0000   1.0000
     1.0000   1.0000   1.0000   1.0000   1.0000   1.0000   1.0000   1.0000
     1.0000   1.0000   1.0000   1.0000   1.0000   1.0000   1.0000   1.0000
     1.0000   1.0000   1.0000   1.0000   1.0000   1.0000   1.0000   1.0000
     1.0000   1.0000   1.0000   1.0000   1.0000   1.0000   1.0000   1.0000
     1.0000   1.0000   1.0000   1.0000   1.0000   1.0000   1.0000   1.0000
     1.0000   1.0000   1.0000   1.0000   1.0000   1.0000   1.0000   1.0000
     1.0000   1.0000   1.0000   1.0000   1.0000   1.0000   1.0000   1.0000
     1.0000   1.0000   1.0000   1.0000   1.0000   1.0000   1.0000   1.0000
     1.0000   1.0000   1.0000   1.0000   1.0000   1.0000   1.0000   1.0000
     1.0000   1.0000   1.0000   1.0000   1.0000   1.0000   1.0000   1.0000
     1.0000   1.0000   1.0000   1.0000   1.0000   1.0000   1.0000   1.0000
     1.0000   1.0000   1.0000   1.0000   1.0000   1.0000   1.0000   1.0000
     1.0000   1.0000   1.0000   1.0000   1.0000   1.0000   1.0000   1.0000
     1.0000   1.0000   1.0000   1.0000   1.0000   1.0000   1.0000   1.0000
     1.0000   1.0000   1.0000   1.0000   1.0000   1.0000   1.0000   1.0000
     1.0000   1.0000   1.0000   1.0000   1.0000   1.0000   1.0000   1.0000
     1.0000   1.0000   1.0000   1.0000   1.0000   1.0000   1.0000   1.0000
     1.0000   1.0000   1.0000   1.0000   1.0000   1.0000   1.0000   1.0000
     1.0000   1.0000   1.0000   1.0000   1.0000   1.0000   1.0000   1.0000
     1.0000   1.0000   1.0000   1.0000   1.0000   1.0000   1.0000   1.0000
     1.0000   1.0000   1.0000   1.0000   1.0000   1.0000   1.0000   1.0000
     1.0000   1.0000   1.0000   1.0000   1.0000   1.0000   1.0000   1.0000
     1.0000   1.0000   1.0000   1.0000   1.0000   1.0000   1.0000   1.0000
     1.0000   1.0000   1.0000   1.0000   1.0000   1.0000   1.0000   1.0000
     1.0000   1.0000   1.0000   1.0000   1.0000   1.0000   1.0000   1.0000
     1.0000   1.0000   1.0000   1.0000   1.0000   1.0000   1.0000   1.0000
     1.0000   1.0000   1.0000   1.0000   1.0000   1.0000   1.0000   1.0000
     1.0000   1.0000   1.0000   1.0000   1.0000   1.0000   1.0000   1.0000
     1.0000   1.0000   1.0000   1.0000   1.0000   1.0000   1.0000   1.0000
     1.0000   1.0052   1.0052   1.0159   1.0686   1.0686   1.0779   0.4454
     0.4449   0.0003   0.0003   0.0000   0.0000   0.0000   0.0000   0.0000
     0.0000   0.0000   0.0000   0.0000   0.0000   0.0000   0.0000   0.0000
     0.0000   0.0000   0.0000   0.0000   0.0000   0.0000   0.0000   0.0000
     0.0000   0.0000   0.0000   0.0000   0.0000   0.0000   0.0000   0.0000
     0.0000   0.0000   0.0000   0.0000   0.0000   0.0000   0.0000   0.0000
     0.0000   0.0000   0.0000   0.0000   0.0000   0.0000   0.0000   0.0000
     0.0000   0.0000   0.0000   0.0000   0.0000   0.0000   0.0000   0.0000
     0.0000   0.0000   0.0000   0.0000   0.0000   0.0000   0.0000   0.0000
     0.0000   0.0000   0.0000   0.0000   0.0000   0.0000   0.0000   0.0000
     0.0000   0.0000   0.0000   0.0000   0.0000   0.0000   0.0000   0.0000
     0.0000   0.0000   0.0000   0.0000   0.0000   0.0000   0.0000   0.0000
     0.0000   0.0000   0.0000   0.0000   0.0000   0.0000   0.0000   0.0000

          k =-0.5000-0.8660 0.0000 ( 64842 PWs)   bands (ev):

  -125.0671-125.0669-125.0661-125.0659-125.0650-125.0649-125.0649-125.0648
  -125.0644-125.0643-125.0640-125.0640-125.0638-125.0638-125.0634-125.0633
  -124.8630-124.8629-124.8626-124.8625-124.8620-124.8619-124.8617-124.8616
  -124.8610-124.8609-124.8609-124.8608-124.8606-124.8605-124.8605-124.8604
  -124.8604-124.8603-124.8601-124.8600-124.8600-124.8599-124.8599-124.8598
  -124.8596-124.8596-124.8596-124.8595-124.8594-124.8594-124.8592-124.8591
   -79.2310 -79.2310 -79.2309 -79.2309 -79.2286 -79.2285 -79.2275 -79.2273
   -79.2229 -79.2229 -79.2229 -79.2229 -79.2180 -79.2180 -79.2156 -79.2155
   -79.2145 -79.2143 -79.2133 -79.2132 -79.2131 -79.2130 -79.2126 -79.2125
   -79.2121 -79.2121 -79.2120 -79.2119 -79.2115 -79.2114 -79.2114 -79.2114
   -79.2099 -79.2099 -79.2099 -79.2098 -79.2066 -79.2066 -79.2066 -79.2065
   -79.2057 -79.2056 -79.2031 -79.2029 -79.2019 -79.2018 -79.1991 -79.1990
   -79.0236 -79.0236 -79.0236 -79.0236 -79.0233 -79.0233 -79.0232 -79.0232
   -79.0212 -79.0211 -79.0209 -79.0208 -79.0201 -79.0200 -79.0199 -79.0198
   -79.0198 -79.0197 -79.0195 -79.0194 -79.0188 -79.0187 -79.0185 -79.0185
   -79.0176 -79.0176 -79.0176 -79.0175 -79.0173 -79.0172 -79.0172 -79.0171
   -79.0171 -79.0170 -79.0168 -79.0167 -79.0166 -79.0166 -79.0165 -79.0164
   -79.0163 -79.0163 -79.0162 -79.0161 -79.0160 -79.0159 -79.0158 -79.0157
   -79.0156 -79.0156 -79.0156 -79.0155 -79.0153 -79.0153 -79.0152 -79.0152
   -79.0107 -79.0107 -79.0104 -79.0103 -79.0041 -79.0041 -79.0038 -79.0038
   -79.0026 -79.0026 -79.0025 -79.0025 -79.0023 -79.0023 -79.0022 -79.0022
   -78.9993 -78.9992 -78.9992 -78.9992 -78.9989 -78.9989 -78.9989 -78.9989
   -78.9984 -78.9984 -78.9981 -78.9980 -78.9957 -78.9956 -78.9954 -78.9953
   -78.9946 -78.9945 -78.9943 -78.9943 -78.9917 -78.9917 -78.9914 -78.9914
    -8.1559  -8.1559  -7.3171  -7.3171  -7.0255  -7.0255  -6.8634  -6.8634
    -6.8596  -6.8595  -6.7495  -6.7495  -6.7495  -6.7495  -6.6538  -6.6537
    -6.6470  -6.6470  -6.6469  -6.6469  -6.6243  -6.6243  -6.6073  -6.6073
    -6.6073  -6.6073  -6.5529  -6.5529  -6.5285  -6.5285  -6.5285  -6.5285
    -6.5058  -6.5058  -6.4878  -6.4878  -6.4878  -6.4878  -6.4629  -6.4629
    -6.4628  -6.4628  -6.4607  -6.4606  -6.4502  -6.4502  -6.4260  -6.4260
    -6.4216  -6.4216  -6.4215  -6.4215  -6.3101  -6.3101  -6.3011  -6.3011
    -6.2926  -6.2926  -6.2926  -6.2926  -6.2919  -6.2919  -6.2711  -6.2711
    -6.2711  -6.2711  -6.2354  -6.2353  -6.2212  -6.2212  -6.2212  -6.2212
    -6.2062  -6.2062  -6.2007  -6.2007  -6.1698  -6.1698  -6.1412  -6.1412
    -6.1116  -6.1116  -6.1035  -6.1035  -6.0832  -6.0832  -6.0832  -6.0832
    -6.0610  -6.0610  -6.0610  -6.0610  -6.0416  -6.0416  -6.0320  -6.0319
    -6.0257  -6.0257  -6.0230  -6.0230  -6.0089  -6.0089  -5.9905  -5.9905
    -5.9905  -5.9905  -5.9465  -5.9465  -5.9453  -5.9453  -5.9149  -5.9149
    -5.9063  -5.9063  -5.8725  -5.8725  -5.8725  -5.8725  -5.8147  -5.8146
    -5.8099  -5.8099  -5.8084  -5.8084  -5.8084  -5.8084  -5.8057  -5.8056
    -5.7877  -5.7877  -5.7845  -5.7845  -5.7752  -5.7752  -5.7752  -5.7752
    -5.7672  -5.7672  -5.7666  -5.7666  -5.7666  -5.7666  -5.7555  -5.7555
    -5.7540  -5.7540  -5.7540  -5.7540  -5.6754  -5.6754  -5.6740  -5.6740
    -5.6676  -5.6676  -5.6456  -5.6456  -5.6456  -5.6456  -5.6314  -5.6314
    -5.6240  -5.6240  -5.6049  -5.6049  -5.6049  -5.6049  -5.5947  -5.5947
    -5.5712  -5.5711  -5.5426  -5.5426  -5.5288  -5.5288  -5.5288  -5.5288
    -5.5272  -5.5272  -5.5272  -5.5272  -5.5229  -5.5229  -5.5218  -5.5217
    -5.4998  -5.4997  -5.4997  -5.4997  -5.4898  -5.4898  -5.4873  -5.4872
    -5.4858  -5.4858  -5.4790  -5.4790  -5.4649  -5.4649  -5.4649  -5.4649
    -5.4503  -5.4503  -5.4503  -5.4503  -5.4407  -5.4407  -5.4236  -5.4235
    -5.4149  -5.4149  -5.4149  -5.4149  -5.4133  -5.4133  -5.4108  -5.4108
    -5.4039  -5.4039  -5.4036  -5.4035  -5.4000  -5.3999  -5.3714  -5.3713
    -5.3622  -5.3622  -5.3622  -5.3622  -5.3236  -5.3236  -5.3236  -5.3236
    -5.2537  -5.2537  -5.2536  -5.2536  -5.2351  -5.2351  -5.2337  -5.2337
    -5.2337  -5.2337  -5.2010  -5.2010  -5.1983  -5.1983  -4.7020  -4.7020
    -4.4184  -4.4184  -4.4184  -4.4184  -3.7284  -3.7284  -3.1103  -3.1103
    -3.0617  -3.0617  -3.0616  -3.0616  -2.3913  -2.3913  -2.2399  -2.2399
    -1.7580  -1.7580  -1.7579  -1.7579  -0.7553  -0.7553  -0.7553  -0.7553
    -0.3256  -0.3255  -0.3255  -0.3255  -0.0904  -0.0904   0.0130   0.0131
     1.0212   1.0212   1.0491   1.0491   1.3381   1.3381   1.3699   1.3699
     1.3699   1.3699   2.2235   2.2235   2.9000   2.9000   2.9000   2.9000
     3.1016   3.1016   3.1016   3.1016   3.3222   3.3222   3.5557   3.5557
     3.8666   3.8666   3.8666   3.8666   3.9982   3.9982   4.2580   4.2580
     4.4477   4.4477   4.7459   4.7459   4.8580   4.8580   5.4824   5.4824
     5.5352   5.5352   5.7505   5.7505   5.8010   5.8010   5.9295   5.9295
     5.9296   5.9296   5.9831   5.9831   5.9831   5.9831   6.1543   6.1543
     6.1543   6.1543   6.4364   6.4364   6.5597   6.5597   6.6690   6.6690
     6.6802   6.6802   6.8662   6.8663   6.8668   6.8668   7.0139   7.0139
     7.0139   7.0139   7.6029   7.6029   7.7638   7.7638   8.0644   8.0644
     8.0957   8.0957   8.0957   8.0957   8.2793   8.2793   8.5022   8.5022
     8.5022   8.5022   8.6317   8.6317   8.6317   8.6317   8.6864   8.6865
     8.7365   8.7365   8.8255   8.8255   8.9999   8.9999   8.9999   9.0000

     occupation numbers 
     1.0000   1.0000   1.0000   1.0000   1.0000   1.0000   1.0000   1.0000
     1.0000   1.0000   1.0000   1.0000   1.0000   1.0000   1.0000   1.0000
     1.0000   1.0000   1.0000   1.0000   1.0000   1.0000   1.0000   1.0000
     1.0000   1.0000   1.0000   1.0000   1.0000   1.0000   1.0000   1.0000
     1.0000   1.0000   1.0000   1.0000   1.0000   1.0000   1.0000   1.0000
     1.0000   1.0000   1.0000   1.0000   1.0000   1.0000   1.0000   1.0000
     1.0000   1.0000   1.0000   1.0000   1.0000   1.0000   1.0000   1.0000
     1.0000   1.0000   1.0000   1.0000   1.0000   1.0000   1.0000   1.0000
     1.0000   1.0000   1.0000   1.0000   1.0000   1.0000   1.0000   1.0000
     1.0000   1.0000   1.0000   1.0000   1.0000   1.0000   1.0000   1.0000
     1.0000   1.0000   1.0000   1.0000   1.0000   1.0000   1.0000   1.0000
     1.0000   1.0000   1.0000   1.0000   1.0000   1.0000   1.0000   1.0000
     1.0000   1.0000   1.0000   1.0000   1.0000   1.0000   1.0000   1.0000
     1.0000   1.0000   1.0000   1.0000   1.0000   1.0000   1.0000   1.0000
     1.0000   1.0000   1.0000   1.0000   1.0000   1.0000   1.0000   1.0000
     1.0000   1.0000   1.0000   1.0000   1.0000   1.0000   1.0000   1.0000
     1.0000   1.0000   1.0000   1.0000   1.0000   1.0000   1.0000   1.0000
     1.0000   1.0000   1.0000   1.0000   1.0000   1.0000   1.0000   1.0000
     1.0000   1.0000   1.0000   1.0000   1.0000   1.0000   1.0000   1.0000
     1.0000   1.0000   1.0000   1.0000   1.0000   1.0000   1.0000   1.0000
     1.0000   1.0000   1.0000   1.0000   1.0000   1.0000   1.0000   1.0000
     1.0000   1.0000   1.0000   1.0000   1.0000   1.0000   1.0000   1.0000
     1.0000   1.0000   1.0000   1.0000   1.0000   1.0000   1.0000   1.0000
     1.0000   1.0000   1.0000   1.0000   1.0000   1.0000   1.0000   1.0000
     1.0000   1.0000   1.0000   1.0000   1.0000   1.0000   1.0000   1.0000
     1.0000   1.0000   1.0000   1.0000   1.0000   1.0000   1.0000   1.0000
     1.0000   1.0000   1.0000   1.0000   1.0000   1.0000   1.0000   1.0000
     1.0000   1.0000   1.0000   1.0000   1.0000   1.0000   1.0000   1.0000
     1.0000   1.0000   1.0000   1.0000   1.0000   1.0000   1.0000   1.0000
     1.0000   1.0000   1.0000   1.0000   1.0000   1.0000   1.0000   1.0000
     1.0000   1.0000   1.0000   1.0000   1.0000   1.0000   1.0000   1.0000
     1.0000   1.0000   1.0000   1.0000   1.0000   1.0000   1.0000   1.0000
     1.0000   1.0000   1.0000   1.0000   1.0000   1.0000   1.0000   1.0000
     1.0000   1.0000   1.0000   1.0000   1.0000   1.0000   1.0000   1.0000
     1.0000   1.0000   1.0000   1.0000   1.0000   1.0000   1.0000   1.0000
     1.0000   1.0000   1.0000   1.0000   1.0000   1.0000   1.0000   1.0000
     1.0000   1.0000   1.0000   1.0000   1.0000   1.0000   1.0000   1.0000
     1.0000   1.0000   1.0000   1.0000   1.0000   1.0000   1.0000   1.0000
     1.0000   1.0000   1.0000   1.0000   1.0000   1.0000   1.0000   1.0000
     1.0000   1.0000   1.0000   1.0000   1.0000   1.0000   1.0000   1.0000
     1.0000   1.0000   1.0000   1.0000   1.0000   1.0000   1.0000   1.0000
     1.0000   1.0000   1.0000   1.0000   1.0000   1.0000   1.0000   1.0000
     1.0000   1.0000   1.0000   1.0000   1.0000   1.0000   1.0000   1.0000
     1.0000   1.0000   1.0000   1.0000   1.0000   1.0000   1.0000   1.0000
     1.0000   1.0000   1.0000   1.0000   1.0000   1.0000   1.0000   1.0000
     1.0000   1.0000   1.0000   1.0000   1.0000   1.0000   1.0000   1.0000
     1.0000   1.0000   1.0000   1.0000   1.0000   1.0000   1.0000   1.0000
     1.0000   1.0000   1.0000   1.0000   1.0000   1.0000   1.0000   1.0000
     1.0000   1.0000   1.0000   1.0000   1.0000   1.0000   1.0000   1.0000
     1.0000   1.0000   1.0000   1.0000   1.0000   1.0000   1.0000   1.0000
     1.0000   1.0000   1.0000   1.0000   1.0000   1.0000   1.0000   1.0000
     1.0000   1.0000   1.0000   1.0000   1.0000   1.0000   1.0000   1.0000
     1.0000   1.0000   1.0000   1.0000   1.0000   1.0000   1.0000   1.0000
     1.0000   1.0000   1.0000   1.0000   1.0000   1.0000   1.0000   1.0000
     1.0000   1.0000   1.0000   1.0000   1.0000   1.0000   1.0000   1.0000
     1.0000   1.0000   1.0000   1.0000   1.0000   1.0000   1.0000   1.0000
     1.0000   1.0000   1.0000   1.0000   1.0000   1.0000   1.0000   1.0000
     1.0000   1.0000   1.0000   1.0000   1.0000   1.0000   1.0000   1.0000
     1.0000   1.0000   1.0000   1.0000   1.0000   1.0000   1.0000   1.0000
     1.0812   1.0812   1.0833   1.0833   0.6570   0.6570   0.5689   0.5689
     0.5688   0.5688   0.0000   0.0000   0.0000   0.0000   0.0000   0.0000
     0.0000   0.0000   0.0000   0.0000   0.0000   0.0000   0.0000   0.0000
     0.0000   0.0000   0.0000   0.0000   0.0000   0.0000   0.0000   0.0000
     0.0000   0.0000   0.0000   0.0000   0.0000   0.0000   0.0000   0.0000
     0.0000   0.0000   0.0000   0.0000   0.0000   0.0000   0.0000   0.0000
     0.0000   0.0000   0.0000   0.0000   0.0000   0.0000   0.0000   0.0000
     0.0000   0.0000   0.0000   0.0000   0.0000   0.0000   0.0000   0.0000
     0.0000   0.0000   0.0000   0.0000   0.0000   0.0000   0.0000   0.0000
     0.0000   0.0000   0.0000   0.0000   0.0000   0.0000   0.0000   0.0000
     0.0000   0.0000   0.0000   0.0000   0.0000   0.0000   0.0000   0.0000
     0.0000   0.0000   0.0000   0.0000   0.0000   0.0000   0.0000   0.0000
     0.0000   0.0000   0.0000   0.0000   0.0000   0.0000   0.0000   0.0000

     the Fermi energy is     1.4329 ev

!    total energy              =  -22154.25536816 Ry
     estimated scf accuracy    <       0.00000057 Ry
     smearing contrib. (-TS)   =       0.00133632 Ry
     internal energy E=F+TS    =  -22154.25670448 Ry

     The total energy is F=E-TS. E is the sum of the following terms:
     one-electron contribution = -144865.41635387 Ry
     hartree contribution      =   72366.06462248 Ry
     xc contribution           =   -2024.15291679 Ry
     ewald contribution        =   52369.24794369 Ry

     convergence has been achieved in  10 iterations

     Writing all to output data dir ./tmp/Zn002.save/ :
     XML data file, charge density, pseudopotentials, collected wavefunctions

     init_run     :    116.19s CPU    116.97s WALL (       1 calls)
     electrons    :   4494.34s CPU   4527.57s WALL (       1 calls)

     Called by init_run:
     wfcinit      :    114.23s CPU    114.94s WALL (       1 calls)
     wfcinit:atom :      0.07s CPU      0.12s WALL (      10 calls)
     wfcinit:wfcr :    113.08s CPU    113.64s WALL (      10 calls)
     potinit      :      0.11s CPU      0.13s WALL (       1 calls)
     hinit0       :      0.04s CPU      0.04s WALL (       1 calls)

     Called by electrons:
     c_bands      :   4164.95s CPU   4194.62s WALL (      11 calls)
     sum_band     :    314.50s CPU    317.04s WALL (      11 calls)
     v_of_rho     :      1.12s CPU      1.17s WALL (      11 calls)
     v_h          :      0.08s CPU      0.08s WALL (      11 calls)
     v_xc         :      1.04s CPU      1.09s WALL (      11 calls)
     newd         :     14.89s CPU     15.80s WALL (      11 calls)
     mix_rho      :      0.13s CPU      0.14s WALL (      11 calls)

     Called by c_bands:
     init_us_2    :      4.35s CPU      4.38s WALL (     230 calls)
     cegterg      :   4156.15s CPU   4185.68s WALL (     110 calls)

     Called by sum_band:
     sum_band:wei :      0.05s CPU      0.05s WALL (      11 calls)
     sum_band:loo :    300.81s CPU    302.34s WALL (      11 calls)
     sum_band:buf :      0.90s CPU      0.96s WALL (     110 calls)
     sum_band:ini :      2.06s CPU      2.07s WALL (     110 calls)
     sum_band:cal :    251.94s CPU    253.09s WALL (     110 calls)
     sum_band:bec :      2.24s CPU      2.25s WALL (     110 calls)
     addusdens    :     13.15s CPU     14.12s WALL (      11 calls)
                                        0.00s GPU  (      11 calls)
     addusd:skk   :      0.09s CPU      0.21s WALL (      11 calls)
                                        0.00s GPU  (      11 calls)

     Called by *egterg:
     cdiaghg      :    282.76s CPU    293.29s WALL (     657 calls)
     cegterg:over :    648.92s CPU    651.10s WALL (     557 calls)
     cegterg:upda :    287.06s CPU    288.86s WALL (     557 calls)
     cegterg:last :    949.97s CPU    955.35s WALL (     207 calls)
     cdiaghg:chol :     17.76s CPU     17.81s WALL (     657 calls)
     cdiaghg:inve :      2.85s CPU      2.86s WALL (     657 calls)
     cdiaghg:para :     73.49s CPU     74.79s WALL (    1314 calls)
     h_psi        :   1336.52s CPU   1342.89s WALL (     677 calls)
     s_psi        :    549.32s CPU    550.66s WALL (     677 calls)
     g_psi        :      0.56s CPU      0.56s WALL (     557 calls)

     Called by h_psi:
     h_psi:calbec :    599.19s CPU    601.89s WALL (     677 calls)
     vloc_psi     :    182.93s CPU    184.27s WALL (     677 calls)
     add_vuspsi   :    552.78s CPU    554.16s WALL (     677 calls)

     General routines
     calbec       :    851.12s CPU    854.98s WALL (     787 calls)
     fft          :      0.99s CPU      1.08s WALL (     141 calls)
     ffts         :      0.02s CPU      0.03s WALL (      22 calls)
     fftw         :    179.71s CPU    180.97s WALL (  362642 calls)
     interpolate  :      0.06s CPU      0.07s WALL (      11 calls)

     Parallel routines

     PWSCF        :      1h16m CPU      1h17m WALL


   This run was terminated on:   2:31:47  26Mar2025            

=------------------------------------------------------------------------------=
   JOB DONE.
=------------------------------------------------------------------------------=
Note: The following floating-point exceptions are signalling: IEEE_DENORMAL
Note: The following floating-point exceptions are signalling: IEEE_DENORMAL
Note: The following floating-point exceptions are signalling: IEEE_DENORMAL
Note: The following floating-point exceptions are signalling: IEEE_DENORMAL
Note: The following floating-point exceptions are signalling: IEEE_DENORMAL
Note: The following floating-point exceptions are signalling: IEEE_DENORMAL
Note: The following floating-point exceptions are signalling: IEEE_DENORMAL
Note: The following floating-point exceptions are signalling: IEEE_DENORMAL
Note: The following floating-point exceptions are signalling: IEEE_DENORMAL
Note: The following floating-point exceptions are signalling: IEEE_DENORMAL
Note: The following floating-point exceptions are signalling: IEEE_DENORMAL
Note: The following floating-point exceptions are signalling: IEEE_DENORMAL
