--------------------------------------------------------------------------
By default, for Open MPI 4.0 and later, infiniband ports on a device
are not used by default.  The intent is to use UCX for these devices.
You can override this policy by setting the btl_openib_allow_ib MCA parameter
to true.

  Local host:              psid03
  Local adapter:           mlx5_0
  Local port:              1

--------------------------------------------------------------------------
--------------------------------------------------------------------------
WARNING: There was an error initializing an OpenFabrics device.

  Local host:   psid03
  Local device: mlx5_0
--------------------------------------------------------------------------

     Program PWSCF v.7.3.1 starts on 26Mar2025 at 15: 9:18 

     This program is part of the open-source Quantum ESPRESSO suite
     for quantum simulation of materials; please cite
         "P. Giannozzi et al., J. Phys.:Condens. Matter 21 395502 (2009);
         "P. Giannozzi et al., J. Phys.:Condens. Matter 29 465901 (2017);
         "P. Giannozzi et al., J. Chem. Phys. 152 154105 (2020);
          URL http://www.quantum-espresso.org", 
     in publications or presentations arising from this work. More details at
     http://www.quantum-espresso.org/quote

     Parallel version (MPI), running on    33 processors

     MPI processes distributed on     1 nodes
     70772 MiB available memory on the printing compute node when the environment starts

     Waiting for input...
     Reading input from standard input

     Current dimensions of program PWSCF are:
     Max number of different atomic species (ntypx) = 10
     Max number of k-points (npk) =  40000
     Max angular momentum in pseudopotentials (lmaxx) =  4
     Found identity + ( -0.5000  0.0000  0.0000) symmetry
     This is a supercell, fractional translations are disabled

     R & G space division:  proc/nbgrp/npool/nimage =      33
     Subspace diagonalization in iterative solution of the eigenvalue problem:
     one sub-group per band group will be used
     custom distributed-memory algorithm (size of sub-group:  5*  5 procs)


     Parallelization info
     --------------------
     sticks:   dense  smooth     PW     G-vecs:    dense   smooth      PW
     Min         228     130     36                36393    15714    2270
     Max         230     131     37                36401    15723    2280
     Sum        7555    4303   1189              1201061   518755   75035

     Using Slab Decomposition



     bravais-lattice index     =            0
     lattice parameter (alat)  =      19.7617  a.u.
     unit-cell volume          =   15176.5939 (a.u.)^3
     number of atoms/cell      =           48
     number of atomic types    =            1
     number of electrons       =       960.00
     number of Kohn-Sham states=          576
     kinetic-energy cutoff     =      40.0000  Ry
     charge density cutoff     =     280.0000  Ry
     scf convergence threshold =      1.0E-06
     mixing beta               =       0.4000
     number of iterations used =            8  plain     mixing
     Exchange-correlation= SLA  PW   PBE  PBE
                           (   1   4   3   4   0   0   0)

     celldm(1)=  19.761696  celldm(2)=   0.000000  celldm(3)=   0.000000
     celldm(4)=   0.000000  celldm(5)=   0.000000  celldm(6)=   0.000000

     crystal axes: (cart. coord. in units of alat)
               a(1) = (   1.000000   0.000000   0.000000 )  
               a(2) = (  -0.500000   0.866025   0.000000 )  
               a(3) = (   0.000000   0.000000   2.270759 )  

     reciprocal axes: (cart. coord. in units 2 pi/alat)
               b(1) = (  1.000000  0.577350 -0.000000 )  
               b(2) = (  0.000000  1.154701  0.000000 )  
               b(3) = (  0.000000 -0.000000  0.440381 )  


     PseudoPot. # 1 for Zn read from file:
     /home/ys/qepseudo/SSSP_1.3.0_PBE_efficiency/Zn_pbe_v1.uspp.F.UPF
     MD5 check sum: df62231357ef9e81f77b2b3087fa5675
     Pseudo is Ultrasoft, Zval = 20.0
     Generated by new atomic code, or converted to UPF format
     Using radial grid of  943 points,  6 beta functions with: 
                l(1) =   0
                l(2) =   0
                l(3) =   1
                l(4) =   1
                l(5) =   2
                l(6) =   2
     Q(r) pseudized with  8 coefficients,  rinner =    1.100   1.100   1.100
                                                       1.100   1.100

     atomic species   valence    mass     pseudopotential
     Zn               20.00    65.38000     Zn( 1.00)

     No symmetry found


                                    s                        frac. trans.

      isym =  1     identity                                     

 cryst.   s( 1) = (     1          0          0      )
                  (     0          1          0      )
                  (     0          0          1      )

 cart.    s( 1) = (  1.0000000  0.0000000  0.0000000 )
                  (  0.0000000  1.0000000  0.0000000 )
                  (  0.0000000  0.0000000  1.0000000 )


   Cartesian axes

     site n.     atom                  positions (alat units)
         1        Zn     tau(   1) = (   0.0000000   0.1443375   0.1164998  )
         2        Zn     tau(   2) = (   0.5000000   0.1443375   0.1164998  )
         3        Zn     tau(   3) = (   0.0000000   0.1443375   0.5824993  )
         4        Zn     tau(   4) = (   0.5000000   0.1443375   0.5824993  )
         5        Zn     tau(   5) = (  -0.1250000   0.3608439   0.1164998  )
         6        Zn     tau(   6) = (   0.3750000   0.3608439   0.1164998  )
         7        Zn     tau(   7) = (  -0.1250000   0.3608439   0.5824993  )
         8        Zn     tau(   8) = (   0.3750000   0.3608439   0.5824993  )
         9        Zn     tau(   9) = (  -0.2500000   0.5773502   0.1164998  )
        10        Zn     tau(  10) = (   0.2500000   0.5773502   0.1164998  )
        11        Zn     tau(  11) = (  -0.2500000   0.5773502   0.5824993  )
        12        Zn     tau(  12) = (   0.2500000   0.5773502   0.5824993  )
        13        Zn     tau(  13) = (  -0.3750000   0.7938567   0.1164998  )
        14        Zn     tau(  14) = (   0.1250000   0.7938567   0.1164998  )
        15        Zn     tau(  15) = (  -0.3750000   0.7938567   0.5824993  )
        16        Zn     tau(  16) = (   0.1250000   0.7938567   0.5824993  )
        17        Zn     tau(  17) = (   0.2500000   0.1443375   0.1164998  )
        18        Zn     tau(  18) = (   0.7500000   0.1443375   0.1164998  )
        19        Zn     tau(  19) = (   0.2500000   0.1443375   0.5824993  )
        20        Zn     tau(  20) = (   0.7500000   0.1443375   0.5824993  )
        21        Zn     tau(  21) = (   0.1250000   0.3608439   0.1164998  )
        22        Zn     tau(  22) = (   0.6250000   0.3608439   0.1164998  )
        23        Zn     tau(  23) = (   0.1250000   0.3608439   0.5824993  )
        24        Zn     tau(  24) = (   0.6250000   0.3608439   0.5824993  )
        25        Zn     tau(  25) = (   0.0000000   0.5773502   0.1164998  )
        26        Zn     tau(  26) = (   0.5000000   0.5773502   0.1164998  )
        27        Zn     tau(  27) = (   0.0000000   0.5773502   0.5824993  )
        28        Zn     tau(  28) = (   0.5000000   0.5773502   0.5824993  )
        29        Zn     tau(  29) = (  -0.1250000   0.7938567   0.1164998  )
        30        Zn     tau(  30) = (   0.3750000   0.7938567   0.1164998  )
        31        Zn     tau(  31) = (  -0.1250000   0.7938567   0.5824993  )
        32        Zn     tau(  32) = (   0.3750000   0.7938567   0.5824993  )
        33        Zn     tau(  33) = (   0.1250000   0.0721688   0.3494996  )
        34        Zn     tau(  34) = (   0.6250000   0.0721688   0.3494996  )
        35        Zn     tau(  35) = (   0.0000000   0.2886752   0.3494996  )
        36        Zn     tau(  36) = (   0.5000000   0.2886752   0.3494996  )
        37        Zn     tau(  37) = (  -0.1250000   0.5051815   0.3494996  )
        38        Zn     tau(  38) = (   0.3750000   0.5051815   0.3494996  )
        39        Zn     tau(  39) = (  -0.2500000   0.7216879   0.3494996  )
        40        Zn     tau(  40) = (   0.2500000   0.7216879   0.3494996  )
        41        Zn     tau(  41) = (   0.3750000   0.0721688   0.3494996  )
        42        Zn     tau(  42) = (   0.8750000   0.0721688   0.3494996  )
        43        Zn     tau(  43) = (   0.2500000   0.2886752   0.3494996  )
        44        Zn     tau(  44) = (   0.7500000   0.2886752   0.3494996  )
        45        Zn     tau(  45) = (   0.1250000   0.5051815   0.3494996  )
        46        Zn     tau(  46) = (   0.6250000   0.5051815   0.3494996  )
        47        Zn     tau(  47) = (   0.0000000   0.7216879   0.3494996  )
        48        Zn     tau(  48) = (   0.5000000   0.7216879   0.3494996  )

   Crystallographic axes

     site n.     atom                  positions (cryst. coord.)
         1        Zn     tau(   1) = (  0.0833333  0.1666666  0.0513044  )
         2        Zn     tau(   2) = (  0.5833333  0.1666666  0.0513044  )
         3        Zn     tau(   3) = (  0.0833333  0.1666666  0.2565219  )
         4        Zn     tau(   4) = (  0.5833333  0.1666666  0.2565219  )
         5        Zn     tau(   5) = (  0.0833333  0.4166666  0.0513044  )
         6        Zn     tau(   6) = (  0.5833333  0.4166666  0.0513044  )
         7        Zn     tau(   7) = (  0.0833333  0.4166666  0.2565219  )
         8        Zn     tau(   8) = (  0.5833333  0.4166666  0.2565219  )
         9        Zn     tau(   9) = (  0.0833333  0.6666666  0.0513044  )
        10        Zn     tau(  10) = (  0.5833333  0.6666666  0.0513044  )
        11        Zn     tau(  11) = (  0.0833333  0.6666666  0.2565219  )
        12        Zn     tau(  12) = (  0.5833333  0.6666666  0.2565219  )
        13        Zn     tau(  13) = (  0.0833333  0.9166667  0.0513044  )
        14        Zn     tau(  14) = (  0.5833334  0.9166667  0.0513044  )
        15        Zn     tau(  15) = (  0.0833333  0.9166667  0.2565219  )
        16        Zn     tau(  16) = (  0.5833334  0.9166667  0.2565219  )
        17        Zn     tau(  17) = (  0.3333333  0.1666666  0.0513044  )
        18        Zn     tau(  18) = (  0.8333334  0.1666666  0.0513044  )
        19        Zn     tau(  19) = (  0.3333333  0.1666666  0.2565219  )
        20        Zn     tau(  20) = (  0.8333334  0.1666666  0.2565219  )
        21        Zn     tau(  21) = (  0.3333333  0.4166666  0.0513044  )
        22        Zn     tau(  22) = (  0.8333333  0.4166666  0.0513044  )
        23        Zn     tau(  23) = (  0.3333333  0.4166666  0.2565219  )
        24        Zn     tau(  24) = (  0.8333333  0.4166666  0.2565219  )
        25        Zn     tau(  25) = (  0.3333333  0.6666666  0.0513044  )
        26        Zn     tau(  26) = (  0.8333333  0.6666666  0.0513044  )
        27        Zn     tau(  27) = (  0.3333333  0.6666666  0.2565219  )
        28        Zn     tau(  28) = (  0.8333333  0.6666666  0.2565219  )
        29        Zn     tau(  29) = (  0.3333334  0.9166667  0.0513044  )
        30        Zn     tau(  30) = (  0.8333334  0.9166667  0.0513044  )
        31        Zn     tau(  31) = (  0.3333334  0.9166667  0.2565219  )
        32        Zn     tau(  32) = (  0.8333334  0.9166667  0.2565219  )
        33        Zn     tau(  33) = (  0.1666667  0.0833334  0.1539131  )
        34        Zn     tau(  34) = (  0.6666667  0.0833334  0.1539131  )
        35        Zn     tau(  35) = (  0.1666667  0.3333334  0.1539131  )
        36        Zn     tau(  36) = (  0.6666667  0.3333334  0.1539131  )
        37        Zn     tau(  37) = (  0.1666667  0.5833334  0.1539131  )
        38        Zn     tau(  38) = (  0.6666667  0.5833334  0.1539131  )
        39        Zn     tau(  39) = (  0.1666667  0.8333334  0.1539131  )
        40        Zn     tau(  40) = (  0.6666667  0.8333334  0.1539131  )
        41        Zn     tau(  41) = (  0.4166667  0.0833334  0.1539131  )
        42        Zn     tau(  42) = (  0.9166667  0.0833334  0.1539131  )
        43        Zn     tau(  43) = (  0.4166667  0.3333334  0.1539131  )
        44        Zn     tau(  44) = (  0.9166667  0.3333334  0.1539131  )
        45        Zn     tau(  45) = (  0.4166667  0.5833334  0.1539131  )
        46        Zn     tau(  46) = (  0.9166667  0.5833334  0.1539131  )
        47        Zn     tau(  47) = (  0.4166667  0.8333334  0.1539131  )
        48        Zn     tau(  48) = (  0.9166667  0.8333334  0.1539131  )

     number of k points=    10  Marzari-Vanderbilt smearing, width (Ry)=  0.0300
                       cart. coord. in units 2pi/alat
        k(    1) = (   0.0000000   0.0000000   0.0000000), wk =   0.1250000
        k(    2) = (   0.0000000   0.2886751   0.0000000), wk =   0.2500000
        k(    3) = (   0.0000000  -0.5773503   0.0000000), wk =   0.1250000
        k(    4) = (   0.2500000   0.1443376   0.0000000), wk =   0.2500000
        k(    5) = (   0.2500000   0.4330127   0.0000000), wk =   0.2500000
        k(    6) = (   0.2500000  -0.4330127   0.0000000), wk =   0.2500000
        k(    7) = (   0.2500000  -0.1443376   0.0000000), wk =   0.2500000
        k(    8) = (  -0.5000000  -0.2886751   0.0000000), wk =   0.1250000
        k(    9) = (  -0.5000000   0.0000000   0.0000000), wk =   0.2500000
        k(   10) = (  -0.5000000  -0.8660254   0.0000000), wk =   0.1250000

                       cryst. coord.
        k(    1) = (   0.0000000   0.0000000   0.0000000), wk =   0.1250000
        k(    2) = (   0.0000000   0.2500000   0.0000000), wk =   0.2500000
        k(    3) = (   0.0000000  -0.5000000   0.0000000), wk =   0.1250000
        k(    4) = (   0.2500000   0.0000000   0.0000000), wk =   0.2500000
        k(    5) = (   0.2500000   0.2500000   0.0000000), wk =   0.2500000
        k(    6) = (   0.2500000  -0.5000000   0.0000000), wk =   0.2500000
        k(    7) = (   0.2500000  -0.2500000   0.0000000), wk =   0.2500000
        k(    8) = (  -0.5000000   0.0000000   0.0000000), wk =   0.1250000
        k(    9) = (  -0.5000000   0.2500000   0.0000000), wk =   0.2500000
        k(   10) = (  -0.5000000  -0.5000000   0.0000000), wk =   0.1250000

     Dense  grid:  1201061 G-vectors     FFT dimensions: ( 108, 108, 240)

     Smooth grid:   518755 G-vectors     FFT dimensions: (  80,  80, 192)

     Dynamical RAM for                 wfc:      17.26 MB

     Dynamical RAM for     wfc (w. buffer):     189.88 MB

     Dynamical RAM for           str. fact:       0.56 MB

     Dynamical RAM for           local pot:       0.00 MB

     Dynamical RAM for          nlocal pot:      25.89 MB

     Dynamical RAM for                qrad:       1.34 MB

     Dynamical RAM for          rho,v,vnew:       3.80 MB

     Dynamical RAM for               rhoin:       1.27 MB

     Dynamical RAM for            rho*nmix:       8.89 MB

     Dynamical RAM for           G-vectors:       2.20 MB

     Dynamical RAM for          h,s,v(r/c):       2.42 MB

     Dynamical RAM for          <psi|beta>:       7.59 MB

     Dynamical RAM for                 psi:      34.52 MB

     Dynamical RAM for                hpsi:      34.52 MB

     Dynamical RAM for                spsi:      34.52 MB

     Dynamical RAM for      wfcinit/wfcrot:      46.32 MB

     Dynamical RAM for           addusdens:     129.95 MB

     Estimated static dynamical RAM per process >     229.61 MB

     Estimated max dynamical RAM per process >     368.45 MB

     Estimated total dynamical RAM >      11.87 GB

     Initial potential from superposition of free atoms

     starting charge     959.9932, renormalised to     960.0000

     negative rho (up, down):  4.194E-03 0.000E+00
     Starting wfcs are  624 randomized atomic wfcs
[psid03:146277] 32 more processes have sent help message help-mpi-btl-openib.txt / ib port not selected
[psid03:146277] Set MCA parameter "orte_base_help_aggregate" to 0 to see all help / error messages
[psid03:146277] 32 more processes have sent help message help-mpi-btl-openib.txt / error in device init

     total cpu time spent up to now is      114.5 secs

     Self-consistent Calculation

     iteration #  1     ecut=    40.00 Ry     beta= 0.40
     Davidson diagonalization with overlap

---- Real-time Memory Report at c_bands before calling an iterative solver
           299 MiB given to the printing process from OS
             0 MiB allocation reported by mallinfo(arena+hblkhd)
         62760 MiB available memory on the node where the printing process lives
------------------
     ethr =  1.00E-02,  avg # of iterations =  9.4

     Threshold (ethr) on eigenvalues was too large:
     Diagonalizing with lowered threshold

     Davidson diagonalization with overlap

---- Real-time Memory Report at c_bands before calling an iterative solver
           391 MiB given to the printing process from OS
             0 MiB allocation reported by mallinfo(arena+hblkhd)
         61620 MiB available memory on the node where the printing process lives
------------------
     ethr =  1.61E-04,  avg # of iterations = 11.2

     negative rho (up, down):  4.980E-03 0.000E+00

     total cpu time spent up to now is     1000.4 secs

     total energy              =  -22153.85512606 Ry
     estimated scf accuracy    <       1.57631885 Ry

     iteration #  2     ecut=    40.00 Ry     beta= 0.40
     Davidson diagonalization with overlap

---- Real-time Memory Report at c_bands before calling an iterative solver
           400 MiB given to the printing process from OS
             0 MiB allocation reported by mallinfo(arena+hblkhd)
         61524 MiB available memory on the node where the printing process lives
------------------
     ethr =  1.64E-04,  avg # of iterations =  2.6

     negative rho (up, down):  5.514E-03 0.000E+00

     total cpu time spent up to now is     1429.4 secs

     total energy              =  -22154.23344262 Ry
     estimated scf accuracy    <       0.27794219 Ry

     iteration #  3     ecut=    40.00 Ry     beta= 0.40
     Davidson diagonalization with overlap

---- Real-time Memory Report at c_bands before calling an iterative solver
           405 MiB given to the printing process from OS
             0 MiB allocation reported by mallinfo(arena+hblkhd)
         61499 MiB available memory on the node where the printing process lives
------------------
     c_bands:  2 eigenvalues not converged
     ethr =  2.90E-05,  avg # of iterations =  8.3

     negative rho (up, down):  5.880E-03 0.000E+00

     total cpu time spent up to now is     1819.7 secs

     total energy              =  -22154.25009419 Ry
     estimated scf accuracy    <       0.04814576 Ry

     iteration #  4     ecut=    40.00 Ry     beta= 0.40
     Davidson diagonalization with overlap

---- Real-time Memory Report at c_bands before calling an iterative solver
           406 MiB given to the printing process from OS
             0 MiB allocation reported by mallinfo(arena+hblkhd)
         61482 MiB available memory on the node where the printing process lives
------------------
     ethr =  5.02E-06,  avg # of iterations =  9.8

     negative rho (up, down):  5.966E-03 0.000E+00

     total cpu time spent up to now is     2226.6 secs

     total energy              =  -22154.25007332 Ry
     estimated scf accuracy    <       0.02984601 Ry

     iteration #  5     ecut=    40.00 Ry     beta= 0.40
     Davidson diagonalization with overlap

---- Real-time Memory Report at c_bands before calling an iterative solver
           406 MiB given to the printing process from OS
             0 MiB allocation reported by mallinfo(arena+hblkhd)
         61467 MiB available memory on the node where the printing process lives
------------------
     ethr =  3.11E-06,  avg # of iterations =  4.2

     negative rho (up, down):  6.013E-03 0.000E+00

     total cpu time spent up to now is     2616.3 secs

     total energy              =  -22154.25292968 Ry
     estimated scf accuracy    <       0.00239811 Ry

     iteration #  6     ecut=    40.00 Ry     beta= 0.40
     Davidson diagonalization with overlap

---- Real-time Memory Report at c_bands before calling an iterative solver
           407 MiB given to the printing process from OS
             0 MiB allocation reported by mallinfo(arena+hblkhd)
         61443 MiB available memory on the node where the printing process lives
------------------
     ethr =  2.50E-07,  avg # of iterations =  2.0

     negative rho (up, down):  6.043E-03 0.000E+00

     total cpu time spent up to now is     3035.6 secs

     total energy              =  -22154.25336329 Ry
     estimated scf accuracy    <       0.00008374 Ry

     iteration #  7     ecut=    40.00 Ry     beta= 0.40
     Davidson diagonalization with overlap

---- Real-time Memory Report at c_bands before calling an iterative solver
           407 MiB given to the printing process from OS
             0 MiB allocation reported by mallinfo(arena+hblkhd)
         61427 MiB available memory on the node where the printing process lives
------------------
     ethr =  8.72E-09,  avg # of iterations =  2.0

     negative rho (up, down):  6.066E-03 0.000E+00

     total cpu time spent up to now is     3470.8 secs

     total energy              =  -22154.25335631 Ry
     estimated scf accuracy    <       0.00065727 Ry

     iteration #  8     ecut=    40.00 Ry     beta= 0.40
     Davidson diagonalization with overlap

---- Real-time Memory Report at c_bands before calling an iterative solver
           408 MiB given to the printing process from OS
             0 MiB allocation reported by mallinfo(arena+hblkhd)
         61407 MiB available memory on the node where the printing process lives
------------------
     ethr =  8.72E-09,  avg # of iterations =  2.0

     negative rho (up, down):  6.082E-03 0.000E+00

     total cpu time spent up to now is     3832.0 secs

     total energy              =  -22154.25336281 Ry
     estimated scf accuracy    <       0.00006402 Ry

     iteration #  9     ecut=    40.00 Ry     beta= 0.40
     Davidson diagonalization with overlap

---- Real-time Memory Report at c_bands before calling an iterative solver
           408 MiB given to the printing process from OS
             0 MiB allocation reported by mallinfo(arena+hblkhd)
         61388 MiB available memory on the node where the printing process lives
------------------
     ethr =  6.67E-09,  avg # of iterations =  2.6

     negative rho (up, down):  6.093E-03 0.000E+00

     total cpu time spent up to now is     4286.6 secs

     total energy              =  -22154.25338016 Ry
     estimated scf accuracy    <       0.00001935 Ry

     iteration # 10     ecut=    40.00 Ry     beta= 0.40
     Davidson diagonalization with overlap

---- Real-time Memory Report at c_bands before calling an iterative solver
           409 MiB given to the printing process from OS
             0 MiB allocation reported by mallinfo(arena+hblkhd)
         61370 MiB available memory on the node where the printing process lives
------------------
     ethr =  2.02E-09,  avg # of iterations =  2.0

     negative rho (up, down):  6.100E-03 0.000E+00

     total cpu time spent up to now is     4724.4 secs

     total energy              =  -22154.25338557 Ry
     estimated scf accuracy    <       0.00000121 Ry

     iteration # 11     ecut=    40.00 Ry     beta= 0.40
     Davidson diagonalization with overlap

---- Real-time Memory Report at c_bands before calling an iterative solver
           409 MiB given to the printing process from OS
             0 MiB allocation reported by mallinfo(arena+hblkhd)
         61369 MiB available memory on the node where the printing process lives
------------------
     ethr =  1.26E-10,  avg # of iterations =  1.0

     negative rho (up, down):  6.111E-03 0.000E+00

     total cpu time spent up to now is     5021.4 secs

     End of self-consistent calculation

          k = 0.0000 0.0000 0.0000 ( 64855 PWs)   bands (ev):

  -125.0689-125.0672-125.0672-125.0671-125.0671-125.0671-125.0671-125.0655
  -125.0654-125.0654-125.0654-125.0654-125.0654-125.0654-125.0653-125.0653
  -124.8513-124.8512-124.8496-124.8495-124.8495-124.8495-124.8495-124.8495
  -124.8495-124.8495-124.8494-124.8494-124.8494-124.8494-124.8478-124.8478
  -124.8478-124.8478-124.8478-124.8478-124.8478-124.8477-124.8477-124.8477
  -124.8477-124.8477-124.8477-124.8477-124.8477-124.8477-124.8476-124.8476
   -79.2350 -79.2350 -79.2350 -79.2283 -79.2283 -79.2283 -79.2283 -79.2283
   -79.2283 -79.2177 -79.2170 -79.2170 -79.2170 -79.2170 -79.2170 -79.2170
   -79.2158 -79.2158 -79.2158 -79.2157 -79.2157 -79.2157 -79.2150 -79.2150
   -79.2149 -79.2149 -79.2149 -79.2149 -79.2138 -79.2138 -79.2138 -79.2138
   -79.2138 -79.2137 -79.2137 -79.2137 -79.2137 -79.2083 -79.2083 -79.2083
   -79.2036 -79.2036 -79.2036 -79.2036 -79.2036 -79.2036 -79.1989 -79.1989
   -79.0136 -79.0136 -79.0136 -79.0135 -79.0135 -79.0135 -79.0093 -79.0090
   -79.0074 -79.0073 -79.0073 -79.0073 -79.0073 -79.0073 -79.0072 -79.0072
   -79.0072 -79.0072 -79.0072 -79.0072 -79.0070 -79.0070 -79.0070 -79.0070
   -79.0070 -79.0070 -79.0069 -79.0069 -79.0069 -79.0069 -79.0069 -79.0069
   -79.0055 -79.0054 -79.0054 -79.0054 -79.0054 -79.0054 -79.0054 -79.0054
   -79.0054 -79.0054 -79.0053 -79.0053 -79.0053 -79.0053 -79.0053 -79.0053
   -79.0053 -79.0053 -78.9957 -78.9957 -78.9956 -78.9956 -78.9956 -78.9956
   -78.9956 -78.9956 -78.9956 -78.9956 -78.9956 -78.9956 -78.9936 -78.9936
   -78.9936 -78.9936 -78.9936 -78.9936 -78.9936 -78.9936 -78.9936 -78.9936
   -78.9935 -78.9935 -78.9870 -78.9870 -78.9870 -78.9870 -78.9870 -78.9870
   -78.9823 -78.9823 -78.9823 -78.9823 -78.9823 -78.9823 -78.9823 -78.9823
   -78.9823 -78.9822 -78.9822 -78.9822 -78.9776 -78.9776 -78.9776 -78.9776
    -8.6183  -7.3882  -7.0858  -7.0649  -7.0648  -7.0648  -7.0648  -7.0648
    -7.0648  -6.9142  -6.9142  -6.9142  -6.7181  -6.7181  -6.7181  -6.6657
    -6.6657  -6.6657  -6.5835  -6.5835  -6.5835  -6.5835  -6.5835  -6.5835
    -6.5303  -6.5303  -6.5303  -6.5303  -6.5303  -6.5303  -6.5291  -6.5291
    -6.5291  -6.4774  -6.4774  -6.4773  -6.4773  -6.4773  -6.4773  -6.4313
    -6.4313  -6.4313  -6.4313  -6.4313  -6.4313  -6.3276  -6.3276  -6.3276
    -6.3276  -6.3276  -6.3276  -6.3252  -6.3252  -6.3252  -6.2686  -6.2686
    -6.2686  -6.2685  -6.2685  -6.2685  -6.2650  -6.2039  -6.2039  -6.2039
    -6.2039  -6.2039  -6.2039  -6.1639  -6.1639  -6.1639  -6.1639  -6.1639
    -6.1639  -6.1362  -6.1362  -6.1362  -6.1362  -6.1362  -6.1362  -6.1226
    -6.1226  -6.1145  -6.1145  -6.1145  -6.1145  -6.1145  -6.1145  -6.0937
    -6.0937  -6.0937  -6.0937  -6.0937  -6.0937  -6.0876  -6.0876  -6.0876
    -5.9887  -5.9887  -5.9887  -5.9887  -5.9887  -5.9887  -5.9039  -5.9039
    -5.8843  -5.8843  -5.8552  -5.8552  -5.8552  -5.8552  -5.8552  -5.8552
    -5.8538  -5.8538  -5.8538  -5.8538  -5.8537  -5.8537  -5.8307  -5.8307
    -5.8307  -5.7715  -5.7715  -5.7715  -5.7715  -5.7715  -5.7715  -5.7664
    -5.7664  -5.7663  -5.7663  -5.7663  -5.7663  -5.7646  -5.7646  -5.7646
    -5.7646  -5.7646  -5.7646  -5.7439  -5.7439  -5.7439  -5.7439  -5.7439
    -5.7439  -5.7437  -5.7437  -5.7437  -5.7437  -5.7437  -5.7437  -5.7282
    -5.7282  -5.7282  -5.7281  -5.7281  -5.7281  -5.7072  -5.6991  -5.6990
    -5.6990  -5.6990  -5.6990  -5.6990  -5.6910  -5.6910  -5.6910  -5.6098
    -5.6098  -5.5670  -5.5670  -5.5670  -5.5670  -5.5670  -5.5670  -5.5608
    -5.5608  -5.5608  -5.5608  -5.5608  -5.5608  -5.5357  -5.5357  -5.5357
    -5.5357  -5.5357  -5.5356  -5.5178  -5.5178  -5.5178  -5.4891  -5.4891
    -5.4891  -5.4891  -5.4891  -5.4891  -5.4808  -5.4807  -5.4807  -5.4807
    -5.4807  -5.4807  -5.4347  -5.4347  -5.4347  -5.4347  -5.4347  -5.4347
    -5.4270  -5.4270  -5.4270  -5.4246  -5.4246  -5.4246  -5.3873  -5.3873
    -5.3873  -5.3819  -5.3819  -5.3819  -5.3819  -5.3819  -5.3819  -5.3719
    -5.3719  -5.3519  -5.3519  -5.3092  -5.3092  -5.3092  -5.3092  -5.3092
    -5.3092  -5.2830  -5.2830  -5.2830  -5.2830  -5.2830  -5.2830  -5.2817
    -5.2817  -5.2817  -5.0580  -5.0580  -5.0580  -5.0579  -5.0579  -5.0579
    -4.3895  -4.3895  -4.3895  -4.3895  -4.3894  -4.3894  -3.4426  -2.0987
    -2.0987  -2.0987  -2.0987  -2.0987  -2.0987  -2.0123  -2.0123  -2.0123
    -2.0123  -2.0123  -2.0123  -0.8385  -0.8385  -0.8385  -0.7058  -0.6300
    -0.6300  -0.6300  -0.6300  -0.6300  -0.6300  -0.0786  -0.0786  -0.0786
     0.2557   0.2557   0.2557   1.5445   1.5445   1.5445   1.5445   1.5445
     1.5445   1.5868   1.5868   1.5868   1.5868   1.5868   1.5868   2.3184
     2.3184   2.3184   3.1130   3.3086   3.3086   3.3086   4.1496   4.1496
     4.1496   4.8888   4.8888   4.8888   4.8888   4.8888   4.8888   5.0745
     5.2625   5.4331   5.4331   5.4331   5.4331   5.4331   5.4331   5.4388
     5.4388   5.4389   5.4389   5.4389   5.4389   5.6095   5.6095   5.6095
     5.6095   5.6096   5.6096   6.1983   6.3967   6.5686   6.5686   6.5686
     6.8733   6.8733   6.8733   6.8733   6.8733   6.8733   7.0201   7.0201
     7.0201   7.0201   7.0201   7.0201   7.0985   7.0985   7.0985   7.0985
     7.0985   7.0985   7.1991   7.1991   7.1991   7.1991   7.1991   7.1991
     8.0373   8.0374   8.0374   8.0374   8.0374   8.0374   8.1517   8.1517
     8.1517   8.1517   8.1517   8.1517   8.1842   8.1842   8.1842   8.1842
     8.1842   8.1842   8.2054   8.3659   8.3811   8.3811   8.3811   9.2871

     occupation numbers 
     1.0000   1.0000   1.0000   1.0000   1.0000   1.0000   1.0000   1.0000
     1.0000   1.0000   1.0000   1.0000   1.0000   1.0000   1.0000   1.0000
     1.0000   1.0000   1.0000   1.0000   1.0000   1.0000   1.0000   1.0000
     1.0000   1.0000   1.0000   1.0000   1.0000   1.0000   1.0000   1.0000
     1.0000   1.0000   1.0000   1.0000   1.0000   1.0000   1.0000   1.0000
     1.0000   1.0000   1.0000   1.0000   1.0000   1.0000   1.0000   1.0000
     1.0000   1.0000   1.0000   1.0000   1.0000   1.0000   1.0000   1.0000
     1.0000   1.0000   1.0000   1.0000   1.0000   1.0000   1.0000   1.0000
     1.0000   1.0000   1.0000   1.0000   1.0000   1.0000   1.0000   1.0000
     1.0000   1.0000   1.0000   1.0000   1.0000   1.0000   1.0000   1.0000
     1.0000   1.0000   1.0000   1.0000   1.0000   1.0000   1.0000   1.0000
     1.0000   1.0000   1.0000   1.0000   1.0000   1.0000   1.0000   1.0000
     1.0000   1.0000   1.0000   1.0000   1.0000   1.0000   1.0000   1.0000
     1.0000   1.0000   1.0000   1.0000   1.0000   1.0000   1.0000   1.0000
     1.0000   1.0000   1.0000   1.0000   1.0000   1.0000   1.0000   1.0000
     1.0000   1.0000   1.0000   1.0000   1.0000   1.0000   1.0000   1.0000
     1.0000   1.0000   1.0000   1.0000   1.0000   1.0000   1.0000   1.0000
     1.0000   1.0000   1.0000   1.0000   1.0000   1.0000   1.0000   1.0000
     1.0000   1.0000   1.0000   1.0000   1.0000   1.0000   1.0000   1.0000
     1.0000   1.0000   1.0000   1.0000   1.0000   1.0000   1.0000   1.0000
     1.0000   1.0000   1.0000   1.0000   1.0000   1.0000   1.0000   1.0000
     1.0000   1.0000   1.0000   1.0000   1.0000   1.0000   1.0000   1.0000
     1.0000   1.0000   1.0000   1.0000   1.0000   1.0000   1.0000   1.0000
     1.0000   1.0000   1.0000   1.0000   1.0000   1.0000   1.0000   1.0000
     1.0000   1.0000   1.0000   1.0000   1.0000   1.0000   1.0000   1.0000
     1.0000   1.0000   1.0000   1.0000   1.0000   1.0000   1.0000   1.0000
     1.0000   1.0000   1.0000   1.0000   1.0000   1.0000   1.0000   1.0000
     1.0000   1.0000   1.0000   1.0000   1.0000   1.0000   1.0000   1.0000
     1.0000   1.0000   1.0000   1.0000   1.0000   1.0000   1.0000   1.0000
     1.0000   1.0000   1.0000   1.0000   1.0000   1.0000   1.0000   1.0000
     1.0000   1.0000   1.0000   1.0000   1.0000   1.0000   1.0000   1.0000
     1.0000   1.0000   1.0000   1.0000   1.0000   1.0000   1.0000   1.0000
     1.0000   1.0000   1.0000   1.0000   1.0000   1.0000   1.0000   1.0000
     1.0000   1.0000   1.0000   1.0000   1.0000   1.0000   1.0000   1.0000
     1.0000   1.0000   1.0000   1.0000   1.0000   1.0000   1.0000   1.0000
     1.0000   1.0000   1.0000   1.0000   1.0000   1.0000   1.0000   1.0000
     1.0000   1.0000   1.0000   1.0000   1.0000   1.0000   1.0000   1.0000
     1.0000   1.0000   1.0000   1.0000   1.0000   1.0000   1.0000   1.0000
     1.0000   1.0000   1.0000   1.0000   1.0000   1.0000   1.0000   1.0000
     1.0000   1.0000   1.0000   1.0000   1.0000   1.0000   1.0000   1.0000
     1.0000   1.0000   1.0000   1.0000   1.0000   1.0000   1.0000   1.0000
     1.0000   1.0000   1.0000   1.0000   1.0000   1.0000   1.0000   1.0000
     1.0000   1.0000   1.0000   1.0000   1.0000   1.0000   1.0000   1.0000
     1.0000   1.0000   1.0000   1.0000   1.0000   1.0000   1.0000   1.0000
     1.0000   1.0000   1.0000   1.0000   1.0000   1.0000   1.0000   1.0000
     1.0000   1.0000   1.0000   1.0000   1.0000   1.0000   1.0000   1.0000
     1.0000   1.0000   1.0000   1.0000   1.0000   1.0000   1.0000   1.0000
     1.0000   1.0000   1.0000   1.0000   1.0000   1.0000   1.0000   1.0000
     1.0000   1.0000   1.0000   1.0000   1.0000   1.0000   1.0000   1.0000
     1.0000   1.0000   1.0000   1.0000   1.0000   1.0000   1.0000   1.0000
     1.0000   1.0000   1.0000   1.0000   1.0000   1.0000   1.0000   1.0000
     1.0000   1.0000   1.0000   1.0000   1.0000   1.0000   1.0000   1.0000
     1.0000   1.0000   1.0000   1.0000   1.0000   1.0000   1.0000   1.0000
     1.0000   1.0000   1.0000   1.0000   1.0000   1.0000   1.0000   1.0000
     1.0000   1.0000   1.0000   1.0000   1.0000   1.0000   1.0000   1.0000
     1.0000   1.0000   1.0000   1.0000   1.0000   1.0000   1.0000   1.0000
     1.0000   1.0000   1.0000   1.0000   1.0000   1.0000   1.0000   1.0000
     1.0000   1.0000   1.0000   1.0000   1.0000   1.0000   1.0000   1.0000
     1.0000   1.0000   1.0000   1.0000   1.0000   1.0000   1.0000   1.0000
     1.0022   1.0022   1.0022   0.2493   0.2493   0.2493   0.2493   0.2493
     0.2493   0.1978   0.1978   0.1978   0.1978   0.1978   0.1978   0.0001
     0.0001   0.0001   0.0000   0.0000   0.0000   0.0000   0.0000   0.0000
     0.0000   0.0000   0.0000   0.0000   0.0000   0.0000   0.0000   0.0000
     0.0000   0.0000   0.0000   0.0000   0.0000   0.0000   0.0000   0.0000
     0.0000   0.0000   0.0000   0.0000   0.0000   0.0000   0.0000   0.0000
     0.0000   0.0000   0.0000   0.0000   0.0000   0.0000   0.0000   0.0000
     0.0000   0.0000   0.0000   0.0000   0.0000   0.0000   0.0000   0.0000
     0.0000   0.0000   0.0000   0.0000   0.0000   0.0000   0.0000   0.0000
     0.0000   0.0000   0.0000   0.0000   0.0000   0.0000   0.0000   0.0000
     0.0000   0.0000   0.0000   0.0000   0.0000   0.0000   0.0000   0.0000
     0.0000   0.0000   0.0000   0.0000   0.0000   0.0000   0.0000   0.0000
     0.0000   0.0000   0.0000   0.0000   0.0000   0.0000   0.0000   0.0000

          k = 0.0000 0.2887 0.0000 ( 64808 PWs)   bands (ev):

  -125.0687-125.0678-125.0674-125.0674-125.0667-125.0667-125.0665-125.0658
  -125.0658-125.0655-125.0654-125.0654-125.0654-125.0653-125.0651-125.0651
  -124.8511-124.8510-124.8502-124.8501-124.8498-124.8498-124.8497-124.8497
  -124.8491-124.8491-124.8490-124.8490-124.8489-124.8488-124.8482-124.8482
  -124.8481-124.8481-124.8479-124.8478-124.8478-124.8478-124.8478-124.8478
  -124.8477-124.8477-124.8477-124.8477-124.8475-124.8475-124.8474-124.8474
   -79.2342 -79.2342 -79.2336 -79.2296 -79.2296 -79.2287 -79.2287 -79.2268
   -79.2268 -79.2239 -79.2207 -79.2207 -79.2180 -79.2180 -79.2176 -79.2165
   -79.2160 -79.2160 -79.2153 -79.2153 -79.2150 -79.2142 -79.2142 -79.2139
   -79.2139 -79.2139 -79.2138 -79.2138 -79.2137 -79.2137 -79.2136 -79.2136
   -79.2135 -79.2134 -79.2113 -79.2113 -79.2101 -79.2091 -79.2091 -79.2080
   -79.2054 -79.2051 -79.2051 -79.2032 -79.2032 -79.2018 -79.2003 -79.1993
   -79.0129 -79.0129 -79.0128 -79.0128 -79.0122 -79.0122 -79.0091 -79.0089
   -79.0083 -79.0083 -79.0082 -79.0082 -79.0081 -79.0079 -79.0076 -79.0076
   -79.0075 -79.0075 -79.0074 -79.0074 -79.0073 -79.0073 -79.0069 -79.0069
   -79.0068 -79.0068 -79.0066 -79.0065 -79.0059 -79.0059 -79.0058 -79.0057
   -79.0056 -79.0055 -79.0055 -79.0055 -79.0055 -79.0054 -79.0054 -79.0054
   -79.0054 -79.0054 -79.0053 -79.0053 -79.0053 -79.0053 -79.0051 -79.0051
   -79.0050 -79.0050 -79.0025 -79.0025 -78.9993 -78.9993 -78.9993 -78.9993
   -78.9967 -78.9967 -78.9966 -78.9966 -78.9926 -78.9926 -78.9925 -78.9925
   -78.9923 -78.9923 -78.9922 -78.9922 -78.9900 -78.9900 -78.9899 -78.9899
   -78.9887 -78.9887 -78.9878 -78.9878 -78.9877 -78.9877 -78.9867 -78.9866
   -78.9841 -78.9841 -78.9838 -78.9838 -78.9838 -78.9838 -78.9819 -78.9819
   -78.9818 -78.9818 -78.9805 -78.9804 -78.9790 -78.9789 -78.9780 -78.9779
    -8.4995  -7.6161  -7.2883  -7.2442  -7.2442  -7.0234  -6.8980  -6.8718
    -6.8718  -6.8477  -6.8432  -6.8432  -6.6993  -6.6852  -6.6852  -6.6794
    -6.6703  -6.6506  -6.6261  -6.6261  -6.5807  -6.5728  -6.5728  -6.5725
    -6.5670  -6.5670  -6.5415  -6.5415  -6.5185  -6.5185  -6.5165  -6.5165
    -6.5096  -6.5049  -6.5049  -6.5014  -6.5014  -6.5011  -6.5011  -6.4847
    -6.4847  -6.4590  -6.4590  -6.4222  -6.4222  -6.3861  -6.3861  -6.3729
    -6.3729  -6.3694  -6.3140  -6.3090  -6.3090  -6.3082  -6.3082  -6.3081
    -6.3081  -6.2566  -6.2566  -6.2540  -6.2444  -6.2288  -6.2288  -6.2195
    -6.2170  -6.2170  -6.2154  -6.2154  -6.1964  -6.1964  -6.1959  -6.1959
    -6.1858  -6.1858  -6.1801  -6.1801  -6.1744  -6.1699  -6.1699  -6.1505
    -6.1382  -6.1153  -6.1153  -6.1023  -6.1023  -6.0947  -6.0947  -6.0934
    -6.0810  -6.0810  -6.0682  -6.0570  -6.0570  -6.0453  -6.0453  -6.0453
    -6.0453  -5.9533  -5.9533  -5.9465  -5.9465  -5.9313  -5.9295  -5.9267
    -5.9249  -5.9232  -5.9232  -5.9208  -5.9208  -5.9015  -5.9015  -5.8995
    -5.8837  -5.8837  -5.8817  -5.8793  -5.8769  -5.8677  -5.8677  -5.8552
    -5.8443  -5.8443  -5.8301  -5.8301  -5.8237  -5.8050  -5.7891  -5.7891
    -5.7843  -5.7843  -5.7779  -5.7779  -5.7747  -5.7705  -5.7705  -5.7636
    -5.7636  -5.7549  -5.7548  -5.7387  -5.7387  -5.7354  -5.7228  -5.7228
    -5.7080  -5.7066  -5.7066  -5.6925  -5.6925  -5.6891  -5.6891  -5.6856
    -5.6856  -5.6837  -5.6837  -5.6687  -5.6593  -5.6593  -5.6436  -5.6364
    -5.6342  -5.6342  -5.6212  -5.6212  -5.6159  -5.6080  -5.6080  -5.6051
    -5.6051  -5.6030  -5.6007  -5.5970  -5.5970  -5.5779  -5.5531  -5.5507
    -5.5507  -5.5478  -5.5478  -5.5392  -5.5392  -5.5363  -5.5363  -5.5347
    -5.5342  -5.5342  -5.5147  -5.5147  -5.5144  -5.5124  -5.5124  -5.5018
    -5.5018  -5.4792  -5.4792  -5.4556  -5.4518  -5.4518  -5.4511  -5.4445
    -5.4445  -5.4428  -5.4428  -5.4287  -5.4287  -5.4217  -5.4153  -5.4153
    -5.4121  -5.4095  -5.4044  -5.4029  -5.3925  -5.3925  -5.3900  -5.3900
    -5.3769  -5.3756  -5.3756  -5.3709  -5.3582  -5.3582  -5.3541  -5.3507
    -5.3382  -5.3382  -5.3278  -5.3194  -5.3191  -5.3191  -5.3142  -5.3004
    -5.3004  -5.2907  -5.2907  -5.2859  -5.2859  -5.2747  -5.2747  -5.1349
    -5.1349  -5.1160  -5.1160  -5.1108  -5.1108  -5.0922  -5.0915  -4.9405
    -4.9274  -4.6307  -4.6307  -3.8721  -3.8721  -3.4707  -3.3885  -3.3885
    -3.3576  -2.6659  -2.2940  -2.2940  -2.2171  -2.0163  -2.0163  -1.9613
    -1.9613  -1.5069  -1.5069  -1.2875  -1.2875  -1.1089  -0.7846  -0.5683
    -0.5683  -0.5507  -0.5507  -0.5457   0.0343   0.0343   0.2771   0.2771
     0.5658   0.5658   0.6396   0.8837   0.9085   0.9085   1.1897   1.1897
     1.5646   1.5646   2.2324   2.2324   2.6529   2.7034   2.7034   2.7270
     2.7921   2.7921   2.9572   2.9572   3.2249   3.5561   3.6965   3.6965
     3.9132   3.9132   4.1174   4.1910   4.1910   4.5616   4.5616   4.8099
     4.8099   4.8530   4.8530   5.1561   5.1561   5.1687   5.1687   5.1874
     5.3775   5.4315   5.4315   5.5747   5.6510   5.8011   5.8011   5.8122
     6.0894   6.0984   6.0984   6.2964   6.3144   6.3193   6.3193   6.5091
     6.5392   6.5392   6.6032   6.6032   6.7145   6.7553   6.7553   7.0184
     7.0184   7.0942   7.0942   7.1776   7.1776   7.2392   7.3154   7.3154
     7.4073   7.4241   7.4241   7.4533   7.4533   7.6649   7.6649   7.6666
     7.6666   7.6987   7.6987   7.7463   7.8545   7.8545   7.9504   7.9504
     8.0271   8.0271   8.1307   8.3160   8.3210   8.4777   8.6356   8.6365
     8.7014   8.7070   8.8161   8.8161   8.8313   8.8313   8.8415   8.8418

     occupation numbers 
     1.0000   1.0000   1.0000   1.0000   1.0000   1.0000   1.0000   1.0000
     1.0000   1.0000   1.0000   1.0000   1.0000   1.0000   1.0000   1.0000
     1.0000   1.0000   1.0000   1.0000   1.0000   1.0000   1.0000   1.0000
     1.0000   1.0000   1.0000   1.0000   1.0000   1.0000   1.0000   1.0000
     1.0000   1.0000   1.0000   1.0000   1.0000   1.0000   1.0000   1.0000
     1.0000   1.0000   1.0000   1.0000   1.0000   1.0000   1.0000   1.0000
     1.0000   1.0000   1.0000   1.0000   1.0000   1.0000   1.0000   1.0000
     1.0000   1.0000   1.0000   1.0000   1.0000   1.0000   1.0000   1.0000
     1.0000   1.0000   1.0000   1.0000   1.0000   1.0000   1.0000   1.0000
     1.0000   1.0000   1.0000   1.0000   1.0000   1.0000   1.0000   1.0000
     1.0000   1.0000   1.0000   1.0000   1.0000   1.0000   1.0000   1.0000
     1.0000   1.0000   1.0000   1.0000   1.0000   1.0000   1.0000   1.0000
     1.0000   1.0000   1.0000   1.0000   1.0000   1.0000   1.0000   1.0000
     1.0000   1.0000   1.0000   1.0000   1.0000   1.0000   1.0000   1.0000
     1.0000   1.0000   1.0000   1.0000   1.0000   1.0000   1.0000   1.0000
     1.0000   1.0000   1.0000   1.0000   1.0000   1.0000   1.0000   1.0000
     1.0000   1.0000   1.0000   1.0000   1.0000   1.0000   1.0000   1.0000
     1.0000   1.0000   1.0000   1.0000   1.0000   1.0000   1.0000   1.0000
     1.0000   1.0000   1.0000   1.0000   1.0000   1.0000   1.0000   1.0000
     1.0000   1.0000   1.0000   1.0000   1.0000   1.0000   1.0000   1.0000
     1.0000   1.0000   1.0000   1.0000   1.0000   1.0000   1.0000   1.0000
     1.0000   1.0000   1.0000   1.0000   1.0000   1.0000   1.0000   1.0000
     1.0000   1.0000   1.0000   1.0000   1.0000   1.0000   1.0000   1.0000
     1.0000   1.0000   1.0000   1.0000   1.0000   1.0000   1.0000   1.0000
     1.0000   1.0000   1.0000   1.0000   1.0000   1.0000   1.0000   1.0000
     1.0000   1.0000   1.0000   1.0000   1.0000   1.0000   1.0000   1.0000
     1.0000   1.0000   1.0000   1.0000   1.0000   1.0000   1.0000   1.0000
     1.0000   1.0000   1.0000   1.0000   1.0000   1.0000   1.0000   1.0000
     1.0000   1.0000   1.0000   1.0000   1.0000   1.0000   1.0000   1.0000
     1.0000   1.0000   1.0000   1.0000   1.0000   1.0000   1.0000   1.0000
     1.0000   1.0000   1.0000   1.0000   1.0000   1.0000   1.0000   1.0000
     1.0000   1.0000   1.0000   1.0000   1.0000   1.0000   1.0000   1.0000
     1.0000   1.0000   1.0000   1.0000   1.0000   1.0000   1.0000   1.0000
     1.0000   1.0000   1.0000   1.0000   1.0000   1.0000   1.0000   1.0000
     1.0000   1.0000   1.0000   1.0000   1.0000   1.0000   1.0000   1.0000
     1.0000   1.0000   1.0000   1.0000   1.0000   1.0000   1.0000   1.0000
     1.0000   1.0000   1.0000   1.0000   1.0000   1.0000   1.0000   1.0000
     1.0000   1.0000   1.0000   1.0000   1.0000   1.0000   1.0000   1.0000
     1.0000   1.0000   1.0000   1.0000   1.0000   1.0000   1.0000   1.0000
     1.0000   1.0000   1.0000   1.0000   1.0000   1.0000   1.0000   1.0000
     1.0000   1.0000   1.0000   1.0000   1.0000   1.0000   1.0000   1.0000
     1.0000   1.0000   1.0000   1.0000   1.0000   1.0000   1.0000   1.0000
     1.0000   1.0000   1.0000   1.0000   1.0000   1.0000   1.0000   1.0000
     1.0000   1.0000   1.0000   1.0000   1.0000   1.0000   1.0000   1.0000
     1.0000   1.0000   1.0000   1.0000   1.0000   1.0000   1.0000   1.0000
     1.0000   1.0000   1.0000   1.0000   1.0000   1.0000   1.0000   1.0000
     1.0000   1.0000   1.0000   1.0000   1.0000   1.0000   1.0000   1.0000
     1.0000   1.0000   1.0000   1.0000   1.0000   1.0000   1.0000   1.0000
     1.0000   1.0000   1.0000   1.0000   1.0000   1.0000   1.0000   1.0000
     1.0000   1.0000   1.0000   1.0000   1.0000   1.0000   1.0000   1.0000
     1.0000   1.0000   1.0000   1.0000   1.0000   1.0000   1.0000   1.0000
     1.0000   1.0000   1.0000   1.0000   1.0000   1.0000   1.0000   1.0000
     1.0000   1.0000   1.0000   1.0000   1.0000   1.0000   1.0000   1.0000
     1.0000   1.0000   1.0000   1.0000   1.0000   1.0000   1.0000   1.0000
     1.0000   1.0000   1.0000   1.0000   1.0000   1.0000   1.0000   1.0000
     1.0000   1.0000   1.0000   1.0000   1.0000   1.0000   1.0000   1.0000
     1.0000   1.0000   1.0000   1.0000   1.0000   1.0000   1.0000   1.0000
     1.0000   1.0000   1.0000   1.0000   1.0000   1.0000   1.0000   1.0000
     1.0000   1.0000   1.0000   1.0000   1.0002   1.0002   1.0027   1.0027
     1.0290   1.0290   1.0439   1.0829   1.0805   1.0805   0.8485   0.8485
     0.2239   0.2239   0.0005   0.0005   0.0000   0.0000   0.0000   0.0000
     0.0000   0.0000   0.0000   0.0000   0.0000   0.0000   0.0000   0.0000
     0.0000   0.0000   0.0000   0.0000   0.0000   0.0000   0.0000   0.0000
     0.0000   0.0000   0.0000   0.0000   0.0000   0.0000   0.0000   0.0000
     0.0000   0.0000   0.0000   0.0000   0.0000   0.0000   0.0000   0.0000
     0.0000   0.0000   0.0000   0.0000   0.0000   0.0000   0.0000   0.0000
     0.0000   0.0000   0.0000   0.0000   0.0000   0.0000   0.0000   0.0000
     0.0000   0.0000   0.0000   0.0000   0.0000   0.0000   0.0000   0.0000
     0.0000   0.0000   0.0000   0.0000   0.0000   0.0000   0.0000   0.0000
     0.0000   0.0000   0.0000   0.0000   0.0000   0.0000   0.0000   0.0000
     0.0000   0.0000   0.0000   0.0000   0.0000   0.0000   0.0000   0.0000
     0.0000   0.0000   0.0000   0.0000   0.0000   0.0000   0.0000   0.0000

          k = 0.0000-0.5774 0.0000 ( 64842 PWs)   bands (ev):

  -125.0684-125.0683-125.0675-125.0675-125.0663-125.0663-125.0663-125.0663
  -125.0659-125.0659-125.0654-125.0654-125.0654-125.0653-125.0650-125.0650
  -124.8508-124.8507-124.8507-124.8506-124.8499-124.8499-124.8498-124.8498
  -124.8487-124.8487-124.8487-124.8487-124.8486-124.8486-124.8486-124.8486
  -124.8483-124.8483-124.8482-124.8482-124.8478-124.8478-124.8478-124.8478
  -124.8477-124.8477-124.8477-124.8477-124.8474-124.8474-124.8473-124.8473
   -79.2322 -79.2322 -79.2322 -79.2321 -79.2297 -79.2297 -79.2287 -79.2287
   -79.2242 -79.2242 -79.2242 -79.2242 -79.2193 -79.2192 -79.2172 -79.2171
   -79.2162 -79.2162 -79.2148 -79.2148 -79.2147 -79.2147 -79.2144 -79.2143
   -79.2138 -79.2138 -79.2137 -79.2137 -79.2133 -79.2133 -79.2127 -79.2127
   -79.2112 -79.2111 -79.2111 -79.2111 -79.2078 -79.2078 -79.2078 -79.2078
   -79.2070 -79.2069 -79.2042 -79.2042 -79.2032 -79.2032 -79.2003 -79.2002
   -79.0108 -79.0108 -79.0108 -79.0108 -79.0108 -79.0108 -79.0107 -79.0107
   -79.0087 -79.0087 -79.0085 -79.0085 -79.0084 -79.0083 -79.0083 -79.0083
   -79.0077 -79.0077 -79.0076 -79.0076 -79.0073 -79.0073 -79.0073 -79.0073
   -79.0064 -79.0064 -79.0064 -79.0064 -79.0063 -79.0063 -79.0063 -79.0063
   -79.0060 -79.0060 -79.0059 -79.0058 -79.0055 -79.0054 -79.0054 -79.0054
   -79.0053 -79.0053 -79.0053 -79.0053 -79.0050 -79.0050 -79.0049 -79.0049
   -79.0028 -79.0028 -79.0028 -79.0028 -79.0027 -79.0027 -79.0027 -79.0027
   -78.9979 -78.9979 -78.9979 -78.9979 -78.9913 -78.9913 -78.9913 -78.9913
   -78.9898 -78.9898 -78.9898 -78.9898 -78.9898 -78.9898 -78.9897 -78.9897
   -78.9865 -78.9865 -78.9865 -78.9865 -78.9864 -78.9864 -78.9864 -78.9864
   -78.9857 -78.9856 -78.9856 -78.9856 -78.9829 -78.9829 -78.9828 -78.9828
   -78.9819 -78.9819 -78.9818 -78.9818 -78.9790 -78.9790 -78.9789 -78.9789
    -8.1517  -8.1516  -7.3129  -7.3129  -7.0140  -7.0140  -6.8591  -6.8591
    -6.8585  -6.8584  -6.7492  -6.7492  -6.7492  -6.7492  -6.6463  -6.6462
    -6.6455  -6.6455  -6.6455  -6.6455  -6.6132  -6.6132  -6.6029  -6.6029
    -6.6029  -6.6028  -6.5496  -6.5496  -6.5176  -6.5175  -6.5175  -6.5175
    -6.4966  -6.4966  -6.4843  -6.4843  -6.4843  -6.4843  -6.4555  -6.4555
    -6.4555  -6.4555  -6.4536  -6.4536  -6.4478  -6.4478  -6.4252  -6.4252
    -6.4114  -6.4114  -6.4113  -6.4113  -6.3026  -6.3026  -6.3012  -6.3012
    -6.2839  -6.2839  -6.2818  -6.2818  -6.2818  -6.2818  -6.2622  -6.2622
    -6.2621  -6.2621  -6.2316  -6.2316  -6.2124  -6.2124  -6.2124  -6.2124
    -6.2028  -6.2028  -6.1954  -6.1954  -6.1692  -6.1691  -6.1334  -6.1334
    -6.0998  -6.0998  -6.0947  -6.0947  -6.0745  -6.0744  -6.0744  -6.0744
    -6.0587  -6.0587  -6.0587  -6.0587  -6.0296  -6.0296  -6.0202  -6.0202
    -6.0195  -6.0195  -6.0122  -6.0122  -6.0095  -6.0095  -5.9819  -5.9819
    -5.9819  -5.9819  -5.9409  -5.9409  -5.9326  -5.9326  -5.9052  -5.9052
    -5.8954  -5.8954  -5.8684  -5.8684  -5.8684  -5.8684  -5.8038  -5.8038
    -5.8038  -5.8038  -5.8035  -5.8035  -5.8001  -5.8001  -5.8001  -5.8001
    -5.7785  -5.7785  -5.7715  -5.7715  -5.7701  -5.7701  -5.7701  -5.7701
    -5.7612  -5.7612  -5.7574  -5.7574  -5.7574  -5.7574  -5.7552  -5.7552
    -5.7466  -5.7466  -5.7466  -5.7466  -5.6640  -5.6640  -5.6625  -5.6625
    -5.6601  -5.6601  -5.6379  -5.6379  -5.6379  -5.6379  -5.6284  -5.6283
    -5.6125  -5.6125  -5.5960  -5.5960  -5.5960  -5.5960  -5.5843  -5.5843
    -5.5601  -5.5601  -5.5366  -5.5365  -5.5224  -5.5224  -5.5224  -5.5224
    -5.5151  -5.5151  -5.5151  -5.5151  -5.5123  -5.5123  -5.5108  -5.5108
    -5.4900  -5.4900  -5.4900  -5.4900  -5.4786  -5.4786  -5.4783  -5.4782
    -5.4777  -5.4777  -5.4669  -5.4669  -5.4548  -5.4548  -5.4548  -5.4548
    -5.4409  -5.4409  -5.4408  -5.4408  -5.4290  -5.4289  -5.4138  -5.4138
    -5.4094  -5.4094  -5.4093  -5.4093  -5.4049  -5.4049  -5.4028  -5.4028
    -5.3994  -5.3993  -5.3955  -5.3955  -5.3912  -5.3912  -5.3607  -5.3606
    -5.3556  -5.3556  -5.3556  -5.3556  -5.3129  -5.3129  -5.3129  -5.3129
    -5.2417  -5.2417  -5.2416  -5.2416  -5.2293  -5.2293  -5.2235  -5.2235
    -5.2235  -5.2235  -5.1880  -5.1880  -5.1854  -5.1854  -4.6945  -4.6945
    -4.4121  -4.4121  -4.4121  -4.4121  -3.7229  -3.7229  -3.1029  -3.1028
    -3.0519  -3.0519  -3.0519  -3.0519  -2.3837  -2.3837  -2.2298  -2.2298
    -1.7531  -1.7531  -1.7530  -1.7530  -0.7472  -0.7472  -0.7472  -0.7472
    -0.3151  -0.3151  -0.3151  -0.3151  -0.0839  -0.0839   0.0213   0.0213
     1.0249   1.0249   1.0555   1.0555   1.3438   1.3438   1.3771   1.3771
     1.3771   1.3771   2.2340   2.2340   2.9058   2.9058   2.9058   2.9058
     3.1077   3.1077   3.1077   3.1077   3.3321   3.3321   3.5603   3.5603
     3.8763   3.8763   3.8763   3.8763   4.0043   4.0043   4.2625   4.2625
     4.4524   4.4524   4.7544   4.7544   4.8632   4.8632   5.4898   5.4898
     5.5259   5.5260   5.7223   5.7223   5.8111   5.8111   5.9360   5.9360
     5.9360   5.9360   5.9915   5.9915   5.9915   5.9915   6.1594   6.1594
     6.1594   6.1594   6.4275   6.4275   6.5697   6.5697   6.6407   6.6407
     6.6621   6.6621   6.8464   6.8464   6.8731   6.8731   7.0182   7.0182
     7.0182   7.0182   7.5847   7.5847   7.7439   7.7439   8.0708   8.0708
     8.0941   8.0941   8.0941   8.0941   8.2859   8.2859   8.4740   8.4740
     8.4740   8.4740   8.6331   8.6331   8.6331   8.6331   8.6669   8.6669
     8.7450   8.7450   8.8117   8.8118   9.0048   9.0048   9.0049   9.0049

     occupation numbers 
     1.0000   1.0000   1.0000   1.0000   1.0000   1.0000   1.0000   1.0000
     1.0000   1.0000   1.0000   1.0000   1.0000   1.0000   1.0000   1.0000
     1.0000   1.0000   1.0000   1.0000   1.0000   1.0000   1.0000   1.0000
     1.0000   1.0000   1.0000   1.0000   1.0000   1.0000   1.0000   1.0000
     1.0000   1.0000   1.0000   1.0000   1.0000   1.0000   1.0000   1.0000
     1.0000   1.0000   1.0000   1.0000   1.0000   1.0000   1.0000   1.0000
     1.0000   1.0000   1.0000   1.0000   1.0000   1.0000   1.0000   1.0000
     1.0000   1.0000   1.0000   1.0000   1.0000   1.0000   1.0000   1.0000
     1.0000   1.0000   1.0000   1.0000   1.0000   1.0000   1.0000   1.0000
     1.0000   1.0000   1.0000   1.0000   1.0000   1.0000   1.0000   1.0000
     1.0000   1.0000   1.0000   1.0000   1.0000   1.0000   1.0000   1.0000
     1.0000   1.0000   1.0000   1.0000   1.0000   1.0000   1.0000   1.0000
     1.0000   1.0000   1.0000   1.0000   1.0000   1.0000   1.0000   1.0000
     1.0000   1.0000   1.0000   1.0000   1.0000   1.0000   1.0000   1.0000
     1.0000   1.0000   1.0000   1.0000   1.0000   1.0000   1.0000   1.0000
     1.0000   1.0000   1.0000   1.0000   1.0000   1.0000   1.0000   1.0000
     1.0000   1.0000   1.0000   1.0000   1.0000   1.0000   1.0000   1.0000
     1.0000   1.0000   1.0000   1.0000   1.0000   1.0000   1.0000   1.0000
     1.0000   1.0000   1.0000   1.0000   1.0000   1.0000   1.0000   1.0000
     1.0000   1.0000   1.0000   1.0000   1.0000   1.0000   1.0000   1.0000
     1.0000   1.0000   1.0000   1.0000   1.0000   1.0000   1.0000   1.0000
     1.0000   1.0000   1.0000   1.0000   1.0000   1.0000   1.0000   1.0000
     1.0000   1.0000   1.0000   1.0000   1.0000   1.0000   1.0000   1.0000
     1.0000   1.0000   1.0000   1.0000   1.0000   1.0000   1.0000   1.0000
     1.0000   1.0000   1.0000   1.0000   1.0000   1.0000   1.0000   1.0000
     1.0000   1.0000   1.0000   1.0000   1.0000   1.0000   1.0000   1.0000
     1.0000   1.0000   1.0000   1.0000   1.0000   1.0000   1.0000   1.0000
     1.0000   1.0000   1.0000   1.0000   1.0000   1.0000   1.0000   1.0000
     1.0000   1.0000   1.0000   1.0000   1.0000   1.0000   1.0000   1.0000
     1.0000   1.0000   1.0000   1.0000   1.0000   1.0000   1.0000   1.0000
     1.0000   1.0000   1.0000   1.0000   1.0000   1.0000   1.0000   1.0000
     1.0000   1.0000   1.0000   1.0000   1.0000   1.0000   1.0000   1.0000
     1.0000   1.0000   1.0000   1.0000   1.0000   1.0000   1.0000   1.0000
     1.0000   1.0000   1.0000   1.0000   1.0000   1.0000   1.0000   1.0000
     1.0000   1.0000   1.0000   1.0000   1.0000   1.0000   1.0000   1.0000
     1.0000   1.0000   1.0000   1.0000   1.0000   1.0000   1.0000   1.0000
     1.0000   1.0000   1.0000   1.0000   1.0000   1.0000   1.0000   1.0000
     1.0000   1.0000   1.0000   1.0000   1.0000   1.0000   1.0000   1.0000
     1.0000   1.0000   1.0000   1.0000   1.0000   1.0000   1.0000   1.0000
     1.0000   1.0000   1.0000   1.0000   1.0000   1.0000   1.0000   1.0000
     1.0000   1.0000   1.0000   1.0000   1.0000   1.0000   1.0000   1.0000
     1.0000   1.0000   1.0000   1.0000   1.0000   1.0000   1.0000   1.0000
     1.0000   1.0000   1.0000   1.0000   1.0000   1.0000   1.0000   1.0000
     1.0000   1.0000   1.0000   1.0000   1.0000   1.0000   1.0000   1.0000
     1.0000   1.0000   1.0000   1.0000   1.0000   1.0000   1.0000   1.0000
     1.0000   1.0000   1.0000   1.0000   1.0000   1.0000   1.0000   1.0000
     1.0000   1.0000   1.0000   1.0000   1.0000   1.0000   1.0000   1.0000
     1.0000   1.0000   1.0000   1.0000   1.0000   1.0000   1.0000   1.0000
     1.0000   1.0000   1.0000   1.0000   1.0000   1.0000   1.0000   1.0000
     1.0000   1.0000   1.0000   1.0000   1.0000   1.0000   1.0000   1.0000
     1.0000   1.0000   1.0000   1.0000   1.0000   1.0000   1.0000   1.0000
     1.0000   1.0000   1.0000   1.0000   1.0000   1.0000   1.0000   1.0000
     1.0000   1.0000   1.0000   1.0000   1.0000   1.0000   1.0000   1.0000
     1.0000   1.0000   1.0000   1.0000   1.0000   1.0000   1.0000   1.0000
     1.0000   1.0000   1.0000   1.0000   1.0000   1.0000   1.0000   1.0000
     1.0000   1.0000   1.0000   1.0000   1.0000   1.0000   1.0000   1.0000
     1.0000   1.0000   1.0000   1.0000   1.0000   1.0000   1.0000   1.0000
     1.0000   1.0000   1.0000   1.0000   1.0000   1.0000   1.0000   1.0000
     1.0000   1.0000   1.0000   1.0000   1.0000   1.0000   1.0001   1.0001
     1.0344   1.0344   1.0110   1.0110   0.5789   0.5789   0.5179   0.5179
     0.5178   0.5178   0.0005   0.0005   0.0000   0.0000   0.0000   0.0000
     0.0000   0.0000   0.0000   0.0000   0.0000   0.0000   0.0000   0.0000
     0.0000   0.0000   0.0000   0.0000   0.0000   0.0000   0.0000   0.0000
     0.0000   0.0000   0.0000   0.0000   0.0000   0.0000   0.0000   0.0000
     0.0000   0.0000   0.0000   0.0000   0.0000   0.0000   0.0000   0.0000
     0.0000   0.0000   0.0000   0.0000   0.0000   0.0000   0.0000   0.0000
     0.0000   0.0000   0.0000   0.0000   0.0000   0.0000   0.0000   0.0000
     0.0000   0.0000   0.0000   0.0000   0.0000   0.0000   0.0000   0.0000
     0.0000   0.0000   0.0000   0.0000   0.0000   0.0000   0.0000   0.0000
     0.0000   0.0000   0.0000   0.0000   0.0000   0.0000   0.0000   0.0000
     0.0000   0.0000   0.0000   0.0000   0.0000   0.0000   0.0000   0.0000
     0.0000   0.0000   0.0000   0.0000   0.0000   0.0000   0.0000   0.0000

          k = 0.2500 0.1443 0.0000 ( 64808 PWs)   bands (ev):

  -125.0687-125.0678-125.0674-125.0674-125.0667-125.0667-125.0665-125.0658
  -125.0658-125.0655-125.0654-125.0654-125.0654-125.0654-125.0651-125.0651
  -124.8511-124.8510-124.8502-124.8501-124.8498-124.8498-124.8497-124.8497
  -124.8491-124.8491-124.8490-124.8490-124.8489-124.8488-124.8482-124.8482
  -124.8481-124.8481-124.8479-124.8478-124.8478-124.8478-124.8478-124.8478
  -124.8477-124.8477-124.8477-124.8477-124.8475-124.8475-124.8474-124.8474
   -79.2342 -79.2342 -79.2336 -79.2296 -79.2296 -79.2287 -79.2287 -79.2268
   -79.2268 -79.2239 -79.2207 -79.2207 -79.2180 -79.2180 -79.2176 -79.2165
   -79.2160 -79.2160 -79.2153 -79.2153 -79.2150 -79.2142 -79.2142 -79.2139
   -79.2139 -79.2139 -79.2138 -79.2138 -79.2138 -79.2137 -79.2136 -79.2136
   -79.2134 -79.2134 -79.2113 -79.2113 -79.2101 -79.2091 -79.2091 -79.2080
   -79.2054 -79.2051 -79.2051 -79.2032 -79.2032 -79.2018 -79.2003 -79.1993
   -79.0129 -79.0129 -79.0128 -79.0128 -79.0122 -79.0122 -79.0091 -79.0089
   -79.0083 -79.0083 -79.0082 -79.0082 -79.0081 -79.0079 -79.0076 -79.0076
   -79.0075 -79.0075 -79.0074 -79.0074 -79.0073 -79.0073 -79.0069 -79.0069
   -79.0068 -79.0068 -79.0066 -79.0065 -79.0059 -79.0059 -79.0058 -79.0058
   -79.0056 -79.0055 -79.0055 -79.0055 -79.0054 -79.0054 -79.0054 -79.0054
   -79.0054 -79.0054 -79.0053 -79.0053 -79.0053 -79.0053 -79.0051 -79.0051
   -79.0050 -79.0050 -79.0025 -79.0025 -78.9993 -78.9993 -78.9993 -78.9993
   -78.9967 -78.9967 -78.9966 -78.9966 -78.9926 -78.9926 -78.9925 -78.9925
   -78.9923 -78.9923 -78.9922 -78.9922 -78.9900 -78.9900 -78.9899 -78.9899
   -78.9887 -78.9887 -78.9878 -78.9878 -78.9877 -78.9877 -78.9867 -78.9866
   -78.9841 -78.9841 -78.9838 -78.9838 -78.9838 -78.9838 -78.9819 -78.9819
   -78.9818 -78.9818 -78.9805 -78.9804 -78.9790 -78.9789 -78.9780 -78.9779
    -8.4995  -7.6161  -7.2883  -7.2442  -7.2442  -7.0234  -6.8980  -6.8718
    -6.8718  -6.8477  -6.8432  -6.8432  -6.6993  -6.6852  -6.6852  -6.6794
    -6.6703  -6.6506  -6.6261  -6.6261  -6.5807  -6.5728  -6.5728  -6.5725
    -6.5670  -6.5670  -6.5415  -6.5415  -6.5185  -6.5185  -6.5165  -6.5165
    -6.5096  -6.5049  -6.5049  -6.5014  -6.5014  -6.5011  -6.5011  -6.4847
    -6.4847  -6.4590  -6.4590  -6.4222  -6.4222  -6.3861  -6.3861  -6.3729
    -6.3729  -6.3694  -6.3140  -6.3090  -6.3090  -6.3082  -6.3082  -6.3081
    -6.3081  -6.2566  -6.2566  -6.2540  -6.2444  -6.2288  -6.2288  -6.2195
    -6.2170  -6.2170  -6.2154  -6.2154  -6.1964  -6.1964  -6.1959  -6.1959
    -6.1858  -6.1858  -6.1801  -6.1801  -6.1744  -6.1699  -6.1699  -6.1505
    -6.1382  -6.1153  -6.1153  -6.1023  -6.1023  -6.0947  -6.0947  -6.0934
    -6.0810  -6.0810  -6.0682  -6.0570  -6.0570  -6.0453  -6.0453  -6.0453
    -6.0453  -5.9533  -5.9533  -5.9465  -5.9465  -5.9313  -5.9295  -5.9267
    -5.9249  -5.9232  -5.9232  -5.9208  -5.9208  -5.9015  -5.9015  -5.8995
    -5.8837  -5.8837  -5.8817  -5.8793  -5.8769  -5.8677  -5.8677  -5.8552
    -5.8443  -5.8443  -5.8301  -5.8301  -5.8237  -5.8050  -5.7891  -5.7891
    -5.7843  -5.7843  -5.7779  -5.7779  -5.7747  -5.7705  -5.7705  -5.7636
    -5.7636  -5.7549  -5.7548  -5.7387  -5.7387  -5.7354  -5.7228  -5.7228
    -5.7080  -5.7066  -5.7066  -5.6925  -5.6925  -5.6891  -5.6891  -5.6856
    -5.6856  -5.6837  -5.6837  -5.6687  -5.6593  -5.6593  -5.6436  -5.6364
    -5.6342  -5.6342  -5.6212  -5.6212  -5.6159  -5.6080  -5.6080  -5.6051
    -5.6051  -5.6030  -5.6007  -5.5970  -5.5970  -5.5779  -5.5531  -5.5507
    -5.5507  -5.5478  -5.5478  -5.5392  -5.5392  -5.5363  -5.5363  -5.5347
    -5.5342  -5.5342  -5.5147  -5.5147  -5.5144  -5.5124  -5.5124  -5.5018
    -5.5018  -5.4792  -5.4792  -5.4556  -5.4518  -5.4518  -5.4511  -5.4445
    -5.4445  -5.4428  -5.4428  -5.4287  -5.4287  -5.4217  -5.4153  -5.4153
    -5.4121  -5.4095  -5.4044  -5.4029  -5.3925  -5.3925  -5.3900  -5.3900
    -5.3769  -5.3756  -5.3756  -5.3709  -5.3582  -5.3582  -5.3541  -5.3507
    -5.3382  -5.3382  -5.3278  -5.3194  -5.3191  -5.3191  -5.3142  -5.3004
    -5.3004  -5.2907  -5.2907  -5.2859  -5.2859  -5.2747  -5.2747  -5.1349
    -5.1349  -5.1160  -5.1160  -5.1108  -5.1108  -5.0922  -5.0915  -4.9405
    -4.9274  -4.6307  -4.6307  -3.8721  -3.8721  -3.4707  -3.3885  -3.3885
    -3.3576  -2.6659  -2.2940  -2.2940  -2.2171  -2.0163  -2.0163  -1.9613
    -1.9613  -1.5069  -1.5069  -1.2875  -1.2875  -1.1089  -0.7846  -0.5683
    -0.5683  -0.5507  -0.5507  -0.5457   0.0343   0.0343   0.2771   0.2771
     0.5658   0.5658   0.6396   0.8837   0.9085   0.9085   1.1897   1.1897
     1.5646   1.5646   2.2324   2.2324   2.6529   2.7034   2.7034   2.7270
     2.7921   2.7921   2.9572   2.9572   3.2249   3.5561   3.6965   3.6965
     3.9132   3.9132   4.1174   4.1910   4.1910   4.5616   4.5616   4.8099
     4.8099   4.8530   4.8530   5.1561   5.1561   5.1687   5.1687   5.1874
     5.3775   5.4315   5.4315   5.5747   5.6510   5.8011   5.8011   5.8122
     6.0894   6.0984   6.0984   6.2964   6.3144   6.3193   6.3193   6.5091
     6.5392   6.5392   6.6032   6.6032   6.7145   6.7553   6.7553   7.0184
     7.0184   7.0942   7.0942   7.1776   7.1776   7.2392   7.3154   7.3154
     7.4073   7.4241   7.4241   7.4533   7.4533   7.6649   7.6649   7.6666
     7.6666   7.6987   7.6987   7.7463   7.8545   7.8545   7.9504   7.9504
     8.0271   8.0271   8.1307   8.3160   8.3210   8.4776   8.6356   8.6356
     8.7014   8.7070   8.8161   8.8161   8.8312   8.8313   8.8413   8.8418

     occupation numbers 
     1.0000   1.0000   1.0000   1.0000   1.0000   1.0000   1.0000   1.0000
     1.0000   1.0000   1.0000   1.0000   1.0000   1.0000   1.0000   1.0000
     1.0000   1.0000   1.0000   1.0000   1.0000   1.0000   1.0000   1.0000
     1.0000   1.0000   1.0000   1.0000   1.0000   1.0000   1.0000   1.0000
     1.0000   1.0000   1.0000   1.0000   1.0000   1.0000   1.0000   1.0000
     1.0000   1.0000   1.0000   1.0000   1.0000   1.0000   1.0000   1.0000
     1.0000   1.0000   1.0000   1.0000   1.0000   1.0000   1.0000   1.0000
     1.0000   1.0000   1.0000   1.0000   1.0000   1.0000   1.0000   1.0000
     1.0000   1.0000   1.0000   1.0000   1.0000   1.0000   1.0000   1.0000
     1.0000   1.0000   1.0000   1.0000   1.0000   1.0000   1.0000   1.0000
     1.0000   1.0000   1.0000   1.0000   1.0000   1.0000   1.0000   1.0000
     1.0000   1.0000   1.0000   1.0000   1.0000   1.0000   1.0000   1.0000
     1.0000   1.0000   1.0000   1.0000   1.0000   1.0000   1.0000   1.0000
     1.0000   1.0000   1.0000   1.0000   1.0000   1.0000   1.0000   1.0000
     1.0000   1.0000   1.0000   1.0000   1.0000   1.0000   1.0000   1.0000
     1.0000   1.0000   1.0000   1.0000   1.0000   1.0000   1.0000   1.0000
     1.0000   1.0000   1.0000   1.0000   1.0000   1.0000   1.0000   1.0000
     1.0000   1.0000   1.0000   1.0000   1.0000   1.0000   1.0000   1.0000
     1.0000   1.0000   1.0000   1.0000   1.0000   1.0000   1.0000   1.0000
     1.0000   1.0000   1.0000   1.0000   1.0000   1.0000   1.0000   1.0000
     1.0000   1.0000   1.0000   1.0000   1.0000   1.0000   1.0000   1.0000
     1.0000   1.0000   1.0000   1.0000   1.0000   1.0000   1.0000   1.0000
     1.0000   1.0000   1.0000   1.0000   1.0000   1.0000   1.0000   1.0000
     1.0000   1.0000   1.0000   1.0000   1.0000   1.0000   1.0000   1.0000
     1.0000   1.0000   1.0000   1.0000   1.0000   1.0000   1.0000   1.0000
     1.0000   1.0000   1.0000   1.0000   1.0000   1.0000   1.0000   1.0000
     1.0000   1.0000   1.0000   1.0000   1.0000   1.0000   1.0000   1.0000
     1.0000   1.0000   1.0000   1.0000   1.0000   1.0000   1.0000   1.0000
     1.0000   1.0000   1.0000   1.0000   1.0000   1.0000   1.0000   1.0000
     1.0000   1.0000   1.0000   1.0000   1.0000   1.0000   1.0000   1.0000
     1.0000   1.0000   1.0000   1.0000   1.0000   1.0000   1.0000   1.0000
     1.0000   1.0000   1.0000   1.0000   1.0000   1.0000   1.0000   1.0000
     1.0000   1.0000   1.0000   1.0000   1.0000   1.0000   1.0000   1.0000
     1.0000   1.0000   1.0000   1.0000   1.0000   1.0000   1.0000   1.0000
     1.0000   1.0000   1.0000   1.0000   1.0000   1.0000   1.0000   1.0000
     1.0000   1.0000   1.0000   1.0000   1.0000   1.0000   1.0000   1.0000
     1.0000   1.0000   1.0000   1.0000   1.0000   1.0000   1.0000   1.0000
     1.0000   1.0000   1.0000   1.0000   1.0000   1.0000   1.0000   1.0000
     1.0000   1.0000   1.0000   1.0000   1.0000   1.0000   1.0000   1.0000
     1.0000   1.0000   1.0000   1.0000   1.0000   1.0000   1.0000   1.0000
     1.0000   1.0000   1.0000   1.0000   1.0000   1.0000   1.0000   1.0000
     1.0000   1.0000   1.0000   1.0000   1.0000   1.0000   1.0000   1.0000
     1.0000   1.0000   1.0000   1.0000   1.0000   1.0000   1.0000   1.0000
     1.0000   1.0000   1.0000   1.0000   1.0000   1.0000   1.0000   1.0000
     1.0000   1.0000   1.0000   1.0000   1.0000   1.0000   1.0000   1.0000
     1.0000   1.0000   1.0000   1.0000   1.0000   1.0000   1.0000   1.0000
     1.0000   1.0000   1.0000   1.0000   1.0000   1.0000   1.0000   1.0000
     1.0000   1.0000   1.0000   1.0000   1.0000   1.0000   1.0000   1.0000
     1.0000   1.0000   1.0000   1.0000   1.0000   1.0000   1.0000   1.0000
     1.0000   1.0000   1.0000   1.0000   1.0000   1.0000   1.0000   1.0000
     1.0000   1.0000   1.0000   1.0000   1.0000   1.0000   1.0000   1.0000
     1.0000   1.0000   1.0000   1.0000   1.0000   1.0000   1.0000   1.0000
     1.0000   1.0000   1.0000   1.0000   1.0000   1.0000   1.0000   1.0000
     1.0000   1.0000   1.0000   1.0000   1.0000   1.0000   1.0000   1.0000
     1.0000   1.0000   1.0000   1.0000   1.0000   1.0000   1.0000   1.0000
     1.0000   1.0000   1.0000   1.0000   1.0000   1.0000   1.0000   1.0000
     1.0000   1.0000   1.0000   1.0000   1.0000   1.0000   1.0000   1.0000
     1.0000   1.0000   1.0000   1.0000   1.0000   1.0000   1.0000   1.0000
     1.0000   1.0000   1.0000   1.0000   1.0002   1.0002   1.0027   1.0027
     1.0290   1.0290   1.0439   1.0829   1.0805   1.0805   0.8485   0.8485
     0.2239   0.2239   0.0005   0.0005   0.0000   0.0000   0.0000   0.0000
     0.0000   0.0000   0.0000   0.0000   0.0000   0.0000   0.0000   0.0000
     0.0000   0.0000   0.0000   0.0000   0.0000   0.0000   0.0000   0.0000
     0.0000   0.0000   0.0000   0.0000   0.0000   0.0000   0.0000   0.0000
     0.0000   0.0000   0.0000   0.0000   0.0000   0.0000   0.0000   0.0000
     0.0000   0.0000   0.0000   0.0000   0.0000   0.0000   0.0000   0.0000
     0.0000   0.0000   0.0000   0.0000   0.0000   0.0000   0.0000   0.0000
     0.0000   0.0000   0.0000   0.0000   0.0000   0.0000   0.0000   0.0000
     0.0000   0.0000   0.0000   0.0000   0.0000   0.0000   0.0000   0.0000
     0.0000   0.0000   0.0000   0.0000   0.0000   0.0000   0.0000   0.0000
     0.0000   0.0000   0.0000   0.0000   0.0000   0.0000   0.0000   0.0000
     0.0000   0.0000   0.0000   0.0000   0.0000   0.0000   0.0000   0.0000

          k = 0.2500 0.4330 0.0000 ( 64876 PWs)   bands (ev):

  -125.0685-125.0680-125.0680-125.0669-125.0669-125.0663-125.0661-125.0661
  -125.0658-125.0657-125.0656-125.0656-125.0653-125.0652-125.0651-125.0650
  -124.8509-124.8508-124.8504-124.8504-124.8503-124.8503-124.8493-124.8493
  -124.8492-124.8492-124.8487-124.8486-124.8485-124.8485-124.8484-124.8484
  -124.8481-124.8481-124.8481-124.8480-124.8480-124.8480-124.8479-124.8479
  -124.8477-124.8476-124.8476-124.8476-124.8475-124.8475-124.8474-124.8473
   -79.2333 -79.2317 -79.2317 -79.2311 -79.2311 -79.2290 -79.2290 -79.2269
   -79.2269 -79.2265 -79.2229 -79.2221 -79.2184 -79.2184 -79.2173 -79.2168
   -79.2167 -79.2155 -79.2154 -79.2150 -79.2149 -79.2148 -79.2146 -79.2146
   -79.2142 -79.2141 -79.2140 -79.2140 -79.2136 -79.2135 -79.2135 -79.2133
   -79.2116 -79.2098 -79.2098 -79.2084 -79.2083 -79.2083 -79.2077 -79.2077
   -79.2070 -79.2069 -79.2055 -79.2055 -79.2029 -79.2014 -79.2014 -79.2000
   -79.0119 -79.0119 -79.0103 -79.0103 -79.0102 -79.0102 -79.0098 -79.0098
   -79.0097 -79.0097 -79.0088 -79.0086 -79.0083 -79.0083 -79.0082 -79.0081
   -79.0076 -79.0076 -79.0076 -79.0075 -79.0070 -79.0070 -79.0069 -79.0069
   -79.0064 -79.0063 -79.0062 -79.0062 -79.0061 -79.0061 -79.0058 -79.0058
   -79.0057 -79.0057 -79.0057 -79.0057 -79.0056 -79.0056 -79.0056 -79.0055
   -79.0055 -79.0055 -79.0053 -79.0052 -79.0052 -79.0052 -79.0051 -79.0051
   -79.0051 -79.0050 -79.0050 -79.0049 -79.0016 -79.0015 -79.0008 -79.0007
   -78.9971 -78.9971 -78.9970 -78.9970 -78.9936 -78.9936 -78.9936 -78.9936
   -78.9903 -78.9902 -78.9885 -78.9885 -78.9884 -78.9884 -78.9871 -78.9870
   -78.9870 -78.9870 -78.9870 -78.9870 -78.9864 -78.9864 -78.9863 -78.9863
   -78.9857 -78.9856 -78.9856 -78.9856 -78.9842 -78.9842 -78.9841 -78.9841
   -78.9816 -78.9815 -78.9801 -78.9801 -78.9800 -78.9800 -78.9787 -78.9786
    -8.2658  -7.8191  -7.8190  -7.0999  -6.9087  -6.8395  -6.8395  -6.7995
    -6.7995  -6.7961  -6.7961  -6.7814  -6.7814  -6.7683  -6.7227  -6.7227
    -6.6978  -6.6977  -6.6487  -6.6487  -6.6190  -6.6038  -6.6038  -6.5975
    -6.5975  -6.5816  -6.5816  -6.5576  -6.5576  -6.5562  -6.5562  -6.5323
    -6.5319  -6.5319  -6.4815  -6.4815  -6.4638  -6.4638  -6.4633  -6.4586
    -6.4586  -6.4387  -6.4296  -6.4169  -6.4088  -6.4088  -6.4021  -6.4021
    -6.3949  -6.3949  -6.3901  -6.3590  -6.3590  -6.3091  -6.2909  -6.2909
    -6.2900  -6.2899  -6.2899  -6.2892  -6.2892  -6.2699  -6.2609  -6.2554
    -6.2554  -6.2536  -6.2422  -6.2422  -6.2404  -6.2404  -6.2370  -6.2116
    -6.2116  -6.1924  -6.1924  -6.1725  -6.1725  -6.1654  -6.1443  -6.1325
    -6.1312  -6.1312  -6.1127  -6.1127  -6.1035  -6.1034  -6.0865  -6.0787
    -6.0465  -6.0465  -6.0385  -6.0385  -6.0333  -6.0324  -6.0076  -6.0076
    -5.9892  -5.9821  -5.9821  -5.9763  -5.9674  -5.9674  -5.9614  -5.9614
    -5.9584  -5.9584  -5.9459  -5.9392  -5.9288  -5.9155  -5.9155  -5.9006
    -5.9006  -5.8949  -5.8901  -5.8838  -5.8838  -5.8826  -5.8744  -5.8733
    -5.8733  -5.8479  -5.8479  -5.8413  -5.8413  -5.8299  -5.8299  -5.8269
    -5.8269  -5.8218  -5.8217  -5.7951  -5.7948  -5.7948  -5.7805  -5.7613
    -5.7563  -5.7563  -5.7510  -5.7460  -5.7460  -5.7434  -5.7084  -5.7084
    -5.6844  -5.6843  -5.6808  -5.6808  -5.6493  -5.6465  -5.6465  -5.6429
    -5.6429  -5.6390  -5.6297  -5.6239  -5.6239  -5.6173  -5.6173  -5.5852
    -5.5852  -5.5832  -5.5807  -5.5807  -5.5740  -5.5740  -5.5715  -5.5715
    -5.5679  -5.5678  -5.5653  -5.5653  -5.5589  -5.5589  -5.5415  -5.5415
    -5.5395  -5.5395  -5.5336  -5.5311  -5.5254  -5.5254  -5.5076  -5.5071
    -5.5071  -5.5007  -5.5007  -5.5001  -5.4942  -5.4748  -5.4748  -5.4728
    -5.4675  -5.4675  -5.4548  -5.4531  -5.4531  -5.4512  -5.4512  -5.4491
    -5.4491  -5.4466  -5.4466  -5.4342  -5.4342  -5.4309  -5.4309  -5.4244
    -5.4244  -5.4240  -5.4066  -5.4066  -5.4002  -5.3987  -5.3987  -5.3873
    -5.3854  -5.3767  -5.3767  -5.3727  -5.3727  -5.3646  -5.3642  -5.3612
    -5.3541  -5.3541  -5.3243  -5.3193  -5.3193  -5.2965  -5.2965  -5.2757
    -5.2640  -5.2640  -5.2633  -5.2633  -5.2601  -5.2601  -5.2436  -5.2164
    -5.1742  -5.1742  -5.1699  -5.1699  -5.1348  -5.1348  -5.0583  -5.0583
    -4.4498  -4.2272  -4.2272  -4.0350  -4.0350  -3.2398  -3.2398  -3.1879
    -3.1352  -2.8723  -2.8723  -2.8420  -2.8419  -2.7707  -2.7707  -1.7859
    -1.7859  -1.6936  -1.6936  -1.4031  -1.4031  -0.8369  -0.4677  -0.4677
    -0.4077  -0.4077  -0.3192  -0.2350   0.3005   0.3563   0.3563   0.4316
     0.4316   0.7078   0.7078   0.7997   0.9805   0.9805   1.0910   1.4210
     1.4210   1.9819   1.9819   2.5411   2.5614   2.8250   2.9915   3.0956
     3.3305   3.3305   3.3738   3.3738   3.4486   3.4525   3.4525   3.5824
     3.5824   3.6749   3.8953   3.8953   4.3806   4.3806   4.4021   4.4329
     4.4512   4.4512   4.5711   4.5711   4.8882   4.9407   5.1471   5.1471
     5.2255   5.2255   5.4131   5.4524   5.4524   5.4564   5.4564   5.6074
     5.8643   5.8643   6.0669   6.0669   6.0958   6.1338   6.1338   6.5463
     6.5475   6.5475   6.6522   6.6538   6.6538   6.7340   6.9582   7.0087
     7.0087   7.0088   7.0088   7.0097   7.0499   7.0499   7.1678   7.1678
     7.1833   7.1834   7.2117   7.2117   7.2282   7.2282   7.4426   7.4426
     8.0925   8.2198   8.2198   8.3497   8.3680   8.3821   8.3821   8.5210
     8.5210   8.5430   8.5517   8.5895   8.5896   8.6237   8.6237   8.6633
     8.6876   8.6876   8.7006   8.7466   8.8028   8.8028   9.0116   9.0117

     occupation numbers 
     1.0000   1.0000   1.0000   1.0000   1.0000   1.0000   1.0000   1.0000
     1.0000   1.0000   1.0000   1.0000   1.0000   1.0000   1.0000   1.0000
     1.0000   1.0000   1.0000   1.0000   1.0000   1.0000   1.0000   1.0000
     1.0000   1.0000   1.0000   1.0000   1.0000   1.0000   1.0000   1.0000
     1.0000   1.0000   1.0000   1.0000   1.0000   1.0000   1.0000   1.0000
     1.0000   1.0000   1.0000   1.0000   1.0000   1.0000   1.0000   1.0000
     1.0000   1.0000   1.0000   1.0000   1.0000   1.0000   1.0000   1.0000
     1.0000   1.0000   1.0000   1.0000   1.0000   1.0000   1.0000   1.0000
     1.0000   1.0000   1.0000   1.0000   1.0000   1.0000   1.0000   1.0000
     1.0000   1.0000   1.0000   1.0000   1.0000   1.0000   1.0000   1.0000
     1.0000   1.0000   1.0000   1.0000   1.0000   1.0000   1.0000   1.0000
     1.0000   1.0000   1.0000   1.0000   1.0000   1.0000   1.0000   1.0000
     1.0000   1.0000   1.0000   1.0000   1.0000   1.0000   1.0000   1.0000
     1.0000   1.0000   1.0000   1.0000   1.0000   1.0000   1.0000   1.0000
     1.0000   1.0000   1.0000   1.0000   1.0000   1.0000   1.0000   1.0000
     1.0000   1.0000   1.0000   1.0000   1.0000   1.0000   1.0000   1.0000
     1.0000   1.0000   1.0000   1.0000   1.0000   1.0000   1.0000   1.0000
     1.0000   1.0000   1.0000   1.0000   1.0000   1.0000   1.0000   1.0000
     1.0000   1.0000   1.0000   1.0000   1.0000   1.0000   1.0000   1.0000
     1.0000   1.0000   1.0000   1.0000   1.0000   1.0000   1.0000   1.0000
     1.0000   1.0000   1.0000   1.0000   1.0000   1.0000   1.0000   1.0000
     1.0000   1.0000   1.0000   1.0000   1.0000   1.0000   1.0000   1.0000
     1.0000   1.0000   1.0000   1.0000   1.0000   1.0000   1.0000   1.0000
     1.0000   1.0000   1.0000   1.0000   1.0000   1.0000   1.0000   1.0000
     1.0000   1.0000   1.0000   1.0000   1.0000   1.0000   1.0000   1.0000
     1.0000   1.0000   1.0000   1.0000   1.0000   1.0000   1.0000   1.0000
     1.0000   1.0000   1.0000   1.0000   1.0000   1.0000   1.0000   1.0000
     1.0000   1.0000   1.0000   1.0000   1.0000   1.0000   1.0000   1.0000
     1.0000   1.0000   1.0000   1.0000   1.0000   1.0000   1.0000   1.0000
     1.0000   1.0000   1.0000   1.0000   1.0000   1.0000   1.0000   1.0000
     1.0000   1.0000   1.0000   1.0000   1.0000   1.0000   1.0000   1.0000
     1.0000   1.0000   1.0000   1.0000   1.0000   1.0000   1.0000   1.0000
     1.0000   1.0000   1.0000   1.0000   1.0000   1.0000   1.0000   1.0000
     1.0000   1.0000   1.0000   1.0000   1.0000   1.0000   1.0000   1.0000
     1.0000   1.0000   1.0000   1.0000   1.0000   1.0000   1.0000   1.0000
     1.0000   1.0000   1.0000   1.0000   1.0000   1.0000   1.0000   1.0000
     1.0000   1.0000   1.0000   1.0000   1.0000   1.0000   1.0000   1.0000
     1.0000   1.0000   1.0000   1.0000   1.0000   1.0000   1.0000   1.0000
     1.0000   1.0000   1.0000   1.0000   1.0000   1.0000   1.0000   1.0000
     1.0000   1.0000   1.0000   1.0000   1.0000   1.0000   1.0000   1.0000
     1.0000   1.0000   1.0000   1.0000   1.0000   1.0000   1.0000   1.0000
     1.0000   1.0000   1.0000   1.0000   1.0000   1.0000   1.0000   1.0000
     1.0000   1.0000   1.0000   1.0000   1.0000   1.0000   1.0000   1.0000
     1.0000   1.0000   1.0000   1.0000   1.0000   1.0000   1.0000   1.0000
     1.0000   1.0000   1.0000   1.0000   1.0000   1.0000   1.0000   1.0000
     1.0000   1.0000   1.0000   1.0000   1.0000   1.0000   1.0000   1.0000
     1.0000   1.0000   1.0000   1.0000   1.0000   1.0000   1.0000   1.0000
     1.0000   1.0000   1.0000   1.0000   1.0000   1.0000   1.0000   1.0000
     1.0000   1.0000   1.0000   1.0000   1.0000   1.0000   1.0000   1.0000
     1.0000   1.0000   1.0000   1.0000   1.0000   1.0000   1.0000   1.0000
     1.0000   1.0000   1.0000   1.0000   1.0000   1.0000   1.0000   1.0000
     1.0000   1.0000   1.0000   1.0000   1.0000   1.0000   1.0000   1.0000
     1.0000   1.0000   1.0000   1.0000   1.0000   1.0000   1.0000   1.0000
     1.0000   1.0000   1.0000   1.0000   1.0000   1.0000   1.0000   1.0000
     1.0000   1.0000   1.0000   1.0000   1.0000   1.0000   1.0000   1.0000
     1.0000   1.0000   1.0000   1.0000   1.0000   1.0000   1.0000   1.0000
     1.0000   1.0000   1.0000   1.0000   1.0000   1.0000   1.0000   1.0000
     1.0000   1.0000   1.0000   1.0000   1.0000   1.0000   1.0000   1.0000
     1.0000   1.0000   1.0000   1.0000   1.0034   1.0058   1.0058   1.0111
     1.0111   1.0594   1.0594   1.0778   1.0596   1.0596   0.9772   0.4396
     0.4395   0.0087   0.0087   0.0000   0.0000   0.0000   0.0000   0.0000
     0.0000   0.0000   0.0000   0.0000   0.0000   0.0000   0.0000   0.0000
     0.0000   0.0000   0.0000   0.0000   0.0000   0.0000   0.0000   0.0000
     0.0000   0.0000   0.0000   0.0000   0.0000   0.0000   0.0000   0.0000
     0.0000   0.0000   0.0000   0.0000   0.0000   0.0000   0.0000   0.0000
     0.0000   0.0000   0.0000   0.0000   0.0000   0.0000   0.0000   0.0000
     0.0000   0.0000   0.0000   0.0000   0.0000   0.0000   0.0000   0.0000
     0.0000   0.0000   0.0000   0.0000   0.0000   0.0000   0.0000   0.0000
     0.0000   0.0000   0.0000   0.0000   0.0000   0.0000   0.0000   0.0000
     0.0000   0.0000   0.0000   0.0000   0.0000   0.0000   0.0000   0.0000
     0.0000   0.0000   0.0000   0.0000   0.0000   0.0000   0.0000   0.0000
     0.0000   0.0000   0.0000   0.0000   0.0000   0.0000   0.0000   0.0000

          k = 0.2500-0.4330 0.0000 ( 64876 PWs)   bands (ev):

  -125.0685-125.0680-125.0680-125.0669-125.0669-125.0663-125.0661-125.0661
  -125.0658-125.0657-125.0656-125.0656-125.0653-125.0652-125.0651-125.0650
  -124.8509-124.8508-124.8504-124.8504-124.8503-124.8503-124.8493-124.8493
  -124.8492-124.8492-124.8487-124.8486-124.8485-124.8485-124.8484-124.8484
  -124.8481-124.8481-124.8481-124.8480-124.8480-124.8480-124.8479-124.8479
  -124.8477-124.8476-124.8476-124.8476-124.8475-124.8475-124.8474-124.8473
   -79.2333 -79.2317 -79.2317 -79.2311 -79.2311 -79.2290 -79.2290 -79.2269
   -79.2269 -79.2265 -79.2229 -79.2221 -79.2184 -79.2184 -79.2173 -79.2168
   -79.2167 -79.2155 -79.2154 -79.2150 -79.2149 -79.2148 -79.2146 -79.2146
   -79.2142 -79.2141 -79.2140 -79.2140 -79.2136 -79.2135 -79.2135 -79.2133
   -79.2116 -79.2098 -79.2098 -79.2084 -79.2083 -79.2083 -79.2077 -79.2077
   -79.2070 -79.2069 -79.2055 -79.2055 -79.2029 -79.2014 -79.2014 -79.2000
   -79.0119 -79.0119 -79.0103 -79.0103 -79.0102 -79.0102 -79.0098 -79.0098
   -79.0097 -79.0097 -79.0088 -79.0086 -79.0083 -79.0083 -79.0082 -79.0081
   -79.0076 -79.0076 -79.0076 -79.0075 -79.0070 -79.0070 -79.0069 -79.0069
   -79.0064 -79.0063 -79.0062 -79.0062 -79.0061 -79.0061 -79.0058 -79.0058
   -79.0057 -79.0057 -79.0057 -79.0057 -79.0056 -79.0056 -79.0056 -79.0055
   -79.0055 -79.0055 -79.0053 -79.0052 -79.0052 -79.0052 -79.0051 -79.0051
   -79.0051 -79.0050 -79.0050 -79.0049 -79.0016 -79.0015 -79.0008 -79.0007
[...]
     1.0000   1.0000   1.0000   1.0000   1.0000   1.0000   1.0000   1.0000
     1.0000   1.0000   1.0000   1.0000   1.0000   1.0000   1.0000   1.0000
     1.0000   1.0000   1.0000   1.0000   1.0000   1.0000   1.0000   1.0000
     1.0000   1.0000   1.0000   1.0000   1.0000   1.0000   1.0000   1.0000
     1.0000   1.0000   1.0000   1.0000   1.0000   1.0000   1.0000   1.0000
     1.0000   1.0000   1.0000   1.0000   1.0000   1.0000   1.0000   1.0000
     1.0000   1.0000   1.0000   1.0000   1.0000   1.0000   1.0000   1.0000
     1.0000   1.0000   1.0000   1.0000   1.0000   1.0000   1.0000   1.0000
     1.0000   1.0000   1.0000   1.0000   1.0000   1.0000   1.0000   1.0000
     1.0000   1.0000   1.0000   1.0000   1.0000   1.0000   1.0000   1.0000
     1.0000   1.0000   1.0000   1.0000   1.0000   1.0000   1.0000   1.0000
     1.0000   1.0000   1.0000   1.0000   1.0000   1.0000   1.0000   1.0000
     1.0000   1.0000   1.0000   1.0000   1.0000   1.0000   1.0000   1.0000
     1.0000   1.0000   1.0000   1.0000   1.0000   1.0000   1.0000   1.0000
     1.0000   1.0000   1.0000   1.0000   1.0000   1.0000   1.0000   1.0000
     1.0000   1.0000   1.0000   1.0000   1.0000   1.0000   1.0000   1.0000
     1.0000   1.0000   1.0000   1.0000   1.0000   1.0000   1.0000   1.0000
     1.0000   1.0000   1.0000   1.0000   1.0000   1.0000   1.0000   1.0000
     1.0000   1.0000   1.0000   1.0000   1.0000   1.0000   1.0000   1.0000
     1.0000   1.0000   1.0000   1.0000   1.0000   1.0000   1.0000   1.0000
     1.0000   1.0000   1.0000   1.0000   1.0000   1.0000   1.0000   1.0000
     1.0000   1.0000   1.0000   1.0000   1.0000   1.0000   1.0000   1.0000
     1.0000   1.0000   1.0000   1.0000   1.0000   1.0000   1.0000   1.0000
     1.0000   1.0000   1.0000   1.0000   1.0000   1.0000   1.0000   1.0000
     1.0000   1.0000   1.0000   1.0000   1.0000   1.0000   1.0000   1.0000
     1.0000   1.0000   1.0000   1.0000   1.0000   1.0000   1.0000   1.0000
     1.0000   1.0000   1.0000   1.0000   1.0000   1.0000   1.0000   1.0000
     1.0000   1.0000   1.0000   1.0000   1.0000   1.0000   1.0000   1.0000
     1.0000   1.0000   1.0000   1.0000   1.0000   1.0000   1.0000   1.0000
     1.0000   1.0000   1.0000   1.0000   1.0000   1.0000   1.0000   1.0000
     1.0000   1.0000   1.0000   1.0000   1.0000   1.0000   1.0000   1.0000
     1.0000   1.0000   1.0000   1.0000   1.0000   1.0000   1.0000   1.0000
     1.0000   1.0000   1.0000   1.0000   1.0000   1.0000   1.0000   1.0000
     1.0000   1.0000   1.0000   1.0000   1.0000   1.0000   1.0000   1.0000
     1.0000   1.0000   1.0000   1.0000   1.0000   1.0000   1.0000   1.0000
     1.0000   1.0000   1.0000   1.0000   1.0000   1.0000   1.0000   1.0000
     1.0000   1.0000   1.0000   1.0000   1.0000   1.0000   1.0000   1.0000
     1.0000   1.0000   1.0000   1.0000   1.0000   1.0000   1.0000   1.0000
     1.0000   1.0000   1.0000   1.0000   1.0000   1.0000   1.0000   1.0000
     1.0000   1.0000   1.0000   1.0000   1.0000   1.0000   1.0000   1.0000
     1.0000   1.0000   1.0000   1.0000   1.0034   1.0058   1.0058   1.0111
     1.0111   1.0594   1.0594   1.0778   1.0596   1.0596   0.9772   0.4396
     0.4395   0.0087   0.0087   0.0000   0.0000   0.0000   0.0000   0.0000
     0.0000   0.0000   0.0000   0.0000   0.0000   0.0000   0.0000   0.0000
     0.0000   0.0000   0.0000   0.0000   0.0000   0.0000   0.0000   0.0000
     0.0000   0.0000   0.0000   0.0000   0.0000   0.0000   0.0000   0.0000
     0.0000   0.0000   0.0000   0.0000   0.0000   0.0000   0.0000   0.0000
     0.0000   0.0000   0.0000   0.0000   0.0000   0.0000   0.0000   0.0000
     0.0000   0.0000   0.0000   0.0000   0.0000   0.0000   0.0000   0.0000
     0.0000   0.0000   0.0000   0.0000   0.0000   0.0000   0.0000   0.0000
     0.0000   0.0000   0.0000   0.0000   0.0000   0.0000   0.0000   0.0000
     0.0000   0.0000   0.0000   0.0000   0.0000   0.0000   0.0000   0.0000
     0.0000   0.0000   0.0000   0.0000   0.0000   0.0000   0.0000   0.0000
     0.0000   0.0000   0.0000   0.0000   0.0000   0.0000   0.0000   0.0000

          k =-0.5000-0.8660 0.0000 ( 64842 PWs)   bands (ev):

  -125.0684-125.0683-125.0675-125.0675-125.0663-125.0663-125.0663-125.0663
  -125.0659-125.0659-125.0654-125.0654-125.0654-125.0654-125.0650-125.0650
  -124.8508-124.8507-124.8507-124.8507-124.8499-124.8499-124.8498-124.8498
  -124.8487-124.8487-124.8487-124.8487-124.8486-124.8486-124.8486-124.8486
  -124.8483-124.8483-124.8482-124.8482-124.8478-124.8478-124.8478-124.8478
  -124.8477-124.8477-124.8477-124.8477-124.8474-124.8474-124.8473-124.8473
   -79.2322 -79.2322 -79.2322 -79.2322 -79.2297 -79.2297 -79.2287 -79.2287
   -79.2242 -79.2242 -79.2242 -79.2242 -79.2193 -79.2192 -79.2172 -79.2171
   -79.2162 -79.2161 -79.2148 -79.2148 -79.2148 -79.2147 -79.2144 -79.2143
   -79.2138 -79.2138 -79.2138 -79.2137 -79.2133 -79.2133 -79.2127 -79.2127
   -79.2111 -79.2111 -79.2111 -79.2111 -79.2078 -79.2078 -79.2078 -79.2078
   -79.2070 -79.2069 -79.2042 -79.2042 -79.2032 -79.2032 -79.2003 -79.2003
   -79.0108 -79.0108 -79.0108 -79.0108 -79.0108 -79.0108 -79.0107 -79.0107
   -79.0087 -79.0087 -79.0085 -79.0085 -79.0084 -79.0084 -79.0083 -79.0083
   -79.0077 -79.0077 -79.0076 -79.0076 -79.0073 -79.0073 -79.0073 -79.0073
   -79.0064 -79.0064 -79.0064 -79.0064 -79.0063 -79.0063 -79.0063 -79.0063
   -79.0060 -79.0060 -79.0059 -79.0059 -79.0054 -79.0054 -79.0054 -79.0054
   -79.0053 -79.0053 -79.0053 -79.0053 -79.0050 -79.0050 -79.0049 -79.0049
   -79.0028 -79.0028 -79.0028 -79.0028 -79.0027 -79.0027 -79.0027 -79.0027
   -78.9979 -78.9979 -78.9979 -78.9979 -78.9913 -78.9913 -78.9913 -78.9913
   -78.9898 -78.9898 -78.9898 -78.9898 -78.9897 -78.9897 -78.9897 -78.9897
   -78.9865 -78.9865 -78.9865 -78.9865 -78.9864 -78.9864 -78.9864 -78.9864
   -78.9857 -78.9857 -78.9856 -78.9856 -78.9829 -78.9829 -78.9828 -78.9828
   -78.9819 -78.9819 -78.9818 -78.9818 -78.9790 -78.9790 -78.9789 -78.9789
    -8.1517  -8.1517  -7.3129  -7.3129  -7.0140  -7.0140  -6.8591  -6.8591
    -6.8585  -6.8585  -6.7492  -6.7492  -6.7492  -6.7492  -6.6463  -6.6462
    -6.6455  -6.6455  -6.6455  -6.6455  -6.6132  -6.6132  -6.6029  -6.6029
    -6.6029  -6.6029  -6.5496  -6.5496  -6.5175  -6.5175  -6.5175  -6.5175
    -6.4966  -6.4966  -6.4843  -6.4843  -6.4843  -6.4843  -6.4555  -6.4555
    -6.4555  -6.4555  -6.4536  -6.4536  -6.4478  -6.4478  -6.4252  -6.4252
    -6.4114  -6.4113  -6.4113  -6.4113  -6.3026  -6.3026  -6.3012  -6.3012
    -6.2839  -6.2839  -6.2818  -6.2818  -6.2818  -6.2818  -6.2622  -6.2622
    -6.2621  -6.2621  -6.2316  -6.2316  -6.2124  -6.2124  -6.2124  -6.2124
    -6.2028  -6.2028  -6.1954  -6.1954  -6.1691  -6.1691  -6.1334  -6.1334
    -6.0998  -6.0998  -6.0947  -6.0947  -6.0744  -6.0744  -6.0744  -6.0744
    -6.0587  -6.0587  -6.0587  -6.0587  -6.0296  -6.0296  -6.0202  -6.0202
    -6.0195  -6.0195  -6.0122  -6.0122  -6.0095  -6.0095  -5.9819  -5.9819
    -5.9819  -5.9819  -5.9409  -5.9409  -5.9326  -5.9326  -5.9052  -5.9052
    -5.8954  -5.8954  -5.8684  -5.8684  -5.8684  -5.8684  -5.8038  -5.8038
    -5.8038  -5.8038  -5.8035  -5.8035  -5.8001  -5.8001  -5.8001  -5.8001
    -5.7785  -5.7785  -5.7715  -5.7715  -5.7701  -5.7701  -5.7701  -5.7701
    -5.7612  -5.7612  -5.7574  -5.7574  -5.7574  -5.7574  -5.7552  -5.7552
    -5.7466  -5.7466  -5.7466  -5.7466  -5.6640  -5.6640  -5.6625  -5.6625
    -5.6601  -5.6601  -5.6379  -5.6379  -5.6379  -5.6379  -5.6283  -5.6283
    -5.6125  -5.6125  -5.5960  -5.5960  -5.5960  -5.5960  -5.5843  -5.5843
    -5.5601  -5.5601  -5.5365  -5.5365  -5.5224  -5.5224  -5.5224  -5.5224
    -5.5151  -5.5151  -5.5151  -5.5151  -5.5123  -5.5123  -5.5108  -5.5108
    -5.4900  -5.4900  -5.4900  -5.4900  -5.4786  -5.4786  -5.4782  -5.4782
    -5.4777  -5.4777  -5.4669  -5.4669  -5.4548  -5.4548  -5.4548  -5.4548
    -5.4409  -5.4409  -5.4408  -5.4408  -5.4290  -5.4289  -5.4138  -5.4138
    -5.4094  -5.4093  -5.4093  -5.4093  -5.4049  -5.4049  -5.4028  -5.4028
    -5.3993  -5.3993  -5.3955  -5.3955  -5.3912  -5.3912  -5.3607  -5.3607
    -5.3556  -5.3556  -5.3556  -5.3556  -5.3129  -5.3129  -5.3129  -5.3129
    -5.2417  -5.2417  -5.2416  -5.2416  -5.2293  -5.2293  -5.2235  -5.2235
    -5.2235  -5.2235  -5.1880  -5.1880  -5.1854  -5.1854  -4.6945  -4.6945
    -4.4121  -4.4121  -4.4121  -4.4121  -3.7229  -3.7229  -3.1029  -3.1028
    -3.0519  -3.0519  -3.0519  -3.0519  -2.3837  -2.3837  -2.2298  -2.2298
    -1.7531  -1.7531  -1.7531  -1.7531  -0.7472  -0.7472  -0.7472  -0.7472
    -0.3151  -0.3151  -0.3151  -0.3151  -0.0839  -0.0839   0.0213   0.0213
     1.0249   1.0249   1.0555   1.0555   1.3438   1.3438   1.3771   1.3771
     1.3771   1.3771   2.2340   2.2340   2.9058   2.9058   2.9058   2.9058
     3.1077   3.1077   3.1077   3.1077   3.3321   3.3321   3.5603   3.5603
     3.8763   3.8763   3.8763   3.8763   4.0043   4.0043   4.2625   4.2625
     4.4524   4.4524   4.7544   4.7544   4.8632   4.8632   5.4898   5.4898
     5.5259   5.5260   5.7223   5.7223   5.8111   5.8111   5.9360   5.9360
     5.9360   5.9360   5.9915   5.9915   5.9915   5.9915   6.1594   6.1594
     6.1594   6.1594   6.4275   6.4275   6.5697   6.5697   6.6407   6.6407
     6.6621   6.6621   6.8464   6.8464   6.8731   6.8731   7.0182   7.0182
     7.0182   7.0182   7.5847   7.5847   7.7439   7.7439   8.0708   8.0708
     8.0941   8.0941   8.0941   8.0941   8.2859   8.2859   8.4740   8.4740
     8.4740   8.4740   8.6331   8.6331   8.6331   8.6331   8.6669   8.6669
     8.7450   8.7450   8.8117   8.8118   9.0048   9.0048   9.0048   9.0049

     occupation numbers 
     1.0000   1.0000   1.0000   1.0000   1.0000   1.0000   1.0000   1.0000
     1.0000   1.0000   1.0000   1.0000   1.0000   1.0000   1.0000   1.0000
     1.0000   1.0000   1.0000   1.0000   1.0000   1.0000   1.0000   1.0000
     1.0000   1.0000   1.0000   1.0000   1.0000   1.0000   1.0000   1.0000
     1.0000   1.0000   1.0000   1.0000   1.0000   1.0000   1.0000   1.0000
     1.0000   1.0000   1.0000   1.0000   1.0000   1.0000   1.0000   1.0000
     1.0000   1.0000   1.0000   1.0000   1.0000   1.0000   1.0000   1.0000
     1.0000   1.0000   1.0000   1.0000   1.0000   1.0000   1.0000   1.0000
     1.0000   1.0000   1.0000   1.0000   1.0000   1.0000   1.0000   1.0000
     1.0000   1.0000   1.0000   1.0000   1.0000   1.0000   1.0000   1.0000
     1.0000   1.0000   1.0000   1.0000   1.0000   1.0000   1.0000   1.0000
     1.0000   1.0000   1.0000   1.0000   1.0000   1.0000   1.0000   1.0000
     1.0000   1.0000   1.0000   1.0000   1.0000   1.0000   1.0000   1.0000
     1.0000   1.0000   1.0000   1.0000   1.0000   1.0000   1.0000   1.0000
     1.0000   1.0000   1.0000   1.0000   1.0000   1.0000   1.0000   1.0000
     1.0000   1.0000   1.0000   1.0000   1.0000   1.0000   1.0000   1.0000
     1.0000   1.0000   1.0000   1.0000   1.0000   1.0000   1.0000   1.0000
     1.0000   1.0000   1.0000   1.0000   1.0000   1.0000   1.0000   1.0000
     1.0000   1.0000   1.0000   1.0000   1.0000   1.0000   1.0000   1.0000
     1.0000   1.0000   1.0000   1.0000   1.0000   1.0000   1.0000   1.0000
     1.0000   1.0000   1.0000   1.0000   1.0000   1.0000   1.0000   1.0000
     1.0000   1.0000   1.0000   1.0000   1.0000   1.0000   1.0000   1.0000
     1.0000   1.0000   1.0000   1.0000   1.0000   1.0000   1.0000   1.0000
     1.0000   1.0000   1.0000   1.0000   1.0000   1.0000   1.0000   1.0000
     1.0000   1.0000   1.0000   1.0000   1.0000   1.0000   1.0000   1.0000
     1.0000   1.0000   1.0000   1.0000   1.0000   1.0000   1.0000   1.0000
     1.0000   1.0000   1.0000   1.0000   1.0000   1.0000   1.0000   1.0000
     1.0000   1.0000   1.0000   1.0000   1.0000   1.0000   1.0000   1.0000
     1.0000   1.0000   1.0000   1.0000   1.0000   1.0000   1.0000   1.0000
     1.0000   1.0000   1.0000   1.0000   1.0000   1.0000   1.0000   1.0000
     1.0000   1.0000   1.0000   1.0000   1.0000   1.0000   1.0000   1.0000
     1.0000   1.0000   1.0000   1.0000   1.0000   1.0000   1.0000   1.0000
     1.0000   1.0000   1.0000   1.0000   1.0000   1.0000   1.0000   1.0000
     1.0000   1.0000   1.0000   1.0000   1.0000   1.0000   1.0000   1.0000
     1.0000   1.0000   1.0000   1.0000   1.0000   1.0000   1.0000   1.0000
     1.0000   1.0000   1.0000   1.0000   1.0000   1.0000   1.0000   1.0000
     1.0000   1.0000   1.0000   1.0000   1.0000   1.0000   1.0000   1.0000
     1.0000   1.0000   1.0000   1.0000   1.0000   1.0000   1.0000   1.0000
     1.0000   1.0000   1.0000   1.0000   1.0000   1.0000   1.0000   1.0000
     1.0000   1.0000   1.0000   1.0000   1.0000   1.0000   1.0000   1.0000
     1.0000   1.0000   1.0000   1.0000   1.0000   1.0000   1.0000   1.0000
     1.0000   1.0000   1.0000   1.0000   1.0000   1.0000   1.0000   1.0000
     1.0000   1.0000   1.0000   1.0000   1.0000   1.0000   1.0000   1.0000
     1.0000   1.0000   1.0000   1.0000   1.0000   1.0000   1.0000   1.0000
     1.0000   1.0000   1.0000   1.0000   1.0000   1.0000   1.0000   1.0000
     1.0000   1.0000   1.0000   1.0000   1.0000   1.0000   1.0000   1.0000
     1.0000   1.0000   1.0000   1.0000   1.0000   1.0000   1.0000   1.0000
     1.0000   1.0000   1.0000   1.0000   1.0000   1.0000   1.0000   1.0000
     1.0000   1.0000   1.0000   1.0000   1.0000   1.0000   1.0000   1.0000
     1.0000   1.0000   1.0000   1.0000   1.0000   1.0000   1.0000   1.0000
     1.0000   1.0000   1.0000   1.0000   1.0000   1.0000   1.0000   1.0000
     1.0000   1.0000   1.0000   1.0000   1.0000   1.0000   1.0000   1.0000
     1.0000   1.0000   1.0000   1.0000   1.0000   1.0000   1.0000   1.0000
     1.0000   1.0000   1.0000   1.0000   1.0000   1.0000   1.0000   1.0000
     1.0000   1.0000   1.0000   1.0000   1.0000   1.0000   1.0000   1.0000
     1.0000   1.0000   1.0000   1.0000   1.0000   1.0000   1.0000   1.0000
     1.0000   1.0000   1.0000   1.0000   1.0000   1.0000   1.0000   1.0000
     1.0000   1.0000   1.0000   1.0000   1.0000   1.0000   1.0000   1.0000
     1.0000   1.0000   1.0000   1.0000   1.0000   1.0000   1.0001   1.0001
     1.0344   1.0344   1.0110   1.0110   0.5789   0.5789   0.5179   0.5179
     0.5178   0.5178   0.0005   0.0005   0.0000   0.0000   0.0000   0.0000
     0.0000   0.0000   0.0000   0.0000   0.0000   0.0000   0.0000   0.0000
     0.0000   0.0000   0.0000   0.0000   0.0000   0.0000   0.0000   0.0000
     0.0000   0.0000   0.0000   0.0000   0.0000   0.0000   0.0000   0.0000
     0.0000   0.0000   0.0000   0.0000   0.0000   0.0000   0.0000   0.0000
     0.0000   0.0000   0.0000   0.0000   0.0000   0.0000   0.0000   0.0000
     0.0000   0.0000   0.0000   0.0000   0.0000   0.0000   0.0000   0.0000
     0.0000   0.0000   0.0000   0.0000   0.0000   0.0000   0.0000   0.0000
     0.0000   0.0000   0.0000   0.0000   0.0000   0.0000   0.0000   0.0000
     0.0000   0.0000   0.0000   0.0000   0.0000   0.0000   0.0000   0.0000
     0.0000   0.0000   0.0000   0.0000   0.0000   0.0000   0.0000   0.0000
     0.0000   0.0000   0.0000   0.0000   0.0000   0.0000   0.0000   0.0000

     the Fermi energy is     1.4438 ev

!    total energy              =  -22154.25338493 Ry
     estimated scf accuracy    <       0.00000075 Ry
     smearing contrib. (-TS)   =       0.00818396 Ry
     internal energy E=F+TS    =  -22154.26156889 Ry

     The total energy is F=E-TS. E is the sum of the following terms:
     one-electron contribution = -144866.03583598 Ry
     hartree contribution      =   72366.68770826 Ry
     xc contribution           =   -2024.16138486 Ry
     ewald contribution        =   52369.24794370 Ry

     convergence has been achieved in  11 iterations

     Writing all to output data dir ./tmp/Zn002.save/ :
     XML data file, charge density, pseudopotentials, collected wavefunctions

     init_run     :    113.66s CPU    114.44s WALL (       1 calls)
     electrons    :   4871.98s CPU   4906.92s WALL (       1 calls)

     Called by init_run:
     wfcinit      :    112.37s CPU    113.10s WALL (       1 calls)
     wfcinit:atom :      0.06s CPU      0.12s WALL (      10 calls)
     wfcinit:wfcr :    111.25s CPU    111.83s WALL (      10 calls)
     potinit      :      0.07s CPU      0.09s WALL (       1 calls)
     hinit0       :      0.03s CPU      0.03s WALL (       1 calls)

     Called by electrons:
     c_bands      :   4532.46s CPU   4565.13s WALL (      12 calls)
     sum_band     :    328.97s CPU    330.85s WALL (      12 calls)
     v_of_rho     :      0.82s CPU      0.86s WALL (      12 calls)
     v_h          :      0.05s CPU      0.06s WALL (      12 calls)
     v_xc         :      0.76s CPU      0.80s WALL (      12 calls)
     newd         :     10.47s CPU     10.76s WALL (      12 calls)
     mix_rho      :      0.10s CPU      0.11s WALL (      12 calls)

     Called by c_bands:
     init_us_2    :      4.73s CPU      4.74s WALL (     250 calls)
     cegterg      :   4522.90s CPU   4555.46s WALL (     120 calls)

     Called by sum_band:
     sum_band:wei :      0.06s CPU      0.07s WALL (      12 calls)
     sum_band:loo :    318.30s CPU    319.85s WALL (      12 calls)
     sum_band:buf :      0.99s CPU      1.01s WALL (     120 calls)
     sum_band:ini :      2.27s CPU      2.27s WALL (     120 calls)
     sum_band:cal :    270.89s CPU    272.13s WALL (     120 calls)
     sum_band:bec :      2.44s CPU      2.45s WALL (     120 calls)
     addusdens    :     10.48s CPU     10.81s WALL (      12 calls)
                                        0.00s GPU  (      12 calls)
     addusd:skk   :      0.09s CPU      0.11s WALL (      12 calls)
                                        0.00s GPU  (      12 calls)

     Called by *egterg:
     cdiaghg      :    303.34s CPU    315.15s WALL (     681 calls)
     cegterg:over :    703.96s CPU    706.28s WALL (     571 calls)
     cegterg:upda :    316.31s CPU    318.17s WALL (     571 calls)
     cegterg:last :   1040.28s CPU   1046.58s WALL (     230 calls)
     cdiaghg:chol :     19.03s CPU     19.08s WALL (     681 calls)
     cdiaghg:inve :      3.05s CPU      3.06s WALL (     681 calls)
     cdiaghg:para :     77.76s CPU     79.26s WALL (    1362 calls)
     h_psi        :   1441.82s CPU   1448.60s WALL (     701 calls)
     s_psi        :    602.75s CPU    604.18s WALL (     701 calls)
     g_psi        :      0.62s CPU      0.62s WALL (     571 calls)

     Called by h_psi:
     h_psi:calbec :    646.30s CPU    649.24s WALL (     701 calls)
     vloc_psi     :    186.58s CPU    187.98s WALL (     701 calls)
     add_vuspsi   :    607.10s CPU    608.56s WALL (     701 calls)

     General routines
     calbec       :    917.19s CPU    921.36s WALL (     821 calls)
     fft          :      0.46s CPU      0.53s WALL (     154 calls)
     ffts         :      0.02s CPU      0.03s WALL (      24 calls)
     fftw         :    200.09s CPU    201.50s WALL (  398626 calls)
     interpolate  :      0.05s CPU      0.06s WALL (      12 calls)

     Parallel routines

     PWSCF        :      1h23m CPU      1h23m WALL


   This run was terminated on:  16:33:10  26Mar2025            

=------------------------------------------------------------------------------=
   JOB DONE.
=------------------------------------------------------------------------------=
Note: The following floating-point exceptions are signalling: IEEE_DENORMAL
Note: The following floating-point exceptions are signalling: IEEE_DENORMAL
Note: The following floating-point exceptions are signalling: IEEE_DENORMAL
Note: The following floating-point exceptions are signalling: IEEE_DENORMAL
Note: The following floating-point exceptions are signalling: IEEE_DENORMAL
Note: The following floating-point exceptions are signalling: IEEE_DENORMAL
Note: The following floating-point exceptions are signalling: IEEE_DENORMAL
Note: The following floating-point exceptions are signalling: IEEE_DENORMAL
Note: The following floating-point exceptions are signalling: IEEE_DENORMAL
Note: The following floating-point exceptions are signalling: IEEE_DENORMAL
Note: The following floating-point exceptions are signalling: IEEE_DENORMAL
