--------------------------------------------------------------------------
By default, for Open MPI 4.0 and later, infiniband ports on a device
are not used by default.  The intent is to use UCX for these devices.
You can override this policy by setting the btl_openib_allow_ib MCA parameter
to true.

  Local host:              psid06
  Local adapter:           mlx4_0
  Local port:              1

--------------------------------------------------------------------------
--------------------------------------------------------------------------
WARNING: There was an error initializing an OpenFabrics device.

  Local host:   psid06
  Local device: mlx4_0
--------------------------------------------------------------------------

     Program PWSCF v.7.3.1 starts on 26Mar2025 at 20:20:30 

     This program is part of the open-source Quantum ESPRESSO suite
     for quantum simulation of materials; please cite
         "P. Giannozzi et al., J. Phys.:Condens. Matter 21 395502 (2009);
         "P. Giannozzi et al., J. Phys.:Condens. Matter 29 465901 (2017);
         "P. Giannozzi et al., J. Chem. Phys. 152 154105 (2020);
          URL http://www.quantum-espresso.org", 
     in publications or presentations arising from this work. More details at
     http://www.quantum-espresso.org/quote

     Parallel version (MPI), running on    33 processors

     MPI processes distributed on     1 nodes
     122013 MiB available memory on the printing compute node when the environment starts

     Waiting for input...
     Reading input from standard input

     Current dimensions of program PWSCF are:
     Max number of different atomic species (ntypx) = 10
     Max number of k-points (npk) =  40000
     Max angular momentum in pseudopotentials (lmaxx) =  4
     Found identity + ( -0.5000  0.0000  0.0000) symmetry
     This is a supercell, fractional translations are disabled

     R & G space division:  proc/nbgrp/npool/nimage =      33
     Subspace diagonalization in iterative solution of the eigenvalue problem:
     one sub-group per band group will be used
     custom distributed-memory algorithm (size of sub-group:  5*  5 procs)


     Parallelization info
     --------------------
     sticks:   dense  smooth     PW     G-vecs:    dense   smooth      PW
     Min         228     130     36                36393    15714    2270
     Max         230     131     37                36401    15723    2280
     Sum        7555    4303   1189              1201061   518755   75035

     Using Slab Decomposition



     bravais-lattice index     =            0
     lattice parameter (alat)  =      19.7617  a.u.
     unit-cell volume          =   15176.5939 (a.u.)^3
     number of atoms/cell      =           48
     number of atomic types    =            1
     number of electrons       =       960.00
     number of Kohn-Sham states=          576
     kinetic-energy cutoff     =      40.0000  Ry
     charge density cutoff     =     280.0000  Ry
     scf convergence threshold =      5.0E-09
     mixing beta               =       0.4000
     number of iterations used =            8  plain     mixing
     Exchange-correlation= SLA  PW   PBE  PBE
                           (   1   4   3   4   0   0   0)

     celldm(1)=  19.761696  celldm(2)=   0.000000  celldm(3)=   0.000000
     celldm(4)=   0.000000  celldm(5)=   0.000000  celldm(6)=   0.000000

     crystal axes: (cart. coord. in units of alat)
               a(1) = (   1.000000   0.000000   0.000000 )  
               a(2) = (  -0.500000   0.866025   0.000000 )  
               a(3) = (   0.000000   0.000000   2.270759 )  

     reciprocal axes: (cart. coord. in units 2 pi/alat)
               b(1) = (  1.000000  0.577350 -0.000000 )  
               b(2) = (  0.000000  1.154701  0.000000 )  
               b(3) = (  0.000000 -0.000000  0.440381 )  


     PseudoPot. # 1 for Zn read from file:
     /home/ys/qepseudo/SSSP_1.3.0_PBE_efficiency/Zn_pbe_v1.uspp.F.UPF
     MD5 check sum: df62231357ef9e81f77b2b3087fa5675
     Pseudo is Ultrasoft, Zval = 20.0
     Generated by new atomic code, or converted to UPF format
     Using radial grid of  943 points,  6 beta functions with: 
                l(1) =   0
                l(2) =   0
                l(3) =   1
                l(4) =   1
                l(5) =   2
                l(6) =   2
     Q(r) pseudized with  8 coefficients,  rinner =    1.100   1.100   1.100
                                                       1.100   1.100

     atomic species   valence    mass     pseudopotential
     Zn               20.00    65.38000     Zn( 1.00)

     No symmetry found


                                    s                        frac. trans.

      isym =  1     identity                                     

 cryst.   s( 1) = (     1          0          0      )
                  (     0          1          0      )
                  (     0          0          1      )

 cart.    s( 1) = (  1.0000000  0.0000000  0.0000000 )
                  (  0.0000000  1.0000000  0.0000000 )
                  (  0.0000000  0.0000000  1.0000000 )


   Cartesian axes

     site n.     atom                  positions (alat units)
         1        Zn     tau(   1) = (   0.0000000   0.1443375   0.1164998  )
         2        Zn     tau(   2) = (   0.5000000   0.1443375   0.1164998  )
         3        Zn     tau(   3) = (   0.0000000   0.1443375   0.5824993  )
         4        Zn     tau(   4) = (   0.5000000   0.1443375   0.5824993  )
         5        Zn     tau(   5) = (  -0.1250000   0.3608439   0.1164998  )
         6        Zn     tau(   6) = (   0.3750000   0.3608439   0.1164998  )
         7        Zn     tau(   7) = (  -0.1250000   0.3608439   0.5824993  )
         8        Zn     tau(   8) = (   0.3750000   0.3608439   0.5824993  )
         9        Zn     tau(   9) = (  -0.2500000   0.5773502   0.1164998  )
        10        Zn     tau(  10) = (   0.2500000   0.5773502   0.1164998  )
        11        Zn     tau(  11) = (  -0.2500000   0.5773502   0.5824993  )
        12        Zn     tau(  12) = (   0.2500000   0.5773502   0.5824993  )
        13        Zn     tau(  13) = (  -0.3750000   0.7938567   0.1164998  )
        14        Zn     tau(  14) = (   0.1250000   0.7938567   0.1164998  )
        15        Zn     tau(  15) = (  -0.3750000   0.7938567   0.5824993  )
        16        Zn     tau(  16) = (   0.1250000   0.7938567   0.5824993  )
        17        Zn     tau(  17) = (   0.2500000   0.1443375   0.1164998  )
        18        Zn     tau(  18) = (   0.7500000   0.1443375   0.1164998  )
        19        Zn     tau(  19) = (   0.2500000   0.1443375   0.5824993  )
        20        Zn     tau(  20) = (   0.7500000   0.1443375   0.5824993  )
        21        Zn     tau(  21) = (   0.1250000   0.3608439   0.1164998  )
        22        Zn     tau(  22) = (   0.6250000   0.3608439   0.1164998  )
        23        Zn     tau(  23) = (   0.1250000   0.3608439   0.5824993  )
        24        Zn     tau(  24) = (   0.6250000   0.3608439   0.5824993  )
        25        Zn     tau(  25) = (   0.0000000   0.5773502   0.1164998  )
        26        Zn     tau(  26) = (   0.5000000   0.5773502   0.1164998  )
        27        Zn     tau(  27) = (   0.0000000   0.5773502   0.5824993  )
        28        Zn     tau(  28) = (   0.5000000   0.5773502   0.5824993  )
        29        Zn     tau(  29) = (  -0.1250000   0.7938567   0.1164998  )
        30        Zn     tau(  30) = (   0.3750000   0.7938567   0.1164998  )
        31        Zn     tau(  31) = (  -0.1250000   0.7938567   0.5824993  )
        32        Zn     tau(  32) = (   0.3750000   0.7938567   0.5824993  )
        33        Zn     tau(  33) = (   0.1250000   0.0721688   0.3494996  )
        34        Zn     tau(  34) = (   0.6250000   0.0721688   0.3494996  )
        35        Zn     tau(  35) = (   0.0000000   0.2886752   0.3494996  )
        36        Zn     tau(  36) = (   0.5000000   0.2886752   0.3494996  )
        37        Zn     tau(  37) = (  -0.1250000   0.5051815   0.3494996  )
        38        Zn     tau(  38) = (   0.3750000   0.5051815   0.3494996  )
        39        Zn     tau(  39) = (  -0.2500000   0.7216879   0.3494996  )
        40        Zn     tau(  40) = (   0.2500000   0.7216879   0.3494996  )
        41        Zn     tau(  41) = (   0.3750000   0.0721688   0.3494996  )
        42        Zn     tau(  42) = (   0.8750000   0.0721688   0.3494996  )
        43        Zn     tau(  43) = (   0.2500000   0.2886752   0.3494996  )
        44        Zn     tau(  44) = (   0.7500000   0.2886752   0.3494996  )
        45        Zn     tau(  45) = (   0.1250000   0.5051815   0.3494996  )
        46        Zn     tau(  46) = (   0.6250000   0.5051815   0.3494996  )
        47        Zn     tau(  47) = (   0.0000000   0.7216879   0.3494996  )
        48        Zn     tau(  48) = (   0.5000000   0.7216879   0.3494996  )

   Crystallographic axes

     site n.     atom                  positions (cryst. coord.)
         1        Zn     tau(   1) = (  0.0833333  0.1666666  0.0513044  )
         2        Zn     tau(   2) = (  0.5833333  0.1666666  0.0513044  )
         3        Zn     tau(   3) = (  0.0833333  0.1666666  0.2565219  )
         4        Zn     tau(   4) = (  0.5833333  0.1666666  0.2565219  )
         5        Zn     tau(   5) = (  0.0833333  0.4166666  0.0513044  )
         6        Zn     tau(   6) = (  0.5833333  0.4166666  0.0513044  )
         7        Zn     tau(   7) = (  0.0833333  0.4166666  0.2565219  )
         8        Zn     tau(   8) = (  0.5833333  0.4166666  0.2565219  )
         9        Zn     tau(   9) = (  0.0833333  0.6666666  0.0513044  )
        10        Zn     tau(  10) = (  0.5833333  0.6666666  0.0513044  )
        11        Zn     tau(  11) = (  0.0833333  0.6666666  0.2565219  )
        12        Zn     tau(  12) = (  0.5833333  0.6666666  0.2565219  )
        13        Zn     tau(  13) = (  0.0833333  0.9166667  0.0513044  )
        14        Zn     tau(  14) = (  0.5833334  0.9166667  0.0513044  )
        15        Zn     tau(  15) = (  0.0833333  0.9166667  0.2565219  )
        16        Zn     tau(  16) = (  0.5833334  0.9166667  0.2565219  )
        17        Zn     tau(  17) = (  0.3333333  0.1666666  0.0513044  )
        18        Zn     tau(  18) = (  0.8333334  0.1666666  0.0513044  )
        19        Zn     tau(  19) = (  0.3333333  0.1666666  0.2565219  )
        20        Zn     tau(  20) = (  0.8333334  0.1666666  0.2565219  )
        21        Zn     tau(  21) = (  0.3333333  0.4166666  0.0513044  )
        22        Zn     tau(  22) = (  0.8333333  0.4166666  0.0513044  )
        23        Zn     tau(  23) = (  0.3333333  0.4166666  0.2565219  )
        24        Zn     tau(  24) = (  0.8333333  0.4166666  0.2565219  )
        25        Zn     tau(  25) = (  0.3333333  0.6666666  0.0513044  )
        26        Zn     tau(  26) = (  0.8333333  0.6666666  0.0513044  )
        27        Zn     tau(  27) = (  0.3333333  0.6666666  0.2565219  )
        28        Zn     tau(  28) = (  0.8333333  0.6666666  0.2565219  )
        29        Zn     tau(  29) = (  0.3333334  0.9166667  0.0513044  )
        30        Zn     tau(  30) = (  0.8333334  0.9166667  0.0513044  )
        31        Zn     tau(  31) = (  0.3333334  0.9166667  0.2565219  )
        32        Zn     tau(  32) = (  0.8333334  0.9166667  0.2565219  )
        33        Zn     tau(  33) = (  0.1666667  0.0833334  0.1539131  )
        34        Zn     tau(  34) = (  0.6666667  0.0833334  0.1539131  )
        35        Zn     tau(  35) = (  0.1666667  0.3333334  0.1539131  )
        36        Zn     tau(  36) = (  0.6666667  0.3333334  0.1539131  )
        37        Zn     tau(  37) = (  0.1666667  0.5833334  0.1539131  )
        38        Zn     tau(  38) = (  0.6666667  0.5833334  0.1539131  )
        39        Zn     tau(  39) = (  0.1666667  0.8333334  0.1539131  )
        40        Zn     tau(  40) = (  0.6666667  0.8333334  0.1539131  )
        41        Zn     tau(  41) = (  0.4166667  0.0833334  0.1539131  )
        42        Zn     tau(  42) = (  0.9166667  0.0833334  0.1539131  )
        43        Zn     tau(  43) = (  0.4166667  0.3333334  0.1539131  )
        44        Zn     tau(  44) = (  0.9166667  0.3333334  0.1539131  )
        45        Zn     tau(  45) = (  0.4166667  0.5833334  0.1539131  )
        46        Zn     tau(  46) = (  0.9166667  0.5833334  0.1539131  )
        47        Zn     tau(  47) = (  0.4166667  0.8333334  0.1539131  )
        48        Zn     tau(  48) = (  0.9166667  0.8333334  0.1539131  )

     number of k points=    10  Marzari-Vanderbilt smearing, width (Ry)=  0.0200
                       cart. coord. in units 2pi/alat
        k(    1) = (   0.0000000   0.0000000   0.0000000), wk =   0.1250000
        k(    2) = (   0.0000000   0.2886751   0.0000000), wk =   0.2500000
        k(    3) = (   0.0000000  -0.5773503   0.0000000), wk =   0.1250000
        k(    4) = (   0.2500000   0.1443376   0.0000000), wk =   0.2500000
        k(    5) = (   0.2500000   0.4330127   0.0000000), wk =   0.2500000
        k(    6) = (   0.2500000  -0.4330127   0.0000000), wk =   0.2500000
        k(    7) = (   0.2500000  -0.1443376   0.0000000), wk =   0.2500000
        k(    8) = (  -0.5000000  -0.2886751   0.0000000), wk =   0.1250000
        k(    9) = (  -0.5000000   0.0000000   0.0000000), wk =   0.2500000
        k(   10) = (  -0.5000000  -0.8660254   0.0000000), wk =   0.1250000

                       cryst. coord.
        k(    1) = (   0.0000000   0.0000000   0.0000000), wk =   0.1250000
        k(    2) = (   0.0000000   0.2500000   0.0000000), wk =   0.2500000
        k(    3) = (   0.0000000  -0.5000000   0.0000000), wk =   0.1250000
        k(    4) = (   0.2500000   0.0000000   0.0000000), wk =   0.2500000
        k(    5) = (   0.2500000   0.2500000   0.0000000), wk =   0.2500000
        k(    6) = (   0.2500000  -0.5000000   0.0000000), wk =   0.2500000
        k(    7) = (   0.2500000  -0.2500000   0.0000000), wk =   0.2500000
        k(    8) = (  -0.5000000   0.0000000   0.0000000), wk =   0.1250000
        k(    9) = (  -0.5000000   0.2500000   0.0000000), wk =   0.2500000
        k(   10) = (  -0.5000000  -0.5000000   0.0000000), wk =   0.1250000

     Dense  grid:  1201061 G-vectors     FFT dimensions: ( 108, 108, 240)

     Smooth grid:   518755 G-vectors     FFT dimensions: (  80,  80, 192)

     Dynamical RAM for                 wfc:      17.26 MB

     Dynamical RAM for     wfc (w. buffer):     189.88 MB

     Dynamical RAM for           str. fact:       0.56 MB

     Dynamical RAM for           local pot:       0.00 MB

     Dynamical RAM for          nlocal pot:      25.89 MB

     Dynamical RAM for                qrad:       1.34 MB

     Dynamical RAM for          rho,v,vnew:       3.80 MB

     Dynamical RAM for               rhoin:       1.27 MB

     Dynamical RAM for            rho*nmix:       8.89 MB

     Dynamical RAM for           G-vectors:       2.20 MB

     Dynamical RAM for          h,s,v(r/c):       2.42 MB

     Dynamical RAM for          <psi|beta>:       7.59 MB

     Dynamical RAM for                 psi:      34.52 MB

     Dynamical RAM for                hpsi:      34.52 MB

     Dynamical RAM for                spsi:      34.52 MB

     Dynamical RAM for      wfcinit/wfcrot:      46.32 MB

     Dynamical RAM for           addusdens:     129.95 MB

     Estimated static dynamical RAM per process >     229.61 MB

     Estimated max dynamical RAM per process >     368.45 MB

     Estimated total dynamical RAM >      11.87 GB

     Initial potential from superposition of free atoms

     starting charge     959.9932, renormalised to     960.0000

     negative rho (up, down):  4.194E-03 0.000E+00
     Starting wfcs are  624 randomized atomic wfcs
[psid06:157201] 32 more processes have sent help message help-mpi-btl-openib.txt / ib port not selected
[psid06:157201] Set MCA parameter "orte_base_help_aggregate" to 0 to see all help / error messages
[psid06:157201] 32 more processes have sent help message help-mpi-btl-openib.txt / error in device init

     total cpu time spent up to now is      113.1 secs

     Self-consistent Calculation

     iteration #  1     ecut=    40.00 Ry     beta= 0.40
     Davidson diagonalization with overlap

---- Real-time Memory Report at c_bands before calling an iterative solver
           299 MiB given to the printing process from OS
             0 MiB allocation reported by mallinfo(arena+hblkhd)
        114002 MiB available memory on the node where the printing process lives
------------------
     ethr =  1.00E-02,  avg # of iterations =  9.4

     Threshold (ethr) on eigenvalues was too large:
     Diagonalizing with lowered threshold

     Davidson diagonalization with overlap

---- Real-time Memory Report at c_bands before calling an iterative solver
           392 MiB given to the printing process from OS
             0 MiB allocation reported by mallinfo(arena+hblkhd)
        112863 MiB available memory on the node where the printing process lives
------------------
     ethr =  1.61E-04,  avg # of iterations = 11.2

     negative rho (up, down):  4.980E-03 0.000E+00

     total cpu time spent up to now is      992.4 secs

     total energy              =  -22153.85661463 Ry
     estimated scf accuracy    <       1.57417206 Ry

     iteration #  2     ecut=    40.00 Ry     beta= 0.40
     Davidson diagonalization with overlap

---- Real-time Memory Report at c_bands before calling an iterative solver
           402 MiB given to the printing process from OS
             0 MiB allocation reported by mallinfo(arena+hblkhd)
        112756 MiB available memory on the node where the printing process lives
------------------
     ethr =  1.64E-04,  avg # of iterations =  2.6

     negative rho (up, down):  5.513E-03 0.000E+00

     total cpu time spent up to now is     1421.3 secs

     total energy              =  -22154.23559656 Ry
     estimated scf accuracy    <       0.27638786 Ry

     iteration #  3     ecut=    40.00 Ry     beta= 0.40
     Davidson diagonalization with overlap

---- Real-time Memory Report at c_bands before calling an iterative solver
           405 MiB given to the printing process from OS
             0 MiB allocation reported by mallinfo(arena+hblkhd)
        112730 MiB available memory on the node where the printing process lives
------------------
     c_bands:  1 eigenvalues not converged
     ethr =  2.88E-05,  avg # of iterations =  8.3

     negative rho (up, down):  5.934E-03 0.000E+00

     total cpu time spent up to now is     1810.8 secs

     total energy              =  -22154.25252774 Ry
     estimated scf accuracy    <       0.04708202 Ry

     iteration #  4     ecut=    40.00 Ry     beta= 0.40
     Davidson diagonalization with overlap

---- Real-time Memory Report at c_bands before calling an iterative solver
           405 MiB given to the printing process from OS
             0 MiB allocation reported by mallinfo(arena+hblkhd)
        112715 MiB available memory on the node where the printing process lives
------------------
     ethr =  4.90E-06,  avg # of iterations =  9.0

     negative rho (up, down):  5.968E-03 0.000E+00

     total cpu time spent up to now is     2214.5 secs

     total energy              =  -22154.25387490 Ry
     estimated scf accuracy    <       0.01465593 Ry

     iteration #  5     ecut=    40.00 Ry     beta= 0.40
     Davidson diagonalization with overlap

---- Real-time Memory Report at c_bands before calling an iterative solver
           406 MiB given to the printing process from OS
             0 MiB allocation reported by mallinfo(arena+hblkhd)
        112696 MiB available memory on the node where the printing process lives
------------------
     ethr =  1.53E-06,  avg # of iterations =  5.5

     negative rho (up, down):  6.011E-03 0.000E+00

     total cpu time spent up to now is     2599.8 secs

     total energy              =  -22154.25490911 Ry
     estimated scf accuracy    <       0.00217902 Ry

     iteration #  6     ecut=    40.00 Ry     beta= 0.40
     Davidson diagonalization with overlap

---- Real-time Memory Report at c_bands before calling an iterative solver
           406 MiB given to the printing process from OS
             0 MiB allocation reported by mallinfo(arena+hblkhd)
        112677 MiB available memory on the node where the printing process lives
------------------
     ethr =  2.27E-07,  avg # of iterations =  2.0

     negative rho (up, down):  6.041E-03 0.000E+00

     total cpu time spent up to now is     3016.3 secs

     total energy              =  -22154.25531891 Ry
     estimated scf accuracy    <       0.00007602 Ry

     iteration #  7     ecut=    40.00 Ry     beta= 0.40
     Davidson diagonalization with overlap

---- Real-time Memory Report at c_bands before calling an iterative solver
           407 MiB given to the printing process from OS
             0 MiB allocation reported by mallinfo(arena+hblkhd)
        112659 MiB available memory on the node where the printing process lives
------------------
     ethr =  7.92E-09,  avg # of iterations =  2.0

     negative rho (up, down):  6.064E-03 0.000E+00

     total cpu time spent up to now is     3450.8 secs

     total energy              =  -22154.25530172 Ry
     estimated scf accuracy    <       0.00075733 Ry

     iteration #  8     ecut=    40.00 Ry     beta= 0.40
     Davidson diagonalization with overlap

---- Real-time Memory Report at c_bands before calling an iterative solver
           407 MiB given to the printing process from OS
             0 MiB allocation reported by mallinfo(arena+hblkhd)
        112640 MiB available memory on the node where the printing process lives
------------------
     ethr =  7.92E-09,  avg # of iterations =  2.0

     negative rho (up, down):  6.080E-03 0.000E+00

     total cpu time spent up to now is     3812.0 secs

     total energy              =  -22154.25531504 Ry
     estimated scf accuracy    <       0.00005740 Ry

     iteration #  9     ecut=    40.00 Ry     beta= 0.40
     Davidson diagonalization with overlap

---- Real-time Memory Report at c_bands before calling an iterative solver
           408 MiB given to the printing process from OS
             0 MiB allocation reported by mallinfo(arena+hblkhd)
        112624 MiB available memory on the node where the printing process lives
------------------
     ethr =  5.98E-09,  avg # of iterations =  2.3

     negative rho (up, down):  6.091E-03 0.000E+00

     total cpu time spent up to now is     4266.7 secs

     total energy              =  -22154.25533144 Ry
     estimated scf accuracy    <       0.00001622 Ry

     iteration # 10     ecut=    40.00 Ry     beta= 0.40
     Davidson diagonalization with overlap

---- Real-time Memory Report at c_bands before calling an iterative solver
           408 MiB given to the printing process from OS
             0 MiB allocation reported by mallinfo(arena+hblkhd)
        112604 MiB available memory on the node where the printing process lives
------------------
     ethr =  1.69E-09,  avg # of iterations =  2.0

     negative rho (up, down):  6.098E-03 0.000E+00

     total cpu time spent up to now is     4693.5 secs

     total energy              =  -22154.25533558 Ry
     estimated scf accuracy    <       0.00000079 Ry

     iteration # 11     ecut=    40.00 Ry     beta= 0.40
     Davidson diagonalization with overlap

---- Real-time Memory Report at c_bands before calling an iterative solver
           409 MiB given to the printing process from OS
             0 MiB allocation reported by mallinfo(arena+hblkhd)
        112603 MiB available memory on the node where the printing process lives
------------------
     ethr =  8.26E-11,  avg # of iterations =  2.0

     negative rho (up, down):  6.103E-03 0.000E+00

     total cpu time spent up to now is     5055.4 secs

     total energy              =  -22154.25533535 Ry
     estimated scf accuracy    <       0.00000071 Ry

     iteration # 12     ecut=    40.00 Ry     beta= 0.40
     Davidson diagonalization with overlap

---- Real-time Memory Report at c_bands before calling an iterative solver
           409 MiB given to the printing process from OS
             0 MiB allocation reported by mallinfo(arena+hblkhd)
        112604 MiB available memory on the node where the printing process lives
------------------
     ethr =  7.39E-11,  avg # of iterations =  2.0

     negative rho (up, down):  6.105E-03 0.000E+00

     total cpu time spent up to now is     5479.6 secs

     total energy              =  -22154.25533549 Ry
     estimated scf accuracy    <          6.4E-09 Ry

     iteration # 13     ecut=    40.00 Ry     beta= 0.40
     Davidson diagonalization with overlap

---- Real-time Memory Report at c_bands before calling an iterative solver
           409 MiB given to the printing process from OS
             0 MiB allocation reported by mallinfo(arena+hblkhd)
        112602 MiB available memory on the node where the printing process lives
------------------
     ethr =  6.64E-13,  avg # of iterations =  3.0

     negative rho (up, down):  6.110E-03 0.000E+00

     total cpu time spent up to now is     5915.6 secs

     End of self-consistent calculation

          k = 0.0000 0.0000 0.0000 ( 64855 PWs)   bands (ev):

  -125.0667-125.0650-125.0650-125.0650-125.0650-125.0650-125.0650-125.0633
  -125.0633-125.0633-125.0633-125.0633-125.0633-125.0633-125.0633-125.0633
  -124.8625-124.8625-124.8608-124.8608-124.8608-124.8608-124.8608-124.8608
  -124.8608-124.8608-124.8608-124.8608-124.8608-124.8608-124.8591-124.8591
  -124.8591-124.8591-124.8591-124.8591-124.8591-124.8591-124.8590-124.8590
  -124.8590-124.8590-124.8590-124.8590-124.8590-124.8590-124.8590-124.8590
   -79.2333 -79.2333 -79.2333 -79.2266 -79.2266 -79.2266 -79.2266 -79.2266
   -79.2266 -79.2153 -79.2153 -79.2153 -79.2153 -79.2153 -79.2153 -79.2151
   -79.2133 -79.2132 -79.2132 -79.2132 -79.2132 -79.2132 -79.2131 -79.2131
   -79.2131 -79.2131 -79.2131 -79.2131 -79.2111 -79.2111 -79.2111 -79.2111
   -79.2111 -79.2111 -79.2111 -79.2111 -79.2111 -79.2066 -79.2066 -79.2066
   -79.2019 -79.2019 -79.2019 -79.2019 -79.2019 -79.2019 -79.1972 -79.1972
   -79.0257 -79.0257 -79.0257 -79.0257 -79.0257 -79.0257 -79.0192 -79.0191
   -79.0191 -79.0191 -79.0191 -79.0191 -79.0191 -79.0191 -79.0191 -79.0191
   -79.0191 -79.0191 -79.0191 -79.0190 -79.0172 -79.0172 -79.0172 -79.0172
   -79.0172 -79.0172 -79.0172 -79.0172 -79.0172 -79.0171 -79.0171 -79.0171
   -79.0154 -79.0153 -79.0153 -79.0153 -79.0153 -79.0153 -79.0153 -79.0153
   -79.0153 -79.0153 -79.0153 -79.0153 -79.0153 -79.0153 -79.0153 -79.0153
   -79.0152 -79.0152 -79.0078 -79.0078 -79.0078 -79.0078 -79.0078 -79.0078
   -79.0078 -79.0077 -79.0077 -79.0077 -79.0077 -79.0077 -79.0058 -79.0058
   -79.0058 -79.0058 -79.0057 -79.0057 -79.0057 -79.0057 -79.0057 -79.0057
   -79.0057 -79.0057 -78.9992 -78.9992 -78.9992 -78.9992 -78.9992 -78.9992
   -78.9944 -78.9944 -78.9944 -78.9944 -78.9944 -78.9944 -78.9944 -78.9944
   -78.9944 -78.9944 -78.9944 -78.9944 -78.9897 -78.9897 -78.9897 -78.9897
    -8.6225  -7.4000  -7.0915  -7.0684  -7.0684  -7.0684  -7.0684  -7.0684
    -7.0684  -6.9141  -6.9141  -6.9141  -6.7251  -6.7251  -6.7251  -6.6775
    -6.6775  -6.6775  -6.5884  -6.5884  -6.5884  -6.5884  -6.5884  -6.5884
    -6.5395  -6.5395  -6.5395  -6.5395  -6.5395  -6.5395  -6.5359  -6.5359
    -6.5359  -6.4784  -6.4784  -6.4784  -6.4784  -6.4784  -6.4784  -6.4317
    -6.4317  -6.4317  -6.4317  -6.4317  -6.4317  -6.3343  -6.3343  -6.3343
    -6.3343  -6.3343  -6.3343  -6.3328  -6.3328  -6.3328  -6.2728  -6.2728
    -6.2728  -6.2728  -6.2728  -6.2728  -6.2693  -6.2108  -6.2108  -6.2108
    -6.2108  -6.2108  -6.2108  -6.1711  -6.1711  -6.1711  -6.1711  -6.1711
    -6.1711  -6.1454  -6.1454  -6.1454  -6.1454  -6.1454  -6.1454  -6.1218
    -6.1218  -6.1218  -6.1218  -6.1218  -6.1218  -6.1218  -6.1218  -6.0969
    -6.0969  -6.0969  -6.0959  -6.0959  -6.0959  -6.0959  -6.0959  -6.0959
    -5.9937  -5.9937  -5.9937  -5.9937  -5.9937  -5.9937  -5.9160  -5.9160
    -5.8972  -5.8972  -5.8648  -5.8648  -5.8648  -5.8648  -5.8648  -5.8648
    -5.8628  -5.8628  -5.8628  -5.8628  -5.8628  -5.8628  -5.8315  -5.8315
    -5.8315  -5.7823  -5.7823  -5.7823  -5.7823  -5.7823  -5.7823  -5.7758
    -5.7758  -5.7758  -5.7758  -5.7758  -5.7758  -5.7755  -5.7755  -5.7755
    -5.7755  -5.7755  -5.7755  -5.7537  -5.7537  -5.7537  -5.7537  -5.7537
    -5.7537  -5.7444  -5.7444  -5.7444  -5.7444  -5.7444  -5.7444  -5.7276
    -5.7276  -5.7276  -5.7276  -5.7276  -5.7276  -5.7153  -5.7084  -5.7084
    -5.7084  -5.7084  -5.7084  -5.7084  -5.6963  -5.6963  -5.6963  -5.6100
    -5.6100  -5.5747  -5.5747  -5.5747  -5.5747  -5.5747  -5.5747  -5.5681
    -5.5681  -5.5681  -5.5681  -5.5681  -5.5681  -5.5452  -5.5452  -5.5452
    -5.5452  -5.5452  -5.5452  -5.5287  -5.5287  -5.5287  -5.5020  -5.5020
    -5.5020  -5.5020  -5.5020  -5.5020  -5.4933  -5.4933  -5.4933  -5.4933
    -5.4933  -5.4933  -5.4451  -5.4451  -5.4451  -5.4451  -5.4451  -5.4451
    -5.4330  -5.4330  -5.4330  -5.4326  -5.4326  -5.4326  -5.3964  -5.3964
    -5.3964  -5.3903  -5.3903  -5.3903  -5.3903  -5.3903  -5.3903  -5.3827
    -5.3827  -5.3614  -5.3614  -5.3189  -5.3189  -5.3189  -5.3189  -5.3189
    -5.3189  -5.2895  -5.2895  -5.2895  -5.2895  -5.2895  -5.2895  -5.2806
    -5.2806  -5.2806  -5.0709  -5.0709  -5.0709  -5.0708  -5.0708  -5.0708
    -4.3974  -4.3974  -4.3974  -4.3974  -4.3974  -4.3974  -3.4500  -2.1036
    -2.1036  -2.1036  -2.1036  -2.1036  -2.1036  -2.0201  -2.0201  -2.0201
    -2.0201  -2.0201  -2.0201  -0.8427  -0.8427  -0.8427  -0.7124  -0.6401
    -0.6401  -0.6401  -0.6401  -0.6401  -0.6401  -0.0846  -0.0846  -0.0846
     0.2449   0.2449   0.2449   1.5362   1.5362   1.5362   1.5362   1.5362
     1.5362   1.5806   1.5806   1.5806   1.5806   1.5806   1.5806   2.3091
     2.3091   2.3091   3.1078   3.3011   3.3011   3.3011   4.1414   4.1414
     4.1414   4.8834   4.8834   4.8834   4.8834   4.8834   4.8834   5.0742
     5.2652   5.4271   5.4271   5.4271   5.4271   5.4271   5.4271   5.4346
     5.4346   5.4346   5.4346   5.4346   5.4346   5.6051   5.6051   5.6051
     5.6051   5.6051   5.6051   6.1992   6.3976   6.5622   6.5622   6.5622
     6.8728   6.8728   6.8728   6.8728   6.8728   6.8728   7.0107   7.0107
     7.0107   7.0107   7.0107   7.0107   7.1012   7.1012   7.1012   7.1012
     7.1012   7.1012   7.1887   7.1887   7.1887   7.1887   7.1887   7.1887
     8.0381   8.0381   8.0381   8.0381   8.0381   8.0381   8.1448   8.1448
     8.1448   8.1448   8.1448   8.1448   8.1851   8.1851   8.1851   8.1851
     8.1851   8.1851   8.2063   8.3654   8.3757   8.3757   8.3757   9.2830

     occupation numbers 
     1.0000   1.0000   1.0000   1.0000   1.0000   1.0000   1.0000   1.0000
     1.0000   1.0000   1.0000   1.0000   1.0000   1.0000   1.0000   1.0000
     1.0000   1.0000   1.0000   1.0000   1.0000   1.0000   1.0000   1.0000
     1.0000   1.0000   1.0000   1.0000   1.0000   1.0000   1.0000   1.0000
     1.0000   1.0000   1.0000   1.0000   1.0000   1.0000   1.0000   1.0000
     1.0000   1.0000   1.0000   1.0000   1.0000   1.0000   1.0000   1.0000
     1.0000   1.0000   1.0000   1.0000   1.0000   1.0000   1.0000   1.0000
     1.0000   1.0000   1.0000   1.0000   1.0000   1.0000   1.0000   1.0000
     1.0000   1.0000   1.0000   1.0000   1.0000   1.0000   1.0000   1.0000
     1.0000   1.0000   1.0000   1.0000   1.0000   1.0000   1.0000   1.0000
     1.0000   1.0000   1.0000   1.0000   1.0000   1.0000   1.0000   1.0000
     1.0000   1.0000   1.0000   1.0000   1.0000   1.0000   1.0000   1.0000
     1.0000   1.0000   1.0000   1.0000   1.0000   1.0000   1.0000   1.0000
     1.0000   1.0000   1.0000   1.0000   1.0000   1.0000   1.0000   1.0000
     1.0000   1.0000   1.0000   1.0000   1.0000   1.0000   1.0000   1.0000
     1.0000   1.0000   1.0000   1.0000   1.0000   1.0000   1.0000   1.0000
     1.0000   1.0000   1.0000   1.0000   1.0000   1.0000   1.0000   1.0000
     1.0000   1.0000   1.0000   1.0000   1.0000   1.0000   1.0000   1.0000
     1.0000   1.0000   1.0000   1.0000   1.0000   1.0000   1.0000   1.0000
     1.0000   1.0000   1.0000   1.0000   1.0000   1.0000   1.0000   1.0000
     1.0000   1.0000   1.0000   1.0000   1.0000   1.0000   1.0000   1.0000
     1.0000   1.0000   1.0000   1.0000   1.0000   1.0000   1.0000   1.0000
     1.0000   1.0000   1.0000   1.0000   1.0000   1.0000   1.0000   1.0000
     1.0000   1.0000   1.0000   1.0000   1.0000   1.0000   1.0000   1.0000
     1.0000   1.0000   1.0000   1.0000   1.0000   1.0000   1.0000   1.0000
     1.0000   1.0000   1.0000   1.0000   1.0000   1.0000   1.0000   1.0000
     1.0000   1.0000   1.0000   1.0000   1.0000   1.0000   1.0000   1.0000
     1.0000   1.0000   1.0000   1.0000   1.0000   1.0000   1.0000   1.0000
     1.0000   1.0000   1.0000   1.0000   1.0000   1.0000   1.0000   1.0000
     1.0000   1.0000   1.0000   1.0000   1.0000   1.0000   1.0000   1.0000
     1.0000   1.0000   1.0000   1.0000   1.0000   1.0000   1.0000   1.0000
     1.0000   1.0000   1.0000   1.0000   1.0000   1.0000   1.0000   1.0000
     1.0000   1.0000   1.0000   1.0000   1.0000   1.0000   1.0000   1.0000
     1.0000   1.0000   1.0000   1.0000   1.0000   1.0000   1.0000   1.0000
     1.0000   1.0000   1.0000   1.0000   1.0000   1.0000   1.0000   1.0000
     1.0000   1.0000   1.0000   1.0000   1.0000   1.0000   1.0000   1.0000
     1.0000   1.0000   1.0000   1.0000   1.0000   1.0000   1.0000   1.0000
     1.0000   1.0000   1.0000   1.0000   1.0000   1.0000   1.0000   1.0000
     1.0000   1.0000   1.0000   1.0000   1.0000   1.0000   1.0000   1.0000
     1.0000   1.0000   1.0000   1.0000   1.0000   1.0000   1.0000   1.0000
     1.0000   1.0000   1.0000   1.0000   1.0000   1.0000   1.0000   1.0000
     1.0000   1.0000   1.0000   1.0000   1.0000   1.0000   1.0000   1.0000
     1.0000   1.0000   1.0000   1.0000   1.0000   1.0000   1.0000   1.0000
     1.0000   1.0000   1.0000   1.0000   1.0000   1.0000   1.0000   1.0000
     1.0000   1.0000   1.0000   1.0000   1.0000   1.0000   1.0000   1.0000
     1.0000   1.0000   1.0000   1.0000   1.0000   1.0000   1.0000   1.0000
     1.0000   1.0000   1.0000   1.0000   1.0000   1.0000   1.0000   1.0000
     1.0000   1.0000   1.0000   1.0000   1.0000   1.0000   1.0000   1.0000
     1.0000   1.0000   1.0000   1.0000   1.0000   1.0000   1.0000   1.0000
     1.0000   1.0000   1.0000   1.0000   1.0000   1.0000   1.0000   1.0000
     1.0000   1.0000   1.0000   1.0000   1.0000   1.0000   1.0000   1.0000
     1.0000   1.0000   1.0000   1.0000   1.0000   1.0000   1.0000   1.0000
     1.0000   1.0000   1.0000   1.0000   1.0000   1.0000   1.0000   1.0000
     1.0000   1.0000   1.0000   1.0000   1.0000   1.0000   1.0000   1.0000
     1.0000   1.0000   1.0000   1.0000   1.0000   1.0000   1.0000   1.0000
     1.0000   1.0000   1.0000   1.0000   1.0000   1.0000   1.0000   1.0000
     1.0000   1.0000   1.0000   1.0000   1.0000   1.0000   1.0000   1.0000
     1.0000   1.0000   1.0000   1.0000   1.0000   1.0000   1.0000   1.0000
     1.0000   1.0000   1.0000   1.0000   1.0000   1.0000   1.0000   1.0000
     1.0000   1.0000   1.0000   0.1848   0.1848   0.1848   0.1848   0.1848
     0.1848   0.1223   0.1223   0.1223   0.1223   0.1223   0.1223   0.0000
     0.0000   0.0000   0.0000   0.0000   0.0000   0.0000   0.0000   0.0000
     0.0000   0.0000   0.0000   0.0000   0.0000   0.0000   0.0000   0.0000
     0.0000   0.0000   0.0000   0.0000   0.0000   0.0000   0.0000   0.0000
     0.0000   0.0000   0.0000   0.0000   0.0000   0.0000   0.0000   0.0000
     0.0000   0.0000   0.0000   0.0000   0.0000   0.0000   0.0000   0.0000
     0.0000   0.0000   0.0000   0.0000   0.0000   0.0000   0.0000   0.0000
     0.0000   0.0000   0.0000   0.0000   0.0000   0.0000   0.0000   0.0000
     0.0000   0.0000   0.0000   0.0000   0.0000   0.0000   0.0000   0.0000
     0.0000   0.0000   0.0000   0.0000   0.0000   0.0000   0.0000   0.0000
     0.0000   0.0000   0.0000   0.0000   0.0000   0.0000   0.0000   0.0000
     0.0000   0.0000   0.0000   0.0000   0.0000   0.0000   0.0000   0.0000

          k = 0.0000 0.2887 0.0000 ( 64808 PWs)   bands (ev):

  -125.0666-125.0657-125.0653-125.0653-125.0646-125.0646-125.0643-125.0637
  -125.0637-125.0634-125.0633-125.0633-125.0633-125.0633-125.0630-125.0630
  -124.8624-124.8624-124.8615-124.8614-124.8611-124.8611-124.8610-124.8610
  -124.8604-124.8604-124.8604-124.8604-124.8601-124.8601-124.8595-124.8595
  -124.8594-124.8594-124.8592-124.8592-124.8591-124.8591-124.8591-124.8590
  -124.8590-124.8590-124.8590-124.8590-124.8588-124.8588-124.8588-124.8588
   -79.2325 -79.2325 -79.2319 -79.2280 -79.2280 -79.2270 -79.2270 -79.2251
   -79.2251 -79.2222 -79.2190 -79.2190 -79.2163 -79.2163 -79.2149 -79.2138
   -79.2134 -79.2134 -79.2126 -79.2126 -79.2123 -79.2122 -79.2122 -79.2119
   -79.2119 -79.2115 -79.2115 -79.2112 -79.2111 -79.2111 -79.2111 -79.2111
   -79.2108 -79.2108 -79.2096 -79.2096 -79.2084 -79.2074 -79.2074 -79.2063
   -79.2037 -79.2034 -79.2034 -79.2015 -79.2015 -79.2001 -79.1986 -79.1976
   -79.0250 -79.0250 -79.0250 -79.0250 -79.0244 -79.0243 -79.0204 -79.0204
   -79.0204 -79.0204 -79.0195 -79.0195 -79.0195 -79.0195 -79.0190 -79.0188
   -79.0180 -79.0179 -79.0176 -79.0176 -79.0176 -79.0176 -79.0175 -79.0175
   -79.0174 -79.0174 -79.0168 -79.0168 -79.0167 -79.0167 -79.0165 -79.0164
   -79.0158 -79.0158 -79.0157 -79.0157 -79.0155 -79.0154 -79.0153 -79.0153
   -79.0153 -79.0153 -79.0153 -79.0153 -79.0153 -79.0153 -79.0150 -79.0150
   -79.0150 -79.0150 -79.0147 -79.0146 -79.0115 -79.0115 -79.0114 -79.0114
   -79.0088 -79.0088 -79.0088 -79.0088 -79.0047 -79.0047 -79.0047 -79.0047
   -79.0044 -79.0044 -79.0044 -79.0044 -79.0021 -79.0021 -79.0021 -79.0021
   -79.0009 -79.0009 -78.9999 -78.9999 -78.9999 -78.9999 -78.9988 -78.9988
   -78.9962 -78.9962 -78.9960 -78.9960 -78.9959 -78.9959 -78.9940 -78.9940
   -78.9940 -78.9940 -78.9926 -78.9926 -78.9911 -78.9911 -78.9901 -78.9901
    -8.5037  -7.6202  -7.3001  -7.2482  -7.2482  -7.0289  -6.8979  -6.8717
    -6.8717  -6.8491  -6.8458  -6.8458  -6.7063  -6.6913  -6.6913  -6.6902
    -6.6745  -6.6622  -6.6378  -6.6378  -6.5894  -6.5800  -6.5766  -6.5766
    -6.5673  -6.5673  -6.5477  -6.5477  -6.5279  -6.5279  -6.5180  -6.5180
    -6.5164  -6.5118  -6.5118  -6.5087  -6.5087  -6.5019  -6.5019  -6.4860
    -6.4860  -6.4603  -6.4603  -6.4227  -6.4227  -6.3947  -6.3947  -6.3798
    -6.3798  -6.3753  -6.3215  -6.3167  -6.3167  -6.3151  -6.3151  -6.3147
    -6.3147  -6.2684  -6.2684  -6.2584  -6.2513  -6.2291  -6.2291  -6.2228
    -6.2228  -6.2211  -6.2210  -6.2210  -6.2080  -6.2080  -6.2043  -6.2043
    -6.1952  -6.1952  -6.1834  -6.1834  -6.1793  -6.1776  -6.1776  -6.1537
    -6.1375  -6.1231  -6.1231  -6.1139  -6.1139  -6.1000  -6.1000  -6.0926
    -6.0899  -6.0899  -6.0775  -6.0629  -6.0629  -6.0491  -6.0491  -6.0479
    -6.0479  -5.9585  -5.9585  -5.9584  -5.9584  -5.9431  -5.9405  -5.9365
    -5.9365  -5.9341  -5.9341  -5.9235  -5.9235  -5.9124  -5.9106  -5.9106
    -5.8925  -5.8925  -5.8887  -5.8848  -5.8809  -5.8734  -5.8734  -5.8681
    -5.8455  -5.8455  -5.8384  -5.8384  -5.8244  -5.8107  -5.7948  -5.7948
    -5.7947  -5.7947  -5.7859  -5.7859  -5.7759  -5.7759  -5.7753  -5.7725
    -5.7725  -5.7548  -5.7548  -5.7467  -5.7467  -5.7395  -5.7296  -5.7296
    -5.7134  -5.7121  -5.7121  -5.7046  -5.7046  -5.6968  -5.6968  -5.6944
    -5.6944  -5.6916  -5.6916  -5.6786  -5.6672  -5.6672  -5.6565  -5.6432
    -5.6387  -5.6387  -5.6327  -5.6327  -5.6177  -5.6177  -5.6164  -5.6156
    -5.6156  -5.6118  -5.6104  -5.6046  -5.6046  -5.5791  -5.5633  -5.5600
    -5.5600  -5.5555  -5.5555  -5.5471  -5.5471  -5.5447  -5.5447  -5.5428
    -5.5428  -5.5403  -5.5259  -5.5259  -5.5251  -5.5206  -5.5206  -5.5119
    -5.5119  -5.4908  -5.4908  -5.4617  -5.4596  -5.4570  -5.4570  -5.4534
    -5.4534  -5.4510  -5.4510  -5.4390  -5.4390  -5.4298  -5.4251  -5.4251
    -5.4227  -5.4186  -5.4136  -5.4133  -5.4015  -5.4015  -5.3987  -5.3987
    -5.3877  -5.3862  -5.3862  -5.3796  -5.3675  -5.3675  -5.3635  -5.3584
    -5.3447  -5.3447  -5.3406  -5.3317  -5.3194  -5.3194  -5.3132  -5.3106
    -5.3106  -5.3008  -5.3008  -5.2923  -5.2923  -5.2818  -5.2818  -5.1434
    -5.1434  -5.1288  -5.1288  -5.1233  -5.1233  -5.1050  -5.1043  -4.9469
    -4.9342  -4.6381  -4.6381  -3.8810  -3.8810  -3.4800  -3.3937  -3.3937
    -3.3651  -2.6735  -2.3017  -2.3017  -2.2220  -2.0212  -2.0212  -1.9713
    -1.9713  -1.5148  -1.5148  -1.2922  -1.2922  -1.1169  -0.7950  -0.5729
    -0.5729  -0.5609  -0.5609  -0.5522   0.0237   0.0237   0.2690   0.2690
     0.5600   0.5600   0.6334   0.8765   0.8983   0.8983   1.1835   1.1835
     1.5564   1.5564   2.2263   2.2263   2.6473   2.6965   2.6965   2.7210
     2.7826   2.7826   2.9500   2.9500   3.2197   3.5466   3.6907   3.6907
     3.9087   3.9087   4.1121   4.1850   4.1850   4.5562   4.5562   4.8018
     4.8018   4.8432   4.8432   5.1517   5.1517   5.1604   5.1604   5.1871
     5.3802   5.4260   5.4260   5.5683   5.6427   5.7935   5.7935   5.8067
     6.0890   6.0940   6.0940   6.2991   6.3130   6.3130   6.3153   6.5101
     6.5387   6.5387   6.5944   6.5944   6.7102   6.7579   6.7579   7.0101
     7.0101   7.0869   7.0869   7.1721   7.1721   7.2400   7.3088   7.3088
     7.4083   7.4233   7.4233   7.4473   7.4473   7.6568   7.6568   7.6674
     7.6674   7.6995   7.6995   7.7427   7.8555   7.8555   7.9459   7.9459
     8.0232   8.0232   8.1333   8.3099   8.3219   8.4772   8.6361   8.6369
     8.6960   8.7073   8.8078   8.8079   8.8257   8.8257   8.8360   8.8363

     occupation numbers 
     1.0000   1.0000   1.0000   1.0000   1.0000   1.0000   1.0000   1.0000
     1.0000   1.0000   1.0000   1.0000   1.0000   1.0000   1.0000   1.0000
     1.0000   1.0000   1.0000   1.0000   1.0000   1.0000   1.0000   1.0000
     1.0000   1.0000   1.0000   1.0000   1.0000   1.0000   1.0000   1.0000
     1.0000   1.0000   1.0000   1.0000   1.0000   1.0000   1.0000   1.0000
     1.0000   1.0000   1.0000   1.0000   1.0000   1.0000   1.0000   1.0000
     1.0000   1.0000   1.0000   1.0000   1.0000   1.0000   1.0000   1.0000
     1.0000   1.0000   1.0000   1.0000   1.0000   1.0000   1.0000   1.0000
     1.0000   1.0000   1.0000   1.0000   1.0000   1.0000   1.0000   1.0000
     1.0000   1.0000   1.0000   1.0000   1.0000   1.0000   1.0000   1.0000
     1.0000   1.0000   1.0000   1.0000   1.0000   1.0000   1.0000   1.0000
     1.0000   1.0000   1.0000   1.0000   1.0000   1.0000   1.0000   1.0000
     1.0000   1.0000   1.0000   1.0000   1.0000   1.0000   1.0000   1.0000
     1.0000   1.0000   1.0000   1.0000   1.0000   1.0000   1.0000   1.0000
     1.0000   1.0000   1.0000   1.0000   1.0000   1.0000   1.0000   1.0000
     1.0000   1.0000   1.0000   1.0000   1.0000   1.0000   1.0000   1.0000
     1.0000   1.0000   1.0000   1.0000   1.0000   1.0000   1.0000   1.0000
     1.0000   1.0000   1.0000   1.0000   1.0000   1.0000   1.0000   1.0000
     1.0000   1.0000   1.0000   1.0000   1.0000   1.0000   1.0000   1.0000
     1.0000   1.0000   1.0000   1.0000   1.0000   1.0000   1.0000   1.0000
     1.0000   1.0000   1.0000   1.0000   1.0000   1.0000   1.0000   1.0000
     1.0000   1.0000   1.0000   1.0000   1.0000   1.0000   1.0000   1.0000
     1.0000   1.0000   1.0000   1.0000   1.0000   1.0000   1.0000   1.0000
     1.0000   1.0000   1.0000   1.0000   1.0000   1.0000   1.0000   1.0000
     1.0000   1.0000   1.0000   1.0000   1.0000   1.0000   1.0000   1.0000
     1.0000   1.0000   1.0000   1.0000   1.0000   1.0000   1.0000   1.0000
     1.0000   1.0000   1.0000   1.0000   1.0000   1.0000   1.0000   1.0000
     1.0000   1.0000   1.0000   1.0000   1.0000   1.0000   1.0000   1.0000
     1.0000   1.0000   1.0000   1.0000   1.0000   1.0000   1.0000   1.0000
     1.0000   1.0000   1.0000   1.0000   1.0000   1.0000   1.0000   1.0000
     1.0000   1.0000   1.0000   1.0000   1.0000   1.0000   1.0000   1.0000
     1.0000   1.0000   1.0000   1.0000   1.0000   1.0000   1.0000   1.0000
     1.0000   1.0000   1.0000   1.0000   1.0000   1.0000   1.0000   1.0000
     1.0000   1.0000   1.0000   1.0000   1.0000   1.0000   1.0000   1.0000
     1.0000   1.0000   1.0000   1.0000   1.0000   1.0000   1.0000   1.0000
     1.0000   1.0000   1.0000   1.0000   1.0000   1.0000   1.0000   1.0000
     1.0000   1.0000   1.0000   1.0000   1.0000   1.0000   1.0000   1.0000
     1.0000   1.0000   1.0000   1.0000   1.0000   1.0000   1.0000   1.0000
     1.0000   1.0000   1.0000   1.0000   1.0000   1.0000   1.0000   1.0000
     1.0000   1.0000   1.0000   1.0000   1.0000   1.0000   1.0000   1.0000
     1.0000   1.0000   1.0000   1.0000   1.0000   1.0000   1.0000   1.0000
     1.0000   1.0000   1.0000   1.0000   1.0000   1.0000   1.0000   1.0000
     1.0000   1.0000   1.0000   1.0000   1.0000   1.0000   1.0000   1.0000
     1.0000   1.0000   1.0000   1.0000   1.0000   1.0000   1.0000   1.0000
     1.0000   1.0000   1.0000   1.0000   1.0000   1.0000   1.0000   1.0000
     1.0000   1.0000   1.0000   1.0000   1.0000   1.0000   1.0000   1.0000
     1.0000   1.0000   1.0000   1.0000   1.0000   1.0000   1.0000   1.0000
     1.0000   1.0000   1.0000   1.0000   1.0000   1.0000   1.0000   1.0000
     1.0000   1.0000   1.0000   1.0000   1.0000   1.0000   1.0000   1.0000
     1.0000   1.0000   1.0000   1.0000   1.0000   1.0000   1.0000   1.0000
     1.0000   1.0000   1.0000   1.0000   1.0000   1.0000   1.0000   1.0000
     1.0000   1.0000   1.0000   1.0000   1.0000   1.0000   1.0000   1.0000
     1.0000   1.0000   1.0000   1.0000   1.0000   1.0000   1.0000   1.0000
     1.0000   1.0000   1.0000   1.0000   1.0000   1.0000   1.0000   1.0000
     1.0000   1.0000   1.0000   1.0000   1.0000   1.0000   1.0000   1.0000
     1.0000   1.0000   1.0000   1.0000   1.0000   1.0000   1.0000   1.0000
     1.0000   1.0000   1.0000   1.0000   1.0000   1.0000   1.0000   1.0000
     1.0000   1.0000   1.0000   1.0000   1.0000   1.0000   1.0000   1.0000
     1.0000   1.0000   1.0000   1.0000   1.0000   1.0000   1.0000   1.0000
     1.0006   1.0006   1.0019   1.0373   1.0444   1.0444   0.9985   0.9985
     0.1541   0.1541   0.0000   0.0000   0.0000   0.0000   0.0000   0.0000
     0.0000   0.0000   0.0000   0.0000   0.0000   0.0000   0.0000   0.0000
     0.0000   0.0000   0.0000   0.0000   0.0000   0.0000   0.0000   0.0000
     0.0000   0.0000   0.0000   0.0000   0.0000   0.0000   0.0000   0.0000
     0.0000   0.0000   0.0000   0.0000   0.0000   0.0000   0.0000   0.0000
     0.0000   0.0000   0.0000   0.0000   0.0000   0.0000   0.0000   0.0000
     0.0000   0.0000   0.0000   0.0000   0.0000   0.0000   0.0000   0.0000
     0.0000   0.0000   0.0000   0.0000   0.0000   0.0000   0.0000   0.0000
     0.0000   0.0000   0.0000   0.0000   0.0000   0.0000   0.0000   0.0000
     0.0000   0.0000   0.0000   0.0000   0.0000   0.0000   0.0000   0.0000
     0.0000   0.0000   0.0000   0.0000   0.0000   0.0000   0.0000   0.0000
     0.0000   0.0000   0.0000   0.0000   0.0000   0.0000   0.0000   0.0000

          k = 0.0000-0.5774 0.0000 ( 64842 PWs)   bands (ev):

  -125.0662-125.0662-125.0654-125.0654-125.0641-125.0641-125.0641-125.0641
  -125.0638-125.0638-125.0633-125.0633-125.0633-125.0633-125.0629-125.0629
  -124.8620-124.8620-124.8620-124.8620-124.8612-124.8612-124.8611-124.8611
  -124.8599-124.8599-124.8599-124.8599-124.8599-124.8599-124.8599-124.8599
  -124.8596-124.8596-124.8596-124.8595-124.8591-124.8591-124.8591-124.8590
  -124.8590-124.8590-124.8590-124.8590-124.8587-124.8587-124.8587-124.8587
   -79.2305 -79.2305 -79.2305 -79.2305 -79.2280 -79.2280 -79.2270 -79.2270
   -79.2225 -79.2225 -79.2225 -79.2225 -79.2176 -79.2176 -79.2145 -79.2145
   -79.2135 -79.2135 -79.2121 -79.2121 -79.2121 -79.2121 -79.2117 -79.2117
   -79.2111 -79.2111 -79.2111 -79.2111 -79.2110 -79.2110 -79.2107 -79.2107
   -79.2094 -79.2094 -79.2094 -79.2094 -79.2061 -79.2061 -79.2061 -79.2061
   -79.2053 -79.2053 -79.2025 -79.2025 -79.2015 -79.2015 -79.1986 -79.1986
   -79.0230 -79.0230 -79.0230 -79.0230 -79.0229 -79.0229 -79.0229 -79.0229
   -79.0205 -79.0205 -79.0205 -79.0205 -79.0195 -79.0195 -79.0194 -79.0194
   -79.0186 -79.0186 -79.0185 -79.0184 -79.0176 -79.0176 -79.0175 -79.0175
   -79.0163 -79.0163 -79.0163 -79.0163 -79.0162 -79.0162 -79.0162 -79.0162
   -79.0159 -79.0159 -79.0158 -79.0158 -79.0153 -79.0153 -79.0153 -79.0153
   -79.0153 -79.0153 -79.0153 -79.0153 -79.0149 -79.0149 -79.0149 -79.0149
   -79.0149 -79.0149 -79.0149 -79.0149 -79.0149 -79.0149 -79.0149 -79.0149
   -79.0100 -79.0100 -79.0100 -79.0100 -79.0035 -79.0035 -79.0035 -79.0035
   -79.0019 -79.0019 -79.0019 -79.0019 -79.0019 -79.0019 -79.0019 -79.0019
   -78.9986 -78.9986 -78.9986 -78.9986 -78.9986 -78.9986 -78.9986 -78.9986
   -78.9978 -78.9978 -78.9978 -78.9978 -78.9950 -78.9950 -78.9950 -78.9950
   -78.9940 -78.9940 -78.9940 -78.9940 -78.9911 -78.9911 -78.9911 -78.9911
    -8.1558  -8.1558  -7.3169  -7.3169  -7.0255  -7.0255  -6.8635  -6.8635
    -6.8593  -6.8593  -6.7493  -6.7493  -6.7492  -6.7492  -6.6532  -6.6532
    -6.6467  -6.6467  -6.6467  -6.6467  -6.6242  -6.6242  -6.6065  -6.6065
    -6.6065  -6.6065  -6.5530  -6.5530  -6.5284  -6.5284  -6.5284  -6.5284
    -6.5056  -6.5056  -6.4870  -6.4870  -6.4870  -6.4870  -6.4627  -6.4627
    -6.4627  -6.4627  -6.4602  -6.4602  -6.4492  -6.4492  -6.4257  -6.4257
    -6.4213  -6.4213  -6.4213  -6.4213  -6.3097  -6.3097  -6.3009  -6.3009
    -6.2925  -6.2925  -6.2925  -6.2925  -6.2911  -6.2911  -6.2702  -6.2702
    -6.2702  -6.2702  -6.2355  -6.2355  -6.2206  -6.2206  -6.2206  -6.2206
    -6.2054  -6.2054  -6.2003  -6.2003  -6.1696  -6.1696  -6.1413  -6.1413
    -6.1113  -6.1113  -6.1029  -6.1029  -6.0820  -6.0820  -6.0820  -6.0820
    -6.0610  -6.0610  -6.0610  -6.0610  -6.0414  -6.0414  -6.0318  -6.0318
    -6.0253  -6.0253  -6.0217  -6.0217  -6.0087  -6.0086  -5.9894  -5.9894
    -5.9894  -5.9894  -5.9462  -5.9462  -5.9452  -5.9452  -5.9147  -5.9147
    -5.9048  -5.9048  -5.8712  -5.8712  -5.8712  -5.8712  -5.8144  -5.8144
    -5.8087  -5.8087  -5.8079  -5.8079  -5.8079  -5.8079  -5.8045  -5.8045
    -5.7867  -5.7867  -5.7843  -5.7843  -5.7751  -5.7751  -5.7751  -5.7751
    -5.7671  -5.7671  -5.7667  -5.7667  -5.7667  -5.7667  -5.7552  -5.7552
    -5.7532  -5.7532  -5.7532  -5.7532  -5.6747  -5.6747  -5.6733  -5.6733
    -5.6664  -5.6664  -5.6449  -5.6449  -5.6449  -5.6449  -5.6304  -5.6304
    -5.6232  -5.6232  -5.6039  -5.6039  -5.6039  -5.6039  -5.5938  -5.5938
    -5.5697  -5.5697  -5.5427  -5.5427  -5.5282  -5.5282  -5.5282  -5.5282
    -5.5258  -5.5258  -5.5258  -5.5258  -5.5225  -5.5225  -5.5203  -5.5203
    -5.4983  -5.4983  -5.4983  -5.4983  -5.4883  -5.4883  -5.4875  -5.4875
    -5.4860  -5.4860  -5.4785  -5.4785  -5.4634  -5.4634  -5.4634  -5.4634
    -5.4504  -5.4504  -5.4504  -5.4504  -5.4392  -5.4392  -5.4220  -5.4220
    -5.4149  -5.4149  -5.4149  -5.4149  -5.4117  -5.4117  -5.4109  -5.4109
    -5.4042  -5.4042  -5.4019  -5.4019  -5.3996  -5.3996  -5.3698  -5.3698
    -5.3621  -5.3621  -5.3621  -5.3621  -5.3236  -5.3236  -5.3236  -5.3236
    -5.2536  -5.2536  -5.2536  -5.2536  -5.2347  -5.2347  -5.2337  -5.2337
    -5.2337  -5.2337  -5.2009  -5.2009  -5.1982  -5.1982  -4.7018  -4.7018
    -4.4182  -4.4182  -4.4182  -4.4182  -3.7282  -3.7282  -3.1104  -3.1104
    -3.0615  -3.0615  -3.0615  -3.0615  -2.3913  -2.3913  -2.2397  -2.2397
    -1.7578  -1.7578  -1.7578  -1.7578  -0.7552  -0.7552  -0.7552  -0.7552
    -0.3254  -0.3254  -0.3254  -0.3254  -0.0903  -0.0903   0.0131   0.0131
     1.0213   1.0213   1.0493   1.0493   1.3381   1.3381   1.3700   1.3700
     1.3700   1.3700   2.2236   2.2236   2.9001   2.9001   2.9001   2.9001
     3.1017   3.1017   3.1017   3.1017   3.3224   3.3224   3.5551   3.5551
     3.8667   3.8667   3.8667   3.8667   3.9984   3.9984   4.2581   4.2581
     4.4471   4.4471   4.7460   4.7460   4.8581   4.8581   5.4826   5.4826
     5.5256   5.5256   5.7250   5.7250   5.8012   5.8012   5.9297   5.9297
     5.9297   5.9297   5.9833   5.9833   5.9833   5.9833   6.1539   6.1539
     6.1539   6.1539   6.4271   6.4271   6.5598   6.5598   6.6434   6.6434
     6.6629   6.6629   6.8474   6.8474   6.8666   6.8666   7.0139   7.0139
     7.0139   7.0139   7.5855   7.5855   7.7449   7.7449   8.0646   8.0646
     8.0905   8.0905   8.0905   8.0905   8.2789   8.2789   8.4766   8.4766
     8.4766   8.4766   8.6267   8.6267   8.6267   8.6267   8.6677   8.6678
     8.7367   8.7367   8.8113   8.8113   8.9994   8.9994   8.9995   8.9995

     occupation numbers 
     1.0000   1.0000   1.0000   1.0000   1.0000   1.0000   1.0000   1.0000
     1.0000   1.0000   1.0000   1.0000   1.0000   1.0000   1.0000   1.0000
     1.0000   1.0000   1.0000   1.0000   1.0000   1.0000   1.0000   1.0000
     1.0000   1.0000   1.0000   1.0000   1.0000   1.0000   1.0000   1.0000
     1.0000   1.0000   1.0000   1.0000   1.0000   1.0000   1.0000   1.0000
     1.0000   1.0000   1.0000   1.0000   1.0000   1.0000   1.0000   1.0000
     1.0000   1.0000   1.0000   1.0000   1.0000   1.0000   1.0000   1.0000
     1.0000   1.0000   1.0000   1.0000   1.0000   1.0000   1.0000   1.0000
     1.0000   1.0000   1.0000   1.0000   1.0000   1.0000   1.0000   1.0000
     1.0000   1.0000   1.0000   1.0000   1.0000   1.0000   1.0000   1.0000
     1.0000   1.0000   1.0000   1.0000   1.0000   1.0000   1.0000   1.0000
     1.0000   1.0000   1.0000   1.0000   1.0000   1.0000   1.0000   1.0000
     1.0000   1.0000   1.0000   1.0000   1.0000   1.0000   1.0000   1.0000
     1.0000   1.0000   1.0000   1.0000   1.0000   1.0000   1.0000   1.0000
     1.0000   1.0000   1.0000   1.0000   1.0000   1.0000   1.0000   1.0000
     1.0000   1.0000   1.0000   1.0000   1.0000   1.0000   1.0000   1.0000
     1.0000   1.0000   1.0000   1.0000   1.0000   1.0000   1.0000   1.0000
     1.0000   1.0000   1.0000   1.0000   1.0000   1.0000   1.0000   1.0000
     1.0000   1.0000   1.0000   1.0000   1.0000   1.0000   1.0000   1.0000
     1.0000   1.0000   1.0000   1.0000   1.0000   1.0000   1.0000   1.0000
     1.0000   1.0000   1.0000   1.0000   1.0000   1.0000   1.0000   1.0000
     1.0000   1.0000   1.0000   1.0000   1.0000   1.0000   1.0000   1.0000
     1.0000   1.0000   1.0000   1.0000   1.0000   1.0000   1.0000   1.0000
     1.0000   1.0000   1.0000   1.0000   1.0000   1.0000   1.0000   1.0000
     1.0000   1.0000   1.0000   1.0000   1.0000   1.0000   1.0000   1.0000
     1.0000   1.0000   1.0000   1.0000   1.0000   1.0000   1.0000   1.0000
     1.0000   1.0000   1.0000   1.0000   1.0000   1.0000   1.0000   1.0000
     1.0000   1.0000   1.0000   1.0000   1.0000   1.0000   1.0000   1.0000
     1.0000   1.0000   1.0000   1.0000   1.0000   1.0000   1.0000   1.0000
     1.0000   1.0000   1.0000   1.0000   1.0000   1.0000   1.0000   1.0000
     1.0000   1.0000   1.0000   1.0000   1.0000   1.0000   1.0000   1.0000
     1.0000   1.0000   1.0000   1.0000   1.0000   1.0000   1.0000   1.0000
     1.0000   1.0000   1.0000   1.0000   1.0000   1.0000   1.0000   1.0000
     1.0000   1.0000   1.0000   1.0000   1.0000   1.0000   1.0000   1.0000
     1.0000   1.0000   1.0000   1.0000   1.0000   1.0000   1.0000   1.0000
     1.0000   1.0000   1.0000   1.0000   1.0000   1.0000   1.0000   1.0000
     1.0000   1.0000   1.0000   1.0000   1.0000   1.0000   1.0000   1.0000
     1.0000   1.0000   1.0000   1.0000   1.0000   1.0000   1.0000   1.0000
     1.0000   1.0000   1.0000   1.0000   1.0000   1.0000   1.0000   1.0000
     1.0000   1.0000   1.0000   1.0000   1.0000   1.0000   1.0000   1.0000
     1.0000   1.0000   1.0000   1.0000   1.0000   1.0000   1.0000   1.0000
     1.0000   1.0000   1.0000   1.0000   1.0000   1.0000   1.0000   1.0000
     1.0000   1.0000   1.0000   1.0000   1.0000   1.0000   1.0000   1.0000
     1.0000   1.0000   1.0000   1.0000   1.0000   1.0000   1.0000   1.0000
     1.0000   1.0000   1.0000   1.0000   1.0000   1.0000   1.0000   1.0000
     1.0000   1.0000   1.0000   1.0000   1.0000   1.0000   1.0000   1.0000
     1.0000   1.0000   1.0000   1.0000   1.0000   1.0000   1.0000   1.0000
     1.0000   1.0000   1.0000   1.0000   1.0000   1.0000   1.0000   1.0000
     1.0000   1.0000   1.0000   1.0000   1.0000   1.0000   1.0000   1.0000
     1.0000   1.0000   1.0000   1.0000   1.0000   1.0000   1.0000   1.0000
     1.0000   1.0000   1.0000   1.0000   1.0000   1.0000   1.0000   1.0000
     1.0000   1.0000   1.0000   1.0000   1.0000   1.0000   1.0000   1.0000
     1.0000   1.0000   1.0000   1.0000   1.0000   1.0000   1.0000   1.0000
     1.0000   1.0000   1.0000   1.0000   1.0000   1.0000   1.0000   1.0000
     1.0000   1.0000   1.0000   1.0000   1.0000   1.0000   1.0000   1.0000
     1.0000   1.0000   1.0000   1.0000   1.0000   1.0000   1.0000   1.0000
     1.0000   1.0000   1.0000   1.0000   1.0000   1.0000   1.0000   1.0000
     1.0000   1.0000   1.0000   1.0000   1.0000   1.0000   1.0000   1.0000
     1.0000   1.0000   1.0000   1.0000   1.0000   1.0000   1.0000   1.0000
     1.0812   1.0812   1.0833   1.0833   0.6569   0.6569   0.5690   0.5690
     0.5690   0.5690   0.0000   0.0000   0.0000   0.0000   0.0000   0.0000
     0.0000   0.0000   0.0000   0.0000   0.0000   0.0000   0.0000   0.0000
     0.0000   0.0000   0.0000   0.0000   0.0000   0.0000   0.0000   0.0000
     0.0000   0.0000   0.0000   0.0000   0.0000   0.0000   0.0000   0.0000
     0.0000   0.0000   0.0000   0.0000   0.0000   0.0000   0.0000   0.0000
     0.0000   0.0000   0.0000   0.0000   0.0000   0.0000   0.0000   0.0000
     0.0000   0.0000   0.0000   0.0000   0.0000   0.0000   0.0000   0.0000
     0.0000   0.0000   0.0000   0.0000   0.0000   0.0000   0.0000   0.0000
     0.0000   0.0000   0.0000   0.0000   0.0000   0.0000   0.0000   0.0000
     0.0000   0.0000   0.0000   0.0000   0.0000   0.0000   0.0000   0.0000
     0.0000   0.0000   0.0000   0.0000   0.0000   0.0000   0.0000   0.0000
     0.0000   0.0000   0.0000   0.0000   0.0000   0.0000   0.0000   0.0000

          k = 0.2500 0.1443 0.0000 ( 64808 PWs)   bands (ev):

  -125.0666-125.0657-125.0653-125.0653-125.0646-125.0646-125.0643-125.0637
  -125.0637-125.0634-125.0633-125.0633-125.0633-125.0633-125.0630-125.0630
  -124.8624-124.8624-124.8615-124.8614-124.8611-124.8611-124.8610-124.8610
  -124.8604-124.8604-124.8604-124.8604-124.8601-124.8601-124.8595-124.8595
  -124.8594-124.8594-124.8592-124.8592-124.8591-124.8591-124.8591-124.8591
  -124.8590-124.8590-124.8590-124.8590-124.8588-124.8588-124.8588-124.8588
   -79.2325 -79.2325 -79.2319 -79.2280 -79.2280 -79.2270 -79.2270 -79.2251
   -79.2251 -79.2222 -79.2190 -79.2190 -79.2163 -79.2163 -79.2149 -79.2138
   -79.2134 -79.2134 -79.2126 -79.2126 -79.2123 -79.2122 -79.2122 -79.2119
   -79.2119 -79.2115 -79.2115 -79.2112 -79.2111 -79.2111 -79.2111 -79.2111
   -79.2108 -79.2108 -79.2096 -79.2096 -79.2084 -79.2074 -79.2074 -79.2063
   -79.2037 -79.2034 -79.2034 -79.2015 -79.2015 -79.2001 -79.1986 -79.1976
   -79.0250 -79.0250 -79.0250 -79.0250 -79.0244 -79.0243 -79.0204 -79.0204
   -79.0204 -79.0204 -79.0195 -79.0195 -79.0195 -79.0195 -79.0190 -79.0188
   -79.0180 -79.0179 -79.0176 -79.0176 -79.0176 -79.0176 -79.0175 -79.0175
   -79.0174 -79.0174 -79.0168 -79.0168 -79.0167 -79.0167 -79.0165 -79.0164
   -79.0158 -79.0158 -79.0157 -79.0157 -79.0155 -79.0154 -79.0153 -79.0153
   -79.0153 -79.0153 -79.0153 -79.0153 -79.0153 -79.0153 -79.0150 -79.0150
   -79.0150 -79.0150 -79.0147 -79.0146 -79.0115 -79.0115 -79.0114 -79.0114
   -79.0088 -79.0088 -79.0088 -79.0088 -79.0047 -79.0047 -79.0047 -79.0047
   -79.0044 -79.0044 -79.0044 -79.0044 -79.0021 -79.0021 -79.0021 -79.0021
   -79.0009 -79.0009 -78.9999 -78.9999 -78.9999 -78.9999 -78.9988 -78.9988
   -78.9962 -78.9962 -78.9960 -78.9960 -78.9959 -78.9959 -78.9940 -78.9940
   -78.9940 -78.9940 -78.9926 -78.9926 -78.9911 -78.9911 -78.9901 -78.9901
    -8.5037  -7.6202  -7.3001  -7.2482  -7.2482  -7.0289  -6.8979  -6.8717
    -6.8717  -6.8491  -6.8458  -6.8458  -6.7063  -6.6913  -6.6913  -6.6902
    -6.6745  -6.6622  -6.6378  -6.6378  -6.5894  -6.5800  -6.5766  -6.5766
    -6.5673  -6.5673  -6.5477  -6.5477  -6.5279  -6.5279  -6.5180  -6.5180
    -6.5164  -6.5118  -6.5118  -6.5087  -6.5087  -6.5019  -6.5019  -6.4860
    -6.4860  -6.4603  -6.4603  -6.4227  -6.4227  -6.3947  -6.3947  -6.3798
    -6.3798  -6.3753  -6.3215  -6.3167  -6.3167  -6.3151  -6.3151  -6.3147
    -6.3147  -6.2684  -6.2684  -6.2584  -6.2513  -6.2291  -6.2291  -6.2228
    -6.2228  -6.2211  -6.2210  -6.2210  -6.2080  -6.2080  -6.2043  -6.2043
    -6.1952  -6.1952  -6.1834  -6.1834  -6.1793  -6.1776  -6.1776  -6.1537
    -6.1375  -6.1231  -6.1231  -6.1139  -6.1139  -6.1000  -6.1000  -6.0926
    -6.0899  -6.0899  -6.0775  -6.0629  -6.0629  -6.0491  -6.0491  -6.0479
    -6.0479  -5.9585  -5.9585  -5.9584  -5.9584  -5.9431  -5.9405  -5.9365
    -5.9365  -5.9341  -5.9341  -5.9235  -5.9235  -5.9124  -5.9106  -5.9106
    -5.8925  -5.8925  -5.8887  -5.8848  -5.8809  -5.8734  -5.8734  -5.8681
    -5.8455  -5.8455  -5.8384  -5.8384  -5.8244  -5.8107  -5.7948  -5.7948
    -5.7947  -5.7947  -5.7859  -5.7859  -5.7759  -5.7759  -5.7753  -5.7725
    -5.7725  -5.7548  -5.7548  -5.7467  -5.7467  -5.7395  -5.7296  -5.7296
    -5.7134  -5.7121  -5.7121  -5.7046  -5.7046  -5.6968  -5.6968  -5.6944
    -5.6944  -5.6916  -5.6916  -5.6786  -5.6672  -5.6672  -5.6565  -5.6432
    -5.6387  -5.6387  -5.6327  -5.6327  -5.6177  -5.6177  -5.6164  -5.6156
    -5.6156  -5.6118  -5.6104  -5.6046  -5.6046  -5.5791  -5.5633  -5.5600
    -5.5600  -5.5555  -5.5555  -5.5471  -5.5471  -5.5447  -5.5447  -5.5428
    -5.5428  -5.5403  -5.5259  -5.5259  -5.5251  -5.5206  -5.5206  -5.5119
    -5.5119  -5.4908  -5.4908  -5.4617  -5.4596  -5.4570  -5.4570  -5.4534
    -5.4534  -5.4510  -5.4510  -5.4390  -5.4390  -5.4298  -5.4251  -5.4251
    -5.4227  -5.4186  -5.4136  -5.4133  -5.4015  -5.4015  -5.3987  -5.3987
    -5.3877  -5.3862  -5.3862  -5.3796  -5.3675  -5.3675  -5.3635  -5.3584
    -5.3447  -5.3447  -5.3406  -5.3317  -5.3194  -5.3194  -5.3132  -5.3106
    -5.3106  -5.3008  -5.3008  -5.2923  -5.2923  -5.2818  -5.2818  -5.1434
    -5.1434  -5.1288  -5.1288  -5.1233  -5.1233  -5.1050  -5.1043  -4.9469
    -4.9342  -4.6381  -4.6381  -3.8810  -3.8810  -3.4800  -3.3937  -3.3937
    -3.3651  -2.6735  -2.3017  -2.3017  -2.2220  -2.0212  -2.0212  -1.9713
    -1.9713  -1.5148  -1.5148  -1.2922  -1.2922  -1.1169  -0.7950  -0.5729
    -0.5729  -0.5609  -0.5609  -0.5522   0.0237   0.0237   0.2690   0.2690
     0.5600   0.5600   0.6334   0.8765   0.8983   0.8983   1.1835   1.1835
     1.5564   1.5564   2.2263   2.2263   2.6473   2.6965   2.6965   2.7210
     2.7826   2.7826   2.9500   2.9500   3.2197   3.5466   3.6907   3.6907
     3.9087   3.9087   4.1121   4.1850   4.1850   4.5562   4.5562   4.8018
     4.8018   4.8432   4.8432   5.1517   5.1517   5.1604   5.1604   5.1871
     5.3802   5.4260   5.4260   5.5683   5.6427   5.7935   5.7935   5.8067
     6.0890   6.0940   6.0940   6.2991   6.3130   6.3130   6.3153   6.5101
     6.5387   6.5387   6.5944   6.5944   6.7102   6.7579   6.7579   7.0101
     7.0101   7.0869   7.0869   7.1721   7.1721   7.2400   7.3088   7.3088
     7.4083   7.4233   7.4233   7.4473   7.4473   7.6568   7.6568   7.6674
     7.6674   7.6995   7.6995   7.7427   7.8555   7.8555   7.9459   7.9459
     8.0232   8.0232   8.1333   8.3099   8.3219   8.4771   8.6361   8.6361
     8.6960   8.7072   8.8079   8.8079   8.8255   8.8257   8.8358   8.8363

     occupation numbers 
     1.0000   1.0000   1.0000   1.0000   1.0000   1.0000   1.0000   1.0000
     1.0000   1.0000   1.0000   1.0000   1.0000   1.0000   1.0000   1.0000
     1.0000   1.0000   1.0000   1.0000   1.0000   1.0000   1.0000   1.0000
     1.0000   1.0000   1.0000   1.0000   1.0000   1.0000   1.0000   1.0000
     1.0000   1.0000   1.0000   1.0000   1.0000   1.0000   1.0000   1.0000
     1.0000   1.0000   1.0000   1.0000   1.0000   1.0000   1.0000   1.0000
     1.0000   1.0000   1.0000   1.0000   1.0000   1.0000   1.0000   1.0000
     1.0000   1.0000   1.0000   1.0000   1.0000   1.0000   1.0000   1.0000
     1.0000   1.0000   1.0000   1.0000   1.0000   1.0000   1.0000   1.0000
     1.0000   1.0000   1.0000   1.0000   1.0000   1.0000   1.0000   1.0000
     1.0000   1.0000   1.0000   1.0000   1.0000   1.0000   1.0000   1.0000
     1.0000   1.0000   1.0000   1.0000   1.0000   1.0000   1.0000   1.0000
     1.0000   1.0000   1.0000   1.0000   1.0000   1.0000   1.0000   1.0000
     1.0000   1.0000   1.0000   1.0000   1.0000   1.0000   1.0000   1.0000
     1.0000   1.0000   1.0000   1.0000   1.0000   1.0000   1.0000   1.0000
     1.0000   1.0000   1.0000   1.0000   1.0000   1.0000   1.0000   1.0000
     1.0000   1.0000   1.0000   1.0000   1.0000   1.0000   1.0000   1.0000
     1.0000   1.0000   1.0000   1.0000   1.0000   1.0000   1.0000   1.0000
     1.0000   1.0000   1.0000   1.0000   1.0000   1.0000   1.0000   1.0000
     1.0000   1.0000   1.0000   1.0000   1.0000   1.0000   1.0000   1.0000
     1.0000   1.0000   1.0000   1.0000   1.0000   1.0000   1.0000   1.0000
     1.0000   1.0000   1.0000   1.0000   1.0000   1.0000   1.0000   1.0000
     1.0000   1.0000   1.0000   1.0000   1.0000   1.0000   1.0000   1.0000
     1.0000   1.0000   1.0000   1.0000   1.0000   1.0000   1.0000   1.0000
     1.0000   1.0000   1.0000   1.0000   1.0000   1.0000   1.0000   1.0000
     1.0000   1.0000   1.0000   1.0000   1.0000   1.0000   1.0000   1.0000
     1.0000   1.0000   1.0000   1.0000   1.0000   1.0000   1.0000   1.0000
     1.0000   1.0000   1.0000   1.0000   1.0000   1.0000   1.0000   1.0000
     1.0000   1.0000   1.0000   1.0000   1.0000   1.0000   1.0000   1.0000
     1.0000   1.0000   1.0000   1.0000   1.0000   1.0000   1.0000   1.0000
     1.0000   1.0000   1.0000   1.0000   1.0000   1.0000   1.0000   1.0000
     1.0000   1.0000   1.0000   1.0000   1.0000   1.0000   1.0000   1.0000
     1.0000   1.0000   1.0000   1.0000   1.0000   1.0000   1.0000   1.0000
     1.0000   1.0000   1.0000   1.0000   1.0000   1.0000   1.0000   1.0000
     1.0000   1.0000   1.0000   1.0000   1.0000   1.0000   1.0000   1.0000
     1.0000   1.0000   1.0000   1.0000   1.0000   1.0000   1.0000   1.0000
     1.0000   1.0000   1.0000   1.0000   1.0000   1.0000   1.0000   1.0000
     1.0000   1.0000   1.0000   1.0000   1.0000   1.0000   1.0000   1.0000
     1.0000   1.0000   1.0000   1.0000   1.0000   1.0000   1.0000   1.0000
     1.0000   1.0000   1.0000   1.0000   1.0000   1.0000   1.0000   1.0000
     1.0000   1.0000   1.0000   1.0000   1.0000   1.0000   1.0000   1.0000
     1.0000   1.0000   1.0000   1.0000   1.0000   1.0000   1.0000   1.0000
     1.0000   1.0000   1.0000   1.0000   1.0000   1.0000   1.0000   1.0000
     1.0000   1.0000   1.0000   1.0000   1.0000   1.0000   1.0000   1.0000
     1.0000   1.0000   1.0000   1.0000   1.0000   1.0000   1.0000   1.0000
     1.0000   1.0000   1.0000   1.0000   1.0000   1.0000   1.0000   1.0000
     1.0000   1.0000   1.0000   1.0000   1.0000   1.0000   1.0000   1.0000
     1.0000   1.0000   1.0000   1.0000   1.0000   1.0000   1.0000   1.0000
     1.0000   1.0000   1.0000   1.0000   1.0000   1.0000   1.0000   1.0000
     1.0000   1.0000   1.0000   1.0000   1.0000   1.0000   1.0000   1.0000
     1.0000   1.0000   1.0000   1.0000   1.0000   1.0000   1.0000   1.0000
     1.0000   1.0000   1.0000   1.0000   1.0000   1.0000   1.0000   1.0000
     1.0000   1.0000   1.0000   1.0000   1.0000   1.0000   1.0000   1.0000
     1.0000   1.0000   1.0000   1.0000   1.0000   1.0000   1.0000   1.0000
     1.0000   1.0000   1.0000   1.0000   1.0000   1.0000   1.0000   1.0000
     1.0000   1.0000   1.0000   1.0000   1.0000   1.0000   1.0000   1.0000
     1.0000   1.0000   1.0000   1.0000   1.0000   1.0000   1.0000   1.0000
     1.0000   1.0000   1.0000   1.0000   1.0000   1.0000   1.0000   1.0000
     1.0000   1.0000   1.0000   1.0000   1.0000   1.0000   1.0000   1.0000
     1.0006   1.0006   1.0019   1.0373   1.0444   1.0444   0.9985   0.9985
     0.1541   0.1541   0.0000   0.0000   0.0000   0.0000   0.0000   0.0000
     0.0000   0.0000   0.0000   0.0000   0.0000   0.0000   0.0000   0.0000
     0.0000   0.0000   0.0000   0.0000   0.0000   0.0000   0.0000   0.0000
     0.0000   0.0000   0.0000   0.0000   0.0000   0.0000   0.0000   0.0000
     0.0000   0.0000   0.0000   0.0000   0.0000   0.0000   0.0000   0.0000
     0.0000   0.0000   0.0000   0.0000   0.0000   0.0000   0.0000   0.0000
     0.0000   0.0000   0.0000   0.0000   0.0000   0.0000   0.0000   0.0000
     0.0000   0.0000   0.0000   0.0000   0.0000   0.0000   0.0000   0.0000
     0.0000   0.0000   0.0000   0.0000   0.0000   0.0000   0.0000   0.0000
     0.0000   0.0000   0.0000   0.0000   0.0000   0.0000   0.0000   0.0000
     0.0000   0.0000   0.0000   0.0000   0.0000   0.0000   0.0000   0.0000
     0.0000   0.0000   0.0000   0.0000   0.0000   0.0000   0.0000   0.0000

          k = 0.2500 0.4330 0.0000 ( 64876 PWs)   bands (ev):

  -125.0664-125.0659-125.0659-125.0648-125.0647-125.0642-125.0640-125.0640
  -125.0636-125.0636-125.0635-125.0635-125.0631-125.0630-125.0630-125.0628
  -124.8621-124.8621-124.8617-124.8617-124.8617-124.8616-124.8605-124.8605
  -124.8605-124.8605-124.8600-124.8600-124.8598-124.8598-124.8598-124.8598
  -124.8594-124.8594-124.8594-124.8594-124.8593-124.8593-124.8593-124.8593
  -124.8589-124.8589-124.8588-124.8588-124.8588-124.8588-124.8586-124.8586
   -79.2316 -79.2300 -79.2300 -79.2294 -79.2294 -79.2273 -79.2273 -79.2252
   -79.2252 -79.2248 -79.2212 -79.2204 -79.2167 -79.2167 -79.2146 -79.2141
   -79.2141 -79.2133 -79.2133 -79.2128 -79.2128 -79.2121 -79.2119 -79.2119
   -79.2115 -79.2115 -79.2114 -79.2114 -79.2109 -79.2108 -79.2108 -79.2106
   -79.2099 -79.2081 -79.2081 -79.2066 -79.2066 -79.2066 -79.2060 -79.2060
   -79.2052 -79.2052 -79.2038 -79.2038 -79.2012 -79.1997 -79.1997 -79.1983
   -79.0241 -79.0240 -79.0224 -79.0224 -79.0224 -79.0224 -79.0219 -79.0219
   -79.0219 -79.0219 -79.0198 -79.0198 -79.0197 -79.0197 -79.0188 -79.0186
   -79.0182 -79.0182 -79.0181 -79.0181 -79.0177 -79.0177 -79.0177 -79.0176
   -79.0172 -79.0172 -79.0170 -79.0170 -79.0169 -79.0169 -79.0163 -79.0163
   -79.0161 -79.0161 -79.0161 -79.0161 -79.0157 -79.0157 -79.0157 -79.0156
   -79.0156 -79.0156 -79.0156 -79.0156 -79.0152 -79.0151 -79.0151 -79.0151
   -79.0150 -79.0150 -79.0149 -79.0148 -79.0137 -79.0137 -79.0129 -79.0129
   -79.0092 -79.0092 -79.0092 -79.0092 -79.0058 -79.0058 -79.0058 -79.0057
   -79.0024 -79.0024 -79.0006 -79.0006 -79.0006 -79.0006 -78.9992 -78.9992
   -78.9992 -78.9991 -78.9991 -78.9991 -78.9985 -78.9985 -78.9985 -78.9985
   -78.9978 -78.9978 -78.9978 -78.9978 -78.9963 -78.9963 -78.9963 -78.9963
   -78.9937 -78.9937 -78.9922 -78.9922 -78.9922 -78.9922 -78.9908 -78.9908
    -8.2700  -7.8232  -7.8232  -7.1115  -6.9139  -6.8395  -6.8395  -6.8035
    -6.8035  -6.7967  -6.7967  -6.7925  -6.7925  -6.7683  -6.7272  -6.7272
    -6.6980  -6.6980  -6.6547  -6.6547  -6.6228  -6.6088  -6.6088  -6.6040
    -6.6040  -6.5876  -6.5876  -6.5675  -6.5675  -6.5594  -6.5594  -6.5434
    -6.5337  -6.5337  -6.4914  -6.4914  -6.4715  -6.4715  -6.4688  -6.4614
    -6.4613  -6.4397  -6.4394  -6.4171  -6.4119  -6.4119  -6.4115  -6.4115
    -6.4025  -6.4025  -6.3918  -6.3693  -6.3693  -6.3120  -6.3014  -6.3014
    -6.2966  -6.2966  -6.2915  -6.2915  -6.2911  -6.2779  -6.2666  -6.2626
    -6.2626  -6.2542  -6.2485  -6.2485  -6.2432  -6.2432  -6.2412  -6.2217
    -6.2217  -6.2014  -6.2014  -6.1770  -6.1770  -6.1653  -6.1468  -6.1450
    -6.1408  -6.1408  -6.1174  -6.1174  -6.1075  -6.1075  -6.0940  -6.0884
    -6.0555  -6.0555  -6.0460  -6.0460  -6.0415  -6.0325  -6.0194  -6.0194
    -5.9968  -5.9911  -5.9911  -5.9885  -5.9796  -5.9796  -5.9720  -5.9720
    -5.9696  -5.9696  -5.9565  -5.9482  -5.9415  -5.9149  -5.9149  -5.9069
    -5.9069  -5.9059  -5.8983  -5.8905  -5.8905  -5.8855  -5.8854  -5.8767
    -5.8767  -5.8527  -5.8527  -5.8457  -5.8457  -5.8329  -5.8329  -5.8325
    -5.8318  -5.8281  -5.8281  -5.8080  -5.7961  -5.7961  -5.7931  -5.7719
    -5.7624  -5.7624  -5.7550  -5.7515  -5.7515  -5.7491  -5.7124  -5.7124
    -5.6935  -5.6935  -5.6909  -5.6909  -5.6568  -5.6535  -5.6535  -5.6526
    -5.6526  -5.6460  -5.6318  -5.6301  -5.6301  -5.6231  -5.6231  -5.5920
    -5.5918  -5.5918  -5.5913  -5.5913  -5.5820  -5.5820  -5.5802  -5.5802
    -5.5778  -5.5778  -5.5737  -5.5737  -5.5659  -5.5659  -5.5486  -5.5486
    -5.5480  -5.5480  -5.5441  -5.5395  -5.5358  -5.5358  -5.5141  -5.5141
    -5.5116  -5.5091  -5.5091  -5.5064  -5.5023  -5.4831  -5.4831  -5.4814
    -5.4787  -5.4787  -5.4655  -5.4606  -5.4606  -5.4591  -5.4591  -5.4571
    -5.4571  -5.4550  -5.4550  -5.4424  -5.4424  -5.4399  -5.4399  -5.4328
    -5.4328  -5.4301  -5.4172  -5.4172  -5.4091  -5.4091  -5.4089  -5.3980
    -5.3943  -5.3857  -5.3857  -5.3739  -5.3739  -5.3739  -5.3683  -5.3670
    -5.3641  -5.3641  -5.3346  -5.3271  -5.3271  -5.3077  -5.3077  -5.2813
    -5.2753  -5.2753  -5.2722  -5.2722  -5.2712  -5.2712  -5.2563  -5.2280
    -5.1865  -5.1865  -5.1824  -5.1824  -5.1436  -5.1436  -5.0643  -5.0643
    -4.4561  -4.2330  -4.2330  -4.0437  -4.0437  -3.2450  -3.2450  -3.1954
    -3.1448  -2.8773  -2.8773  -2.8495  -2.8495  -2.7804  -2.7804  -1.7960
    -1.7960  -1.7014  -1.7014  -1.4133  -1.4133  -0.8450  -0.4758  -0.4758
    -0.4122  -0.4122  -0.3233  -0.2414   0.2946   0.3500   0.3500   0.4234
     0.4234   0.6997   0.6997   0.7890   0.9701   0.9701   1.0866   1.4157
     1.4157   1.9758   1.9758   2.5309   2.5520   2.8205   2.9855   3.0906
     3.3259   3.3259   3.3641   3.3641   3.4434   3.4466   3.4466   3.5747
     3.5747   3.6672   3.8900   3.8901   4.3747   4.3747   4.3917   4.4247
     4.4434   4.4434   4.5667   4.5667   4.8788   4.9328   5.1390   5.1390
     5.2201   5.2201   5.4128   5.4442   5.4442   5.4521   5.4521   5.6101
     5.8639   5.8639   6.0696   6.0696   6.0902   6.1238   6.1238   6.5418
     6.5418   6.5471   6.6436   6.6456   6.6456   6.7350   6.9519   6.9990
     6.9990   7.0018   7.0096   7.0096   7.0437   7.0437   7.1634   7.1634
     7.1843   7.1843   7.2112   7.2112   7.2217   7.2217   7.4453   7.4453
     8.0916   8.2143   8.2143   8.3522   8.3618   8.3829   8.3829   8.5219
     8.5219   8.5391   8.5526   8.5824   8.5824   8.6231   8.6231   8.6578
     8.6783   8.6783   8.7001   8.7426   8.8051   8.8051   9.0124   9.0124

     occupation numbers 
     1.0000   1.0000   1.0000   1.0000   1.0000   1.0000   1.0000   1.0000
     1.0000   1.0000   1.0000   1.0000   1.0000   1.0000   1.0000   1.0000
     1.0000   1.0000   1.0000   1.0000   1.0000   1.0000   1.0000   1.0000
     1.0000   1.0000   1.0000   1.0000   1.0000   1.0000   1.0000   1.0000
     1.0000   1.0000   1.0000   1.0000   1.0000   1.0000   1.0000   1.0000
     1.0000   1.0000   1.0000   1.0000   1.0000   1.0000   1.0000   1.0000
     1.0000   1.0000   1.0000   1.0000   1.0000   1.0000   1.0000   1.0000
     1.0000   1.0000   1.0000   1.0000   1.0000   1.0000   1.0000   1.0000
     1.0000   1.0000   1.0000   1.0000   1.0000   1.0000   1.0000   1.0000
     1.0000   1.0000   1.0000   1.0000   1.0000   1.0000   1.0000   1.0000
     1.0000   1.0000   1.0000   1.0000   1.0000   1.0000   1.0000   1.0000
     1.0000   1.0000   1.0000   1.0000   1.0000   1.0000   1.0000   1.0000
     1.0000   1.0000   1.0000   1.0000   1.0000   1.0000   1.0000   1.0000
     1.0000   1.0000   1.0000   1.0000   1.0000   1.0000   1.0000   1.0000
     1.0000   1.0000   1.0000   1.0000   1.0000   1.0000   1.0000   1.0000
     1.0000   1.0000   1.0000   1.0000   1.0000   1.0000   1.0000   1.0000
     1.0000   1.0000   1.0000   1.0000   1.0000   1.0000   1.0000   1.0000
     1.0000   1.0000   1.0000   1.0000   1.0000   1.0000   1.0000   1.0000
     1.0000   1.0000   1.0000   1.0000   1.0000   1.0000   1.0000   1.0000
     1.0000   1.0000   1.0000   1.0000   1.0000   1.0000   1.0000   1.0000
     1.0000   1.0000   1.0000   1.0000   1.0000   1.0000   1.0000   1.0000
     1.0000   1.0000   1.0000   1.0000   1.0000   1.0000   1.0000   1.0000
     1.0000   1.0000   1.0000   1.0000   1.0000   1.0000   1.0000   1.0000
     1.0000   1.0000   1.0000   1.0000   1.0000   1.0000   1.0000   1.0000
     1.0000   1.0000   1.0000   1.0000   1.0000   1.0000   1.0000   1.0000
     1.0000   1.0000   1.0000   1.0000   1.0000   1.0000   1.0000   1.0000
     1.0000   1.0000   1.0000   1.0000   1.0000   1.0000   1.0000   1.0000
     1.0000   1.0000   1.0000   1.0000   1.0000   1.0000   1.0000   1.0000
     1.0000   1.0000   1.0000   1.0000   1.0000   1.0000   1.0000   1.0000
     1.0000   1.0000   1.0000   1.0000   1.0000   1.0000   1.0000   1.0000
     1.0000   1.0000   1.0000   1.0000   1.0000   1.0000   1.0000   1.0000
     1.0000   1.0000   1.0000   1.0000   1.0000   1.0000   1.0000   1.0000
     1.0000   1.0000   1.0000   1.0000   1.0000   1.0000   1.0000   1.0000
     1.0000   1.0000   1.0000   1.0000   1.0000   1.0000   1.0000   1.0000
     1.0000   1.0000   1.0000   1.0000   1.0000   1.0000   1.0000   1.0000
     1.0000   1.0000   1.0000   1.0000   1.0000   1.0000   1.0000   1.0000
     1.0000   1.0000   1.0000   1.0000   1.0000   1.0000   1.0000   1.0000
     1.0000   1.0000   1.0000   1.0000   1.0000   1.0000   1.0000   1.0000
     1.0000   1.0000   1.0000   1.0000   1.0000   1.0000   1.0000   1.0000
     1.0000   1.0000   1.0000   1.0000   1.0000   1.0000   1.0000   1.0000
     1.0000   1.0000   1.0000   1.0000   1.0000   1.0000   1.0000   1.0000
     1.0000   1.0000   1.0000   1.0000   1.0000   1.0000   1.0000   1.0000
     1.0000   1.0000   1.0000   1.0000   1.0000   1.0000   1.0000   1.0000
     1.0000   1.0000   1.0000   1.0000   1.0000   1.0000   1.0000   1.0000
     1.0000   1.0000   1.0000   1.0000   1.0000   1.0000   1.0000   1.0000
     1.0000   1.0000   1.0000   1.0000   1.0000   1.0000   1.0000   1.0000
     1.0000   1.0000   1.0000   1.0000   1.0000   1.0000   1.0000   1.0000
     1.0000   1.0000   1.0000   1.0000   1.0000   1.0000   1.0000   1.0000
     1.0000   1.0000   1.0000   1.0000   1.0000   1.0000   1.0000   1.0000
     1.0000   1.0000   1.0000   1.0000   1.0000   1.0000   1.0000   1.0000
     1.0000   1.0000   1.0000   1.0000   1.0000   1.0000   1.0000   1.0000
     1.0000   1.0000   1.0000   1.0000   1.0000   1.0000   1.0000   1.0000
     1.0000   1.0000   1.0000   1.0000   1.0000   1.0000   1.0000   1.0000
     1.0000   1.0000   1.0000   1.0000   1.0000   1.0000   1.0000   1.0000
     1.0000   1.0000   1.0000   1.0000   1.0000   1.0000   1.0000   1.0000
     1.0000   1.0000   1.0000   1.0000   1.0000   1.0000   1.0000   1.0000
     1.0000   1.0000   1.0000   1.0000   1.0000   1.0000   1.0000   1.0000
     1.0000   1.0000   1.0000   1.0000   1.0000   1.0000   1.0000   1.0000
     1.0000   1.0000   1.0000   1.0000   1.0000   1.0000   1.0000   1.0000
     1.0000   1.0052   1.0052   1.0159   1.0686   1.0686   1.0779   0.4452
     0.4452   0.0003   0.0003   0.0000   0.0000   0.0000   0.0000   0.0000
     0.0000   0.0000   0.0000   0.0000   0.0000   0.0000   0.0000   0.0000
     0.0000   0.0000   0.0000   0.0000   0.0000   0.0000   0.0000   0.0000
     0.0000   0.0000   0.0000   0.0000   0.0000   0.0000   0.0000   0.0000
     0.0000   0.0000   0.0000   0.0000   0.0000   0.0000   0.0000   0.0000
     0.0000   0.0000   0.0000   0.0000   0.0000   0.0000   0.0000   0.0000
     0.0000   0.0000   0.0000   0.0000   0.0000   0.0000   0.0000   0.0000
     0.0000   0.0000   0.0000   0.0000   0.0000   0.0000   0.0000   0.0000
     0.0000   0.0000   0.0000   0.0000   0.0000   0.0000   0.0000   0.0000
     0.0000   0.0000   0.0000   0.0000   0.0000   0.0000   0.0000   0.0000
     0.0000   0.0000   0.0000   0.0000   0.0000   0.0000   0.0000   0.0000
     0.0000   0.0000   0.0000   0.0000   0.0000   0.0000   0.0000   0.0000

          k = 0.2500-0.4330 0.0000 ( 64876 PWs)   bands (ev):

  -125.0664-125.0659-125.0659-125.0648-125.0647-125.0642-125.0640-125.0640
[...]
     1.0000   1.0000   1.0000   1.0000   1.0000   1.0000   1.0000   1.0000
     1.0000   1.0000   1.0000   1.0000   1.0000   1.0000   1.0000   1.0000
     1.0000   1.0000   1.0000   1.0000   1.0000   1.0000   1.0000   1.0000
     1.0000   1.0000   1.0000   1.0000   1.0000   1.0000   1.0000   1.0000
     1.0000   1.0000   1.0000   1.0000   1.0000   1.0000   1.0000   1.0000
     1.0000   1.0000   1.0000   1.0000   1.0000   1.0000   1.0000   1.0000
     1.0000   1.0000   1.0000   1.0000   1.0000   1.0000   1.0000   1.0000
     1.0000   1.0000   1.0000   1.0000   1.0000   1.0000   1.0000   1.0000
     1.0000   1.0000   1.0000   1.0000   1.0000   1.0000   1.0000   1.0000
     1.0000   1.0000   1.0000   1.0000   1.0000   1.0000   1.0000   1.0000
     1.0000   1.0000   1.0000   1.0000   1.0000   1.0000   1.0000   1.0000
     1.0000   1.0000   1.0000   1.0000   1.0000   1.0000   1.0000   1.0000
     1.0000   1.0000   1.0000   1.0000   1.0000   1.0000   1.0000   1.0000
     1.0000   1.0000   1.0000   1.0000   1.0000   1.0000   1.0000   1.0000
     1.0000   1.0000   1.0000   1.0000   1.0000   1.0000   1.0000   1.0000
     1.0000   1.0000   1.0000   1.0000   1.0000   1.0000   1.0000   1.0000
     1.0000   1.0000   1.0000   1.0000   1.0000   1.0000   1.0000   1.0000
     1.0000   1.0000   1.0000   1.0000   1.0000   1.0000   1.0000   1.0000
     1.0000   1.0000   1.0000   1.0000   1.0000   1.0000   1.0000   1.0000
     1.0000   1.0000   1.0000   1.0000   1.0000   1.0000   1.0000   1.0000
     1.0000   1.0000   1.0000   1.0000   1.0000   1.0000   1.0000   1.0000
     1.0000   1.0000   1.0000   1.0000   1.0000   1.0000   1.0000   1.0000
     1.0000   1.0000   1.0000   1.0000   1.0000   1.0000   1.0000   1.0000
     1.0000   1.0000   1.0000   1.0000   1.0000   1.0000   1.0000   1.0000
     1.0000   1.0000   1.0000   1.0000   1.0000   1.0000   1.0000   1.0000
     1.0000   1.0000   1.0000   1.0000   1.0000   1.0000   1.0000   1.0000
     1.0000   1.0000   1.0000   1.0000   1.0000   1.0000   1.0000   1.0000
     1.0000   1.0000   1.0000   1.0000   1.0000   1.0000   1.0000   1.0000
     1.0000   1.0000   1.0000   1.0000   1.0000   1.0000   1.0000   1.0000
     1.0000   1.0000   1.0000   1.0000   1.0000   1.0000   1.0000   1.0000
     1.0000   1.0000   1.0000   1.0000   1.0000   1.0000   1.0000   1.0000
     1.0000   1.0000   1.0000   1.0000   1.0000   1.0000   1.0000   1.0000
     1.0000   1.0000   1.0000   1.0000   1.0000   1.0000   1.0000   1.0000
     1.0000   1.0000   1.0000   1.0000   1.0000   1.0000   1.0000   1.0000
     1.0000   1.0000   1.0000   1.0000   1.0000   1.0000   1.0000   1.0000
     1.0000   1.0000   1.0000   1.0000   1.0000   1.0000   1.0000   1.0000
     1.0000   1.0000   1.0000   1.0000   1.0000   1.0000   1.0000   1.0000
     1.0000   1.0000   1.0000   1.0000   1.0000   1.0000   1.0000   1.0000
     1.0000   1.0000   1.0000   1.0000   1.0000   1.0000   1.0000   1.0000
     1.0000   1.0000   1.0000   1.0000   1.0000   1.0000   1.0000   1.0000
     1.0000   1.0000   1.0000   1.0000   1.0000   1.0000   1.0000   1.0000
     1.0000   1.0052   1.0052   1.0159   1.0686   1.0686   1.0779   0.4452
     0.4452   0.0003   0.0003   0.0000   0.0000   0.0000   0.0000   0.0000
     0.0000   0.0000   0.0000   0.0000   0.0000   0.0000   0.0000   0.0000
     0.0000   0.0000   0.0000   0.0000   0.0000   0.0000   0.0000   0.0000
     0.0000   0.0000   0.0000   0.0000   0.0000   0.0000   0.0000   0.0000
     0.0000   0.0000   0.0000   0.0000   0.0000   0.0000   0.0000   0.0000
     0.0000   0.0000   0.0000   0.0000   0.0000   0.0000   0.0000   0.0000
     0.0000   0.0000   0.0000   0.0000   0.0000   0.0000   0.0000   0.0000
     0.0000   0.0000   0.0000   0.0000   0.0000   0.0000   0.0000   0.0000
     0.0000   0.0000   0.0000   0.0000   0.0000   0.0000   0.0000   0.0000
     0.0000   0.0000   0.0000   0.0000   0.0000   0.0000   0.0000   0.0000
     0.0000   0.0000   0.0000   0.0000   0.0000   0.0000   0.0000   0.0000
     0.0000   0.0000   0.0000   0.0000   0.0000   0.0000   0.0000   0.0000

          k =-0.5000-0.8660 0.0000 ( 64842 PWs)   bands (ev):

  -125.0662-125.0662-125.0654-125.0654-125.0641-125.0641-125.0641-125.0641
  -125.0638-125.0638-125.0633-125.0633-125.0633-125.0633-125.0629-125.0629
  -124.8620-124.8620-124.8620-124.8620-124.8612-124.8612-124.8611-124.8611
  -124.8599-124.8599-124.8599-124.8599-124.8599-124.8599-124.8599-124.8599
  -124.8596-124.8596-124.8596-124.8595-124.8591-124.8591-124.8591-124.8590
  -124.8590-124.8590-124.8590-124.8590-124.8587-124.8587-124.8587-124.8587
   -79.2305 -79.2305 -79.2305 -79.2305 -79.2280 -79.2280 -79.2270 -79.2270
   -79.2225 -79.2225 -79.2225 -79.2225 -79.2176 -79.2176 -79.2145 -79.2145
   -79.2135 -79.2135 -79.2121 -79.2121 -79.2121 -79.2121 -79.2117 -79.2117
   -79.2111 -79.2111 -79.2111 -79.2111 -79.2110 -79.2110 -79.2107 -79.2107
   -79.2094 -79.2094 -79.2094 -79.2094 -79.2061 -79.2061 -79.2061 -79.2061
   -79.2053 -79.2053 -79.2025 -79.2025 -79.2015 -79.2015 -79.1986 -79.1986
   -79.0230 -79.0230 -79.0230 -79.0230 -79.0229 -79.0229 -79.0229 -79.0229
   -79.0205 -79.0205 -79.0205 -79.0205 -79.0195 -79.0195 -79.0194 -79.0194
   -79.0186 -79.0186 -79.0185 -79.0184 -79.0176 -79.0176 -79.0175 -79.0175
   -79.0163 -79.0163 -79.0163 -79.0163 -79.0162 -79.0162 -79.0162 -79.0162
   -79.0159 -79.0159 -79.0158 -79.0158 -79.0153 -79.0153 -79.0153 -79.0153
   -79.0153 -79.0153 -79.0153 -79.0153 -79.0149 -79.0149 -79.0149 -79.0149
   -79.0149 -79.0149 -79.0149 -79.0149 -79.0149 -79.0149 -79.0149 -79.0149
   -79.0100 -79.0100 -79.0100 -79.0100 -79.0035 -79.0035 -79.0035 -79.0035
   -79.0019 -79.0019 -79.0019 -79.0019 -79.0019 -79.0019 -79.0019 -79.0019
   -78.9986 -78.9986 -78.9986 -78.9986 -78.9986 -78.9986 -78.9986 -78.9986
   -78.9978 -78.9978 -78.9978 -78.9978 -78.9950 -78.9950 -78.9950 -78.9950
   -78.9940 -78.9940 -78.9940 -78.9940 -78.9911 -78.9911 -78.9911 -78.9911
    -8.1558  -8.1558  -7.3169  -7.3169  -7.0255  -7.0255  -6.8635  -6.8635
    -6.8593  -6.8593  -6.7493  -6.7493  -6.7493  -6.7493  -6.6532  -6.6532
    -6.6467  -6.6467  -6.6467  -6.6467  -6.6242  -6.6242  -6.6065  -6.6065
    -6.6065  -6.6065  -6.5530  -6.5530  -6.5284  -6.5284  -6.5284  -6.5284
    -6.5056  -6.5056  -6.4870  -6.4870  -6.4870  -6.4870  -6.4627  -6.4627
    -6.4627  -6.4627  -6.4602  -6.4602  -6.4492  -6.4492  -6.4257  -6.4257
    -6.4213  -6.4213  -6.4213  -6.4213  -6.3097  -6.3097  -6.3009  -6.3009
    -6.2925  -6.2925  -6.2925  -6.2925  -6.2911  -6.2911  -6.2702  -6.2702
    -6.2702  -6.2702  -6.2355  -6.2355  -6.2206  -6.2206  -6.2206  -6.2206
    -6.2054  -6.2054  -6.2003  -6.2003  -6.1696  -6.1696  -6.1413  -6.1413
    -6.1113  -6.1113  -6.1029  -6.1029  -6.0820  -6.0820  -6.0820  -6.0820
    -6.0610  -6.0610  -6.0610  -6.0610  -6.0414  -6.0414  -6.0318  -6.0318
    -6.0253  -6.0253  -6.0217  -6.0217  -6.0087  -6.0086  -5.9894  -5.9894
    -5.9894  -5.9894  -5.9462  -5.9462  -5.9452  -5.9452  -5.9147  -5.9147
    -5.9048  -5.9048  -5.8712  -5.8712  -5.8712  -5.8712  -5.8144  -5.8144
    -5.8087  -5.8087  -5.8079  -5.8079  -5.8079  -5.8079  -5.8045  -5.8045
    -5.7867  -5.7867  -5.7843  -5.7843  -5.7751  -5.7751  -5.7751  -5.7751
    -5.7671  -5.7671  -5.7667  -5.7667  -5.7667  -5.7667  -5.7552  -5.7552
    -5.7532  -5.7532  -5.7532  -5.7532  -5.6747  -5.6747  -5.6733  -5.6733
    -5.6664  -5.6664  -5.6449  -5.6449  -5.6449  -5.6449  -5.6304  -5.6304
    -5.6232  -5.6232  -5.6039  -5.6039  -5.6039  -5.6039  -5.5938  -5.5938
    -5.5697  -5.5697  -5.5427  -5.5427  -5.5282  -5.5282  -5.5282  -5.5282
    -5.5258  -5.5258  -5.5258  -5.5258  -5.5225  -5.5225  -5.5203  -5.5203
    -5.4983  -5.4983  -5.4983  -5.4983  -5.4883  -5.4883  -5.4875  -5.4875
    -5.4860  -5.4860  -5.4785  -5.4785  -5.4634  -5.4634  -5.4634  -5.4634
    -5.4504  -5.4504  -5.4504  -5.4504  -5.4392  -5.4392  -5.4220  -5.4220
    -5.4149  -5.4149  -5.4149  -5.4149  -5.4117  -5.4117  -5.4109  -5.4109
    -5.4042  -5.4042  -5.4019  -5.4019  -5.3996  -5.3996  -5.3698  -5.3698
    -5.3621  -5.3621  -5.3621  -5.3621  -5.3236  -5.3236  -5.3236  -5.3236
    -5.2536  -5.2536  -5.2536  -5.2536  -5.2347  -5.2347  -5.2337  -5.2337
    -5.2337  -5.2337  -5.2009  -5.2009  -5.1982  -5.1982  -4.7018  -4.7018
    -4.4182  -4.4182  -4.4182  -4.4182  -3.7282  -3.7282  -3.1104  -3.1104
    -3.0615  -3.0615  -3.0615  -3.0615  -2.3913  -2.3913  -2.2397  -2.2397
    -1.7578  -1.7578  -1.7578  -1.7578  -0.7552  -0.7552  -0.7552  -0.7552
    -0.3254  -0.3254  -0.3254  -0.3254  -0.0903  -0.0903   0.0131   0.0131
     1.0213   1.0213   1.0493   1.0493   1.3381   1.3381   1.3700   1.3700
     1.3700   1.3700   2.2236   2.2236   2.9001   2.9001   2.9001   2.9001
     3.1017   3.1017   3.1017   3.1017   3.3224   3.3224   3.5551   3.5551
     3.8667   3.8667   3.8667   3.8667   3.9984   3.9984   4.2581   4.2581
     4.4471   4.4471   4.7460   4.7460   4.8581   4.8581   5.4826   5.4826
     5.5256   5.5256   5.7250   5.7250   5.8012   5.8012   5.9297   5.9297
     5.9297   5.9297   5.9833   5.9833   5.9833   5.9833   6.1539   6.1539
     6.1539   6.1539   6.4271   6.4271   6.5598   6.5598   6.6434   6.6434
     6.6629   6.6629   6.8474   6.8474   6.8666   6.8666   7.0139   7.0139
     7.0139   7.0139   7.5855   7.5855   7.7449   7.7449   8.0646   8.0646
     8.0905   8.0905   8.0905   8.0905   8.2789   8.2789   8.4766   8.4766
     8.4766   8.4766   8.6267   8.6267   8.6267   8.6267   8.6677   8.6677
     8.7367   8.7367   8.8113   8.8113   8.9994   8.9995   8.9995   8.9995

     occupation numbers 
     1.0000   1.0000   1.0000   1.0000   1.0000   1.0000   1.0000   1.0000
     1.0000   1.0000   1.0000   1.0000   1.0000   1.0000   1.0000   1.0000
     1.0000   1.0000   1.0000   1.0000   1.0000   1.0000   1.0000   1.0000
     1.0000   1.0000   1.0000   1.0000   1.0000   1.0000   1.0000   1.0000
     1.0000   1.0000   1.0000   1.0000   1.0000   1.0000   1.0000   1.0000
     1.0000   1.0000   1.0000   1.0000   1.0000   1.0000   1.0000   1.0000
     1.0000   1.0000   1.0000   1.0000   1.0000   1.0000   1.0000   1.0000
     1.0000   1.0000   1.0000   1.0000   1.0000   1.0000   1.0000   1.0000
     1.0000   1.0000   1.0000   1.0000   1.0000   1.0000   1.0000   1.0000
     1.0000   1.0000   1.0000   1.0000   1.0000   1.0000   1.0000   1.0000
     1.0000   1.0000   1.0000   1.0000   1.0000   1.0000   1.0000   1.0000
     1.0000   1.0000   1.0000   1.0000   1.0000   1.0000   1.0000   1.0000
     1.0000   1.0000   1.0000   1.0000   1.0000   1.0000   1.0000   1.0000
     1.0000   1.0000   1.0000   1.0000   1.0000   1.0000   1.0000   1.0000
     1.0000   1.0000   1.0000   1.0000   1.0000   1.0000   1.0000   1.0000
     1.0000   1.0000   1.0000   1.0000   1.0000   1.0000   1.0000   1.0000
     1.0000   1.0000   1.0000   1.0000   1.0000   1.0000   1.0000   1.0000
     1.0000   1.0000   1.0000   1.0000   1.0000   1.0000   1.0000   1.0000
     1.0000   1.0000   1.0000   1.0000   1.0000   1.0000   1.0000   1.0000
     1.0000   1.0000   1.0000   1.0000   1.0000   1.0000   1.0000   1.0000
     1.0000   1.0000   1.0000   1.0000   1.0000   1.0000   1.0000   1.0000
     1.0000   1.0000   1.0000   1.0000   1.0000   1.0000   1.0000   1.0000
     1.0000   1.0000   1.0000   1.0000   1.0000   1.0000   1.0000   1.0000
     1.0000   1.0000   1.0000   1.0000   1.0000   1.0000   1.0000   1.0000
     1.0000   1.0000   1.0000   1.0000   1.0000   1.0000   1.0000   1.0000
     1.0000   1.0000   1.0000   1.0000   1.0000   1.0000   1.0000   1.0000
     1.0000   1.0000   1.0000   1.0000   1.0000   1.0000   1.0000   1.0000
     1.0000   1.0000   1.0000   1.0000   1.0000   1.0000   1.0000   1.0000
     1.0000   1.0000   1.0000   1.0000   1.0000   1.0000   1.0000   1.0000
     1.0000   1.0000   1.0000   1.0000   1.0000   1.0000   1.0000   1.0000
     1.0000   1.0000   1.0000   1.0000   1.0000   1.0000   1.0000   1.0000
     1.0000   1.0000   1.0000   1.0000   1.0000   1.0000   1.0000   1.0000
     1.0000   1.0000   1.0000   1.0000   1.0000   1.0000   1.0000   1.0000
     1.0000   1.0000   1.0000   1.0000   1.0000   1.0000   1.0000   1.0000
     1.0000   1.0000   1.0000   1.0000   1.0000   1.0000   1.0000   1.0000
     1.0000   1.0000   1.0000   1.0000   1.0000   1.0000   1.0000   1.0000
     1.0000   1.0000   1.0000   1.0000   1.0000   1.0000   1.0000   1.0000
     1.0000   1.0000   1.0000   1.0000   1.0000   1.0000   1.0000   1.0000
     1.0000   1.0000   1.0000   1.0000   1.0000   1.0000   1.0000   1.0000
     1.0000   1.0000   1.0000   1.0000   1.0000   1.0000   1.0000   1.0000
     1.0000   1.0000   1.0000   1.0000   1.0000   1.0000   1.0000   1.0000
     1.0000   1.0000   1.0000   1.0000   1.0000   1.0000   1.0000   1.0000
     1.0000   1.0000   1.0000   1.0000   1.0000   1.0000   1.0000   1.0000
     1.0000   1.0000   1.0000   1.0000   1.0000   1.0000   1.0000   1.0000
     1.0000   1.0000   1.0000   1.0000   1.0000   1.0000   1.0000   1.0000
     1.0000   1.0000   1.0000   1.0000   1.0000   1.0000   1.0000   1.0000
     1.0000   1.0000   1.0000   1.0000   1.0000   1.0000   1.0000   1.0000
     1.0000   1.0000   1.0000   1.0000   1.0000   1.0000   1.0000   1.0000
     1.0000   1.0000   1.0000   1.0000   1.0000   1.0000   1.0000   1.0000
     1.0000   1.0000   1.0000   1.0000   1.0000   1.0000   1.0000   1.0000
     1.0000   1.0000   1.0000   1.0000   1.0000   1.0000   1.0000   1.0000
     1.0000   1.0000   1.0000   1.0000   1.0000   1.0000   1.0000   1.0000
     1.0000   1.0000   1.0000   1.0000   1.0000   1.0000   1.0000   1.0000
     1.0000   1.0000   1.0000   1.0000   1.0000   1.0000   1.0000   1.0000
     1.0000   1.0000   1.0000   1.0000   1.0000   1.0000   1.0000   1.0000
     1.0000   1.0000   1.0000   1.0000   1.0000   1.0000   1.0000   1.0000
     1.0000   1.0000   1.0000   1.0000   1.0000   1.0000   1.0000   1.0000
     1.0000   1.0000   1.0000   1.0000   1.0000   1.0000   1.0000   1.0000
     1.0000   1.0000   1.0000   1.0000   1.0000   1.0000   1.0000   1.0000
     1.0812   1.0812   1.0833   1.0833   0.6570   0.6569   0.5690   0.5690
     0.5690   0.5690   0.0000   0.0000   0.0000   0.0000   0.0000   0.0000
     0.0000   0.0000   0.0000   0.0000   0.0000   0.0000   0.0000   0.0000
     0.0000   0.0000   0.0000   0.0000   0.0000   0.0000   0.0000   0.0000
     0.0000   0.0000   0.0000   0.0000   0.0000   0.0000   0.0000   0.0000
     0.0000   0.0000   0.0000   0.0000   0.0000   0.0000   0.0000   0.0000
     0.0000   0.0000   0.0000   0.0000   0.0000   0.0000   0.0000   0.0000
     0.0000   0.0000   0.0000   0.0000   0.0000   0.0000   0.0000   0.0000
     0.0000   0.0000   0.0000   0.0000   0.0000   0.0000   0.0000   0.0000
     0.0000   0.0000   0.0000   0.0000   0.0000   0.0000   0.0000   0.0000
     0.0000   0.0000   0.0000   0.0000   0.0000   0.0000   0.0000   0.0000
     0.0000   0.0000   0.0000   0.0000   0.0000   0.0000   0.0000   0.0000
     0.0000   0.0000   0.0000   0.0000   0.0000   0.0000   0.0000   0.0000

     the Fermi energy is     1.4330 ev

!    total energy              =  -22154.25533550 Ry
     estimated scf accuracy    <          2.0E-09 Ry
     smearing contrib. (-TS)   =       0.00133527 Ry
     internal energy E=F+TS    =  -22154.25667077 Ry

     The total energy is F=E-TS. E is the sum of the following terms:
     one-electron contribution = -144865.35975459 Ry
     hartree contribution      =   72366.00230021 Ry
     xc contribution           =   -2024.14716008 Ry
     ewald contribution        =   52369.24794370 Ry

     convergence has been achieved in  13 iterations

     Writing all to output data dir ./tmp/Zn002.save/ :
     XML data file, charge density, pseudopotentials, collected wavefunctions

     init_run     :    112.16s CPU    112.91s WALL (       1 calls)
     electrons    :   5762.93s CPU   5802.59s WALL (       1 calls)

     Called by init_run:
     wfcinit      :    110.87s CPU    111.57s WALL (       1 calls)
     wfcinit:atom :      0.08s CPU      0.13s WALL (      10 calls)
     wfcinit:wfcr :    109.75s CPU    110.31s WALL (      10 calls)
     potinit      :      0.07s CPU      0.08s WALL (       1 calls)
     hinit0       :      0.03s CPU      0.04s WALL (       1 calls)

     Called by electrons:
     c_bands      :   5369.52s CPU   5406.55s WALL (      14 calls)
     sum_band     :    380.90s CPU    383.10s WALL (      14 calls)
     v_of_rho     :      0.95s CPU      1.00s WALL (      14 calls)
     v_h          :      0.06s CPU      0.07s WALL (      14 calls)
     v_xc         :      0.88s CPU      0.93s WALL (      14 calls)
     newd         :     12.26s CPU     12.59s WALL (      14 calls)
     mix_rho      :      0.12s CPU      0.13s WALL (      14 calls)

     Called by c_bands:
     init_us_2    :      5.46s CPU      5.48s WALL (     290 calls)
     cegterg      :   5358.45s CPU   5395.37s WALL (     140 calls)

     Called by sum_band:
     sum_band:wei :      0.06s CPU      0.06s WALL (      14 calls)
     sum_band:loo :    368.42s CPU    370.26s WALL (      14 calls)
     sum_band:buf :      1.19s CPU      1.20s WALL (     140 calls)
     sum_band:ini :      2.64s CPU      2.65s WALL (     140 calls)
     sum_band:cal :    314.03s CPU    315.49s WALL (     140 calls)
     sum_band:bec :      2.84s CPU      2.84s WALL (     140 calls)
     addusdens    :     12.17s CPU     12.52s WALL (      14 calls)
                                        0.00s GPU  (      14 calls)
     addusd:skk   :      0.12s CPU      0.13s WALL (      14 calls)
                                        0.00s GPU  (      14 calls)

     Called by *egterg:
     cdiaghg      :    338.37s CPU    351.34s WALL (     763 calls)
     cegterg:over :    845.53s CPU    848.28s WALL (     633 calls)
     cegterg:upda :    373.61s CPU    375.86s WALL (     633 calls)
     cegterg:last :   1283.11s CPU   1290.32s WALL (     280 calls)
     cdiaghg:chol :     21.66s CPU     21.72s WALL (     763 calls)
     cdiaghg:inve :      3.34s CPU      3.36s WALL (     763 calls)
     cdiaghg:para :     87.49s CPU     89.19s WALL (    1526 calls)
     h_psi        :   1665.48s CPU   1673.25s WALL (     783 calls)
     s_psi        :    693.98s CPU    695.63s WALL (     783 calls)
     g_psi        :      0.72s CPU      0.73s WALL (     633 calls)

     Called by h_psi:
     h_psi:calbec :    750.15s CPU    753.52s WALL (     783 calls)
     vloc_psi     :    215.46s CPU    217.07s WALL (     783 calls)
     add_vuspsi   :    697.75s CPU    699.43s WALL (     783 calls)

     General routines
     calbec       :   1064.18s CPU   1069.01s WALL (     923 calls)
     fft          :      0.63s CPU      0.73s WALL (     180 calls)
     ffts         :      0.03s CPU      0.03s WALL (      28 calls)
     fftw         :    227.86s CPU    229.51s WALL (  465702 calls)
     interpolate  :      0.06s CPU      0.06s WALL (      14 calls)

     Parallel routines

     PWSCF        :      1h37m CPU      1h38m WALL


   This run was terminated on:  21:59:15  26Mar2025            

=------------------------------------------------------------------------------=
   JOB DONE.
=------------------------------------------------------------------------------=
Note: The following floating-point exceptions are signalling: IEEE_DENORMAL
Note: The following floating-point exceptions are signalling: IEEE_DENORMAL
Note: The following floating-point exceptions are signalling: IEEE_DENORMAL
Note: The following floating-point exceptions are signalling: IEEE_DENORMAL
Note: The following floating-point exceptions are signalling: IEEE_DENORMAL
Note: The following floating-point exceptions are signalling: IEEE_DENORMAL
Note: The following floating-point exceptions are signalling: IEEE_DENORMAL
Note: The following floating-point exceptions are signalling: IEEE_DENORMAL
Note: The following floating-point exceptions are signalling: IEEE_DENORMAL
Note: The following floating-point exceptions are signalling: IEEE_DENORMAL
Note: The following floating-point exceptions are signalling: IEEE_DENORMAL
