
     Program PWSCF v.7.3.1 starts on  7Apr2025 at  4:56:25 

     This program is part of the open-source Quantum ESPRESSO suite
     for quantum simulation of materials; please cite
         "P. Giannozzi et al., J. Phys.:Condens. Matter 21 395502 (2009);
         "P. Giannozzi et al., J. Phys.:Condens. Matter 29 465901 (2017);
         "P. Giannozzi et al., J. Chem. Phys. 152 154105 (2020);
          URL http://www.quantum-espresso.org", 
     in publications or presentations arising from this work. More details at
     http://www.quantum-espresso.org/quote

     Parallel version (MPI), running on    25 processors

     MPI processes distributed on     1 nodes
     212974 MiB available memory on the printing compute node when the environment starts

     Waiting for input...
     Reading input from standard input
Warning: card &CELL ignored
Warning: card   CELL_DOFREE = 'ALL' ignored
Warning: card / ignored

     Current dimensions of program PWSCF are:
     Max number of different atomic species (ntypx) = 10
     Max number of k-points (npk) =  40000
     Max angular momentum in pseudopotentials (lmaxx) =  4
     file C.pbe-n-kjpaw_psl.1.0.0.UPF: wavefunction(s)  2S 2P renormalized

     R & G space division:  proc/nbgrp/npool/nimage =      25
     Subspace diagonalization in iterative solution of the eigenvalue problem:
     one sub-group per band group will be used
     custom distributed-memory algorithm (size of sub-group:  5*  5 procs)


     Parallelization info
     --------------------
     sticks:   dense  smooth     PW     G-vecs:    dense   smooth      PW
     Min         357     204     56                53314    23031    3341
     Max         358     205     57                53323    23038    3348
     Sum        8941    5109   1411              1332973   575857   83601

     Using Slab Decomposition



     bravais-lattice index     =            0
     lattice parameter (alat)  =      20.9009  a.u.
     unit-cell volume          =   16846.7507 (a.u.)^3
     number of atoms/cell      =           63
     number of atomic types    =            4
     number of electrons       =      1004.00
     number of Kohn-Sham states=          602
     kinetic-energy cutoff     =      40.0000  Ry
     charge density cutoff     =     280.0000  Ry
     scf convergence threshold =      1.0E-06
     mixing beta               =       0.4000
     number of iterations used =            8  plain     mixing
     energy convergence thresh.=      1.0E-05
     force convergence thresh. =      5.0E-04
     Exchange-correlation= PBE
                           (   1   4   3   4   0   0   0)
     nstep                     =          500


     celldm(1)=  20.900943  celldm(2)=   0.000000  celldm(3)=   0.000000
     celldm(4)=   0.000000  celldm(5)=   0.000000  celldm(6)=   0.000000

     crystal axes: (cart. coord. in units of alat)
               a(1) = (   1.000000   0.000000   0.000000 )  
               a(2) = (  -0.223489   0.918700   0.000000 )  
               a(3) = (  -4.200249  -1.021781   2.008375 )  

     reciprocal axes: (cart. coord. in units 2 pi/alat)
               b(1) = (  1.000000  0.243267  2.215131 )  
               b(2) = ( -0.000000  1.088495  0.553783 )  
               b(3) = (  0.000000 -0.000000  0.497915 )  


     PseudoPot. # 1 for Zn read from file:
     /home/yongsang/Research/PSID_server_room/qe/[00]QE/qepseudo/SSSP_1.3.0_PBE_efficiency/Zn_pbe_v1.uspp.F.UPF
     MD5 check sum: df62231357ef9e81f77b2b3087fa5675
     Pseudo is Ultrasoft, Zval = 20.0
     Generated by new atomic code, or converted to UPF format
     Using radial grid of  943 points,  6 beta functions with: 
                l(1) =   0
                l(2) =   0
                l(3) =   1
                l(4) =   1
                l(5) =   2
                l(6) =   2
     Q(r) pseudized with  8 coefficients,  rinner =    1.100   1.100   1.100
                                                       1.100   1.100

     PseudoPot. # 2 for N  read from file:
     /home/yongsang/Research/PSID_server_room/qe/[00]QE/qepseudo/SSSP_1.3.0_PBE_efficiency/N.pbe-n-radius_5.UPF
     MD5 check sum: 16739722b17309cd8fe442a2ace49922
     Pseudo is Ultrasoft + core correction, Zval =  5.0
     Generated using "atomic" code by A. Dal Corso  v.5.1
     Using radial grid of 1085 points,  4 beta functions with: 
                l(1) =   0
                l(2) =   0
                l(3) =   1
                l(4) =   1
     Q(r) pseudized with 0 coefficients 


     PseudoPot. # 3 for C  read from file:
     /home/yongsang/Research/PSID_server_room/qe/[00]QE/qepseudo/SSSP_1.3.0_PBE_efficiency/C.pbe-n-kjpaw_psl.1.0.0.UPF
     MD5 check sum: 5d2aebdfa2cae82b50a7e79e9516da0f
     Pseudo is Projector augmented-wave + core cor, Zval =  4.0
     Generated using "atomic" code by A. Dal Corso  v.5.1
     Shape of augmentation charge: PSQ
     Using radial grid of 1073 points,  4 beta functions with: 
                l(1) =   0
                l(2) =   0
                l(3) =   1
                l(4) =   1
     Q(r) pseudized with 0 coefficients 


     PseudoPot. # 4 for H  read from file:
     /home/yongsang/Research/PSID_server_room/qe/[00]QE/qepseudo/SSSP_1.3.0_PBE_efficiency/H.pbe-rrkjus_psl.1.0.0.UPF
     MD5 check sum: f52b6d4d1c606e5624b1dc7b2218f220
     Pseudo is Ultrasoft, Zval =  1.0
     Generated using "atomic" code by A. Dal Corso  v.5.1
     Using radial grid of  929 points,  2 beta functions with: 
                l(1) =   0
                l(2) =   0
     Q(r) pseudized with 0 coefficients 


     atomic species   valence    mass     pseudopotential
     Zn               20.00    65.38000     Zn( 1.00)
     N                 5.00    14.00674     N ( 1.00)
     C                 4.00    12.01070     C ( 1.00)
     H                 1.00     1.00794     H ( 1.00)

     No symmetry found


                                    s                        frac. trans.

      isym =  1     identity                                     

 cryst.   s( 1) = (     1          0          0      )
                  (     0          1          0      )
                  (     0          0          1      )

 cart.    s( 1) = (  1.0000000  0.0000000  0.0000000 )
                  (  0.0000000  1.0000000  0.0000000 )
                  (  0.0000000  0.0000000  1.0000000 )


   Cartesian axes

     site n.     atom                  positions (alat units)
         1        Zn     tau(   1) = (  -0.0970639   0.0980210   0.1082940  )
         2        Zn     tau(   2) = (  -0.2088085   0.5573710   0.1082940  )
         3        Zn     tau(   3) = (  -0.3841783   0.0276661   0.3915357  )
         4        Zn     tau(   4) = (  -0.4975013   0.4863655   0.3921250  )
         5        Zn     tau(   5) = (  -0.7387509  -0.0613059   0.5255212  )
         6        Zn     tau(   6) = (  -0.8484303   0.3998618   0.5394218  )
         7        Zn     tau(   7) = (  -0.1529361   0.3276960   0.1082940  )
         8        Zn     tau(   8) = (  -0.2646808   0.7870460   0.1082940  )
         9        Zn     tau(   9) = (  -0.4412920   0.2571880   0.3918299  )
        10        Zn     tau(  10) = (  -0.5521884   0.7162065   0.3914206  )
        11        Zn     tau(  11) = (  -0.7964037   0.1676880   0.5235329  )
        12        Zn     tau(  12) = (  -0.9082651   0.6286234   0.5238137  )
        13        Zn     tau(  13) = (   0.4029362   0.0980210   0.1082940  )
        14        Zn     tau(  14) = (   0.2911915   0.5573710   0.1082940  )
        15        Zn     tau(  15) = (   0.0357593   0.0083534   0.3141105  )
        16        Zn     tau(  16) = (  -0.0756617   0.4684495   0.3113945  )
        17        Zn     tau(  17) = (  -0.1891338  -0.0458407   0.5112394  )
        18        Zn     tau(  18) = (  -0.3023918   0.4134394   0.5116221  )
        19        Zn     tau(  19) = (   0.3470638   0.3276960   0.1082940  )
        20        Zn     tau(  20) = (   0.2353192   0.7870460   0.1082940  )
        21        Zn     tau(  21) = (  -0.0192796   0.2371652   0.3116620  )
        22        Zn     tau(  22) = (  -0.1321587   0.6975933   0.3139508  )
        23        Zn     tau(  23) = (  -0.2459119   0.1829265   0.5112915  )
        24        Zn     tau(  24) = (  -0.3571907   0.6428752   0.5116539  )
        25        Zn     tau(  25) = (   0.1529361   0.0372043   0.0773528  )
        26        Zn     tau(  26) = (   0.0411915   0.4965543   0.0773528  )
        27        Zn     tau(  27) = (  -0.2029252  -0.0493673   0.2596974  )
        28        Zn     tau(  28) = (  -0.3161796   0.4094451   0.2588915  )
        29        Zn     tau(  29) = (  -0.5489747  -0.1350823   0.3965436  )
        30        Zn     tau(  30) = (  -0.6633466   0.3246777   0.4025993  )
        31        Zn     tau(  31) = (   0.0970639   0.2668793   0.0773528  )
        32        Zn     tau(  32) = (  -0.0146808   0.7262293   0.0773528  )
        33        Zn     tau(  33) = (  -0.2594833   0.1804782   0.2590221  )
        34        Zn     tau(  34) = (  -0.3711355   0.6391650   0.2596525  )
        35        Zn     tau(  35) = (  -0.6051717   0.0949705   0.3965836  )
        36        Zn     tau(  36) = (  -0.7185347   0.5536050   0.4022109  )
        37        Zn     tau(  37) = (   0.6529362   0.0372043   0.0773528  )
        38        Zn     tau(  38) = (   0.5411915   0.4965543   0.0773528  )
        39        Zn     tau(  39) = (   0.2678599  -0.0571198   0.2647582  )
        40        Zn     tau(  40) = (   0.1575239   0.4027963   0.2657163  )
        41        Zn     tau(  41) = (   0.0363712  -0.1122109   0.5273125  )
        42        Zn     tau(  42) = (  -0.0769655   0.3469096   0.5173944  )
        43        Zn     tau(  43) = (   0.5970639   0.2668793   0.0773528  )
        44        Zn     tau(  44) = (   0.4853193   0.7262293   0.0773528  )
        45        Zn     tau(  45) = (   0.2142579   0.1735531   0.2644197  )
        46        Zn     tau(  46) = (   0.1021676   0.6321218   0.2643890  )
        47        Zn     tau(  47) = (  -0.0200314   0.1185088   0.5286339  )
        48        Zn     tau(  48) = (  -0.1315100   0.5757355   0.5275155  )
        49        C      tau(  49) = (  -0.5335478   0.4978512   1.1178818  )
        50        C      tau(  50) = (  -0.6218451   0.4702779   1.0280565  )
        51        C      tau(  51) = (  -0.7002687   0.5605818   0.9845469  )
        52        C      tau(  52) = (  -0.6323555   0.3520408   0.9821698  )
        53        C      tau(  53) = (  -0.7872961   0.5329179   0.8984841  )
        54        C      tau(  54) = (  -0.7194668   0.3246295   0.8961107  )
        55        C      tau(  55) = (  -0.7990477   0.4143652   0.8541204  )
        56        N      tau(  56) = (  -0.4614252   0.5208591   1.1914331  )
        57        N      tau(  57) = (  -0.8847795   0.3874063   0.7652865  )
        58        H      tau(  58) = (  -0.9112565   0.2992203   0.7601582  )
        59        H      tau(  59) = (  -0.9569909   0.4444842   0.7607849  )
        60        H      tau(  60) = (  -0.5717019   0.2818601   1.0152441  )
        61        H      tau(  61) = (  -0.6925083   0.6523372   1.0196934  )
        62        H      tau(  62) = (  -0.7264763   0.2328732   0.8607815  )
        63        H      tau(  63) = (  -0.8474464   0.6035663   0.8651773  )

     --------------------------------------------
     DFT-D3 Dispersion Correction (3-body terms):
     --------------------------------------------
       Reference C6 values for interpolation: 

         atom   Coordination number   C6
         H          0.912             6.05
         H          0.000            15.18
         C          0.000            98.23
         C          0.987            86.49
         C          1.998            58.72
         C          2.999            51.56
         C          3.984            36.41
         N          0.000            50.54
         N          0.994            44.25
         N          2.014            39.35
         N          2.990            31.16
         Zn         0.000           681.04
         Zn         1.942           306.91

       Values used:

         atom   Coordination number  R0_AB[au]  C6      C8
         Zn         6.286            3.053    306.91  23930.67
         Zn         6.284            3.053    306.91  23930.67
         Zn         6.997            3.053    306.91  23930.67
         Zn         6.969            3.053    306.91  23930.67
         Zn         5.026            3.053    306.91  23930.67
         Zn         4.997            3.053    306.91  23930.67
         Zn         6.297            3.053    306.91  23930.67
         Zn         6.255            3.053    306.91  23930.67
         Zn         6.978            3.053    306.91  23930.67
         Zn         6.974            3.053    306.91  23930.67
         Zn         5.098            3.053    306.91  23930.67
         Zn         5.106            3.053    306.91  23930.67
         Zn         4.858            3.053    306.91  23930.67
         Zn         4.825            3.053    306.91  23930.67
         Zn         7.245            3.053    306.91  23930.67
         Zn         7.341            3.053    306.91  23930.67
         Zn         5.919            3.053    306.91  23930.67
         Zn         5.895            3.053    306.91  23930.67
         Zn         4.826            3.053    306.91  23930.67
         Zn         4.855            3.053    306.91  23930.67
         Zn         7.337            3.053    306.91  23930.67
         Zn         7.249            3.053    306.91  23930.67
         Zn         5.914            3.053    306.91  23930.67
         Zn         5.900            3.053    306.91  23930.67
         Zn         5.595            3.053    306.91  23930.67
         Zn         5.627            3.053    306.91  23930.67
         Zn         8.059            3.053    306.91  23930.67
         Zn         8.051            3.053    306.91  23930.67
         Zn         7.085            3.053    306.91  23930.67
         Zn         7.040            3.053    306.91  23930.67
         Zn         5.621            3.053    306.91  23930.67
         Zn         5.599            3.053    306.91  23930.67
         Zn         8.062            3.053    306.91  23930.67
         Zn         8.049            3.053    306.91  23930.67
         Zn         7.083            3.053    306.91  23930.67
         Zn         7.039            3.053    306.91  23930.67
         Zn         4.975            3.053    306.91  23930.67
         Zn         4.989            3.053    306.91  23930.67
         Zn         8.339            3.053    306.91  23930.67
         Zn         8.140            3.053    306.91  23930.67
         Zn         5.988            3.053    306.91  23930.67
         Zn         6.146            3.053    306.91  23930.67
         Zn         4.998            3.053    306.91  23930.67
         Zn         4.969            3.053    306.91  23930.67
         Zn         8.370            3.053    306.91  23930.67
         Zn         8.365            3.053    306.91  23930.67
         Zn         5.952            3.053    306.91  23930.67
         Zn         5.970            3.053    306.91  23930.67
         C          2.098            2.750     58.61   1695.05
         C          3.148            2.750     50.55   1461.90
         C          3.171            2.750     50.35   1456.33
         C          3.172            2.750     50.34   1456.00
         C          3.166            2.750     50.40   1457.58
         C          3.165            2.750     50.40   1457.69
         C          3.155            2.750     50.49   1460.28
         N          1.021            2.478     44.24    976.02
         N          3.389            2.478     31.17    687.66
         H          1.015            2.062      6.17     74.56
         H          1.015            2.062      6.17     74.56
         H          1.004            2.062      6.18     74.68
         H          1.003            2.062      6.18     74.68
         H          1.004            2.062      6.18     74.67
         H          1.004            2.062      6.18     74.67

         Molecular C6 ( Ry / a.u.^6 ) =    840957.13


   Crystallographic axes

     site n.     atom                  positions (cryst. coord.)
         1        Zn     tau(   1) = (  0.1666667  0.1666667  0.0539212  )
         2        Zn     tau(   2) = (  0.1666668  0.6666667  0.0539212  )
         3        Zn     tau(   3) = (  0.4898548  0.2469401  0.1949515  )
         4        Zn     tau(   4) = (  0.4894236  0.7465583  0.1952449  )
         5        Zn     tau(   5) = (  0.4104339  0.2242935  0.2616649  )
         6        Zn     tau(   6) = (  0.4437329  0.7339699  0.2685862  )
         7        Zn     tau(   7) = (  0.1666668  0.4166667  0.0539212  )
         8        Zn     tau(   8) = (  0.1666667  0.9166667  0.0539212  )
         9        Zn     tau(   9) = (  0.4892280  0.4969365  0.1950980  )
        10        Zn     tau(  10) = (  0.4890888  0.9963489  0.1948942  )
        11        Zn     tau(  11) = (  0.4040833  0.4724509  0.2606749  )
        12        Zn     tau(  12) = (  0.4049744  0.9743323  0.2608147  )
        13        Zn     tau(  13) = (  0.6666668  0.1666667  0.0539212  )
        14        Zn     tau(  14) = (  0.6666667  0.6666667  0.0539212  )
        15        Zn     tau(  15) = (  0.7335875  0.1830416  0.1564003  )
        16        Zn     tau(  16) = (  0.7280764  0.6823497  0.1550480  )
        17        Zn     tau(  17) = (  0.9321770  0.2332182  0.2545537  )
        18        Zn     tau(  18) = (  0.9314944  0.7333541  0.2547443  )
        19        Zn     tau(  19) = (  0.6666668  0.4166667  0.0539212  )
        20        Zn     tau(  20) = (  0.6666668  0.9166667  0.0539212  )
        21        Zn     tau(  21) = (  0.7287872  0.4307461  0.1551812  )
        22        Zn     tau(  22) = (  0.7329848  0.9331871  0.1563208  )
        23        Zn     tau(  23) = (  0.9311660  0.4822590  0.2545797  )
        24        Zn     tau(  24) = (  0.9325802  0.9831113  0.2547602  )
        25        Zn     tau(  25) = (  0.3333333  0.0833333  0.0385151  )
        26        Zn     tau(  26) = (  0.3333333  0.5833333  0.0385151  )
        27        Zn     tau(  27) = (  0.3603294  0.0900799  0.1293073  )
        28        Zn     tau(  28) = (  0.3569034  0.5890484  0.1289059  )
        29        Zn     tau(  29) = (  0.2965603  0.0725626  0.1974450  )
        30        Zn     tau(  30) = (  0.3074472  0.5763626  0.2004602  )
        31        Zn     tau(  31) = (  0.3333333  0.3333333  0.0385151  )
        32        Zn     tau(  32) = (  0.3333333  0.8333333  0.0385151  )
        33        Zn     tau(  33) = (  0.3581889  0.3398915  0.1289710  )
        34        Zn     tau(  34) = (  0.3595165  0.8395187  0.1292849  )
        35        Zn     tau(  35) = (  0.2964163  0.3229960  0.1974649  )
        36        Zn     tau(  36) = (  0.3070890  0.8253335  0.2002668  )
        37        Zn     tau(  37) = (  0.8333333  0.0833333  0.0385151  )
        38        Zn     tau(  38) = (  0.8333333  0.5833333  0.0385151  )
        39        Zn     tau(  39) = (  0.8404387  0.0844439  0.1318271  )
        40        Zn     tau(  40) = (  0.8441075  0.5855908  0.1323042  )
        41        Zn     tau(  41) = (  1.1771404  0.1698756  0.2625568  )
        42        Zn     tau(  42) = (  1.1535226  0.6641333  0.2576184  )
        43        Zn     tau(  43) = (  0.8333333  0.3333333  0.0385151  )
        44        Zn     tau(  44) = (  0.8333333  0.8333333  0.0385151  )
        45        Zn     tau(  45) = (  0.8422021  0.3353427  0.1316586  )
        46        Zn     tau(  46) = (  0.8415982  0.8344753  0.1316432  )
        47        Zn     tau(  47) = (  1.1797913  0.4217445  0.2632147  )
        48        Zn     tau(  48) = (  1.1770636  0.9188140  0.2626579  )
        49        C      tau(  49) = (  2.0638179  1.1609720  0.5566101  )
        50        C      tau(  50) = (  1.7698381  1.0812150  0.5118847  )
        51        C      tau(  51) = (  1.6170030  1.1554154  0.4902207  )
        52        C      tau(  52) = (  1.6289195  0.9271032  0.4890371  )
        53        C      tau(  53) = (  1.3326055  1.0776433  0.4473687  )
        54        C      tau(  54) = (  1.3445078  0.8496082  0.4461870  )
        55        C      tau(  55) = (  1.1937426  0.9240315  0.4252794  )
        56        N      tau(  56) = (  2.3044633  1.2267474  0.5932324  )
        57        N      tau(  57) = (  0.9046737  0.8454922  0.3810476  )
        58        H      tau(  58) = (  0.8453841  0.7466622  0.3784942  )
        59        H      tau(  59) = (  0.8363758  0.9051283  0.3788062  )
        60        H      tau(  60) = (  1.7457643  0.8690279  0.5055053  )
        61        H      tau(  61) = (  1.7249385  1.2747542  0.5077206  )
        62        H      tau(  62) = (  1.2369182  0.7301672  0.4285960  )
        63        H      tau(  63) = (  1.2158626  1.1360990  0.4307848  )

     number of k points=     5  Marzari-Vanderbilt smearing, width (Ry)=  0.0200
                       cart. coord. in units 2pi/alat
        k(    1) = (   0.0000000   0.0000000   0.0000000), wk =   0.2222222
        k(    2) = (   0.0000000   0.3628315   0.1845943), wk =   0.4444444
        k(    3) = (   0.3333333   0.0810890   0.7383771), wk =   0.4444444
        k(    4) = (   0.3333333   0.4439205   0.9229714), wk =   0.4444444
        k(    5) = (   0.3333333  -0.2817426   0.5537829), wk =   0.4444444

                       cryst. coord.
        k(    1) = (   0.0000000   0.0000000   0.0000000), wk =   0.2222222
        k(    2) = (   0.0000000   0.3333333   0.0000000), wk =   0.4444444
        k(    3) = (   0.3333333   0.0000000   0.0000000), wk =   0.4444444
        k(    4) = (   0.3333333   0.3333333   0.0000000), wk =   0.4444444
        k(    5) = (   0.3333333  -0.3333333   0.0000000), wk =   0.4444444

     Dense  grid:  1332973 G-vectors     FFT dimensions: ( 120, 108, 540)

     Smooth grid:   575857 G-vectors     FFT dimensions: (  90,  80, 405)

     Dynamical RAM for                 wfc:      26.44 MB

     Dynamical RAM for     wfc (w. buffer):     158.62 MB

     Dynamical RAM for           str. fact:       3.25 MB

     Dynamical RAM for           local pot:       0.00 MB

     Dynamical RAM for          nlocal pot:      41.63 MB

     Dynamical RAM for                qrad:       5.37 MB

     Dynamical RAM for          rho,v,vnew:       8.97 MB

     Dynamical RAM for               rhoin:       2.99 MB

     Dynamical RAM for            rho*nmix:      13.02 MB

     Dynamical RAM for           G-vectors:       3.23 MB

     Dynamical RAM for          h,s,v(r/c):       2.64 MB

     Dynamical RAM for          <psi|beta>:       8.71 MB

     Dynamical RAM for                 psi:      52.87 MB

     Dynamical RAM for                hpsi:      52.87 MB

     Dynamical RAM for                spsi:      52.87 MB

     Dynamical RAM for      wfcinit/wfcrot:      68.65 MB

     Dynamical RAM for           addusdens:     190.39 MB

     Dynamical RAM for          addusforce:     267.47 MB

     Dynamical RAM for         addusstress:     163.54 MB

     Estimated static dynamical RAM per process >     239.01 MB

     Estimated max dynamical RAM per process >     519.49 MB

     Estimated total dynamical RAM >      12.68 GB

     Initial potential from superposition of free atoms

     starting charge    1003.9929, renormalised to    1004.0000

     negative rho (up, down):  2.306E-03 0.000E+00
     Starting wfcs are  666 randomized atomic wfcs
     Checking if some PAW data can be deallocated... 
       PAW data deallocated on   21 nodes for type:  3

     total cpu time spent up to now is       41.9 secs

     Self-consistent Calculation

     iteration #  1     ecut=    40.00 Ry     beta= 0.40
     Davidson diagonalization with overlap

---- Real-time Memory Report at c_bands before calling an iterative solver
           472 MiB given to the printing process from OS
             0 MiB allocation reported by mallinfo(arena+hblkhd)
        206230 MiB available memory on the node where the printing process lives
------------------
     ethr =  1.00E-02,  avg # of iterations =  7.8

     Threshold (ethr) on eigenvalues was too large:
     Diagonalizing with lowered threshold

     Davidson diagonalization with overlap

---- Real-time Memory Report at c_bands before calling an iterative solver
           622 MiB given to the printing process from OS
             0 MiB allocation reported by mallinfo(arena+hblkhd)
        205233 MiB available memory on the node where the printing process lives
------------------
     ethr =  9.91E-04,  avg # of iterations =  1.4

     negative rho (up, down):  2.970E-03 0.000E+00

     total cpu time spent up to now is      309.1 secs

     total energy              =  -22326.62552906 Ry
     estimated scf accuracy    <      10.04127448 Ry

     iteration #  2     ecut=    40.00 Ry     beta= 0.40
     Davidson diagonalization with overlap

---- Real-time Memory Report at c_bands before calling an iterative solver
           654 MiB given to the printing process from OS
             0 MiB allocation reported by mallinfo(arena+hblkhd)
        205213 MiB available memory on the node where the printing process lives
------------------
     ethr =  1.00E-03,  avg # of iterations =  9.4

     negative rho (up, down):  4.330E-03 0.000E+00

     total cpu time spent up to now is      464.5 secs

     total energy              =  -22314.96991075 Ry
     estimated scf accuracy    <     219.36778459 Ry

     iteration #  3     ecut=    40.00 Ry     beta= 0.40
     Davidson diagonalization with overlap

---- Real-time Memory Report at c_bands before calling an iterative solver
           655 MiB given to the printing process from OS
             0 MiB allocation reported by mallinfo(arena+hblkhd)
        205074 MiB available memory on the node where the printing process lives
------------------
     ethr =  1.00E-03,  avg # of iterations =  7.0

     negative rho (up, down):  4.169E-03 0.000E+00

     total cpu time spent up to now is      641.0 secs

     total energy              =  -22330.18294449 Ry
     estimated scf accuracy    <       9.08251132 Ry

     iteration #  4     ecut=    40.00 Ry     beta= 0.40
     Davidson diagonalization with overlap

---- Real-time Memory Report at c_bands before calling an iterative solver
           660 MiB given to the printing process from OS
             0 MiB allocation reported by mallinfo(arena+hblkhd)
        205058 MiB available memory on the node where the printing process lives
------------------
     ethr =  9.05E-04,  avg # of iterations =  3.0

     negative rho (up, down):  4.030E-03 0.000E+00

     total cpu time spent up to now is      767.2 secs

     total energy              =  -22330.72359517 Ry
     estimated scf accuracy    <       4.59306548 Ry

     iteration #  5     ecut=    40.00 Ry     beta= 0.40
     Davidson diagonalization with overlap

---- Real-time Memory Report at c_bands before calling an iterative solver
           660 MiB given to the printing process from OS
             0 MiB allocation reported by mallinfo(arena+hblkhd)
        205054 MiB available memory on the node where the printing process lives
------------------
     ethr =  4.57E-04,  avg # of iterations =  2.0

     negative rho (up, down):  3.910E-03 0.000E+00

     total cpu time spent up to now is      888.8 secs

     total energy              =  -22331.04296766 Ry
     estimated scf accuracy    <       0.33392017 Ry

     iteration #  6     ecut=    40.00 Ry     beta= 0.40
     Davidson diagonalization with overlap

---- Real-time Memory Report at c_bands before calling an iterative solver
           661 MiB given to the printing process from OS
             0 MiB allocation reported by mallinfo(arena+hblkhd)
        205029 MiB available memory on the node where the printing process lives
------------------
     ethr =  3.33E-05,  avg # of iterations = 14.6

     negative rho (up, down):  3.904E-03 0.000E+00

     total cpu time spent up to now is     1036.5 secs

     total energy              =  -22331.04782372 Ry
     estimated scf accuracy    <       0.13795722 Ry

     iteration #  7     ecut=    40.00 Ry     beta= 0.40
     Davidson diagonalization with overlap

---- Real-time Memory Report at c_bands before calling an iterative solver
           662 MiB given to the printing process from OS
             0 MiB allocation reported by mallinfo(arena+hblkhd)
        205003 MiB available memory on the node where the printing process lives
------------------
     ethr =  1.37E-05,  avg # of iterations =  9.0

     negative rho (up, down):  3.954E-03 0.000E+00

     total cpu time spent up to now is     1172.3 secs

     total energy              =  -22331.05009622 Ry
     estimated scf accuracy    <       0.04798479 Ry

     iteration #  8     ecut=    40.00 Ry     beta= 0.40
     Davidson diagonalization with overlap

---- Real-time Memory Report at c_bands before calling an iterative solver
           663 MiB given to the printing process from OS
             0 MiB allocation reported by mallinfo(arena+hblkhd)
        204977 MiB available memory on the node where the printing process lives
------------------
     c_bands:  1 eigenvalues not converged
     ethr =  4.78E-06,  avg # of iterations = 15.2

     negative rho (up, down):  3.994E-03 0.000E+00

     total cpu time spent up to now is     1323.5 secs

     total energy              =  -22331.05036316 Ry
     estimated scf accuracy    <       0.04744382 Ry

     iteration #  9     ecut=    40.00 Ry     beta= 0.40
     Davidson diagonalization with overlap

---- Real-time Memory Report at c_bands before calling an iterative solver
           664 MiB given to the printing process from OS
             0 MiB allocation reported by mallinfo(arena+hblkhd)
        204952 MiB available memory on the node where the printing process lives
------------------
     ethr =  4.73E-06,  avg # of iterations =  2.8

     negative rho (up, down):  4.019E-03 0.000E+00

     total cpu time spent up to now is     1448.9 secs

     total energy              =  -22331.05240376 Ry
     estimated scf accuracy    <       0.01407870 Ry

     iteration # 10     ecut=    40.00 Ry     beta= 0.40
     Davidson diagonalization with overlap

---- Real-time Memory Report at c_bands before calling an iterative solver
           665 MiB given to the printing process from OS
             0 MiB allocation reported by mallinfo(arena+hblkhd)
        204928 MiB available memory on the node where the printing process lives
------------------
     c_bands:  1 eigenvalues not converged
     ethr =  1.40E-06,  avg # of iterations = 18.0

     negative rho (up, down):  4.042E-03 0.000E+00

     total cpu time spent up to now is     1593.4 secs

     total energy              =  -22331.05102045 Ry
     estimated scf accuracy    <       0.01077262 Ry

     iteration # 11     ecut=    40.00 Ry     beta= 0.40
     Davidson diagonalization with overlap

---- Real-time Memory Report at c_bands before calling an iterative solver
           665 MiB given to the printing process from OS
             0 MiB allocation reported by mallinfo(arena+hblkhd)
        204914 MiB available memory on the node where the printing process lives
------------------
     ethr =  1.07E-06,  avg # of iterations =  7.4

     negative rho (up, down):  4.101E-03 0.000E+00

     total cpu time spent up to now is     1723.3 secs

     total energy              =  -22331.04691458 Ry
     estimated scf accuracy    <       0.00746340 Ry

     iteration # 12     ecut=    40.00 Ry     beta= 0.40
     Davidson diagonalization with overlap

---- Real-time Memory Report at c_bands before calling an iterative solver
           665 MiB given to the printing process from OS
             0 MiB allocation reported by mallinfo(arena+hblkhd)
        205005 MiB available memory on the node where the printing process lives
------------------
     c_bands:  1 eigenvalues not converged
     ethr =  7.43E-07,  avg # of iterations = 17.2

     negative rho (up, down):  4.094E-03 0.000E+00

     total cpu time spent up to now is     1889.1 secs

     total energy              =  -22331.04748023 Ry
     estimated scf accuracy    <       0.00182306 Ry

     iteration # 13     ecut=    40.00 Ry     beta= 0.40
     Davidson diagonalization with overlap

---- Real-time Memory Report at c_bands before calling an iterative solver
           665 MiB given to the printing process from OS
             0 MiB allocation reported by mallinfo(arena+hblkhd)
        205004 MiB available memory on the node where the printing process lives
------------------
     ethr =  1.82E-07,  avg # of iterations =  3.0

     negative rho (up, down):  4.084E-03 0.000E+00

     total cpu time spent up to now is     2014.3 secs

     total energy              =  -22331.04755262 Ry
     estimated scf accuracy    <       0.00039764 Ry

     iteration # 14     ecut=    40.00 Ry     beta= 0.40
     Davidson diagonalization with overlap

---- Real-time Memory Report at c_bands before calling an iterative solver
           665 MiB given to the printing process from OS
             0 MiB allocation reported by mallinfo(arena+hblkhd)
        205002 MiB available memory on the node where the printing process lives
------------------
     c_bands:  2 eigenvalues not converged
     ethr =  3.96E-08,  avg # of iterations =  6.4

     negative rho (up, down):  4.086E-03 0.000E+00

     total cpu time spent up to now is     2145.2 secs

     total energy              =  -22331.04748377 Ry
     estimated scf accuracy    <       0.00260203 Ry

     iteration # 15     ecut=    40.00 Ry     beta= 0.40
     Davidson diagonalization with overlap

---- Real-time Memory Report at c_bands before calling an iterative solver
           665 MiB given to the printing process from OS
             0 MiB allocation reported by mallinfo(arena+hblkhd)
        205002 MiB available memory on the node where the printing process lives
------------------
     ethr =  3.96E-08,  avg # of iterations =  6.2

     negative rho (up, down):  4.081E-03 0.000E+00

     total cpu time spent up to now is     2272.1 secs

     total energy              =  -22331.04765628 Ry
     estimated scf accuracy    <       0.00004084 Ry

     iteration # 16     ecut=    40.00 Ry     beta= 0.40
     Davidson diagonalization with overlap

---- Real-time Memory Report at c_bands before calling an iterative solver
           665 MiB given to the printing process from OS
             0 MiB allocation reported by mallinfo(arena+hblkhd)
        205000 MiB available memory on the node where the printing process lives
------------------
     ethr =  4.07E-09,  avg # of iterations =  2.0

     negative rho (up, down):  4.080E-03 0.000E+00

     total cpu time spent up to now is     2396.2 secs

     total energy              =  -22331.04765842 Ry
     estimated scf accuracy    <       0.00001228 Ry

     iteration # 17     ecut=    40.00 Ry     beta= 0.40
     Davidson diagonalization with overlap

---- Real-time Memory Report at c_bands before calling an iterative solver
           665 MiB given to the printing process from OS
             0 MiB allocation reported by mallinfo(arena+hblkhd)
        204999 MiB available memory on the node where the printing process lives
------------------
     ethr =  1.22E-09,  avg # of iterations =  2.2

     negative rho (up, down):  4.079E-03 0.000E+00

     total cpu time spent up to now is     2518.5 secs

     total energy              =  -22331.04765969 Ry
     estimated scf accuracy    <       0.00000461 Ry

     iteration # 18     ecut=    40.00 Ry     beta= 0.40
     Davidson diagonalization with overlap

---- Real-time Memory Report at c_bands before calling an iterative solver
           665 MiB given to the printing process from OS
             0 MiB allocation reported by mallinfo(arena+hblkhd)
        204997 MiB available memory on the node where the printing process lives
------------------
     ethr =  4.59E-10,  avg # of iterations =  3.0

     negative rho (up, down):  4.079E-03 0.000E+00

     total cpu time spent up to now is     2642.8 secs

     total energy              =  -22331.04766002 Ry
     estimated scf accuracy    <       0.00000222 Ry

     iteration # 19     ecut=    40.00 Ry     beta= 0.40
     Davidson diagonalization with overlap

---- Real-time Memory Report at c_bands before calling an iterative solver
           665 MiB given to the printing process from OS
             0 MiB allocation reported by mallinfo(arena+hblkhd)
        204996 MiB available memory on the node where the printing process lives
------------------
     ethr =  2.21E-10,  avg # of iterations =  2.2

     negative rho (up, down):  4.079E-03 0.000E+00

     total cpu time spent up to now is     2763.2 secs

     total energy              =  -22331.04766025 Ry
     estimated scf accuracy    <       0.00000121 Ry

     iteration # 20     ecut=    40.00 Ry     beta= 0.40
     Davidson diagonalization with overlap

---- Real-time Memory Report at c_bands before calling an iterative solver
           665 MiB given to the printing process from OS
             0 MiB allocation reported by mallinfo(arena+hblkhd)
        204995 MiB available memory on the node where the printing process lives
------------------
     ethr =  1.20E-10,  avg # of iterations =  2.0

     negative rho (up, down):  4.079E-03 0.000E+00

     total cpu time spent up to now is     2884.3 secs

     End of self-consistent calculation

          k = 0.0000 0.0000 0.0000 ( 71933 PWs)   bands (ev):

  -125.1909-125.1873-125.1790-125.1790-125.1781-125.1778-125.1768-125.1541
  -125.0832-125.0820-125.0753-125.0725-125.0701-125.0687-125.0683-125.0666
  -125.0062-125.0030-125.0013-124.9932-124.9907-124.9894-124.9846-124.9845
  -124.9785-124.9753-124.9738-124.9726-124.9294-124.9273-124.9246-124.9229
  -124.8984-124.8964-124.8954-124.8927-124.8832-124.8789-124.8779-124.8764
  -124.8720-124.8688-124.8610-124.8587-124.8391-124.8354-124.8211-124.7879
   -79.3495 -79.3459 -79.3420 -79.3396 -79.3384 -79.3377 -79.3371 -79.3366
   -79.3350 -79.3347 -79.3344 -79.3310 -79.3260 -79.3248 -79.3246 -79.3231
   -79.3228 -79.3223 -79.3220 -79.3216 -79.3131 -79.3096 -79.2992 -79.2981
   -79.2437 -79.2399 -79.2392 -79.2327 -79.2323 -79.2298 -79.2292 -79.2279
   -79.2267 -79.2229 -79.2214 -79.2190 -79.2183 -79.2175 -79.2169 -79.2158
   -79.2148 -79.2144 -79.2141 -79.2136 -79.2116 -79.2087 -79.2078 -79.2048
   -79.1650 -79.1638 -79.1586 -79.1572 -79.1565 -79.1536 -79.1512 -79.1500
   -79.1483 -79.1476 -79.1469 -79.1458 -79.1453 -79.1452 -79.1439 -79.1434
   -79.1413 -79.1399 -79.1385 -79.1376 -79.1369 -79.1368 -79.1328 -79.1317
   -79.1313 -79.1309 -79.1287 -79.1278 -79.1269 -79.1263 -79.1240 -79.1237
   -79.1223 -79.1217 -79.1172 -79.1166 -79.0992 -79.0972 -79.0948 -79.0932
   -79.0777 -79.0752 -79.0739 -79.0728 -79.0709 -79.0707 -79.0685 -79.0676
   -79.0645 -79.0617 -79.0615 -79.0532 -79.0529 -79.0491 -79.0482 -79.0477
   -79.0457 -79.0451 -79.0435 -79.0425 -79.0417 -79.0415 -79.0400 -79.0394
   -79.0392 -79.0368 -79.0298 -79.0291 -79.0284 -79.0279 -79.0279 -79.0256
   -79.0245 -79.0240 -79.0226 -79.0223 -79.0213 -79.0180 -79.0165 -79.0108
   -79.0098 -79.0083 -79.0070 -79.0066 -79.0040 -78.9942 -78.9891 -78.9872
   -78.9848 -78.9830 -78.9776 -78.9692 -78.9606 -78.9564 -78.9377 -78.9369
   -18.5438 -17.0373 -16.2482 -13.8288 -13.7934 -10.8101 -10.5649  -8.6533
    -8.1687  -8.0953  -8.0062  -7.3901  -7.1251  -6.9541  -6.9478  -6.9420
    -6.9112  -6.8611  -6.8580  -6.8365  -6.7924  -6.7734  -6.7480  -6.7228
    -6.7185  -6.6793  -6.6641  -6.6464  -6.6292  -6.6233  -6.6164  -6.5961
    -6.5946  -6.5713  -6.5409  -6.5368  -6.5338  -6.5075  -6.5054  -6.5051
    -6.5027  -6.4768  -6.4675  -6.4553  -6.4542  -6.4477  -6.4409  -6.4381
    -6.4295  -6.4273  -6.4265  -6.4237  -6.4165  -6.4075  -6.3958  -6.3941
    -6.3918  -6.3904  -6.3882  -6.3810  -6.3721  -6.3529  -6.3443  -6.3398
    -6.3340  -6.3287  -6.3231  -6.3173  -6.3006  -6.2889  -6.2750  -6.2707
    -6.2655  -6.2618  -6.2436  -6.2394  -6.2336  -6.2292  -6.2166  -6.2139
    -6.2138  -6.1908  -6.1865  -6.1824  -6.1732  -6.1615  -6.1568  -6.1458
    -6.1409  -6.1290  -6.1242  -6.1209  -6.1178  -6.1097  -6.1070  -6.1018
    -6.0967  -6.0931  -6.0884  -6.0834  -6.0736  -6.0703  -6.0656  -6.0605
    -6.0551  -6.0522  -6.0433  -6.0286  -6.0174  -6.0155  -6.0114  -5.9879
    -5.9857  -5.9818  -5.9711  -5.9637  -5.9610  -5.9591  -5.9496  -5.9448
    -5.9400  -5.9352  -5.9323  -5.9301  -5.9261  -5.9189  -5.9159  -5.9151
    -5.9110  -5.9089  -5.9032  -5.8961  -5.8880  -5.8860  -5.8824  -5.8673
    -5.8630  -5.8608  -5.8589  -5.8571  -5.8532  -5.8520  -5.8399  -5.8387
    -5.8358  -5.8322  -5.8312  -5.8290  -5.8223  -5.8209  -5.8143  -5.8073
    -5.8038  -5.8018  -5.7978  -5.7801  -5.7789  -5.7757  -5.7655  -5.7583
    -5.7554  -5.7514  -5.7444  -5.7440  -5.7352  -5.7331  -5.7273  -5.7239
    -5.7237  -5.7193  -5.7178  -5.7124  -5.7052  -5.7015  -5.6979  -5.6959
    -5.6895  -5.6885  -5.6858  -5.6779  -5.6749  -5.6644  -5.6642  -5.6583
    -5.6574  -5.6459  -5.6457  -5.6442  -5.6389  -5.6375  -5.6357  -5.6301
    -5.6234  -5.6139  -5.6107  -5.6049  -5.6015  -5.5956  -5.5942  -5.5899
    -5.5845  -5.5821  -5.5795  -5.5757  -5.5709  -5.5664  -5.5638  -5.5583
    -5.5550  -5.5535  -5.5487  -5.5439  -5.5395  -5.5356  -5.5293  -5.5273
    -5.5227  -5.5219  -5.5208  -5.5123  -5.5106  -5.5101  -5.5073  -5.4922
    -5.4900  -5.4887  -5.4882  -5.4844  -5.4813  -5.4781  -5.4755  -5.4727
    -5.4664  -5.4657  -5.4610  -5.4559  -5.4542  -5.4526  -5.4496  -5.4464
    -5.4442  -5.4288  -5.4153  -5.4101  -5.4061  -5.3917  -5.3903  -5.3771
    -5.3747  -5.3691  -5.3654  -5.3528  -5.3379  -5.3255  -5.2948  -5.2925
    -5.2461  -5.2365  -5.1657  -5.1308  -5.1142  -5.0407  -4.7121  -4.5708
    -4.3602  -4.3570  -4.1725  -3.9691  -3.8973  -3.8890  -3.6729  -3.5906
    -3.5593  -2.9273  -2.8035  -2.6111  -2.5896  -2.4169  -2.4087  -2.2293
    -2.0544  -1.8543  -1.8380  -1.6717  -1.6459  -1.6348  -1.6047  -1.4689
    -1.4423  -1.3808  -1.3321  -1.2887  -0.9276  -0.8929  -0.5334  -0.3369
    -0.1096  -0.0593  -0.0123   0.0737   0.0818   0.1428   0.2130   0.2693
     0.5841   0.6729   0.6828   0.7416   1.0132   1.0447   1.5837   1.8052
     1.8888   1.8935   1.9943   2.0594   2.1604   2.2400   2.2857   2.3717
     2.4241   2.5083   2.7464   2.8293   2.8441   3.1740   3.2667   3.2679
     3.3059   3.4063   3.4823   3.5080   3.8357   4.0078   4.0422   4.0542
     4.0805   4.1936   4.2989   4.3078   4.5561   4.6752   4.7833   4.8434
     5.0183   5.1810   5.1960   5.3154   5.3423   5.3595   5.4720   5.4888
     5.5371   5.5449   5.6102   5.7234   5.7522   5.8883   5.9532   5.9900
     6.0034   6.0501   6.1044   6.1306   6.1484   6.1530   6.2206   6.2722
     6.2874   6.2983   6.3321   6.3787   6.3945   6.4790   6.5078   6.5516
     6.5973   6.6317   6.6617   6.6870   6.7378   6.7886   6.8843   6.9290
     7.0245   7.0712   7.1106   7.2045   7.2180   7.2403   7.2903   7.3407
     7.3766   7.4212   7.4512   7.4575   7.5168   7.5618   7.5753   7.6194
     7.6775   7.7686   7.8123   7.8425   7.9050   7.9472   7.9829   8.0289
     8.0422   8.0869

     occupation numbers 
     1.0000   1.0000   1.0000   1.0000   1.0000   1.0000   1.0000   1.0000
     1.0000   1.0000   1.0000   1.0000   1.0000   1.0000   1.0000   1.0000
     1.0000   1.0000   1.0000   1.0000   1.0000   1.0000   1.0000   1.0000
     1.0000   1.0000   1.0000   1.0000   1.0000   1.0000   1.0000   1.0000
     1.0000   1.0000   1.0000   1.0000   1.0000   1.0000   1.0000   1.0000
     1.0000   1.0000   1.0000   1.0000   1.0000   1.0000   1.0000   1.0000
     1.0000   1.0000   1.0000   1.0000   1.0000   1.0000   1.0000   1.0000
     1.0000   1.0000   1.0000   1.0000   1.0000   1.0000   1.0000   1.0000
     1.0000   1.0000   1.0000   1.0000   1.0000   1.0000   1.0000   1.0000
     1.0000   1.0000   1.0000   1.0000   1.0000   1.0000   1.0000   1.0000
     1.0000   1.0000   1.0000   1.0000   1.0000   1.0000   1.0000   1.0000
     1.0000   1.0000   1.0000   1.0000   1.0000   1.0000   1.0000   1.0000
     1.0000   1.0000   1.0000   1.0000   1.0000   1.0000   1.0000   1.0000
     1.0000   1.0000   1.0000   1.0000   1.0000   1.0000   1.0000   1.0000
     1.0000   1.0000   1.0000   1.0000   1.0000   1.0000   1.0000   1.0000
     1.0000   1.0000   1.0000   1.0000   1.0000   1.0000   1.0000   1.0000
     1.0000   1.0000   1.0000   1.0000   1.0000   1.0000   1.0000   1.0000
     1.0000   1.0000   1.0000   1.0000   1.0000   1.0000   1.0000   1.0000
     1.0000   1.0000   1.0000   1.0000   1.0000   1.0000   1.0000   1.0000
     1.0000   1.0000   1.0000   1.0000   1.0000   1.0000   1.0000   1.0000
     1.0000   1.0000   1.0000   1.0000   1.0000   1.0000   1.0000   1.0000
     1.0000   1.0000   1.0000   1.0000   1.0000   1.0000   1.0000   1.0000
     1.0000   1.0000   1.0000   1.0000   1.0000   1.0000   1.0000   1.0000
     1.0000   1.0000   1.0000   1.0000   1.0000   1.0000   1.0000   1.0000
     1.0000   1.0000   1.0000   1.0000   1.0000   1.0000   1.0000   1.0000
     1.0000   1.0000   1.0000   1.0000   1.0000   1.0000   1.0000   1.0000
     1.0000   1.0000   1.0000   1.0000   1.0000   1.0000   1.0000   1.0000
     1.0000   1.0000   1.0000   1.0000   1.0000   1.0000   1.0000   1.0000
     1.0000   1.0000   1.0000   1.0000   1.0000   1.0000   1.0000   1.0000
     1.0000   1.0000   1.0000   1.0000   1.0000   1.0000   1.0000   1.0000
     1.0000   1.0000   1.0000   1.0000   1.0000   1.0000   1.0000   1.0000
     1.0000   1.0000   1.0000   1.0000   1.0000   1.0000   1.0000   1.0000
     1.0000   1.0000   1.0000   1.0000   1.0000   1.0000   1.0000   1.0000
     1.0000   1.0000   1.0000   1.0000   1.0000   1.0000   1.0000   1.0000
     1.0000   1.0000   1.0000   1.0000   1.0000   1.0000   1.0000   1.0000
     1.0000   1.0000   1.0000   1.0000   1.0000   1.0000   1.0000   1.0000
     1.0000   1.0000   1.0000   1.0000   1.0000   1.0000   1.0000   1.0000
     1.0000   1.0000   1.0000   1.0000   1.0000   1.0000   1.0000   1.0000
     1.0000   1.0000   1.0000   1.0000   1.0000   1.0000   1.0000   1.0000
     1.0000   1.0000   1.0000   1.0000   1.0000   1.0000   1.0000   1.0000
     1.0000   1.0000   1.0000   1.0000   1.0000   1.0000   1.0000   1.0000
     1.0000   1.0000   1.0000   1.0000   1.0000   1.0000   1.0000   1.0000
     1.0000   1.0000   1.0000   1.0000   1.0000   1.0000   1.0000   1.0000
     1.0000   1.0000   1.0000   1.0000   1.0000   1.0000   1.0000   1.0000
     1.0000   1.0000   1.0000   1.0000   1.0000   1.0000   1.0000   1.0000
     1.0000   1.0000   1.0000   1.0000   1.0000   1.0000   1.0000   1.0000
     1.0000   1.0000   1.0000   1.0000   1.0000   1.0000   1.0000   1.0000
     1.0000   1.0000   1.0000   1.0000   1.0000   1.0000   1.0000   1.0000
     1.0000   1.0000   1.0000   1.0000   1.0000   1.0000   1.0000   1.0000
     1.0000   1.0000   1.0000   1.0000   1.0000   1.0000   1.0000   1.0000
     1.0000   1.0000   1.0000   1.0000   1.0000   1.0000   1.0000   1.0000
     1.0000   1.0000   1.0000   1.0000   1.0000   1.0000   1.0000   1.0000
     1.0000   1.0000   1.0000   1.0000   1.0000   1.0000   1.0000   1.0000
     1.0000   1.0000   1.0000   1.0000   1.0000   1.0000   1.0000   1.0000
     1.0000   1.0000   1.0000   1.0000   1.0000   1.0000   1.0000   1.0000
     1.0000   1.0000   1.0000   1.0000   1.0000   1.0000   1.0000   1.0000
     1.0000   1.0000   1.0000   1.0000   1.0000   1.0000   1.0000   1.0000
     1.0000   1.0000   1.0000   1.0000   1.0000   1.0000   1.0000   1.0000
     1.0000   1.0000   1.0000   1.0000   1.0000   1.0000   1.0000   1.0000
     1.0000   1.0000   1.0000   1.0000   1.0000   1.0000   1.0000   1.0000
     1.0000   1.0000   1.0000   1.0000   1.0000   1.0000   1.0000   1.0000
     1.0000   1.0000   1.0000   1.0000   1.0000   1.0000   1.0000   1.0000
     1.0040   1.0127   1.0142   1.0264   1.0685   1.0466   0.0406   0.0014
     0.0003   0.0003   0.0000   0.0000   0.0000   0.0000   0.0000   0.0000
     0.0000   0.0000   0.0000   0.0000   0.0000   0.0000   0.0000   0.0000
     0.0000   0.0000   0.0000   0.0000   0.0000   0.0000   0.0000   0.0000
     0.0000   0.0000   0.0000   0.0000   0.0000   0.0000   0.0000   0.0000
     0.0000   0.0000   0.0000   0.0000   0.0000   0.0000   0.0000   0.0000
     0.0000   0.0000   0.0000   0.0000   0.0000   0.0000   0.0000   0.0000
     0.0000   0.0000   0.0000   0.0000   0.0000   0.0000   0.0000   0.0000
     0.0000   0.0000   0.0000   0.0000   0.0000   0.0000   0.0000   0.0000
     0.0000   0.0000   0.0000   0.0000   0.0000   0.0000   0.0000   0.0000
     0.0000   0.0000   0.0000   0.0000   0.0000   0.0000   0.0000   0.0000
     0.0000   0.0000   0.0000   0.0000   0.0000   0.0000   0.0000   0.0000
     0.0000   0.0000   0.0000   0.0000   0.0000   0.0000   0.0000   0.0000
     0.0000   0.0000

          k = 0.0000 0.3628 0.1846 ( 71963 PWs)   bands (ev):

  -125.1909-125.1873-125.1790-125.1789-125.1783-125.1776-125.1768-125.1541
  -125.0832-125.0820-125.0753-125.0725-125.0701-125.0687-125.0683-125.0666
  -125.0062-125.0030-125.0013-124.9932-124.9907-124.9894-124.9846-124.9845
  -124.9785-124.9753-124.9738-124.9726-124.9294-124.9273-124.9246-124.9229
  -124.8984-124.8964-124.8954-124.8927-124.8832-124.8789-124.8779-124.8764
  -124.8720-124.8688-124.8610-124.8587-124.8391-124.8354-124.8211-124.7879
   -79.3495 -79.3459 -79.3412 -79.3396 -79.3386 -79.3375 -79.3371 -79.3366
   -79.3362 -79.3346 -79.3331 -79.3310 -79.3284 -79.3260 -79.3250 -79.3243
   -79.3231 -79.3228 -79.3208 -79.3159 -79.3131 -79.3113 -79.2994 -79.2981
   -79.2429 -79.2397 -79.2388 -79.2355 -79.2318 -79.2303 -79.2293 -79.2280
   -79.2239 -79.2231 -79.2224 -79.2200 -79.2182 -79.2174 -79.2167 -79.2161
   -79.2151 -79.2143 -79.2139 -79.2117 -79.2115 -79.2087 -79.2078 -79.2059
   -79.1650 -79.1637 -79.1584 -79.1566 -79.1564 -79.1535 -79.1512 -79.1500
   -79.1494 -79.1478 -79.1476 -79.1463 -79.1452 -79.1448 -79.1439 -79.1436
   -79.1402 -79.1386 -79.1385 -79.1371 -79.1369 -79.1368 -79.1358 -79.1338
   -79.1314 -79.1295 -79.1278 -79.1265 -79.1264 -79.1254 -79.1240 -79.1234
   -79.1222 -79.1217 -79.1180 -79.1173 -79.0992 -79.0973 -79.0948 -79.0932
   -79.0777 -79.0752 -79.0729 -79.0726 -79.0709 -79.0707 -79.0686 -79.0676
   -79.0672 -79.0645 -79.0560 -79.0531 -79.0515 -79.0504 -79.0483 -79.0477
   -79.0466 -79.0456 -79.0451 -79.0433 -79.0422 -79.0412 -79.0400 -79.0389
   -79.0368 -79.0348 -79.0344 -79.0296 -79.0290 -79.0279 -79.0256 -79.0246
   -79.0240 -79.0233 -79.0223 -79.0219 -79.0210 -79.0180 -79.0179 -79.0135
   -79.0107 -79.0083 -79.0070 -79.0040 -79.0030 -78.9951 -78.9891 -78.9872
   -78.9842 -78.9831 -78.9785 -78.9692 -78.9602 -78.9564 -78.9378 -78.9369
   -18.5438 -17.0373 -16.2482 -13.8288 -13.7934 -10.8101 -10.5649  -8.6533
    -8.0959  -8.0305  -7.9807  -7.5353  -7.2921  -7.0257  -6.9963  -6.8538
    -6.8445  -6.8332  -6.8222  -6.8078  -6.7577  -6.7317  -6.7292  -6.7197
    -6.6843  -6.6711  -6.6556  -6.6499  -6.6282  -6.6187  -6.6174  -6.6077
    -6.6050  -6.6027  -6.5721  -6.5671  -6.5591  -6.5469  -6.5331  -6.5279
    -6.5177  -6.5026  -6.4980  -6.4940  -6.4823  -6.4682  -6.4623  -6.4535
    -6.4501  -6.4486  -6.4364  -6.4242  -6.4150  -6.4003  -6.3978  -6.3848
    -6.3803  -6.3768  -6.3707  -6.3669  -6.3592  -6.3554  -6.3510  -6.3408
    -6.3367  -6.3227  -6.3101  -6.3002  -6.2893  -6.2884  -6.2842  -6.2707
    -6.2663  -6.2629  -6.2467  -6.2429  -6.2308  -6.2240  -6.2227  -6.2149
    -6.2064  -6.2019  -6.1977  -6.1952  -6.1799  -6.1747  -6.1651  -6.1569
    -6.1491  -6.1433  -6.1419  -6.1349  -6.1268  -6.1231  -6.1176  -6.1093
    -6.1080  -6.1028  -6.0898  -6.0846  -6.0823  -6.0696  -6.0626  -6.0600
    -6.0575  -6.0542  -6.0491  -6.0455  -6.0409  -6.0304  -6.0255  -6.0197
    -6.0165  -6.0037  -6.0007  -5.9989  -5.9879  -5.9814  -5.9780  -5.9693
    -5.9641  -5.9584  -5.9510  -5.9455  -5.9401  -5.9366  -5.9330  -5.9302
    -5.9239  -5.9219  -5.9099  -5.9070  -5.9053  -5.8964  -5.8863  -5.8827
    -5.8740  -5.8685  -5.8654  -5.8617  -5.8588  -5.8555  -5.8531  -5.8459
    -5.8398  -5.8336  -5.8262  -5.8228  -5.8147  -5.8076  -5.8060  -5.8029
    -5.7978  -5.7873  -5.7743  -5.7711  -5.7640  -5.7583  -5.7546  -5.7491
    -5.7378  -5.7324  -5.7297  -5.7251  -5.7194  -5.7176  -5.7137  -5.7081
    -5.7068  -5.6989  -5.6899  -5.6876  -5.6846  -5.6808  -5.6748  -5.6730
    -5.6649  -5.6606  -5.6572  -5.6518  -5.6493  -5.6458  -5.6418  -5.6391
    -5.6335  -5.6314  -5.6301  -5.6223  -5.6211  -5.6142  -5.6125  -5.6077
    -5.6040  -5.6009  -5.5992  -5.5943  -5.5901  -5.5835  -5.5824  -5.5809
    -5.5773  -5.5723  -5.5633  -5.5581  -5.5534  -5.5494  -5.5459  -5.5440
    -5.5409  -5.5395  -5.5363  -5.5329  -5.5320  -5.5292  -5.5250  -5.5177
    -5.5150  -5.5109  -5.5096  -5.5080  -5.5036  -5.4993  -5.4983  -5.4917
    -5.4885  -5.4874  -5.4849  -5.4828  -5.4813  -5.4776  -5.4764  -5.4716
    -5.4697  -5.4668  -5.4640  -5.4541  -5.4522  -5.4500  -5.4452  -5.4402
    -5.4366  -5.4353  -5.4328  -5.4259  -5.4196  -5.4027  -5.3951  -5.3879
    -5.3868  -5.3722  -5.3522  -5.3417  -5.3372  -5.3317  -5.3175  -5.2979
    -5.2428  -5.2255  -5.2151  -5.0660  -4.9306  -4.7932  -4.7416  -4.6872
    -4.4732  -4.3654  -4.1910  -3.9804  -3.9004  -3.6650  -3.3804  -3.3480
    -3.3033  -3.0600  -2.9271  -2.7945  -2.7115  -2.5901  -2.5751  -2.5251
    -2.3357  -2.2898  -2.1006  -1.8582  -1.7659  -1.6437  -1.4576  -1.4470
    -1.4439  -1.2748  -1.1134  -1.0335  -1.0096  -0.7411  -0.6310  -0.4241
    -0.3784  -0.2153  -0.1865  -0.0261   0.1501   0.3166   0.3833   0.5023
     0.5631   0.7111   0.8785   0.9433   1.0171   1.1712   1.3986   1.6904
     1.9003   1.9477   2.0454   2.2244   2.2878   2.4554   2.5211   2.5891
     2.6193   2.7048   3.0471   3.0880   3.1238   3.2266   3.3816   3.4751
     3.5039   3.5671   3.5956   3.9301   3.9773   4.0062   4.0556   4.0787
     4.1476   4.2425   4.2645   4.3608   4.5808   4.6294   4.6571   4.6849
     4.7593   4.8245   4.8605   5.0051   5.0697   5.0939   5.1244   5.1908
     5.2561   5.3076   5.3702   5.4653   5.4878   5.5390   5.5874   5.6413
     5.6994   5.8090   5.8470   5.8890   5.9855   6.0136   6.0841   6.1221
     6.1729   6.2035   6.2658   6.3365   6.3721   6.4037   6.4485   6.4689
     6.5331   6.5785   6.6203   6.6791   6.7745   6.8299   6.9292   6.9397
     6.9931   7.0155   7.0760   7.1045   7.1384   7.1690   7.2557   7.3246
     7.4165   7.4225   7.4702   7.5411   7.5668   7.5909   7.6270   7.6798
     7.7291   7.7798   7.8459   7.8934   7.9608   7.9834   8.0295   8.1211
     8.1562   8.1974

     occupation numbers 
     1.0000   1.0000   1.0000   1.0000   1.0000   1.0000   1.0000   1.0000
     1.0000   1.0000   1.0000   1.0000   1.0000   1.0000   1.0000   1.0000
     1.0000   1.0000   1.0000   1.0000   1.0000   1.0000   1.0000   1.0000
     1.0000   1.0000   1.0000   1.0000   1.0000   1.0000   1.0000   1.0000
     1.0000   1.0000   1.0000   1.0000   1.0000   1.0000   1.0000   1.0000
     1.0000   1.0000   1.0000   1.0000   1.0000   1.0000   1.0000   1.0000
     1.0000   1.0000   1.0000   1.0000   1.0000   1.0000   1.0000   1.0000
     1.0000   1.0000   1.0000   1.0000   1.0000   1.0000   1.0000   1.0000
     1.0000   1.0000   1.0000   1.0000   1.0000   1.0000   1.0000   1.0000
     1.0000   1.0000   1.0000   1.0000   1.0000   1.0000   1.0000   1.0000
     1.0000   1.0000   1.0000   1.0000   1.0000   1.0000   1.0000   1.0000
     1.0000   1.0000   1.0000   1.0000   1.0000   1.0000   1.0000   1.0000
     1.0000   1.0000   1.0000   1.0000   1.0000   1.0000   1.0000   1.0000
     1.0000   1.0000   1.0000   1.0000   1.0000   1.0000   1.0000   1.0000
     1.0000   1.0000   1.0000   1.0000   1.0000   1.0000   1.0000   1.0000
     1.0000   1.0000   1.0000   1.0000   1.0000   1.0000   1.0000   1.0000
     1.0000   1.0000   1.0000   1.0000   1.0000   1.0000   1.0000   1.0000
     1.0000   1.0000   1.0000   1.0000   1.0000   1.0000   1.0000   1.0000
     1.0000   1.0000   1.0000   1.0000   1.0000   1.0000   1.0000   1.0000
     1.0000   1.0000   1.0000   1.0000   1.0000   1.0000   1.0000   1.0000
     1.0000   1.0000   1.0000   1.0000   1.0000   1.0000   1.0000   1.0000
     1.0000   1.0000   1.0000   1.0000   1.0000   1.0000   1.0000   1.0000
     1.0000   1.0000   1.0000   1.0000   1.0000   1.0000   1.0000   1.0000
     1.0000   1.0000   1.0000   1.0000   1.0000   1.0000   1.0000   1.0000
     1.0000   1.0000   1.0000   1.0000   1.0000   1.0000   1.0000   1.0000
     1.0000   1.0000   1.0000   1.0000   1.0000   1.0000   1.0000   1.0000
     1.0000   1.0000   1.0000   1.0000   1.0000   1.0000   1.0000   1.0000
     1.0000   1.0000   1.0000   1.0000   1.0000   1.0000   1.0000   1.0000
     1.0000   1.0000   1.0000   1.0000   1.0000   1.0000   1.0000   1.0000
     1.0000   1.0000   1.0000   1.0000   1.0000   1.0000   1.0000   1.0000
     1.0000   1.0000   1.0000   1.0000   1.0000   1.0000   1.0000   1.0000
     1.0000   1.0000   1.0000   1.0000   1.0000   1.0000   1.0000   1.0000
     1.0000   1.0000   1.0000   1.0000   1.0000   1.0000   1.0000   1.0000
     1.0000   1.0000   1.0000   1.0000   1.0000   1.0000   1.0000   1.0000
     1.0000   1.0000   1.0000   1.0000   1.0000   1.0000   1.0000   1.0000
     1.0000   1.0000   1.0000   1.0000   1.0000   1.0000   1.0000   1.0000
     1.0000   1.0000   1.0000   1.0000   1.0000   1.0000   1.0000   1.0000
     1.0000   1.0000   1.0000   1.0000   1.0000   1.0000   1.0000   1.0000
     1.0000   1.0000   1.0000   1.0000   1.0000   1.0000   1.0000   1.0000
     1.0000   1.0000   1.0000   1.0000   1.0000   1.0000   1.0000   1.0000
     1.0000   1.0000   1.0000   1.0000   1.0000   1.0000   1.0000   1.0000
     1.0000   1.0000   1.0000   1.0000   1.0000   1.0000   1.0000   1.0000
     1.0000   1.0000   1.0000   1.0000   1.0000   1.0000   1.0000   1.0000
     1.0000   1.0000   1.0000   1.0000   1.0000   1.0000   1.0000   1.0000
     1.0000   1.0000   1.0000   1.0000   1.0000   1.0000   1.0000   1.0000
     1.0000   1.0000   1.0000   1.0000   1.0000   1.0000   1.0000   1.0000
     1.0000   1.0000   1.0000   1.0000   1.0000   1.0000   1.0000   1.0000
     1.0000   1.0000   1.0000   1.0000   1.0000   1.0000   1.0000   1.0000
     1.0000   1.0000   1.0000   1.0000   1.0000   1.0000   1.0000   1.0000
     1.0000   1.0000   1.0000   1.0000   1.0000   1.0000   1.0000   1.0000
     1.0000   1.0000   1.0000   1.0000   1.0000   1.0000   1.0000   1.0000
     1.0000   1.0000   1.0000   1.0000   1.0000   1.0000   1.0000   1.0000
     1.0000   1.0000   1.0000   1.0000   1.0000   1.0000   1.0000   1.0000
     1.0000   1.0000   1.0000   1.0000   1.0000   1.0000   1.0000   1.0000
     1.0000   1.0000   1.0000   1.0000   1.0000   1.0000   1.0000   1.0000
     1.0000   1.0000   1.0000   1.0000   1.0000   1.0000   1.0000   1.0000
     1.0000   1.0000   1.0000   1.0000   1.0000   1.0000   1.0000   1.0000
     1.0000   1.0000   1.0000   1.0000   1.0000   1.0000   1.0000   1.0000
     1.0000   1.0000   1.0000   1.0000   1.0000   1.0000   1.0000   1.0000
     1.0000   1.0000   1.0000   1.0000   1.0000   1.0000   1.0000   1.0000
     1.0000   1.0000   1.0000   1.0000   1.0000   1.0000   1.0000   1.0000
     1.0000   1.0000   1.0000   1.0000   1.0000   1.0000   1.0001   1.0011
     1.0029   1.0195   1.0701   1.0831   1.0664   0.8396   0.2598   0.0094
     0.0002   0.0001   0.0000   0.0000   0.0000   0.0000   0.0000   0.0000
     0.0000   0.0000   0.0000   0.0000   0.0000   0.0000   0.0000   0.0000
     0.0000   0.0000   0.0000   0.0000   0.0000   0.0000   0.0000   0.0000
     0.0000   0.0000   0.0000   0.0000   0.0000   0.0000   0.0000   0.0000
     0.0000   0.0000   0.0000   0.0000   0.0000   0.0000   0.0000   0.0000
     0.0000   0.0000   0.0000   0.0000   0.0000   0.0000   0.0000   0.0000
     0.0000   0.0000   0.0000   0.0000   0.0000   0.0000   0.0000   0.0000
     0.0000   0.0000   0.0000   0.0000   0.0000   0.0000   0.0000   0.0000
     0.0000   0.0000   0.0000   0.0000   0.0000   0.0000   0.0000   0.0000
     0.0000   0.0000   0.0000   0.0000   0.0000   0.0000   0.0000   0.0000
     0.0000   0.0000   0.0000   0.0000   0.0000   0.0000   0.0000   0.0000
     0.0000   0.0000   0.0000   0.0000   0.0000   0.0000   0.0000   0.0000
     0.0000   0.0000

          k = 0.3333 0.0811 0.7384 ( 72005 PWs)   bands (ev):

  -125.1909-125.1873-125.1790-125.1790-125.1781-125.1778-125.1768-125.1541
  -125.0832-125.0820-125.0753-125.0725-125.0701-125.0687-125.0683-125.0666
  -125.0062-125.0030-125.0013-124.9932-124.9907-124.9894-124.9846-124.9845
  -124.9785-124.9753-124.9738-124.9726-124.9294-124.9273-124.9246-124.9229
  -124.8984-124.8964-124.8954-124.8927-124.8832-124.8789-124.8779-124.8764
  -124.8720-124.8688-124.8610-124.8587-124.8391-124.8354-124.8211-124.7879
   -79.3495 -79.3459 -79.3420 -79.3396 -79.3384 -79.3377 -79.3371 -79.3366
   -79.3350 -79.3347 -79.3344 -79.3310 -79.3260 -79.3248 -79.3246 -79.3231
   -79.3228 -79.3223 -79.3220 -79.3216 -79.3131 -79.3096 -79.2992 -79.2981
   -79.2437 -79.2399 -79.2392 -79.2327 -79.2323 -79.2298 -79.2292 -79.2279
   -79.2267 -79.2229 -79.2214 -79.2190 -79.2183 -79.2175 -79.2169 -79.2158
   -79.2148 -79.2144 -79.2141 -79.2136 -79.2116 -79.2087 -79.2078 -79.2048
   -79.1650 -79.1638 -79.1586 -79.1572 -79.1565 -79.1536 -79.1512 -79.1500
   -79.1483 -79.1476 -79.1469 -79.1458 -79.1453 -79.1452 -79.1439 -79.1434
   -79.1413 -79.1399 -79.1385 -79.1376 -79.1369 -79.1368 -79.1328 -79.1317
   -79.1313 -79.1309 -79.1287 -79.1278 -79.1269 -79.1263 -79.1240 -79.1237
   -79.1223 -79.1217 -79.1172 -79.1166 -79.0992 -79.0972 -79.0948 -79.0932
   -79.0777 -79.0752 -79.0739 -79.0728 -79.0709 -79.0707 -79.0685 -79.0676
   -79.0645 -79.0617 -79.0615 -79.0532 -79.0529 -79.0491 -79.0482 -79.0477
   -79.0457 -79.0451 -79.0435 -79.0425 -79.0417 -79.0415 -79.0400 -79.0394
   -79.0392 -79.0368 -79.0298 -79.0291 -79.0284 -79.0279 -79.0279 -79.0256
   -79.0245 -79.0240 -79.0226 -79.0223 -79.0213 -79.0180 -79.0165 -79.0108
   -79.0098 -79.0083 -79.0070 -79.0066 -79.0040 -78.9942 -78.9891 -78.9872
   -78.9848 -78.9830 -78.9776 -78.9692 -78.9606 -78.9564 -78.9377 -78.9369
   -18.5438 -17.0373 -16.2482 -13.8288 -13.7934 -10.8102 -10.5649  -8.6534
    -8.0954  -8.0603  -7.9982  -7.6845  -7.0094  -6.9667  -6.9391  -6.9247
    -6.8858  -6.8599  -6.8561  -6.8287  -6.8036  -6.7696  -6.7493  -6.7337
    -6.7249  -6.6841  -6.6651  -6.6538  -6.6327  -6.6311  -6.6264  -6.6021
    -6.5774  -6.5692  -6.5510  -6.5493  -6.5312  -6.5063  -6.5053  -6.5010
    -6.4897  -6.4774  -6.4668  -6.4593  -6.4559  -6.4512  -6.4495  -6.4389
    -6.4325  -6.4297  -6.4258  -6.4237  -6.4168  -6.4116  -6.3967  -6.3933
    -6.3903  -6.3865  -6.3848  -6.3670  -6.3612  -6.3522  -6.3425  -6.3406
    -6.3356  -6.3273  -6.3188  -6.3117  -6.3004  -6.2875  -6.2836  -6.2703
    -6.2674  -6.2585  -6.2548  -6.2420  -6.2345  -6.2198  -6.2176  -6.2067
    -6.1989  -6.1910  -6.1887  -6.1825  -6.1751  -6.1721  -6.1640  -6.1513
    -6.1378  -6.1340  -6.1242  -6.1204  -6.1188  -6.1171  -6.1121  -6.1035
    -6.0946  -6.0875  -6.0764  -6.0734  -6.0705  -6.0631  -6.0597  -6.0560
    -6.0500  -6.0387  -6.0352  -6.0315  -6.0188  -6.0112  -6.0028  -5.9911
    -5.9891  -5.9854  -5.9783  -5.9779  -5.9721  -5.9675  -5.9662  -5.9492
    -5.9440  -5.9412  -5.9353  -5.9326  -5.9282  -5.9268  -5.9249  -5.9224
    -5.9176  -5.9037  -5.8979  -5.8961  -5.8905  -5.8834  -5.8822  -5.8799
    -5.8736  -5.8611  -5.8602  -5.8573  -5.8522  -5.8480  -5.8424  -5.8353
    -5.8298  -5.8266  -5.8220  -5.8197  -5.8168  -5.8122  -5.8080  -5.8049
    -5.8018  -5.7985  -5.7886  -5.7791  -5.7775  -5.7766  -5.7741  -5.7656
    -5.7625  -5.7539  -5.7482  -5.7461  -5.7435  -5.7427  -5.7388  -5.7292
    -5.7241  -5.7211  -5.7195  -5.7174  -5.7065  -5.7027  -5.7014  -5.6969
    -5.6953  -5.6857  -5.6819  -5.6763  -5.6729  -5.6715  -5.6616  -5.6575
    -5.6543  -5.6534  -5.6510  -5.6490  -5.6458  -5.6432  -5.6325  -5.6312
    -5.6246  -5.6128  -5.6104  -5.6083  -5.6047  -5.5989  -5.5948  -5.5926
    -5.5917  -5.5901  -5.5858  -5.5802  -5.5753  -5.5741  -5.5681  -5.5576
    -5.5548  -5.5505  -5.5497  -5.5460  -5.5430  -5.5411  -5.5328  -5.5256
    -5.5208  -5.5184  -5.5167  -5.5136  -5.5097  -5.5077  -5.5034  -5.5003
    -5.4917  -5.4900  -5.4852  -5.4833  -5.4774  -5.4760  -5.4694  -5.4685
    -5.4604  -5.4577  -5.4560  -5.4510  -5.4494  -5.4426  -5.4401  -5.4313
    -5.4265  -5.4186  -5.4165  -5.3979  -5.3930  -5.3896  -5.3804  -5.3759
    -5.3729  -5.3594  -5.3426  -5.3370  -5.3189  -5.2861  -5.2773  -5.2715
    -5.2664  -5.2306  -5.1819  -5.0740  -4.9126  -4.8788  -4.8587  -4.6940
    -4.4229  -4.2888  -4.2832  -3.9902  -3.8168  -3.7173  -3.6614  -3.4536
    -3.3560  -3.3116  -2.9273  -2.8388  -2.7499  -2.5901  -2.5849  -2.5438
    -2.3582  -1.9115  -1.7580  -1.7267  -1.6454  -1.5085  -1.4901  -1.4525
    -1.2602  -1.0995  -1.0244  -0.9594  -0.7016  -0.5160  -0.4228  -0.4126
    -0.2457  -0.2011  -0.1905  -0.1219  -0.0961   0.0297   0.1868   0.2579
     0.6378   0.6678   0.7881   1.0857   1.1988   1.4680   1.4729   1.5248
     1.6095   1.7786   1.8449   1.9767   2.0023   2.0607   2.4844   2.5896
     2.7568   2.7813   2.9178   2.9454   2.9608   2.9801   3.1953   3.2495
     3.4397   3.4731   3.5586   3.6083   3.6223   3.7881   3.8713   3.8965
     4.1343   4.2683   4.4139   4.4475   4.6627   4.7099   4.7419   4.7610
     4.8105   4.9206   5.0222   5.1126   5.1666   5.2062   5.2774   5.3161
     5.3239   5.3408   5.3849   5.5083   5.5828   5.6421   5.7037   5.7667
     5.8542   5.9090   5.9528   6.0156   6.0970   6.1801   6.2263   6.2490
     6.2816   6.3714   6.5033   6.5282   6.5614   6.6293   6.6879   6.7091
     6.7952   6.8237   6.8599   6.9092   6.9283   6.9910   7.0174   7.0589
     7.0964   7.1274   7.1612   7.1812   7.1975   7.2305   7.3075   7.3515
     7.3701   7.3954   7.4381   7.4961   7.5602   7.5819   7.6159   7.6345
     7.6648   7.6832   7.7619   7.7760   7.8606   7.9450   7.9986   8.0526
     8.1045   8.1233

     occupation numbers 
     1.0000   1.0000   1.0000   1.0000   1.0000   1.0000   1.0000   1.0000
     1.0000   1.0000   1.0000   1.0000   1.0000   1.0000   1.0000   1.0000
     1.0000   1.0000   1.0000   1.0000   1.0000   1.0000   1.0000   1.0000
     1.0000   1.0000   1.0000   1.0000   1.0000   1.0000   1.0000   1.0000
     1.0000   1.0000   1.0000   1.0000   1.0000   1.0000   1.0000   1.0000
     1.0000   1.0000   1.0000   1.0000   1.0000   1.0000   1.0000   1.0000
     1.0000   1.0000   1.0000   1.0000   1.0000   1.0000   1.0000   1.0000
     1.0000   1.0000   1.0000   1.0000   1.0000   1.0000   1.0000   1.0000
     1.0000   1.0000   1.0000   1.0000   1.0000   1.0000   1.0000   1.0000
     1.0000   1.0000   1.0000   1.0000   1.0000   1.0000   1.0000   1.0000
     1.0000   1.0000   1.0000   1.0000   1.0000   1.0000   1.0000   1.0000
     1.0000   1.0000   1.0000   1.0000   1.0000   1.0000   1.0000   1.0000
     1.0000   1.0000   1.0000   1.0000   1.0000   1.0000   1.0000   1.0000
     1.0000   1.0000   1.0000   1.0000   1.0000   1.0000   1.0000   1.0000
     1.0000   1.0000   1.0000   1.0000   1.0000   1.0000   1.0000   1.0000
     1.0000   1.0000   1.0000   1.0000   1.0000   1.0000   1.0000   1.0000
     1.0000   1.0000   1.0000   1.0000   1.0000   1.0000   1.0000   1.0000
     1.0000   1.0000   1.0000   1.0000   1.0000   1.0000   1.0000   1.0000
     1.0000   1.0000   1.0000   1.0000   1.0000   1.0000   1.0000   1.0000
     1.0000   1.0000   1.0000   1.0000   1.0000   1.0000   1.0000   1.0000
     1.0000   1.0000   1.0000   1.0000   1.0000   1.0000   1.0000   1.0000
     1.0000   1.0000   1.0000   1.0000   1.0000   1.0000   1.0000   1.0000
     1.0000   1.0000   1.0000   1.0000   1.0000   1.0000   1.0000   1.0000
     1.0000   1.0000   1.0000   1.0000   1.0000   1.0000   1.0000   1.0000
     1.0000   1.0000   1.0000   1.0000   1.0000   1.0000   1.0000   1.0000
     1.0000   1.0000   1.0000   1.0000   1.0000   1.0000   1.0000   1.0000
     1.0000   1.0000   1.0000   1.0000   1.0000   1.0000   1.0000   1.0000
     1.0000   1.0000   1.0000   1.0000   1.0000   1.0000   1.0000   1.0000
     1.0000   1.0000   1.0000   1.0000   1.0000   1.0000   1.0000   1.0000
     1.0000   1.0000   1.0000   1.0000   1.0000   1.0000   1.0000   1.0000
     1.0000   1.0000   1.0000   1.0000   1.0000   1.0000   1.0000   1.0000
     1.0000   1.0000   1.0000   1.0000   1.0000   1.0000   1.0000   1.0000
     1.0000   1.0000   1.0000   1.0000   1.0000   1.0000   1.0000   1.0000
     1.0000   1.0000   1.0000   1.0000   1.0000   1.0000   1.0000   1.0000
     1.0000   1.0000   1.0000   1.0000   1.0000   1.0000   1.0000   1.0000
     1.0000   1.0000   1.0000   1.0000   1.0000   1.0000   1.0000   1.0000
     1.0000   1.0000   1.0000   1.0000   1.0000   1.0000   1.0000   1.0000
     1.0000   1.0000   1.0000   1.0000   1.0000   1.0000   1.0000   1.0000
     1.0000   1.0000   1.0000   1.0000   1.0000   1.0000   1.0000   1.0000
     1.0000   1.0000   1.0000   1.0000   1.0000   1.0000   1.0000   1.0000
     1.0000   1.0000   1.0000   1.0000   1.0000   1.0000   1.0000   1.0000
     1.0000   1.0000   1.0000   1.0000   1.0000   1.0000   1.0000   1.0000
     1.0000   1.0000   1.0000   1.0000   1.0000   1.0000   1.0000   1.0000
     1.0000   1.0000   1.0000   1.0000   1.0000   1.0000   1.0000   1.0000
     1.0000   1.0000   1.0000   1.0000   1.0000   1.0000   1.0000   1.0000
     1.0000   1.0000   1.0000   1.0000   1.0000   1.0000   1.0000   1.0000
     1.0000   1.0000   1.0000   1.0000   1.0000   1.0000   1.0000   1.0000
     1.0000   1.0000   1.0000   1.0000   1.0000   1.0000   1.0000   1.0000
     1.0000   1.0000   1.0000   1.0000   1.0000   1.0000   1.0000   1.0000
     1.0000   1.0000   1.0000   1.0000   1.0000   1.0000   1.0000   1.0000
     1.0000   1.0000   1.0000   1.0000   1.0000   1.0000   1.0000   1.0000
     1.0000   1.0000   1.0000   1.0000   1.0000   1.0000   1.0000   1.0000
     1.0000   1.0000   1.0000   1.0000   1.0000   1.0000   1.0000   1.0000
     1.0000   1.0000   1.0000   1.0000   1.0000   1.0000   1.0000   1.0000
     1.0000   1.0000   1.0000   1.0000   1.0000   1.0000   1.0000   1.0000
     1.0000   1.0000   1.0000   1.0000   1.0000   1.0000   1.0000   1.0000
     1.0000   1.0000   1.0000   1.0000   1.0000   1.0000   1.0000   1.0000
     1.0000   1.0000   1.0000   1.0000   1.0000   1.0000   1.0000   1.0000
     1.0000   1.0000   1.0000   1.0000   1.0000   1.0000   1.0000   1.0000
     1.0000   1.0000   1.0000   1.0000   1.0000   1.0000   1.0000   1.0000
     1.0000   1.0000   1.0000   1.0000   1.0000   1.0000   1.0000   1.0000
     1.0000   1.0000   1.0000   1.0000   1.0000   1.0000   1.0000   1.0000
     1.0082   1.0119   1.0398   1.0006   0.7720   0.1432   0.1367   0.0805
     0.0293   0.0022   0.0007   0.0000   0.0000   0.0000   0.0000   0.0000
     0.0000   0.0000   0.0000   0.0000   0.0000   0.0000   0.0000   0.0000
     0.0000   0.0000   0.0000   0.0000   0.0000   0.0000   0.0000   0.0000
     0.0000   0.0000   0.0000   0.0000   0.0000   0.0000   0.0000   0.0000
     0.0000   0.0000   0.0000   0.0000   0.0000   0.0000   0.0000   0.0000
     0.0000   0.0000   0.0000   0.0000   0.0000   0.0000   0.0000   0.0000
     0.0000   0.0000   0.0000   0.0000   0.0000   0.0000   0.0000   0.0000
     0.0000   0.0000   0.0000   0.0000   0.0000   0.0000   0.0000   0.0000
     0.0000   0.0000   0.0000   0.0000   0.0000   0.0000   0.0000   0.0000
     0.0000   0.0000   0.0000   0.0000   0.0000   0.0000   0.0000   0.0000
     0.0000   0.0000   0.0000   0.0000   0.0000   0.0000   0.0000   0.0000
     0.0000   0.0000   0.0000   0.0000   0.0000   0.0000   0.0000   0.0000
     0.0000   0.0000

          k = 0.3333 0.4439 0.9230 ( 71974 PWs)   bands (ev):

  -125.1909-125.1873-125.1790-125.1789-125.1783-125.1776-125.1768-125.1541
  -125.0832-125.0820-125.0753-125.0725-125.0701-125.0687-125.0683-125.0666
  -125.0062-125.0030-125.0013-124.9932-124.9907-124.9894-124.9846-124.9845
  -124.9785-124.9753-124.9738-124.9726-124.9294-124.9273-124.9246-124.9229
  -124.8984-124.8964-124.8954-124.8927-124.8832-124.8789-124.8779-124.8764
  -124.8720-124.8688-124.8610-124.8587-124.8391-124.8354-124.8211-124.7879
   -79.3495 -79.3459 -79.3412 -79.3396 -79.3386 -79.3375 -79.3371 -79.3366
   -79.3362 -79.3346 -79.3331 -79.3310 -79.3284 -79.3260 -79.3250 -79.3243
   -79.3231 -79.3228 -79.3208 -79.3159 -79.3131 -79.3113 -79.2994 -79.2981
   -79.2429 -79.2397 -79.2388 -79.2355 -79.2318 -79.2303 -79.2293 -79.2280
   -79.2239 -79.2231 -79.2224 -79.2200 -79.2182 -79.2174 -79.2167 -79.2161
   -79.2151 -79.2143 -79.2139 -79.2117 -79.2115 -79.2087 -79.2078 -79.2059
   -79.1650 -79.1637 -79.1584 -79.1566 -79.1564 -79.1535 -79.1512 -79.1500
   -79.1494 -79.1478 -79.1476 -79.1463 -79.1452 -79.1448 -79.1439 -79.1436
   -79.1402 -79.1386 -79.1385 -79.1371 -79.1369 -79.1368 -79.1358 -79.1338
   -79.1314 -79.1295 -79.1278 -79.1265 -79.1264 -79.1254 -79.1240 -79.1234
   -79.1222 -79.1217 -79.1180 -79.1173 -79.0992 -79.0973 -79.0948 -79.0932
   -79.0777 -79.0752 -79.0729 -79.0726 -79.0709 -79.0707 -79.0686 -79.0676
   -79.0672 -79.0645 -79.0560 -79.0531 -79.0515 -79.0504 -79.0483 -79.0477
   -79.0466 -79.0456 -79.0451 -79.0433 -79.0422 -79.0412 -79.0400 -79.0389
   -79.0368 -79.0348 -79.0344 -79.0296 -79.0290 -79.0279 -79.0256 -79.0246
   -79.0240 -79.0233 -79.0223 -79.0219 -79.0210 -79.0180 -79.0179 -79.0135
   -79.0107 -79.0083 -79.0070 -79.0040 -79.0030 -78.9951 -78.9891 -78.9872
   -78.9842 -78.9831 -78.9785 -78.9692 -78.9602 -78.9564 -78.9378 -78.9369
   -18.5438 -17.0373 -16.2482 -13.8288 -13.7934 -10.8101 -10.5649  -8.6533
    -8.0957  -8.0145  -7.8349  -7.6255  -7.5336  -7.0264  -6.8981  -6.8593
    -6.8417  -6.8234  -6.8085  -6.7973  -6.7359  -6.7300  -6.7263  -6.7190
    -6.6871  -6.6714  -6.6674  -6.6559  -6.6365  -6.6276  -6.6263  -6.6123
    -6.6000  -6.5936  -6.5800  -6.5701  -6.5641  -6.5485  -6.5379  -6.5328
    -6.5282  -6.5016  -6.4957  -6.4879  -6.4731  -6.4684  -6.4626  -6.4551
    -6.4489  -6.4416  -6.4390  -6.4347  -6.4296  -6.4035  -6.3995  -6.3850
    -6.3812  -6.3768  -6.3714  -6.3591  -6.3556  -6.3447  -6.3409  -6.3360
    -6.3240  -6.3198  -6.3082  -6.3008  -6.2913  -6.2877  -6.2835  -6.2760
    -6.2697  -6.2646  -6.2589  -6.2422  -6.2315  -6.2294  -6.2249  -6.2179
    -6.2044  -6.1981  -6.1961  -6.1875  -6.1753  -6.1691  -6.1669  -6.1642
    -6.1629  -6.1543  -6.1378  -6.1360  -6.1254  -6.1232  -6.1095  -6.1087
    -6.1053  -6.1019  -6.0826  -6.0815  -6.0691  -6.0660  -6.0622  -6.0582
    -6.0530  -6.0452  -6.0422  -6.0347  -6.0324  -6.0286  -6.0239  -6.0160
    -6.0133  -6.0041  -6.0017  -5.9935  -5.9865  -5.9850  -5.9794  -5.9745
    -5.9691  -5.9658  -5.9593  -5.9558  -5.9463  -5.9419  -5.9354  -5.9323
    -5.9291  -5.9149  -5.9103  -5.9085  -5.9050  -5.9028  -5.8957  -5.8889
    -5.8827  -5.8739  -5.8681  -5.8628  -5.8530  -5.8461  -5.8432  -5.8409
    -5.8368  -5.8325  -5.8285  -5.8245  -5.8162  -5.8147  -5.8050  -5.8015
    -5.7966  -5.7923  -5.7876  -5.7768  -5.7742  -5.7698  -5.7530  -5.7500
    -5.7415  -5.7372  -5.7322  -5.7289  -5.7205  -5.7166  -5.7088  -5.7080
    -5.7075  -5.6990  -5.6966  -5.6944  -5.6897  -5.6842  -5.6785  -5.6744
    -5.6665  -5.6643  -5.6629  -5.6600  -5.6557  -5.6512  -5.6459  -5.6448
    -5.6362  -5.6344  -5.6317  -5.6289  -5.6258  -5.6215  -5.6179  -5.6129
    -5.6066  -5.6018  -5.6010  -5.5951  -5.5853  -5.5834  -5.5811  -5.5781
    -5.5723  -5.5667  -5.5620  -5.5581  -5.5562  -5.5545  -5.5511  -5.5493
    -5.5429  -5.5414  -5.5374  -5.5351  -5.5306  -5.5271  -5.5240  -5.5192
    -5.5111  -5.5095  -5.5081  -5.5049  -5.5031  -5.4983  -5.4977  -5.4945
    -5.4914  -5.4859  -5.4844  -5.4824  -5.4791  -5.4761  -5.4750  -5.4696
    -5.4667  -5.4609  -5.4539  -5.4522  -5.4506  -5.4470  -5.4436  -5.4389
    -5.4361  -5.4337  -5.4328  -5.4222  -5.4193  -5.4047  -5.3989  -5.3798
    -5.3743  -5.3575  -5.3447  -5.3413  -5.3337  -5.3290  -5.3241  -5.2849
    -5.2295  -5.2194  -5.0747  -4.9320  -4.8093  -4.7927  -4.7412  -4.6816
    -4.4882  -4.3646  -4.1922  -3.9563  -3.8066  -3.6656  -3.5084  -3.3490
    -3.3040  -3.1109  -2.9272  -2.7942  -2.7177  -2.6044  -2.5896  -2.5657
    -2.5186  -2.3613  -2.2882  -2.0939  -2.0427  -1.8631  -1.6435  -1.4522
    -1.4225  -1.2740  -1.0356  -0.9070  -0.7422  -0.6426  -0.4381  -0.4158
    -0.3721  -0.0372  -0.0124   0.1361   0.1791   0.3341   0.5461   0.5940
     0.6792   0.9260   0.9400   1.0154   1.1855   1.3995   1.5799   1.6149
     1.9482   1.9639   2.0420   2.1423   2.2797   2.3841   2.4963   2.6163
     2.6990   2.7238   2.7367   3.0287   3.0556   3.0879   3.1040   3.2605
     3.3832   3.4083   3.4996   3.5877   3.6383   3.7829   3.9952   4.0550
     4.0679   4.0771   4.1167   4.2612   4.4377   4.5814   4.6384   4.6573
     4.6829   4.8269   4.8834   4.9951   5.0657   5.0848   5.1933   5.3037
     5.3279   5.3401   5.4037   5.5208   5.5979   5.6162   5.6896   5.7169
     5.8016   5.8191   5.8461   5.9804   6.0346   6.0619   6.0870   6.1271
     6.1527   6.2178   6.2840   6.3419   6.3579   6.4611   6.4721   6.5289
     6.5740   6.6011   6.6449   6.7071   6.7633   6.8013   6.8324   6.9217
     6.9393   7.0391   7.1155   7.1364   7.1876   7.2770   7.3120   7.3483
     7.3861   7.4841   7.5177   7.5835   7.6360   7.7004   7.7433   7.7778
     7.8356   7.9242   7.9605   8.0234   8.0602   8.0870   8.1435   8.1757
     8.2215   8.2879

     occupation numbers 
     1.0000   1.0000   1.0000   1.0000   1.0000   1.0000   1.0000   1.0000
     1.0000   1.0000   1.0000   1.0000   1.0000   1.0000   1.0000   1.0000
     1.0000   1.0000   1.0000   1.0000   1.0000   1.0000   1.0000   1.0000
     1.0000   1.0000   1.0000   1.0000   1.0000   1.0000   1.0000   1.0000
     1.0000   1.0000   1.0000   1.0000   1.0000   1.0000   1.0000   1.0000
     1.0000   1.0000   1.0000   1.0000   1.0000   1.0000   1.0000   1.0000
     1.0000   1.0000   1.0000   1.0000   1.0000   1.0000   1.0000   1.0000
     1.0000   1.0000   1.0000   1.0000   1.0000   1.0000   1.0000   1.0000
     1.0000   1.0000   1.0000   1.0000   1.0000   1.0000   1.0000   1.0000
     1.0000   1.0000   1.0000   1.0000   1.0000   1.0000   1.0000   1.0000
     1.0000   1.0000   1.0000   1.0000   1.0000   1.0000   1.0000   1.0000
     1.0000   1.0000   1.0000   1.0000   1.0000   1.0000   1.0000   1.0000
     1.0000   1.0000   1.0000   1.0000   1.0000   1.0000   1.0000   1.0000
     1.0000   1.0000   1.0000   1.0000   1.0000   1.0000   1.0000   1.0000
     1.0000   1.0000   1.0000   1.0000   1.0000   1.0000   1.0000   1.0000
     1.0000   1.0000   1.0000   1.0000   1.0000   1.0000   1.0000   1.0000
     1.0000   1.0000   1.0000   1.0000   1.0000   1.0000   1.0000   1.0000
     1.0000   1.0000   1.0000   1.0000   1.0000   1.0000   1.0000   1.0000
     1.0000   1.0000   1.0000   1.0000   1.0000   1.0000   1.0000   1.0000
     1.0000   1.0000   1.0000   1.0000   1.0000   1.0000   1.0000   1.0000
     1.0000   1.0000   1.0000   1.0000   1.0000   1.0000   1.0000   1.0000
     1.0000   1.0000   1.0000   1.0000   1.0000   1.0000   1.0000   1.0000
     1.0000   1.0000   1.0000   1.0000   1.0000   1.0000   1.0000   1.0000
     1.0000   1.0000   1.0000   1.0000   1.0000   1.0000   1.0000   1.0000
     1.0000   1.0000   1.0000   1.0000   1.0000   1.0000   1.0000   1.0000
     1.0000   1.0000   1.0000   1.0000   1.0000   1.0000   1.0000   1.0000
     1.0000   1.0000   1.0000   1.0000   1.0000   1.0000   1.0000   1.0000
     1.0000   1.0000   1.0000   1.0000   1.0000   1.0000   1.0000   1.0000
     1.0000   1.0000   1.0000   1.0000   1.0000   1.0000   1.0000   1.0000
     1.0000   1.0000   1.0000   1.0000   1.0000   1.0000   1.0000   1.0000
     1.0000   1.0000   1.0000   1.0000   1.0000   1.0000   1.0000   1.0000
[...]
     atom   27 type  1   force =     0.00004373    0.00003640    0.00000270
     atom   28 type  1   force =     0.00006027   -0.00001044   -0.00004694
     atom   29 type  1   force =    -0.00003335   -0.00002223    0.00006655
     atom   30 type  1   force =    -0.00005125   -0.00000066    0.00005778
     atom   31 type  1   force =    -0.00000000    0.00000000   -0.00000000
     atom   32 type  1   force =    -0.00000000   -0.00000000   -0.00000000
     atom   33 type  1   force =     0.00006592    0.00001108   -0.00002625
     atom   34 type  1   force =     0.00003837    0.00001510   -0.00001857
     atom   35 type  1   force =    -0.00003620   -0.00001497    0.00006968
     atom   36 type  1   force =    -0.00004787   -0.00000465    0.00005247
     atom   37 type  1   force =     0.00000000    0.00000000   -0.00000000
     atom   38 type  1   force =     0.00000000   -0.00000000   -0.00000000
     atom   39 type  1   force =    -0.00004099   -0.00001329   -0.00001791
     atom   40 type  1   force =    -0.00004676   -0.00000687   -0.00004093
     atom   41 type  1   force =     0.00000743    0.00003043    0.00007040
     atom   42 type  1   force =     0.00002387   -0.00002722    0.00004156
     atom   43 type  1   force =     0.00000000    0.00000000   -0.00000000
     atom   44 type  1   force =     0.00000000   -0.00000000   -0.00000000
     atom   45 type  1   force =    -0.00006212    0.00000827   -0.00002448
     atom   46 type  1   force =    -0.00002880   -0.00002806   -0.00003244
     atom   47 type  1   force =     0.00001009   -0.00000860    0.00005140
     atom   48 type  1   force =     0.00003164    0.00001389    0.00007009
     atom   49 type  3   force =    -0.00000866   -0.00000313   -0.00001673
     atom   50 type  3   force =     0.00000019    0.00000010    0.00000263
     atom   51 type  3   force =     0.00000233   -0.00000827   -0.00000044
     atom   52 type  3   force =    -0.00000486    0.00000633   -0.00000033
     atom   53 type  3   force =    -0.00000109   -0.00000131    0.00000319
     atom   54 type  3   force =    -0.00000395    0.00000174    0.00000527
     atom   55 type  3   force =     0.00000175   -0.00000215    0.00000814
     atom   56 type  2   force =    -0.00000200   -0.00000120   -0.00002304
     atom   57 type  2   force =    -0.00000649   -0.00000149   -0.00001201
     atom   58 type  4   force =    -0.00000042   -0.00000043   -0.00000093
     atom   59 type  4   force =    -0.00000015   -0.00000019   -0.00000129
     atom   60 type  4   force =    -0.00000043    0.00000061   -0.00000017
     atom   61 type  4   force =     0.00000049   -0.00000002    0.00000006
     atom   62 type  4   force =    -0.00000094    0.00000053    0.00000077
     atom   63 type  4   force =     0.00000012   -0.00000058    0.00000052

     DFT-D3 dispersion contribution to forces:
     atom    1 type  1   force =    -0.00076342   -0.00015685    0.00282963
     atom    2 type  1   force =    -0.00074130   -0.00021093    0.00282295
     atom    3 type  1   force =    -0.00119417   -0.00029754   -0.00264502
     atom    4 type  1   force =    -0.00128019   -0.00033005   -0.00259158
     atom    5 type  1   force =     0.00082132    0.00031203   -0.00146420
     atom    6 type  1   force =     0.00032000    0.00019654   -0.00176097
     atom    7 type  1   force =    -0.00075587   -0.00018769    0.00284677
     atom    8 type  1   force =    -0.00076605   -0.00018169    0.00277599
     atom    9 type  1   force =    -0.00125980   -0.00027804   -0.00260843
     atom   10 type  1   force =    -0.00122473   -0.00034388   -0.00264131
     atom   11 type  1   force =     0.00076788    0.00114521   -0.00046900
     atom   12 type  1   force =     0.00107585   -0.00044412   -0.00049157
     atom   13 type  1   force =     0.00061582    0.00013731    0.00293314
     atom   14 type  1   force =     0.00060107    0.00019141    0.00294783
     atom   15 type  1   force =    -0.00036623   -0.00017168   -0.00088997
     atom   16 type  1   force =     0.00012298   -0.00025212   -0.00023983
     atom   17 type  1   force =    -0.00016299   -0.00002113   -0.00262233
     atom   18 type  1   force =    -0.00004972   -0.00002213   -0.00248014
     atom   19 type  1   force =     0.00062352    0.00012333    0.00295893
     atom   20 type  1   force =     0.00060057    0.00017979    0.00292911
     atom   21 type  1   force =    -0.00000682    0.00024408   -0.00025712
     atom   22 type  1   force =    -0.00038172   -0.00005794   -0.00086817
     atom   23 type  1   force =    -0.00001312    0.00002432   -0.00255634
     atom   24 type  1   force =    -0.00020177   -0.00007992   -0.00255043
     atom   25 type  1   force =     0.00060154    0.00011621    0.00277522
     atom   26 type  1   force =     0.00053155    0.00015355    0.00279301
     atom   27 type  1   force =     0.00076071    0.00019279    0.00188518
     atom   28 type  1   force =     0.00074481    0.00018158    0.00184976
     atom   29 type  1   force =     0.00075408    0.00016322   -0.00192661
     atom   30 type  1   force =     0.00044127    0.00023027   -0.00149317
     atom   31 type  1   force =     0.00054384    0.00011131    0.00279406
     atom   32 type  1   force =     0.00058427    0.00018079    0.00277011
     atom   33 type  1   force =     0.00071569    0.00018389    0.00185635
     atom   34 type  1   force =     0.00077595    0.00020866    0.00188215
     atom   35 type  1   force =     0.00073803    0.00022042   -0.00190242
     atom   36 type  1   force =     0.00052858   -0.00000282   -0.00153551
     atom   37 type  1   force =     0.00035666    0.00009748    0.00256521
     atom   38 type  1   force =     0.00037227    0.00007840    0.00259008
     atom   39 type  1   force =    -0.00109198   -0.00028470    0.00157744
     atom   40 type  1   force =    -0.00094646   -0.00024558    0.00139834
     atom   41 type  1   force =    -0.00042112   -0.00020168   -0.00440799
     atom   42 type  1   force =     0.00035868   -0.00001878   -0.00354692
     atom   43 type  1   force =     0.00038362    0.00007609    0.00256435
     atom   44 type  1   force =     0.00034816    0.00010015    0.00258159
     atom   45 type  1   force =    -0.00101385   -0.00018688    0.00173247
     atom   46 type  1   force =    -0.00098015   -0.00030669    0.00171105
     atom   47 type  1   force =     0.00004718    0.00046744   -0.00377717
     atom   48 type  1   force =     0.00024966   -0.00056431   -0.00379024
     atom   49 type  3   force =     0.00008189    0.00002590   -0.00004224
     atom   50 type  3   force =    -0.00004560   -0.00001235   -0.00021108
     atom   51 type  3   force =    -0.00003747    0.00018044   -0.00025314
     atom   52 type  3   force =     0.00008011   -0.00016070   -0.00025660
     atom   53 type  3   force =    -0.00011846    0.00026119   -0.00073910
     atom   54 type  3   force =     0.00004856   -0.00026267   -0.00075043
     atom   55 type  3   force =    -0.00020906   -0.00005482   -0.00107146
     atom   56 type  2   force =    -0.00022000   -0.00007299   -0.00014735
     atom   57 type  2   force =    -0.00045942   -0.00012530   -0.00134312
     atom   58 type  4   force =    -0.00032075   -0.00018815   -0.00134296
     atom   59 type  4   force =    -0.00037039   -0.00002285   -0.00136587
     atom   60 type  4   force =     0.00000722   -0.00003547   -0.00002603
     atom   61 type  4   force =    -0.00001888    0.00003289   -0.00002313
     atom   62 type  4   force =    -0.00009906   -0.00003083   -0.00063159
     atom   63 type  4   force =    -0.00008278   -0.00000343   -0.00065017

     Total force =     0.001584     Total SCF correction =     0.000379

     DFT-D3 dispersion Force =     0.017832
     SCF correction compared to forces is large: reduce conv_thr to get better values


     Computing stress (Cartesian axis) and pressure


     negative rho (up, down):  4.122E-03 0.000E+00
          total   stress  (Ry/bohr**3)                   (kbar)     P=      -10.85
  -0.00012191  -0.00000306   0.00000557          -17.93       -0.45        0.82
  -0.00000306  -0.00009265   0.00000137           -0.45      -13.63        0.20
   0.00000557   0.00000137  -0.00000662            0.82        0.20       -0.97

     kinetic stress (kbar)  11698.46      8.22    -30.90
                                8.22  11676.11    -10.54
                              -30.90    -10.54  11754.63

     local   stress (kbar)-834247.94   3823.11  -1794.39
                             3823.11-848528.17   -571.37
                            -1794.39   -571.37 841523.38

     nonloc. stress (kbar)  -1082.91     -3.68      2.62
                               -3.68  -1068.91      0.93
                                2.62      0.93  -1109.24

     hartree stress (kbar) 441943.72  -1736.35    787.04
                            -1736.35 448437.29    246.10
                              787.04    246.10-389248.91

     exc-cor stress (kbar)  -5698.10     -0.74      1.73
                               -0.74  -5695.59      0.59
                                1.73      0.59  -5704.18

     corecor stress (kbar)    -75.13      0.08     -0.61
                                0.08    -75.32     -0.20
                               -0.61     -0.20    -75.01

     ewald   stress (kbar) 387451.54  -2091.27   1035.56
                            -2091.27 395249.14    334.75
                             1035.56    334.75-457137.41

     hubbard stress (kbar)      0.00      0.00      0.00
                                0.00      0.00      0.00
                                0.00      0.00      0.00

     DFT-D   stress (kbar)     -7.57      0.18     -0.22
                                0.18     -8.17     -0.05
                               -0.22     -0.05     -4.22

     XDM     stress (kbar)      0.00      0.00      0.00
                                0.00      0.00      0.00
                                0.00      0.00      0.00

     dft-nl  stress (kbar)      0.00      0.00      0.00
                                0.00      0.00      0.00
                                0.00      0.00      0.00

     TS-vdW  stress (kbar)      0.00      0.00      0.00
                                0.00      0.00      0.00
                                0.00      0.00      0.00

     MDB     stress (kbar)      0.00      0.00      0.00
                                0.00      0.00      0.00
                                0.00      0.00      0.00

     3D-RISM stress (kbar)      0.00      0.00      0.00
                                0.00      0.00      0.00
                                0.00      0.00      0.00

     Energy error            =      6.0E-06 Ry
     Gradient error          =      4.8E-04 Ry/Bohr

     bfgs converged in  29 scf cycles and  28 bfgs steps
     (criteria: energy <  1.0E-05 Ry, force <  5.0E-04 Ry/Bohr)

     End of BFGS Geometry Optimization

     Final energy             =  -22331.0482106543 Ry

     File ./tmp/03_Zn101_ABN_topsite_tilted.bfgs deleted, as requested
Begin final coordinates

ATOMIC_POSITIONS (angstrom)
Zn              -1.0735560000        1.0841420000        1.1977640000    0   0   0
Zn              -2.3094850000        6.1646920000        1.1977640000    0   0   0
Zn              -4.2364788114        0.3104725482        4.3488446858
Zn              -5.4836851510        5.3905769959        4.3562785703
Zn              -8.1846236888       -0.6671802744        5.8224929645
Zn              -9.3911110754        4.4242352186        5.9744768509
Zn              -1.6915200000        3.6244170000        1.1977640000    0   0   0
Zn              -2.9274500000        8.7049670000        1.1977640000    0   0   0
Zn              -4.8664606632        2.8540095977        4.3463854188
Zn              -6.0922679763        7.9279222848        4.3563378928
Zn              -8.8156572179        1.8622598807        5.7957407721
Zn             -10.0529225025        6.9595177806        5.8039257260
Zn               4.4565960000        1.0841420000        1.1977640000    0   0   0
Zn               3.2206660000        6.1646920000        1.1977640000    0   0   0
Zn               0.4225173497        0.1006280270        3.4621868466
Zn              -0.8088805115        5.1920763518        3.4314597146
Zn              -2.0920740141       -0.5029237850        5.6804531437
Zn              -3.3409403644        4.5726245182        5.6823528916
Zn               3.8386310000        3.6244170000        1.1977640000    0   0   0
Zn               2.6027020000        8.7049670000        1.1977640000    0   0   0
Zn              -0.1861503152        2.6349333509        3.4331499069
Zn              -1.4312674574        7.7232094619        3.4624478218
Zn              -2.7224083202        2.0299769179        5.6790961060
Zn              -3.9461732525        7.1130357081        5.6837195056
Zn               1.6915200000        0.4114910000        0.8555450000    0   0   0
Zn               0.4555910000        5.4920410000        0.8555450000    0   0   0
Zn              -2.2372366504       -0.5443727645        2.8783316647
Zn              -3.4801556590        4.5366453623        2.8756626944
Zn              -6.0604678693       -1.4798906073        4.4227693195
Zn              -7.3201383869        3.5997031159        4.4891623238
Zn               1.0735560000        2.9517660000        0.8555450000    0   0   0
Zn              -0.1623740000        8.0323160000        0.8555450000    0   0   0
Zn              -2.8622851800        1.9967359725        2.8734792077
Zn              -4.0925850201        7.0779174965        2.8807531016
Zn              -6.6800529125        1.0574192803        4.4269844116
Zn              -7.9310309114        6.1301320137        4.4830026552
Zn               7.2216720000        0.4114910000        0.8555450000    0   0   0
Zn               5.9857420000        5.4920410000        0.8555450000    0   0   0
Zn               3.0083445208       -0.6160112176        2.9180835690
Zn               1.7892435250        4.4684900566        2.9314870517
Zn               0.3919270686       -1.2405863690        5.8025954878
Zn              -0.8527875332        3.8368812694        5.6949006025
Zn               6.6037070000        2.9517660000        0.8555450000    0   0   0
Zn               5.3677780000        8.0323160000        0.8555450000    0   0   0
Zn               2.4033702880        1.9304481630        2.9191765894
Zn               1.1702971949        7.0054863010        2.9211683303
Zn              -0.2269130856        1.3124995222        5.8140288086
Zn              -1.4590698811        6.3666529411        5.8093924644
C               -5.8776501967        5.5149528174       12.3278827184
C               -6.8633023853        5.2043388260       11.3451180345
C               -7.7341441860        6.2032871071       10.8681428758
C               -6.9810001224        3.8937922856       10.8425876310
C               -8.7025564485        5.8965541346        9.9227397006
C               -7.9496427529        3.5882417911        9.8971075860
C               -8.8302097920        4.5830839624        9.4369050365
N               -5.0706667473        5.7699264017       13.1319797307
N               -9.7839991186        4.2833756166        8.4588164663
H              -10.0785087314        3.3089711056        8.4082557003
H              -10.5870334559        4.9092253897        8.4180351077
H               -6.3094823134        3.1171520138       11.2082380925
H               -7.6479837386        7.2190422680       11.2541796864
H               -8.0366043483        2.5700015019        9.5118889863
H               -9.3768888118        6.6745575933        9.5589472090
End final coordinates



     Writing all to output data dir ./tmp/03_Zn101_ABN_topsite_tilted.save/ :
     XML data file, charge density, pseudopotentials, collected wavefunctions

     init_run     :     41.23s CPU     41.70s WALL (       1 calls)
     electrons    :  34847.15s CPU  35064.87s WALL (      29 calls)
     update_pot   :      9.26s CPU      9.83s WALL (      28 calls)
     forces       :    705.52s CPU    713.11s WALL (      29 calls)
     force_dftd3  :      6.24s CPU      6.27s WALL (      29 calls)
     stress       :   6142.07s CPU   6167.54s WALL (      29 calls)
     stres_dftd3  :      6.25s CPU      6.27s WALL (      29 calls)

     Called by init_run:
     wfcinit      :     39.34s CPU     39.67s WALL (       1 calls)
     wfcinit:atom :      0.08s CPU      0.11s WALL (       5 calls)
     wfcinit:wfcr :     38.68s CPU     38.92s WALL (       5 calls)
     potinit      :      0.61s CPU      0.66s WALL (       1 calls)
     hinit0       :      0.58s CPU      0.60s WALL (       1 calls)

     Called by electrons:
     c_bands      :  31213.38s CPU  31381.32s WALL (     264 calls)
     sum_band     :   3467.67s CPU   3499.73s WALL (     264 calls)
     v_of_rho     :     55.96s CPU     60.26s WALL (     264 calls)
     v_h          :      3.54s CPU      4.55s WALL (     264 calls)
     v_xc         :     64.09s CPU     68.16s WALL (     322 calls)
     newd         :     98.35s CPU    109.72s WALL (     264 calls)
     PAW_pot      :     16.09s CPU     16.14s WALL (     292 calls)
     mix_rho      :      5.95s CPU      6.74s WALL (     264 calls)
     energy_dftd3 :      3.31s CPU      3.32s WALL (      29 calls)

     Called by c_bands:
     init_us_2    :     82.14s CPU     82.73s WALL (    3075 calls)
     cegterg      :  31066.96s CPU  31232.81s WALL (    1320 calls)

     Called by sum_band:
     sum_band:wei :      0.34s CPU      0.35s WALL (     264 calls)
     sum_band:loo :   3360.96s CPU   3376.49s WALL (     264 calls)
     sum_band:buf :     16.59s CPU     17.02s WALL (    1320 calls)
     sum_band:ini :     36.18s CPU     36.38s WALL (    1320 calls)
     sum_band:cal :   1682.48s CPU   1687.05s WALL (    1460 calls)
     sum_band:bec :      8.21s CPU      8.24s WALL (    1460 calls)
     addusdens    :    101.09s CPU    116.11s WALL (     264 calls)
                                        0.00s GPU  (     264 calls)
     addusd:skk   :      3.91s CPU      6.24s WALL (    1056 calls)
                                        0.00s GPU  (    1056 calls)

     Called by *egterg:
     cdiaghg      :   2073.76s CPU   2081.57s WALL (    4860 calls)
     cegterg:over :   3726.24s CPU   3737.26s WALL (    3825 calls)
     cegterg:upda :   2277.99s CPU   2293.67s WALL (    3825 calls)
     cegterg:last :   6679.75s CPU   6698.64s WALL (    2674 calls)
     cdiaghg:chol :    156.38s CPU    156.78s WALL (    4860 calls)
     cdiaghg:inve :     21.16s CPU     21.21s WALL (    4860 calls)
     cdiaghg:para :    564.90s CPU    568.90s WALL (    9720 calls)
     h_psi        :  12013.19s CPU  12086.66s WALL (    5150 calls)
     s_psi        :   3102.98s CPU   3111.08s WALL (    5150 calls)
     g_psi        :     16.01s CPU     16.10s WALL (    3825 calls)

     Called by h_psi:
     h_psi:calbec :   3377.42s CPU   3387.91s WALL (    5150 calls)
     vloc_psi     :   5502.95s CPU   5536.38s WALL (    5150 calls)
     add_vuspsi   :   3102.94s CPU   3111.70s WALL (    5150 calls)

     General routines
     calbec       :   5942.88s CPU   5960.39s WALL (    7335 calls)
     fft          :     39.74s CPU     48.28s WALL (    4156 calls)
     ffts         :      1.63s CPU      2.44s WALL (     528 calls)
     fftw         :   4775.66s CPU   4802.34s WALL ( 4310318 calls)
     interpolate  :      4.09s CPU      5.10s WALL (     264 calls)

     Parallel routines

     PAW routines
     PAW_pot      :     16.09s CPU     16.14s WALL (     292 calls)

     PWSCF        :     11h38m CPU     11h42m WALL


   This run was terminated on:  16:39:22   7Apr2025            

=------------------------------------------------------------------------------=
   JOB DONE.
=------------------------------------------------------------------------------=
