--------------------------------------------------------------------------
WARNING: There was an error initializing an OpenFabrics device.

  Local host:   ga00
  Local device: mlx5_0
--------------------------------------------------------------------------

     Program PWSCF v.7.3.1 starts on  4Apr2025 at 20:14:33 

     This program is part of the open-source Quantum ESPRESSO suite
     for quantum simulation of materials; please cite
         "P. Giannozzi et al., J. Phys.:Condens. Matter 21 395502 (2009);
         "P. Giannozzi et al., J. Phys.:Condens. Matter 29 465901 (2017);
         "P. Giannozzi et al., J. Chem. Phys. 152 154105 (2020);
          URL http://www.quantum-espresso.org", 
     in publications or presentations arising from this work. More details at
     http://www.quantum-espresso.org/quote

     Parallel version (MPI), running on     7 processors

     MPI processes distributed on     1 nodes
     48467 MiB available memory on the printing compute node when the environment starts

     Waiting for input...
     Reading input from standard input
Warning: card &CELL ignored
Warning: card   CELL_DOFREE = 'ALL' ignored
Warning: card / ignored

     Current dimensions of program PWSCF are:
     Max number of different atomic species (ntypx) = 10
     Max number of k-points (npk) =  40000
     Max angular momentum in pseudopotentials (lmaxx) =  4

     File ./tmp/aniline_protonated.update deleted, as requested

     File ./tmp/aniline_protonated.bfgs deleted, as requested
     file C.pbe-n-kjpaw_psl.1.0.0.UPF: wavefunction(s)  2S 2P renormalized

     R & G space division:  proc/nbgrp/npool/nimage =       7
     Subspace diagonalization in iterative solution of the eigenvalue problem:
     a serial algorithm will be used


     Parallelization info
     --------------------
     sticks:   dense  smooth     PW     G-vecs:    dense   smooth      PW
     Min       18187   10395   2634              4881527  2108733  268572
     Max       18187   10397   2635              4881529  2108736  268574
     Sum      127309   72773  18441             34170695 14761141 1880009

     Using Slab Decomposition



     bravais-lattice index     =            1
     lattice parameter (alat)  =      75.5890  a.u.
     unit-cell volume          =  431893.4077 (a.u.)^3
     number of atoms/cell      =           15
     number of atomic types    =            3
     number of electrons       =        36.00
     number of Kohn-Sham states=           22
     kinetic-energy cutoff     =      40.0000  Ry
     charge density cutoff     =     280.0000  Ry
     scf convergence threshold =      1.0E-06
     mixing beta               =       0.4000
     number of iterations used =            8  plain     mixing
     Exchange-correlation= PBE
                           (   1   4   3   4   0   0   0)

     celldm(1)=  75.589045  celldm(2)=   0.000000  celldm(3)=   0.000000
     celldm(4)=   0.000000  celldm(5)=   0.000000  celldm(6)=   0.000000

     crystal axes: (cart. coord. in units of alat)
               a(1) = (   1.000000   0.000000   0.000000 )  
               a(2) = (   0.000000   1.000000   0.000000 )  
               a(3) = (   0.000000   0.000000   1.000000 )  

     reciprocal axes: (cart. coord. in units 2 pi/alat)
               b(1) = (  1.000000  0.000000  0.000000 )  
               b(2) = (  0.000000  1.000000  0.000000 )  
               b(3) = (  0.000000  0.000000  1.000000 )  


     PseudoPot. # 1 for N  read from file:
     /home/yongsang/Research/PSID_server_room/qe/[00]QE/qepseudo/SSSP_1.3.0_PBE_efficiency/N.pbe-n-radius_5.UPF
     MD5 check sum: 16739722b17309cd8fe442a2ace49922
     Pseudo is Ultrasoft + core correction, Zval =  5.0
     Generated using "atomic" code by A. Dal Corso  v.5.1
     Using radial grid of 1085 points,  4 beta functions with: 
                l(1) =   0
                l(2) =   0
                l(3) =   1
                l(4) =   1
     Q(r) pseudized with 0 coefficients 


     PseudoPot. # 2 for C  read from file:
     /home/yongsang/Research/PSID_server_room/qe/[00]QE/qepseudo/SSSP_1.3.0_PBE_efficiency/C.pbe-n-kjpaw_psl.1.0.0.UPF
     MD5 check sum: 5d2aebdfa2cae82b50a7e79e9516da0f
     Pseudo is Projector augmented-wave + core cor, Zval =  4.0
     Generated using "atomic" code by A. Dal Corso  v.5.1
     Shape of augmentation charge: PSQ
     Using radial grid of 1073 points,  4 beta functions with: 
                l(1) =   0
                l(2) =   0
                l(3) =   1
                l(4) =   1
     Q(r) pseudized with 0 coefficients 


     PseudoPot. # 3 for H  read from file:
     /home/yongsang/Research/PSID_server_room/qe/[00]QE/qepseudo/SSSP_1.3.0_PBE_efficiency/H.pbe-rrkjus_psl.1.0.0.UPF
     MD5 check sum: f52b6d4d1c606e5624b1dc7b2218f220
     Pseudo is Ultrasoft, Zval =  1.0
     Generated using "atomic" code by A. Dal Corso  v.5.1
     Using radial grid of  929 points,  2 beta functions with: 
                l(1) =   0
                l(2) =   0
     Q(r) pseudized with 0 coefficients 


     atomic species   valence    mass     pseudopotential
     N                 5.00    14.00674     N ( 1.00)
     C                 4.00    12.01070     C ( 1.00)
     H                 1.00     1.00794     H ( 1.00)

     No symmetry found


                                    s                        frac. trans.

      isym =  1     identity                                     

 cryst.   s( 1) = (     1          0          0      )
                  (     0          1          0      )
                  (     0          0          1      )

 cart.    s( 1) = (  1.0000000  0.0000000  0.0000000 )
                  (  0.0000000  1.0000000  0.0000000 )
                  (  0.0000000  0.0000000  1.0000000 )


     point group C_1 (1)    
     there are  1 classes
     the character table:

       E    
A      1.00

     the symmetry operations in each class and the name of the first element:

     E        1
          identity                                               

   Cartesian axes

     site n.     atom                  positions (alat units)
         1        N      tau(   1) = (  -0.0564522   0.0062574   0.0148492  )
         2        C      tau(   2) = (  -0.0202102   0.0056386   0.0056651  )
         3        C      tau(   3) = (  -0.0038495   0.0359817   0.0013146  )
         4        C      tau(   4) = (  -0.0045078  -0.0252094   0.0026808  )
         5        C      tau(   5) = (   0.0301989   0.0351754  -0.0064146  )
         6        C      tau(   6) = (   0.0295536  -0.0254840  -0.0050314  )
         7        C      tau(   7) = (   0.0467725   0.0045783  -0.0094960  )
         8        H      tau(   8) = (  -0.0169577   0.0598051   0.0037692  )
         9        H      tau(   9) = (  -0.0181172  -0.0486199   0.0061814  )
        10        H      tau(  10) = (   0.0436670   0.0585737  -0.0100192  )
        11        H      tau(  11) = (   0.0425177  -0.0493030  -0.0075803  )
        12        H      tau(  12) = (   0.0733468   0.0041584  -0.0154954  )
        13        H      tau(  13) = (  -0.0684619  -0.0149481   0.0065248  )
        14        H      tau(  14) = (  -0.0683163   0.0265640   0.0043543  )
        15        H      tau(  15) = (  -0.0598158   0.0076021   0.0403924  )

     --------------------------------------------
     DFT-D3 Dispersion Correction (3-body terms):
     --------------------------------------------
       Reference C6 values for interpolation: 

         atom   Coordination number   C6
         H          0.912             6.05
         H          0.000            15.18
         C          0.000            98.23
         C          0.987            86.49
         C          1.998            58.72
         C          2.999            51.56
         C          3.984            36.41
         N          0.000            50.54
         N          0.994            44.25
         N          2.014            39.35
         N          2.990            31.16

       Values used:

         atom   Coordination number  R0_AB[au]  C6      C8
         N          4.042            2.478     31.16    687.49
         C          3.168            2.750     50.38   1456.95
         C          3.147            2.750     50.56   1462.30
         C          3.147            2.750     50.56   1462.32
         C          3.136            2.750     50.64   1464.60
         C          3.136            2.750     50.64   1464.60
         C          3.129            2.750     50.70   1466.21
         H          1.002            2.062      6.18     74.70
         H          1.002            2.062      6.18     74.70
         H          1.002            2.062      6.18     74.70
         H          1.002            2.062      6.18     74.70
         H          1.002            2.062      6.18     74.70
         H          1.003            2.062      6.18     74.69
         H          1.003            2.062      6.18     74.69
         H          1.002            2.062      6.18     74.70

         Molecular C6 ( Ry / a.u.^6 ) =      4633.52


   Crystallographic axes

     site n.     atom                  positions (cryst. coord.)
         1        N      tau(   1) = ( -0.0564522  0.0062574  0.0148492  )
         2        C      tau(   2) = ( -0.0202102  0.0056386  0.0056651  )
         3        C      tau(   3) = ( -0.0038495  0.0359817  0.0013146  )
         4        C      tau(   4) = ( -0.0045078 -0.0252094  0.0026808  )
         5        C      tau(   5) = (  0.0301989  0.0351754 -0.0064146  )
         6        C      tau(   6) = (  0.0295536 -0.0254840 -0.0050314  )
         7        C      tau(   7) = (  0.0467725  0.0045783 -0.0094960  )
         8        H      tau(   8) = ( -0.0169577  0.0598051  0.0037692  )
         9        H      tau(   9) = ( -0.0181172 -0.0486199  0.0061814  )
        10        H      tau(  10) = (  0.0436670  0.0585737 -0.0100192  )
        11        H      tau(  11) = (  0.0425177 -0.0493030 -0.0075803  )
        12        H      tau(  12) = (  0.0733468  0.0041584 -0.0154954  )
        13        H      tau(  13) = ( -0.0684619 -0.0149481  0.0065248  )
        14        H      tau(  14) = ( -0.0683163  0.0265640  0.0043543  )
        15        H      tau(  15) = ( -0.0598158  0.0076021  0.0403924  )

     number of k points=     5  Marzari-Vanderbilt smearing, width (Ry)=  0.0200
                       cart. coord. in units 2pi/alat
        k(    1) = (   0.0000000   0.0000000   0.0000000), wk =   0.2222222
        k(    2) = (   0.0000000   0.3333333   0.0000000), wk =   0.4444444
        k(    3) = (   0.3333333   0.0000000   0.0000000), wk =   0.4444444
        k(    4) = (   0.3333333   0.3333333   0.0000000), wk =   0.4444444
        k(    5) = (   0.3333333  -0.3333333   0.0000000), wk =   0.4444444

                       cryst. coord.
        k(    1) = (   0.0000000   0.0000000   0.0000000), wk =   0.2222222
        k(    2) = (   0.0000000   0.3333333   0.0000000), wk =   0.4444444
        k(    3) = (   0.3333333   0.0000000   0.0000000), wk =   0.4444444
        k(    4) = (   0.3333333   0.3333333   0.0000000), wk =   0.4444444
        k(    5) = (   0.3333333  -0.3333333   0.0000000), wk =   0.4444444

     Dense  grid: 34170695 G-vectors     FFT dimensions: ( 405, 405, 405)

     Smooth grid: 14761141 G-vectors     FFT dimensions: ( 320, 320, 320)

     Dynamical RAM for                 wfc:      88.48 MB

     Dynamical RAM for     wfc (w. buffer):     530.90 MB

     Dynamical RAM for           str. fact:     223.46 MB

     Dynamical RAM for           local pot:       0.00 MB

     Dynamical RAM for          nlocal pot:     289.58 MB

     Dynamical RAM for                qrad:       1.15 MB

     Dynamical RAM for          rho,v,vnew:     441.20 MB

     Dynamical RAM for               rhoin:     147.07 MB

     Dynamical RAM for            rho*nmix:    1191.78 MB

     Dynamical RAM for           G-vectors:     295.41 MB

     Dynamical RAM for          h,s,v(r/c):       0.09 MB

     Dynamical RAM for          <psi|beta>:       0.02 MB

     Dynamical RAM for                 psi:     176.97 MB

     Dynamical RAM for                hpsi:     176.97 MB

     Dynamical RAM for                spsi:     176.97 MB

     Dynamical RAM for      wfcinit/wfcrot:     289.61 MB

     Dynamical RAM for           addusdens:    3798.80 MB

     Dynamical RAM for          addusforce:    4878.85 MB

     Dynamical RAM for         addusstress:    3724.31 MB

     Estimated static dynamical RAM per process >       2.53 GB

     Estimated max dynamical RAM per process >       8.46 GB

     Estimated total dynamical RAM >      59.20 GB
[ga00:3461355] 6 more processes have sent help message help-mpi-btl-openib.txt / error in device init
[ga00:3461355] Set MCA parameter "orte_base_help_aggregate" to 0 to see all help / error messages

     Initial potential from superposition of free atoms

     starting charge      36.9997, renormalised to      36.0000

     negative rho (up, down):  1.667E-02 0.000E+00
     Starting wfcs are   36 randomized atomic wfcs
     Checking if some PAW data can be deallocated... 
       PAW data deallocated on    4 nodes for type:  2

     total cpu time spent up to now is      136.2 secs

     Self-consistent Calculation

     iteration #  1     ecut=    40.00 Ry     beta= 0.40
     Davidson diagonalization with overlap

---- Real-time Memory Report at c_bands before calling an iterative solver
          4773 MiB given to the printing process from OS
             0 MiB allocation reported by mallinfo(arena+hblkhd)
         30751 MiB available memory on the node where the printing process lives
------------------
     ethr =  1.00E-02,  avg # of iterations =  2.0

     negative rho (up, down):  1.900E-02 0.000E+00

     total cpu time spent up to now is      363.7 secs

     total energy              =    -139.57532671 Ry
     estimated scf accuracy    <       2.81042861 Ry

     iteration #  2     ecut=    40.00 Ry     beta= 0.40
     Davidson diagonalization with overlap

---- Real-time Memory Report at c_bands before calling an iterative solver
          5990 MiB given to the printing process from OS
             0 MiB allocation reported by mallinfo(arena+hblkhd)
         38559 MiB available memory on the node where the printing process lives
------------------
     ethr =  7.81E-03,  avg # of iterations =  2.0

     negative rho (up, down):  2.041E-02 0.000E+00

     total cpu time spent up to now is      563.8 secs

     total energy              =    -139.77991912 Ry
     estimated scf accuracy    <       0.28803168 Ry

     iteration #  3     ecut=    40.00 Ry     beta= 0.40
     Davidson diagonalization with overlap

---- Real-time Memory Report at c_bands before calling an iterative solver
          6055 MiB given to the printing process from OS
             0 MiB allocation reported by mallinfo(arena+hblkhd)
         42021 MiB available memory on the node where the printing process lives
------------------
     ethr =  8.00E-04,  avg # of iterations =  6.0

     negative rho (up, down):  2.157E-02 0.000E+00

     total cpu time spent up to now is      800.2 secs

     total energy              =    -139.80377631 Ry
     estimated scf accuracy    <       0.05003014 Ry

     iteration #  4     ecut=    40.00 Ry     beta= 0.40
     Davidson diagonalization with overlap

---- Real-time Memory Report at c_bands before calling an iterative solver
          6119 MiB given to the printing process from OS
             0 MiB allocation reported by mallinfo(arena+hblkhd)
         57589 MiB available memory on the node where the printing process lives
------------------
     ethr =  1.39E-04,  avg # of iterations =  3.0

     negative rho (up, down):  2.175E-02 0.000E+00

     total cpu time spent up to now is      962.7 secs

     total energy              =    -139.80730744 Ry
     estimated scf accuracy    <       0.00673371 Ry

     iteration #  5     ecut=    40.00 Ry     beta= 0.40
     Davidson diagonalization with overlap

---- Real-time Memory Report at c_bands before calling an iterative solver
          6189 MiB given to the printing process from OS
             0 MiB allocation reported by mallinfo(arena+hblkhd)
         75512 MiB available memory on the node where the printing process lives
------------------
     ethr =  1.87E-05,  avg # of iterations =  4.0

     negative rho (up, down):  2.180E-02 0.000E+00

     total cpu time spent up to now is     1121.2 secs

     total energy              =    -139.80724751 Ry
     estimated scf accuracy    <       0.00111235 Ry

     iteration #  6     ecut=    40.00 Ry     beta= 0.40
     Davidson diagonalization with overlap

---- Real-time Memory Report at c_bands before calling an iterative solver
          6253 MiB given to the printing process from OS
             0 MiB allocation reported by mallinfo(arena+hblkhd)
         71089 MiB available memory on the node where the printing process lives
------------------
     c_bands:  1 eigenvalues not converged
     c_bands:  1 eigenvalues not converged
     c_bands:  1 eigenvalues not converged
     c_bands:  1 eigenvalues not converged
     c_bands:  1 eigenvalues not converged
     ethr =  3.09E-06,  avg # of iterations = 20.0

     negative rho (up, down):  2.172E-02 0.000E+00

     total cpu time spent up to now is     1348.0 secs

     total energy              =    -139.80755579 Ry
     estimated scf accuracy    <       0.00059952 Ry

     iteration #  7     ecut=    40.00 Ry     beta= 0.40
     Davidson diagonalization with overlap

---- Real-time Memory Report at c_bands before calling an iterative solver
          6318 MiB given to the printing process from OS
             0 MiB allocation reported by mallinfo(arena+hblkhd)
         87416 MiB available memory on the node where the printing process lives
------------------
     ethr =  1.67E-06,  avg # of iterations =  4.0

     negative rho (up, down):  2.174E-02 0.000E+00

     total cpu time spent up to now is     1488.8 secs

     total energy              =    -139.80761959 Ry
     estimated scf accuracy    <       0.00002645 Ry

     iteration #  8     ecut=    40.00 Ry     beta= 0.40
     Davidson diagonalization with overlap

---- Real-time Memory Report at c_bands before calling an iterative solver
          6385 MiB given to the printing process from OS
             0 MiB allocation reported by mallinfo(arena+hblkhd)
         83311 MiB available memory on the node where the printing process lives
------------------
     ethr =  7.35E-08,  avg # of iterations =  4.0

     negative rho (up, down):  2.175E-02 0.000E+00

     total cpu time spent up to now is     1648.0 secs

     total energy              =    -139.80763154 Ry
     estimated scf accuracy    <       0.00001105 Ry

     iteration #  9     ecut=    40.00 Ry     beta= 0.40
     Davidson diagonalization with overlap

---- Real-time Memory Report at c_bands before calling an iterative solver
          6450 MiB given to the printing process from OS
             0 MiB allocation reported by mallinfo(arena+hblkhd)
         76673 MiB available memory on the node where the printing process lives
------------------
     ethr =  3.07E-08,  avg # of iterations =  2.0

     negative rho (up, down):  2.179E-02 0.000E+00

     total cpu time spent up to now is     1777.0 secs

     End of self-consistent calculation

          k = 0.0000 0.0000 0.0000 (****** PWs)   bands (ev):

   -29.5367 -24.8549 -22.1399 -22.1042 -19.3616 -18.9609 -18.7466 -17.7745
   -17.0096 -15.3841 -14.5148 -13.9824 -13.7859 -12.6683 -11.9650 -11.7787
    -9.9109  -9.8411  -4.8863  -4.7825  -4.7488  -3.1893

     occupation numbers 
     1.0000   1.0000   1.0000   1.0000   1.0000   1.0000   1.0000   1.0000
     1.0000   1.0000   1.0000   1.0000   1.0000   1.0000   1.0000   1.0000
     1.0000   1.0000   0.0000   0.0000   0.0000   0.0000

          k = 0.0000 0.3333 0.0000 (****** PWs)   bands (ev):

   -29.5367 -24.8549 -22.1399 -22.1042 -19.3616 -18.9609 -18.7466 -17.7745
   -17.0096 -15.3841 -14.5148 -13.9824 -13.7859 -12.6683 -11.9650 -11.7787
    -9.9109  -9.8411  -4.8863  -4.7825  -4.7488  -3.1893

     occupation numbers 
     1.0000   1.0000   1.0000   1.0000   1.0000   1.0000   1.0000   1.0000
     1.0000   1.0000   1.0000   1.0000   1.0000   1.0000   1.0000   1.0000
     1.0000   1.0000   0.0000   0.0000   0.0000   0.0000

          k = 0.3333 0.0000 0.0000 (****** PWs)   bands (ev):

   -29.5367 -24.8549 -22.1399 -22.1042 -19.3616 -18.9609 -18.7466 -17.7745
   -17.0096 -15.3841 -14.5148 -13.9824 -13.7859 -12.6683 -11.9650 -11.7787
    -9.9109  -9.8411  -4.8863  -4.7825  -4.7488  -3.1893

     occupation numbers 
     1.0000   1.0000   1.0000   1.0000   1.0000   1.0000   1.0000   1.0000
     1.0000   1.0000   1.0000   1.0000   1.0000   1.0000   1.0000   1.0000
     1.0000   1.0000   0.0000   0.0000   0.0000   0.0000

          k = 0.3333 0.3333 0.0000 (****** PWs)   bands (ev):

   -29.5367 -24.8549 -22.1399 -22.1042 -19.3616 -18.9609 -18.7466 -17.7745
   -17.0096 -15.3841 -14.5148 -13.9824 -13.7859 -12.6683 -11.9650 -11.7787
    -9.9109  -9.8411  -4.8863  -4.7825  -4.7488  -3.1893

     occupation numbers 
     1.0000   1.0000   1.0000   1.0000   1.0000   1.0000   1.0000   1.0000
     1.0000   1.0000   1.0000   1.0000   1.0000   1.0000   1.0000   1.0000
     1.0000   1.0000   0.0000   0.0000   0.0000   0.0000

          k = 0.3333-0.3333 0.0000 (****** PWs)   bands (ev):

   -29.5367 -24.8549 -22.1399 -22.1042 -19.3616 -18.9609 -18.7466 -17.7745
   -17.0096 -15.3841 -14.5148 -13.9824 -13.7859 -12.6683 -11.9650 -11.7787
    -9.9109  -9.8411  -4.8863  -4.7825  -4.7488  -3.1893

     occupation numbers 
     1.0000   1.0000   1.0000   1.0000   1.0000   1.0000   1.0000   1.0000
     1.0000   1.0000   1.0000   1.0000   1.0000   1.0000   1.0000   1.0000
     1.0000   1.0000   0.0000   0.0000   0.0000   0.0000

     the Fermi energy is    -8.4156 ev

!    total energy              =    -139.80763232 Ry
     estimated scf accuracy    <       0.00000056 Ry
     smearing contrib. (-TS)   =       0.00000000 Ry
     internal energy E=F+TS    =    -139.80763232 Ry

     The total energy is F=E-TS. E is the sum of the following terms:
     one-electron contribution =    -608.92041931 Ry
     hartree contribution      =     303.13407129 Ry
     xc contribution           =     -38.31521106 Ry
     ewald contribution        =     241.30902090 Ry
     DFT-D3 Dispersion         =      -0.00961990 Ry
     one-center paw contrib.   =     -37.00547423 Ry
      -> PAW hartree energy AE =      18.64449945 Ry
      -> PAW hartree energy PS =     -18.62729151 Ry
      -> PAW xc energy AE      =     -21.26900720 Ry
      -> PAW xc energy PS      =       8.91799861 Ry
      -> total E_H with PAW    =     303.15127923 Ry
      -> total E_XC with PAW   =     -50.66621965 Ry

     convergence has been achieved in   9 iterations

     negative rho (up, down):  2.179E-02 0.000E+00

     Forces acting on atoms (cartesian axes, Ry/au):

     atom    1 type  1   force =     0.00032655   -0.00010692   -0.00018203
     atom    2 type  2   force =     0.00001476    0.00024062    0.00038543
     atom    3 type  2   force =     0.00042839   -0.00032518    0.00002284
     atom    4 type  2   force =     0.00036132    0.00012853    0.00009238
     atom    5 type  2   force =    -0.00022944   -0.00022274    0.00003066
     atom    6 type  2   force =    -0.00024425    0.00028898   -0.00013256
     atom    7 type  2   force =    -0.00036522   -0.00008817    0.00009242
     atom    8 type  3   force =     0.00013059   -0.00010392    0.00015687
     atom    9 type  3   force =     0.00008220    0.00019915    0.00017800
     atom   10 type  3   force =    -0.00000265    0.00005201   -0.00012480
     atom   11 type  3   force =    -0.00006144   -0.00003339   -0.00003605
     atom   12 type  3   force =    -0.00009478   -0.00000099   -0.00012305
     atom   13 type  3   force =    -0.00008885    0.00012959   -0.00012990
     atom   14 type  3   force =    -0.00019641   -0.00013703   -0.00009760
     atom   15 type  3   force =    -0.00006078   -0.00002054   -0.00013261
     The non-local contrib.  to forces
     atom    1 type  1   force =    -0.18631551    0.00384594    0.05134719
     atom    2 type  2   force =    -0.64560871    0.01107950    0.16597671
     atom    3 type  2   force =    -0.10277403   -0.07885602    0.02731408
     atom    4 type  2   force =    -0.10095854    0.08162169    0.02390466
     atom    5 type  2   force =    -0.09379495   -0.02475646    0.02121087
     atom    6 type  2   force =    -0.09356295    0.02758595    0.01978181
     atom    7 type  2   force =    -0.06286549    0.00100783    0.01189871
     atom    8 type  3   force =     0.03531783   -0.06981667   -0.00657064
     atom    9 type  3   force =     0.03674651    0.06868313   -0.00962805
     atom   10 type  3   force =    -0.04018241   -0.06888333    0.01072606
     atom   11 type  3   force =    -0.03870052    0.07012669    0.00762321
     atom   12 type  3   force =    -0.07846716    0.00124086    0.01770034
     atom   13 type  3   force =     0.04602316    0.08229875    0.03275766
     atom   14 type  3   force =     0.04541525   -0.07875095    0.04120370
     atom   15 type  3   force =     0.01180253   -0.00515696   -0.09828863
     The ionic contribution  to forces
     atom    1 type  1   force =    -7.96464153    0.13415275    1.98901409
     atom    2 type  2   force =    -2.40105363    0.03156719    0.39674133
     atom    3 type  2   force =    -1.59928381    7.12604997    0.18822513
     atom    4 type  2   force =    -1.75363558   -7.07434623    0.50231581
     atom    5 type  2   force =     4.42454842    6.27954822   -1.15043005
     atom    6 type  2   force =     4.28929537   -6.41942744   -0.85534190
     atom    7 type  2   force =     7.56730321   -0.11902612   -1.70461372
     atom    8 type  3   force =    -1.29205233    3.26551957    0.22063001
     atom    9 type  3   force =    -1.36060493   -3.22385576    0.36425042
     atom   10 type  3   force =     1.81137745    2.95014165   -0.48063462
     atom   11 type  3   force =     1.74760243   -3.00671000   -0.34650319
     atom   12 type  3   force =     3.39488144   -0.05365227   -0.76655794
     atom   13 type  3   force =    -2.72514268   -2.79751051   -0.91326078
     atom   14 type  3   force =    -2.70132593    2.71047850   -1.21059594
     atom   15 type  3   force =    -1.43726789    0.19707047    3.76676135
     The local contribution  to forces
     atom    1 type  1   force =     8.15126652   -0.13816906   -2.04065607
     atom    2 type  2   force =     3.03153177   -0.04236236   -0.55861676
     atom    3 type  2   force =     1.70016117   -7.04782382   -0.21510082
     atom    4 type  2   force =     1.85240883    6.99330088   -0.52553578
     atom    5 type  2   force =    -4.33227918   -6.25461390    1.12964324
     atom    6 type  2   force =    -4.19702830    6.39174465    0.83558173
     atom    7 type  2   force =    -7.50499946    0.11802048    1.69297709
     atom    8 type  3   force =     1.25697479   -3.19587694   -0.21398713
     atom    9 type  3   force =     1.32403939    3.15543723   -0.35453165
     atom   10 type  3   force =    -1.77118984   -2.88124080    0.46974327
     atom   11 type  3   force =    -1.70895741    2.93658242    0.33880202
     atom   12 type  3   force =    -3.31649178    0.05240634    0.74869068
     atom   13 type  3   force =     2.67927828    2.71532840    0.88035114
     atom   14 type  3   force =     2.65593687   -2.63187053    1.16927886
     atom   15 type  3   force =     1.42529767   -0.19194103   -3.66867466
     The core correction contribution to forces
     atom    1 type  1   force =     0.00078075   -0.00002343   -0.00028345
     atom    2 type  2   force =     0.01546873   -0.00007131   -0.00386923
     atom    3 type  2   force =     0.00232940   -0.00055394   -0.00050389
     atom    4 type  2   force =     0.00255213    0.00038219   -0.00071629
     atom    5 type  2   force =     0.00089785   -0.00091154   -0.00034378
     atom    6 type  2   force =     0.00066297    0.00089295   -0.00013291
     atom    7 type  2   force =    -0.00048171   -0.00009598   -0.00006829
     atom    8 type  3   force =     0.00000000    0.00000000    0.00000000
     atom    9 type  3   force =     0.00000000    0.00000000    0.00000000
     atom   10 type  3   force =     0.00000000    0.00000000    0.00000000
     atom   11 type  3   force =     0.00000000    0.00000000    0.00000000
     atom   12 type  3   force =     0.00000000    0.00000000    0.00000000
     atom   13 type  3   force =     0.00000000    0.00000000    0.00000000
     atom   14 type  3   force =     0.00000000    0.00000000    0.00000000
     atom   15 type  3   force =     0.00000000    0.00000000    0.00000000
     The Hubbard contrib.    to forces
     atom    1 type  1   force =     0.00000000    0.00000000    0.00000000
     atom    2 type  2   force =     0.00000000    0.00000000    0.00000000
     atom    3 type  2   force =     0.00000000    0.00000000    0.00000000
     atom    4 type  2   force =     0.00000000    0.00000000    0.00000000
     atom    5 type  2   force =     0.00000000    0.00000000    0.00000000
     atom    6 type  2   force =     0.00000000    0.00000000    0.00000000
     atom    7 type  2   force =     0.00000000    0.00000000    0.00000000
     atom    8 type  3   force =     0.00000000    0.00000000    0.00000000
     atom    9 type  3   force =     0.00000000    0.00000000    0.00000000
     atom   10 type  3   force =     0.00000000    0.00000000    0.00000000
     atom   11 type  3   force =     0.00000000    0.00000000    0.00000000
     atom   12 type  3   force =     0.00000000    0.00000000    0.00000000
     atom   13 type  3   force =     0.00000000    0.00000000    0.00000000
     atom   14 type  3   force =     0.00000000    0.00000000    0.00000000
     atom   15 type  3   force =     0.00000000    0.00000000    0.00000000
     The SCF correction term to forces
     atom    1 type  1   force =    -0.00064770    0.00008389    0.00032772
     atom    2 type  2   force =    -0.00040473    0.00002725    0.00014267
     atom    3 type  2   force =    -0.00000036    0.00067624    0.00000931
     atom    4 type  2   force =    -0.00000410   -0.00065627    0.00004022
     atom    5 type  2   force =     0.00051685    0.00037205   -0.00011413
     atom    6 type  2   force =     0.00050980   -0.00037616   -0.00009208
     atom    7 type  2   force =     0.00061571    0.00000457   -0.00012810
     atom    8 type  3   force =    -0.00003929    0.00011242    0.00000994
     atom    9 type  3   force =    -0.00003887   -0.00011211    0.00001466
     atom   10 type  3   force =     0.00004895    0.00003512   -0.00001033
     atom   11 type  3   force =     0.00005067   -0.00003893   -0.00000878
     atom   12 type  3   force =     0.00003331    0.00000110   -0.00000615
     atom   13 type  3   force =    -0.00009060   -0.00004999    0.00001243
     atom   14 type  3   force =    -0.00008627    0.00005784    0.00001105
     atom   15 type  3   force =    -0.00006908    0.00001116    0.00007014

     DFT-D3 dispersion contribution to forces:
     atom    1 type  1   force =    -0.00007406    0.00000026    0.00002072
     atom    2 type  2   force =     0.00012326   -0.00000238   -0.00003706
     atom    3 type  2   force =     0.00003794    0.00017966    0.00003127
     atom    4 type  2   force =     0.00004049   -0.00017646    0.00003599
     atom    5 type  2   force =    -0.00007651    0.00013616    0.00001675
     atom    6 type  2   force =    -0.00007922   -0.00013369    0.00002302
     atom    7 type  2   force =     0.00010444   -0.00000167   -0.00002102
     atom    8 type  3   force =    -0.00002849   -0.00004504    0.00002694
     atom    9 type  3   force =    -0.00001800    0.00004393    0.00002486
     atom   10 type  3   force =    -0.00001489   -0.00000336    0.00000306
     atom   11 type  3   force =    -0.00001469    0.00000369    0.00000293
     atom   12 type  3   force =    -0.00000867    0.00000023    0.00000227
     atom   13 type  3   force =    -0.00011510    0.00006021   -0.00003811
     atom   14 type  3   force =    -0.00009441   -0.00005462   -0.00004304
     atom   15 type  3   force =     0.00021792   -0.00000691   -0.00004857

     Total force =     0.001235     Total SCF correction =     0.001703

     DFT-D3 dispersion Force =     0.000491
     SCF correction compared to forces is large: reduce conv_thr to get better values


     Computing stress (Cartesian axis) and pressure


     negative rho (up, down):  2.179E-02 0.000E+00
          total   stress  (Ry/bohr**3)                   (kbar)     P=       -0.02
  -0.00000013   0.00000000   0.00000000           -0.02        0.00        0.00
   0.00000000  -0.00000012  -0.00000000            0.00       -0.02       -0.00
   0.00000000  -0.00000000  -0.00000012            0.00       -0.00       -0.02

     kinetic stress (kbar)     14.06      0.01      0.32
                                0.01     13.93      0.03
                                0.32      0.03     15.39

     local   stress (kbar)   -107.83      0.64     18.59
                                0.64    -87.39      1.04
                               18.59      1.04    -32.16

     nonloc. stress (kbar)      3.18     -0.00     -0.04
                               -0.00      3.20     -0.00
                               -0.04     -0.00      3.00

     hartree stress (kbar)     47.53     -0.27     -7.39
                               -0.27     38.23     -0.38
                               -7.39     -0.38     17.49

     exc-cor stress (kbar)     -1.17     -0.00     -0.02
                               -0.00     -1.17     -0.00
                               -0.02     -0.00     -1.27

     corecor stress (kbar)     -2.43      0.00      0.01
                                0.00     -2.44      0.00
                                0.01      0.00     -2.40

     ewald   stress (kbar)     46.64     -0.38    -11.46
                               -0.38     35.62     -0.68
                              -11.46     -0.68     -0.07

     hubbard stress (kbar)      0.00      0.00      0.00
                                0.00      0.00      0.00
                                0.00      0.00      0.00

     DFT-D   stress (kbar)      0.00      0.00      0.00
                                0.00      0.00     -0.00
                                0.00     -0.00     -0.00

     XDM     stress (kbar)      0.00      0.00      0.00
                                0.00      0.00      0.00
                                0.00      0.00      0.00

     dft-nl  stress (kbar)      0.00      0.00      0.00
                                0.00      0.00      0.00
                                0.00      0.00      0.00

     TS-vdW  stress (kbar)      0.00      0.00      0.00
                                0.00      0.00      0.00
                                0.00      0.00      0.00

     MDB     stress (kbar)      0.00      0.00      0.00
                                0.00      0.00      0.00
                                0.00      0.00      0.00

     3D-RISM stress (kbar)      0.00      0.00      0.00
                                0.00      0.00      0.00
                                0.00      0.00      0.00


     Writing all to output data dir ./tmp/aniline_protonated.save/ :
     XML data file, charge density, pseudopotentials, collected wavefunctions

     init_run     :    117.78s CPU    136.06s WALL (       1 calls)
     electrons    :   1449.62s CPU   1643.07s WALL (       1 calls)
     forces       :     31.47s CPU     37.22s WALL (       1 calls)
     force_dftd3  :      0.00s CPU      0.00s WALL (       1 calls)
     stress       :    114.80s CPU    127.15s WALL (       1 calls)
     stres_dftd3  :      0.00s CPU      0.00s WALL (       1 calls)

     Called by init_run:
     wfcinit      :     72.38s CPU     79.96s WALL (       1 calls)
     wfcinit:atom :      0.70s CPU      1.20s WALL (       5 calls)
     wfcinit:wfcr :     68.33s CPU     74.79s WALL (       5 calls)
     potinit      :     10.32s CPU     14.00s WALL (       1 calls)
     hinit0       :      2.23s CPU      3.04s WALL (       1 calls)

     Called by electrons:
     c_bands      :   1028.89s CPU   1110.15s WALL (       9 calls)
     sum_band     :    279.84s CPU    326.23s WALL (       9 calls)
     v_of_rho     :     66.63s CPU     89.42s WALL (      10 calls)
     v_h          :      7.28s CPU     10.60s WALL (      10 calls)
     v_xc         :     68.90s CPU     90.54s WALL (      12 calls)
     newd         :     64.04s CPU    104.02s WALL (      10 calls)
     PAW_pot      :      0.67s CPU      0.68s WALL (      10 calls)
     mix_rho      :     14.84s CPU     21.50s WALL (       9 calls)
     energy_dftd3 :      0.00s CPU      0.00s WALL (       1 calls)

     Called by c_bands:
     init_us_2    :     24.38s CPU     26.91s WALL (     105 calls)
     cegterg      :   1006.40s CPU   1085.22s WALL (      45 calls)

     Called by sum_band:
     sum_band:wei :      0.00s CPU      0.00s WALL (       9 calls)
     sum_band:loo :    183.63s CPU    191.76s WALL (       9 calls)
     sum_band:buf :      1.43s CPU      2.04s WALL (      45 calls)
     sum_band:ini :     10.73s CPU     11.48s WALL (      45 calls)
     sum_band:cal :     15.15s CPU     15.41s WALL (      45 calls)
     sum_band:bec :      0.00s CPU      0.00s WALL (      45 calls)
     addusdens    :     88.25s CPU    123.34s WALL (       9 calls)
                                        0.00s GPU  (       9 calls)
     addusd:skk   :      2.43s CPU      6.68s WALL (      27 calls)
                                        0.00s GPU  (      27 calls)

     Called by *egterg:
     cdiaghg      :      0.15s CPU      0.15s WALL (     280 calls)
     cegterg:over :     36.61s CPU     36.82s WALL (     235 calls)
     cegterg:upda :     21.23s CPU     22.93s WALL (     235 calls)
     cegterg:last :     46.61s CPU     47.25s WALL (     105 calls)
     h_psi        :    900.41s CPU    975.54s WALL (     285 calls)
     s_psi        :     47.10s CPU     47.36s WALL (     285 calls)
     g_psi        :      2.29s CPU      2.31s WALL (     235 calls)

     Called by h_psi:
     h_psi:calbec :     51.44s CPU     52.79s WALL (     285 calls)
     vloc_psi     :    798.61s CPU    868.81s WALL (     285 calls)
     add_vuspsi   :     46.78s CPU     47.09s WALL (     285 calls)

     General routines
     calbec       :     74.85s CPU     76.50s WALL (     355 calls)
     fft          :     74.93s CPU     94.09s WALL (     153 calls)
     ffts         :      4.26s CPU      5.42s WALL (      19 calls)
     fftw         :    675.49s CPU    749.20s WALL (    6870 calls)
     interpolate  :      8.10s CPU     11.08s WALL (      10 calls)

     Parallel routines

     PAW routines
     PAW_pot      :      0.67s CPU      0.68s WALL (      10 calls)

     PWSCF        :  28m37.34s CPU  32m30.87s WALL


   This run was terminated on:  20:47: 3   4Apr2025            

=------------------------------------------------------------------------------=
   JOB DONE.
=------------------------------------------------------------------------------=
