
     Program PWSCF v.7.3.1 starts on 11Apr2025 at  0:30:44 

     This program is part of the open-source Quantum ESPRESSO suite
     for quantum simulation of materials; please cite
         "P. Giannozzi et al., J. Phys.:Condens. Matter 21 395502 (2009);
         "P. Giannozzi et al., J. Phys.:Condens. Matter 29 465901 (2017);
         "P. Giannozzi et al., J. Chem. Phys. 152 154105 (2020);
          URL http://www.quantum-espresso.org", 
     in publications or presentations arising from this work. More details at
     http://www.quantum-espresso.org/quote

     Parallel version (MPI), running on    33 processors

     MPI processes distributed on     1 nodes
     10926 MiB available memory on the printing compute node when the environment starts

     Waiting for input...
     Reading input from standard input
Warning: card &CELL ignored
Warning: card   CELL_DOFREE = 'ALL' ignored
Warning: card / ignored

     Current dimensions of program PWSCF are:
     Max number of different atomic species (ntypx) = 10
     Max number of k-points (npk) =  40000
     Max angular momentum in pseudopotentials (lmaxx) =  4
     file C.pbe-n-kjpaw_psl.1.0.0.UPF: wavefunction(s)  2S 2P renormalized

     R & G space division:  proc/nbgrp/npool/nimage =      33
     Subspace diagonalization in iterative solution of the eigenvalue problem:
     one sub-group per band group will be used
     custom distributed-memory algorithm (size of sub-group:  5*  5 procs)


     Parallelization info
     --------------------
     sticks:   dense  smooth     PW     G-vecs:    dense   smooth      PW
     Min         245     140     37                38015    16424    2301
     Max         246     141     38                38023    16429    2310
     Sum        8103    4637   1251              1254623   542067   76155

     Using Slab Decomposition



     bravais-lattice index     =            0
     lattice parameter (alat)  =      18.4179  a.u.
     unit-cell volume          =   15858.2170 (a.u.)^3
     number of atoms/cell      =           65
     number of atomic types    =            4
     number of electrons       =      1002.00
     number of Kohn-Sham states=          601
     kinetic-energy cutoff     =      40.0000  Ry
     charge density cutoff     =     280.0000  Ry
     scf convergence threshold =      1.0E-06
     mixing beta               =       0.4000
     number of iterations used =            8  plain     mixing
     energy convergence thresh.=      5.0E-05
     force convergence thresh. =      1.0E-03
     Exchange-correlation= PBE
                           (   1   4   3   4   0   0   0)
     nstep                     =          300


     celldm(1)=  18.417879  celldm(2)=   0.000000  celldm(3)=   0.000000
     celldm(4)=   0.000000  celldm(5)=   0.000000  celldm(6)=   0.000000

     crystal axes: (cart. coord. in units of alat)
               a(1) = (   1.000000   0.000000   0.000000 )  
               a(2) = (   0.000000   1.072963   0.000000 )  
               a(3) = (   0.000000  -1.365810   2.365652 )  

     reciprocal axes: (cart. coord. in units 2 pi/alat)
               b(1) = (  1.000000  0.000000 -0.000000 )  
               b(2) = ( -0.000000  0.931999  0.538090 )  
               b(3) = (  0.000000  0.000000  0.422716 )  


     PseudoPot. # 1 for Zn read from file:
     /home/ys/qepseudo/SSSP_1.3.0_PBE_efficiency/Zn_pbe_v1.uspp.F.UPF
     MD5 check sum: df62231357ef9e81f77b2b3087fa5675
     Pseudo is Ultrasoft, Zval = 20.0
     Generated by new atomic code, or converted to UPF format
     Using radial grid of  943 points,  6 beta functions with: 
                l(1) =   0
                l(2) =   0
                l(3) =   1
                l(4) =   1
                l(5) =   2
                l(6) =   2
     Q(r) pseudized with  8 coefficients,  rinner =    1.100   1.100   1.100
                                                       1.100   1.100

     PseudoPot. # 2 for N  read from file:
     /home/ys/qepseudo/SSSP_1.3.0_PBE_efficiency/N.pbe-n-radius_5.UPF
     MD5 check sum: 16739722b17309cd8fe442a2ace49922
     Pseudo is Ultrasoft + core correction, Zval =  5.0
     Generated using "atomic" code by A. Dal Corso  v.5.1
     Using radial grid of 1085 points,  4 beta functions with: 
                l(1) =   0
                l(2) =   0
                l(3) =   1
                l(4) =   1
     Q(r) pseudized with 0 coefficients 


     PseudoPot. # 3 for C  read from file:
     /home/ys/qepseudo/SSSP_1.3.0_PBE_efficiency/C.pbe-n-kjpaw_psl.1.0.0.UPF
     MD5 check sum: 5d2aebdfa2cae82b50a7e79e9516da0f
     Pseudo is Projector augmented-wave + core cor, Zval =  4.0
     Generated using "atomic" code by A. Dal Corso  v.5.1
     Shape of augmentation charge: PSQ
     Using radial grid of 1073 points,  4 beta functions with: 
                l(1) =   0
                l(2) =   0
                l(3) =   1
                l(4) =   1
     Q(r) pseudized with 0 coefficients 


     PseudoPot. # 4 for H  read from file:
     /home/ys/qepseudo/SSSP_1.3.0_PBE_efficiency/H.pbe-rrkjus_psl.1.0.0.UPF
     MD5 check sum: f52b6d4d1c606e5624b1dc7b2218f220
     Pseudo is Ultrasoft, Zval =  1.0
     Generated using "atomic" code by A. Dal Corso  v.5.1
     Using radial grid of  929 points,  2 beta functions with: 
                l(1) =   0
                l(2) =   0
     Q(r) pseudized with 0 coefficients 


     atomic species   valence    mass     pseudopotential
     Zn               20.00    65.38000     Zn( 1.00)
     N                 5.00    14.00674     N ( 1.00)
     C                 4.00    12.01070     C ( 1.00)
     H                 1.00     1.00794     H ( 1.00)

     No symmetry found


                                    s                        frac. trans.

      isym =  1     identity                                     

 cryst.   s( 1) = (     1          0          0      )
                  (     0          1          0      )
                  (     0          0          1      )

 cart.    s( 1) = (  1.0000000  0.0000000  0.0000000 )
                  (  0.0000000  1.0000000 -0.0000000 )
                  (  0.0000000  0.0000000  1.0000000 )


   Cartesian axes

     site n.     atom                  positions (alat units)
         1        Zn     tau(   1) = (   0.1250000   0.1341203   0.0774344  )
         2        Zn     tau(   2) = (   0.1250000   0.6706017   0.0774344  )
         3        Zn     tau(   3) = (   0.1254355  -0.0000659   0.3663588  )
         4        Zn     tau(   4) = (   0.1254363   0.5365404   0.3662887  )
         5        Zn     tau(   5) = (   0.1252702  -0.1341656   0.6251262  )
         6        Zn     tau(   6) = (   0.1252777   0.4024072   0.6251464  )
         7        Zn     tau(   7) = (   0.1250000   0.4023610   0.0774344  )
         8        Zn     tau(   8) = (   0.1250000   0.9388424   0.0774344  )
         9        Zn     tau(   9) = (   0.1254456   0.2682606   0.3663796  )
        10        Zn     tau(  10) = (   0.1254350   0.8047243   0.3662418  )
        11        Zn     tau(  11) = (   0.1252783   0.1341187   0.6251453  )
        12        Zn     tau(  12) = (   0.1252697   0.6706189   0.6251228  )
        13        Zn     tau(  13) = (   0.6250000   0.1341203   0.0774344  )
        14        Zn     tau(  14) = (   0.6250000   0.6706017   0.0774344  )
        15        Zn     tau(  15) = (   0.6245281  -0.0000638   0.3665247  )
        16        Zn     tau(  16) = (   0.6245270   0.5365419   0.3664904  )
        17        Zn     tau(  17) = (   0.6247150  -0.1341737   0.6252632  )
        18        Zn     tau(  18) = (   0.6247105   0.4024094   0.6252948  )
        19        Zn     tau(  19) = (   0.6250000   0.4023610   0.0774344  )
        20        Zn     tau(  20) = (   0.6250000   0.9388424   0.0774344  )
        21        Zn     tau(  21) = (   0.6245216   0.2682681   0.3665651  )
        22        Zn     tau(  22) = (   0.6245321   0.8047117   0.3664232  )
        23        Zn     tau(  23) = (   0.6247131   0.1341157   0.6252902  )
        24        Zn     tau(  24) = (   0.6247175   0.6706215   0.6252710  )
        25        Zn     tau(  25) = (   0.3750000   0.0000000   0.1548688  )
        26        Zn     tau(  26) = (   0.3750000   0.5364814   0.1548688  )
        27        Zn     tau(  27) = (   0.3745046  -0.1341714   0.3889500  )
        28        Zn     tau(  28) = (   0.3745046   0.4024249   0.3889898  )
        29        Zn     tau(  29) = (   0.3746919  -0.2682568   0.6329084  )
        30        Zn     tau(  30) = (   0.3746970   0.2682757   0.6328984  )
        31        Zn     tau(  31) = (   0.3750000   0.2682407   0.1548688  )
        32        Zn     tau(  32) = (   0.3750000   0.8047221   0.1548688  )
        33        Zn     tau(  33) = (   0.3745120   0.1340709   0.3890099  )
        34        Zn     tau(  34) = (   0.3744965   0.6706470   0.3889242  )
        35        Zn     tau(  35) = (   0.3746988  -0.0000299   0.6328957  )
        36        Zn     tau(  36) = (   0.3746947   0.5365025   0.6329113  )
        37        Zn     tau(  37) = (   0.8750000   0.0000000   0.1548688  )
        38        Zn     tau(  38) = (   0.8750000   0.5364814   0.1548688  )
        39        Zn     tau(  39) = (   0.8755371  -0.1341797   0.3891205  )
        40        Zn     tau(  40) = (   0.8755441   0.4024177   0.3891626  )
        41        Zn     tau(  41) = (   0.8753258  -0.2682562   0.6328998  )
        42        Zn     tau(  42) = (   0.8753266   0.2682699   0.6328854  )
        43        Zn     tau(  43) = (   0.8750000   0.2682407   0.1548688  )
        44        Zn     tau(  44) = (   0.8750000   0.8047221   0.1548688  )
        45        Zn     tau(  45) = (   0.8755369   0.1340755   0.3891857  )
        46        Zn     tau(  46) = (   0.8755419   0.6706575   0.3890923  )
        47        Zn     tau(  47) = (   0.8753223  -0.0000330   0.6328793  )
        48        Zn     tau(  48) = (   0.8753273   0.5365108   0.6329031  )
        49        C      tau(  49) = (   0.2655197   0.2198009   1.0096618  )
        50        C      tau(  50) = (   0.3852783   0.1395594   0.9993503  )
        51        C      tau(  51) = (   0.2739872   0.3608640   1.0297939  )
        52        C      tau(  52) = (   0.5126272   0.2065673   1.0099693  )
        53        C      tau(  53) = (   0.4005205   0.4287221   1.0404562  )
        54        C      tau(  54) = (   0.5190506   0.3481284   1.0300246  )
        55        C      tau(  55) = (   0.4069082   0.5817126   1.0622841  )
        56        N      tau(  56) = (   0.3775936  -0.0003681   0.9795661  )
        57        H      tau(  57) = (   0.2862256  -0.0482143   0.9719535  )
        58        H      tau(  58) = (   0.3549174   0.6122338   1.1578258  )
        59        H      tau(  59) = (   0.1651731   0.1703772   1.0018892  )
        60        H      tau(  60) = (   0.4631679  -0.0580284   0.9720773  )
        61        H      tau(  61) = (   0.1790947   0.4201389   1.0374744  )
        62        H      tau(  62) = (   0.6071629   0.1467924   1.0024107  )
        63        H      tau(  63) = (   0.6196848   0.3969508   1.0378892  )
        64        H      tau(  64) = (   0.5133975   0.6180093   1.0683584  )
        65        H      tau(  65) = (   0.3564835   0.6377525   0.9781383  )

     --------------------------------------------
     DFT-D3 Dispersion Correction (3-body terms):
     --------------------------------------------
       Reference C6 values for interpolation: 

         atom   Coordination number   C6
         H          0.912             6.05
         H          0.000            15.18
         C          0.000            98.23
         C          0.987            86.49
         C          1.998            58.72
         C          2.999            51.56
         C          3.984            36.41
         N          0.000            50.54
         N          0.994            44.25
         N          2.014            39.35
         N          2.990            31.16
         Zn         0.000           681.04
         Zn         1.942           306.91

       Values used:

         atom   Coordination number  R0_AB[au]  C6      C8
         Zn         4.540            3.053    306.91  23930.67
         Zn         4.543            3.053    306.91  23930.67
         Zn         6.756            3.053    306.91  23930.67
         Zn         6.757            3.053    306.91  23930.67
         Zn         5.960            3.053    306.91  23930.67
         Zn         5.961            3.053    306.91  23930.67
         Zn         4.541            3.053    306.91  23930.67
         Zn         4.542            3.053    306.91  23930.67
         Zn         6.753            3.053    306.91  23930.67
         Zn         6.759            3.053    306.91  23930.67
         Zn         5.962            3.053    306.91  23930.67
         Zn         5.960            3.053    306.91  23930.67
         Zn         4.537            3.053    306.91  23930.67
         Zn         4.539            3.053    306.91  23930.67
         Zn         6.705            3.053    306.91  23930.67
         Zn         6.706            3.053    306.91  23930.67
         Zn         5.926            3.053    306.91  23930.67
         Zn         5.928            3.053    306.91  23930.67
         Zn         4.537            3.053    306.91  23930.67
         Zn         4.539            3.053    306.91  23930.67
         Zn         6.703            3.053    306.91  23930.67
         Zn         6.708            3.053    306.91  23930.67
         Zn         5.929            3.053    306.91  23930.67
         Zn         5.926            3.053    306.91  23930.67
         Zn         6.090            3.053    306.91  23930.67
         Zn         6.091            3.053    306.91  23930.67
         Zn         7.993            3.053    306.91  23930.67
         Zn         7.991            3.053    306.91  23930.67
         Zn         6.171            3.053    306.91  23930.67
         Zn         6.181            3.053    306.91  23930.67
         Zn         6.089            3.053    306.91  23930.67
         Zn         6.092            3.053    306.91  23930.67
         Zn         7.990            3.053    306.91  23930.67
         Zn         7.993            3.053    306.91  23930.67
         Zn         6.184            3.053    306.91  23930.67
         Zn         6.174            3.053    306.91  23930.67
         Zn         6.077            3.053    306.91  23930.67
         Zn         6.078            3.053    306.91  23930.67
         Zn         7.950            3.053    306.91  23930.67
         Zn         7.947            3.053    306.91  23930.67
         Zn         6.145            3.053    306.91  23930.67
         Zn         6.144            3.053    306.91  23930.67
         Zn         6.076            3.053    306.91  23930.67
         Zn         6.079            3.053    306.91  23930.67
         Zn         7.947            3.053    306.91  23930.67
         Zn         7.950            3.053    306.91  23930.67
         Zn         6.144            3.053    306.91  23930.67
         Zn         6.145            3.053    306.91  23930.67
         C          3.172            2.750     50.34   1455.94
         C          3.148            2.750     50.55   1461.89
         C          3.172            2.750     50.34   1456.04
         C          3.172            2.750     50.35   1456.10
         C          3.134            2.750     50.66   1465.18
         C          3.169            2.750     50.37   1456.67
         C          4.042            2.750     36.59   1058.12
         N          3.093            2.478     31.24    689.15
         H          1.007            2.062      6.17     74.64
         H          0.998            2.062      6.18     74.75
         H          1.004            2.062      6.18     74.68
         H          1.007            2.062      6.17     74.64
         H          1.004            2.062      6.18     74.68
         H          1.004            2.062      6.18     74.68
         H          1.004            2.062      6.18     74.68
         H          0.999            2.062      6.18     74.73
         H          0.999            2.062      6.18     74.73

         Molecular C6 ( Ry / a.u.^6 ) =    839428.46


   Crystallographic axes

     site n.     atom                  positions (cryst. coord.)
         1        Zn     tau(   1) = (  0.1250000  0.1666667  0.0327328  )
         2        Zn     tau(   2) = (  0.1250000  0.6666667  0.0327328  )
         3        Zn     tau(   3) = (  0.1254355  0.1970725  0.1548659  )
         4        Zn     tau(   4) = (  0.1254363  0.6971513  0.1548362  )
         5        Zn     tau(   5) = (  0.1252702  0.2113319  0.2642511  )
         6        Zn     tau(   6) = (  0.1252777  0.7114279  0.2642596  )
         7        Zn     tau(   7) = (  0.1250000  0.4166667  0.0327328  )
         8        Zn     tau(   8) = (  0.1250000  0.9166667  0.0327328  )
         9        Zn     tau(   9) = (  0.1254456  0.4471637  0.1548747  )
        10        Zn     tau(  10) = (  0.1254350  0.9470731  0.1548164  )
        11        Zn     tau(  11) = (  0.1252783  0.4613828  0.2642592  )
        12        Zn     tau(  12) = (  0.1252697  0.9613882  0.2642496  )
        13        Zn     tau(  13) = (  0.6250000  0.1666667  0.0327328  )
        14        Zn     tau(  14) = (  0.6250000  0.6666667  0.0327328  )
        15        Zn     tau(  15) = (  0.6245281  0.1971637  0.1549360  )
        16        Zn     tau(  16) = (  0.6245270  0.6972612  0.1549215  )
        17        Zn     tau(  17) = (  0.6247150  0.2113980  0.2643090  )
        18        Zn     tau(  18) = (  0.6247105  0.7115098  0.2643223  )
        19        Zn     tau(  19) = (  0.6250000  0.4166667  0.0327328  )
        20        Zn     tau(  20) = (  0.6250000  0.9166667  0.0327328  )
        21        Zn     tau(  21) = (  0.6245216  0.4472705  0.1549531  )
        22        Zn     tau(  22) = (  0.6245321  0.9471590  0.1548931  )
        23        Zn     tau(  23) = (  0.6247131  0.4614579  0.2643204  )
        24        Zn     tau(  24) = (  0.6247175  0.9614704  0.2643123  )
        25        Zn     tau(  25) = (  0.3750000  0.0833333  0.0654656  )
        26        Zn     tau(  26) = (  0.3750000  0.5833333  0.0654656  )
        27        Zn     tau(  27) = (  0.3745046  0.0842425  0.1644155  )
        28        Zn     tau(  28) = (  0.3745046  0.5843710  0.1644324  )
        29        Zn     tau(  29) = (  0.3746919  0.0905466  0.2675408  )
        30        Zn     tau(  30) = (  0.3746970  0.5905888  0.2675365  )
        31        Zn     tau(  31) = (  0.3750000  0.3333333  0.0654656  )
        32        Zn     tau(  32) = (  0.3750000  0.8333334  0.0654656  )
        33        Zn     tau(  33) = (  0.3745120  0.3342762  0.1644409  )
        34        Zn     tau(  34) = (  0.3744965  0.8343184  0.1644046  )
        35        Zn     tau(  35) = (  0.3746988  0.3405268  0.2675354  )
        36        Zn     tau(  36) = (  0.3746947  0.8405829  0.2675420  )
        37        Zn     tau(  37) = (  0.8750000  0.0833333  0.0654656  )
        38        Zn     tau(  38) = (  0.8750000  0.5833333  0.0654656  )
        39        Zn     tau(  39) = (  0.8755371  0.0843264  0.1644876  )
        40        Zn     tau(  40) = (  0.8755441  0.5844573  0.1645054  )
        41        Zn     tau(  41) = (  0.8753258  0.0905424  0.2675371  )
        42        Zn     tau(  42) = (  0.8753266  0.5905764  0.2675310  )
        43        Zn     tau(  43) = (  0.8750000  0.3333333  0.0654656  )
        44        Zn     tau(  44) = (  0.8750000  0.8333334  0.0654656  )
        45        Zn     tau(  45) = (  0.8755369  0.3343750  0.1645152  )
        46        Zn     tau(  46) = (  0.8755419  0.8344186  0.1644757  )
        47        Zn     tau(  47) = (  0.8753223  0.3405151  0.2675284  )
        48        Zn     tau(  48) = (  0.8753273  0.8405862  0.2675385  )
        49        C      tau(  49) = (  0.2655197  0.7481429  0.4268006  )
        50        C      tau(  50) = (  0.3852783  0.6678094  0.4224417  )
        51        C      tau(  51) = (  0.2739872  0.8904464  0.4353108  )
        52        C      tau(  52) = (  0.5126272  0.7359747  0.4269306  )
        53        C      tau(  53) = (  0.4005205  0.9594274  0.4398179  )
        54        C      tau(  54) = (  0.5190506  0.8787010  0.4354083  )
        55        C      tau(  55) = (  0.4069082  1.1137598  0.4490449  )
        56        N      tau(  56) = (  0.3775936  0.5267515  0.4140787  )
        57        H      tau(  57) = (  0.2862256  0.4780625  0.4108607  )
        58        H      tau(  58) = (  0.3549174  1.1936155  0.4894320  )
        59        H      tau(  59) = (  0.1651731  0.6978976  0.4235150  )
        60        H      tau(  60) = (  0.4631679  0.4689825  0.4109130  )
        61        H      tau(  61) = (  0.1790947  0.9498233  0.4385574  )
        62        H      tau(  62) = (  0.6071629  0.6761973  0.4237354  )
        63        H      tau(  63) = (  0.6196848  0.9284353  0.4387328  )
        64        H      tau(  64) = (  0.5133975  1.1508567  0.4516126  )
        65        H      tau(  65) = (  0.3564835  1.1207108  0.4134751  )

     number of k points=     4  Marzari-Vanderbilt smearing, width (Ry)=  0.0200
                       cart. coord. in units 2pi/alat
        k(    1) = (   0.0000000   0.0000000   0.0000000), wk =   0.5000000
        k(    2) = (   0.0000000  -0.4659994  -0.2690449), wk =   0.5000000
        k(    3) = (  -0.5000000   0.0000000   0.0000000), wk =   0.5000000
        k(    4) = (  -0.5000000  -0.4659994  -0.2690449), wk =   0.5000000

                       cryst. coord.
        k(    1) = (   0.0000000   0.0000000   0.0000000), wk =   0.5000000
        k(    2) = (   0.0000000  -0.5000000   0.0000000), wk =   0.5000000
        k(    3) = (  -0.5000000   0.0000000   0.0000000), wk =   0.5000000
        k(    4) = (  -0.5000000  -0.5000000   0.0000000), wk =   0.5000000

     Dense  grid:  1254623 G-vectors     FFT dimensions: ( 100, 108, 270)

     Smooth grid:   542067 G-vectors     FFT dimensions: (  75,  80, 216)

     Dynamical RAM for                 wfc:      18.82 MB

     Dynamical RAM for     wfc (w. buffer):      94.09 MB

     Dynamical RAM for           str. fact:       2.32 MB

     Dynamical RAM for           local pot:       0.00 MB

     Dynamical RAM for          nlocal pot:      29.62 MB

     Dynamical RAM for                qrad:       5.37 MB

     Dynamical RAM for          rho,v,vnew:       3.97 MB

     Dynamical RAM for               rhoin:       1.32 MB

     Dynamical RAM for            rho*nmix:       9.28 MB

     Dynamical RAM for           G-vectors:       2.30 MB

     Dynamical RAM for          h,s,v(r/c):       2.64 MB

     Dynamical RAM for          <psi|beta>:       8.68 MB

     Dynamical RAM for                 psi:      37.64 MB

     Dynamical RAM for                hpsi:      37.64 MB

     Dynamical RAM for                spsi:      37.64 MB

     Dynamical RAM for      wfcinit/wfcrot:      51.77 MB

     Dynamical RAM for           addusdens:     135.76 MB

     Dynamical RAM for          addusforce:     190.77 MB

     Dynamical RAM for         addusstress:     116.61 MB

     Estimated static dynamical RAM per process >     145.60 MB

     Estimated max dynamical RAM per process >     345.65 MB

     Estimated total dynamical RAM >      11.14 GB

     Initial potential from superposition of free atoms

     starting charge    1001.9928, renormalised to    1002.0000

     negative rho (up, down):  2.660E-03 0.000E+00
     Starting wfcs are  665 randomized atomic wfcs
     Checking if some PAW data can be deallocated... 
       PAW data deallocated on   29 nodes for type:  3

     total cpu time spent up to now is       58.1 secs

     Self-consistent Calculation

     iteration #  1     ecut=    40.00 Ry     beta= 0.40
     Davidson diagonalization with overlap

---- Real-time Memory Report at c_bands before calling an iterative solver
           225 MiB given to the printing process from OS
             0 MiB allocation reported by mallinfo(arena+hblkhd)
          5521 MiB available memory on the node where the printing process lives
------------------
     ethr =  1.00E-02,  avg # of iterations =  8.0

     negative rho (up, down):  3.118E-03 0.000E+00

     total cpu time spent up to now is      285.8 secs

     total energy              =  -22309.47258315 Ry
     estimated scf accuracy    <      11.18375538 Ry

     iteration #  2     ecut=    40.00 Ry     beta= 0.40
     Davidson diagonalization with overlap

---- Real-time Memory Report at c_bands before calling an iterative solver
           322 MiB given to the printing process from OS
             0 MiB allocation reported by mallinfo(arena+hblkhd)
          4199 MiB available memory on the node where the printing process lives
------------------
     ethr =  1.12E-03,  avg # of iterations =  8.8

     negative rho (up, down):  4.241E-03 0.000E+00

     total cpu time spent up to now is      510.6 secs

     total energy              =  -22294.03822159 Ry
     estimated scf accuracy    <     311.85456835 Ry

     iteration #  3     ecut=    40.00 Ry     beta= 0.40
     Davidson diagonalization with overlap

---- Real-time Memory Report at c_bands before calling an iterative solver
           339 MiB given to the printing process from OS
             0 MiB allocation reported by mallinfo(arena+hblkhd)
          4241 MiB available memory on the node where the printing process lives
------------------
     ethr =  1.12E-03,  avg # of iterations =  7.0

     negative rho (up, down):  4.315E-03 0.000E+00

     total cpu time spent up to now is      763.8 secs

     total energy              =  -22313.24321680 Ry
     estimated scf accuracy    <      20.04737534 Ry

     iteration #  4     ecut=    40.00 Ry     beta= 0.40
     Davidson diagonalization with overlap

---- Real-time Memory Report at c_bands before calling an iterative solver
           340 MiB given to the printing process from OS
             0 MiB allocation reported by mallinfo(arena+hblkhd)
          4254 MiB available memory on the node where the printing process lives
------------------
     ethr =  1.12E-03,  avg # of iterations =  4.2

     negative rho (up, down):  4.243E-03 0.000E+00

     total cpu time spent up to now is      953.0 secs

     total energy              =  -22314.56474978 Ry
     estimated scf accuracy    <       2.38595407 Ry

     iteration #  5     ecut=    40.00 Ry     beta= 0.40
     Davidson diagonalization with overlap

---- Real-time Memory Report at c_bands before calling an iterative solver
           341 MiB given to the printing process from OS
             0 MiB allocation reported by mallinfo(arena+hblkhd)
          4233 MiB available memory on the node where the printing process lives
------------------
     ethr =  2.38E-04,  avg # of iterations =  3.2

     negative rho (up, down):  4.196E-03 0.000E+00

     total cpu time spent up to now is     1137.2 secs

     total energy              =  -22314.70463053 Ry
     estimated scf accuracy    <       0.34092855 Ry

     iteration #  6     ecut=    40.00 Ry     beta= 0.40
     Davidson diagonalization with overlap

---- Real-time Memory Report at c_bands before calling an iterative solver
           342 MiB given to the printing process from OS
             0 MiB allocation reported by mallinfo(arena+hblkhd)
          4250 MiB available memory on the node where the printing process lives
------------------
     c_bands:  1 eigenvalues not converged
     ethr =  3.40E-05,  avg # of iterations = 13.0

     negative rho (up, down):  4.250E-03 0.000E+00

     total cpu time spent up to now is     1349.8 secs

     total energy              =  -22314.69963980 Ry
     estimated scf accuracy    <       0.20478512 Ry

     iteration #  7     ecut=    40.00 Ry     beta= 0.40
     Davidson diagonalization with overlap

---- Real-time Memory Report at c_bands before calling an iterative solver
           343 MiB given to the printing process from OS
             0 MiB allocation reported by mallinfo(arena+hblkhd)
          4228 MiB available memory on the node where the printing process lives
------------------
     ethr =  2.04E-05,  avg # of iterations =  6.2

     negative rho (up, down):  4.305E-03 0.000E+00

     total cpu time spent up to now is     1537.3 secs

     total energy              =  -22314.69821125 Ry
     estimated scf accuracy    <       0.07169466 Ry

     iteration #  8     ecut=    40.00 Ry     beta= 0.40
     Davidson diagonalization with overlap

---- Real-time Memory Report at c_bands before calling an iterative solver
           343 MiB given to the printing process from OS
             0 MiB allocation reported by mallinfo(arena+hblkhd)
          4245 MiB available memory on the node where the printing process lives
------------------
     c_bands:  1 eigenvalues not converged
     ethr =  7.16E-06,  avg # of iterations = 14.5

     negative rho (up, down):  4.341E-03 0.000E+00

     total cpu time spent up to now is     1745.6 secs

     total energy              =  -22314.69530152 Ry
     estimated scf accuracy    <       0.06478467 Ry

     iteration #  9     ecut=    40.00 Ry     beta= 0.40
     Davidson diagonalization with overlap

---- Real-time Memory Report at c_bands before calling an iterative solver
           344 MiB given to the printing process from OS
             0 MiB allocation reported by mallinfo(arena+hblkhd)
          4221 MiB available memory on the node where the printing process lives
------------------
     c_bands:  1 eigenvalues not converged
     ethr =  6.47E-06,  avg # of iterations =  9.2

     negative rho (up, down):  4.364E-03 0.000E+00

     total cpu time spent up to now is     1934.1 secs

     total energy              =  -22314.69484336 Ry
     estimated scf accuracy    <       0.03305983 Ry

     iteration # 10     ecut=    40.00 Ry     beta= 0.40
     Davidson diagonalization with overlap

---- Real-time Memory Report at c_bands before calling an iterative solver
           345 MiB given to the printing process from OS
             0 MiB allocation reported by mallinfo(arena+hblkhd)
          4257 MiB available memory on the node where the printing process lives
------------------
     ethr =  3.30E-06,  avg # of iterations = 12.0

     negative rho (up, down):  4.387E-03 0.000E+00

     total cpu time spent up to now is     2130.5 secs

     total energy              =  -22314.69129985 Ry
     estimated scf accuracy    <       0.02545435 Ry

     iteration # 11     ecut=    40.00 Ry     beta= 0.40
     Davidson diagonalization with overlap

---- Real-time Memory Report at c_bands before calling an iterative solver
           345 MiB given to the printing process from OS
             0 MiB allocation reported by mallinfo(arena+hblkhd)
          4254 MiB available memory on the node where the printing process lives
------------------
     ethr =  2.54E-06,  avg # of iterations = 11.5

     negative rho (up, down):  4.450E-03 0.000E+00

     total cpu time spent up to now is     2326.5 secs

     total energy              =  -22314.68207127 Ry
     estimated scf accuracy    <       0.01601211 Ry

     iteration # 12     ecut=    40.00 Ry     beta= 0.40
     Davidson diagonalization with overlap

---- Real-time Memory Report at c_bands before calling an iterative solver
           345 MiB given to the printing process from OS
             0 MiB allocation reported by mallinfo(arena+hblkhd)
          4253 MiB available memory on the node where the printing process lives
------------------
     c_bands:  4 eigenvalues not converged
     ethr =  1.60E-06,  avg # of iterations = 16.0

     negative rho (up, down):  4.438E-03 0.000E+00

     total cpu time spent up to now is     2569.8 secs

     total energy              =  -22314.68483016 Ry
     estimated scf accuracy    <       0.00215440 Ry

     iteration # 13     ecut=    40.00 Ry     beta= 0.40
     Davidson diagonalization with overlap

---- Real-time Memory Report at c_bands before calling an iterative solver
           345 MiB given to the printing process from OS
             0 MiB allocation reported by mallinfo(arena+hblkhd)
          4255 MiB available memory on the node where the printing process lives
------------------
     ethr =  2.15E-07,  avg # of iterations =  3.8

     negative rho (up, down):  4.431E-03 0.000E+00

     total cpu time spent up to now is     2749.7 secs

     total energy              =  -22314.68509539 Ry
     estimated scf accuracy    <       0.00020768 Ry

     iteration # 14     ecut=    40.00 Ry     beta= 0.40
     Davidson diagonalization with overlap

---- Real-time Memory Report at c_bands before calling an iterative solver
           345 MiB given to the printing process from OS
             0 MiB allocation reported by mallinfo(arena+hblkhd)
          4254 MiB available memory on the node where the printing process lives
------------------
     ethr =  2.07E-08,  avg # of iterations =  2.0

     negative rho (up, down):  4.427E-03 0.000E+00

     total cpu time spent up to now is     2930.6 secs

     total energy              =  -22314.68507780 Ry
     estimated scf accuracy    <       0.00058863 Ry

     iteration # 15     ecut=    40.00 Ry     beta= 0.40
     Davidson diagonalization with overlap

---- Real-time Memory Report at c_bands before calling an iterative solver
           345 MiB given to the printing process from OS
             0 MiB allocation reported by mallinfo(arena+hblkhd)
          4252 MiB available memory on the node where the printing process lives
------------------
     ethr =  2.07E-08,  avg # of iterations =  1.8

     negative rho (up, down):  4.425E-03 0.000E+00

     total cpu time spent up to now is     3099.6 secs

     total energy              =  -22314.68512467 Ry
     estimated scf accuracy    <       0.00011183 Ry

     iteration # 16     ecut=    40.00 Ry     beta= 0.40
     Davidson diagonalization with overlap

---- Real-time Memory Report at c_bands before calling an iterative solver
           345 MiB given to the printing process from OS
             0 MiB allocation reported by mallinfo(arena+hblkhd)
          4254 MiB available memory on the node where the printing process lives
------------------
     ethr =  1.12E-08,  avg # of iterations =  2.0

     negative rho (up, down):  4.424E-03 0.000E+00

     total cpu time spent up to now is     3276.8 secs

     total energy              =  -22314.68513331 Ry
     estimated scf accuracy    <       0.00001230 Ry

     iteration # 17     ecut=    40.00 Ry     beta= 0.40
     Davidson diagonalization with overlap

---- Real-time Memory Report at c_bands before calling an iterative solver
           346 MiB given to the printing process from OS
             0 MiB allocation reported by mallinfo(arena+hblkhd)
          4254 MiB available memory on the node where the printing process lives
------------------
     ethr =  1.23E-09,  avg # of iterations =  2.0

     negative rho (up, down):  4.424E-03 0.000E+00

     total cpu time spent up to now is     3457.6 secs

     total energy              =  -22314.68513473 Ry
     estimated scf accuracy    <       0.00000221 Ry

     iteration # 18     ecut=    40.00 Ry     beta= 0.40
     Davidson diagonalization with overlap

---- Real-time Memory Report at c_bands before calling an iterative solver
           346 MiB given to the printing process from OS
             0 MiB allocation reported by mallinfo(arena+hblkhd)
          4254 MiB available memory on the node where the printing process lives
------------------
     ethr =  2.21E-10,  avg # of iterations =  2.0

     negative rho (up, down):  4.424E-03 0.000E+00

     total cpu time spent up to now is     3638.6 secs

     total energy              =  -22314.68513490 Ry
     estimated scf accuracy    <       0.00000147 Ry

     iteration # 19     ecut=    40.00 Ry     beta= 0.40
     Davidson diagonalization with overlap

---- Real-time Memory Report at c_bands before calling an iterative solver
           346 MiB given to the printing process from OS
             0 MiB allocation reported by mallinfo(arena+hblkhd)
          4251 MiB available memory on the node where the printing process lives
------------------
     ethr =  1.47E-10,  avg # of iterations =  2.0

     negative rho (up, down):  4.423E-03 0.000E+00

     total cpu time spent up to now is     3816.5 secs

     total energy              =  -22314.68513501 Ry
     estimated scf accuracy    <       0.00000110 Ry

     iteration # 20     ecut=    40.00 Ry     beta= 0.40
     Davidson diagonalization with overlap

---- Real-time Memory Report at c_bands before calling an iterative solver
           346 MiB given to the printing process from OS
             0 MiB allocation reported by mallinfo(arena+hblkhd)
          4255 MiB available memory on the node where the printing process lives
------------------
     ethr =  1.10E-10,  avg # of iterations =  2.0

     negative rho (up, down):  4.423E-03 0.000E+00

     total cpu time spent up to now is     3994.7 secs

     End of self-consistent calculation

          k = 0.0000 0.0000 0.0000 ( 67685 PWs)   bands (ev):

  -124.8079-124.8062-124.8046-124.8031-124.8007-124.7993-124.7986-124.7977
  -124.6788-124.6770-124.6760-124.6742-124.6694-124.6676-124.6665-124.6643
  -124.4661-124.4605-124.4597-124.4596-124.4578-124.4570-124.4565-124.4557
  -124.4556-124.4553-124.4550-124.4544-124.4540-124.4535-124.4526-124.4462
  -124.4199-124.4126-124.4116-124.4109-124.4053-124.4022-124.3990-124.3932
  -124.2964-124.2951-124.2945-124.2939-124.2927-124.2927-124.2925-124.2907
   -78.9697 -78.9631 -78.9629 -78.9613 -78.9600 -78.9583 -78.9570 -78.9568
   -78.9559 -78.9545 -78.9538 -78.9527 -78.9521 -78.9508 -78.9503 -78.9503
   -78.9486 -78.9470 -78.9449 -78.9443 -78.9432 -78.9427 -78.9416 -78.9381
   -78.8457 -78.8364 -78.8341 -78.8325 -78.8297 -78.8286 -78.8276 -78.8269
   -78.8267 -78.8258 -78.8250 -78.8248 -78.8240 -78.8231 -78.8209 -78.8206
   -78.8191 -78.8185 -78.8175 -78.8173 -78.8161 -78.8153 -78.8140 -78.8114
   -78.6331 -78.6264 -78.6261 -78.6248 -78.6243 -78.6242 -78.6222 -78.6219
   -78.6217 -78.6214 -78.6212 -78.6208 -78.6205 -78.6203 -78.6194 -78.6188
   -78.6188 -78.6176 -78.6174 -78.6122 -78.6113 -78.6093 -78.6087 -78.6079
   -78.6067 -78.6060 -78.6051 -78.6050 -78.6043 -78.6006 -78.6002 -78.5987
   -78.5971 -78.5967 -78.5962 -78.5961 -78.5954 -78.5952 -78.5950 -78.5943
   -78.5941 -78.5939 -78.5933 -78.5932 -78.5930 -78.5927 -78.5923 -78.5905
   -78.5864 -78.5828 -78.5822 -78.5819 -78.5756 -78.5728 -78.5696 -78.5689
   -78.5636 -78.5618 -78.5590 -78.5553 -78.5551 -78.5546 -78.5541 -78.5528
   -78.5483 -78.5448 -78.5447 -78.5427 -78.5418 -78.5411 -78.5364 -78.5293
   -78.4733 -78.4721 -78.4714 -78.4708 -78.4697 -78.4696 -78.4694 -78.4676
   -78.4484 -78.4458 -78.4424 -78.4411 -78.4408 -78.4401 -78.4390 -78.4389
   -78.4387 -78.4371 -78.4361 -78.4357 -78.4337 -78.4332 -78.4235 -78.4210
   -17.3321 -15.1400 -12.9603 -12.5891 -10.9057  -9.3997  -8.6831  -7.7524
    -7.2504  -7.1695  -6.7826  -6.5400  -6.4816  -6.4744  -6.4735  -6.4061
    -6.3789  -6.3610  -6.3350  -6.3312  -6.3006  -6.2940  -6.1593  -6.1406
    -6.1390  -6.1380  -6.1356  -6.1308  -6.1302  -6.1281  -6.1028  -6.1026
    -6.0960  -6.0956  -6.0926  -6.0897  -6.0895  -6.0888  -6.0361  -6.0360
    -6.0286  -6.0285  -6.0194  -6.0036  -6.0035  -5.9966  -5.9937  -5.9921
    -5.9916  -5.9870  -5.9861  -5.9581  -5.9574  -5.9506  -5.9083  -5.8763
    -5.8545  -5.8542  -5.8521  -5.8374  -5.8371  -5.8283  -5.8027  -5.8014
    -5.7997  -5.7995  -5.7956  -5.7557  -5.7526  -5.7512  -5.7467  -5.7414
    -5.7400  -5.7366  -5.7287  -5.7274  -5.7180  -5.7167  -5.7094  -5.7064
    -5.7033  -5.7026  -5.6999  -5.6988  -5.6845  -5.6669  -5.6616  -5.6608
    -5.6533  -5.6525  -5.6521  -5.6512  -5.6504  -5.6324  -5.6158  -5.5946
    -5.5945  -5.5846  -5.5776  -5.5772  -5.5762  -5.5724  -5.5704  -5.5655
    -5.5604  -5.5603  -5.5550  -5.5365  -5.5361  -5.5314  -5.5252  -5.5247
    -5.5195  -5.5184  -5.5180  -5.5100  -5.5088  -5.4919  -5.4813  -5.4802
    -5.4775  -5.4772  -5.4695  -5.4530  -5.4499  -5.4496  -5.4290  -5.4279
    -5.4276  -5.4158  -5.4118  -5.4109  -5.4013  -5.4010  -5.3935  -5.3905
    -5.3773  -5.3750  -5.3748  -5.3743  -5.3736  -5.3664  -5.3656  -5.3349
    -5.3343  -5.3317  -5.3314  -5.3269  -5.3226  -5.3156  -5.3150  -5.3139
    -5.3112  -5.3092  -5.3084  -5.3063  -5.3055  -5.3012  -5.3003  -5.2940
    -5.2812  -5.2672  -5.2668  -5.2551  -5.2535  -5.2529  -5.2392  -5.2317
    -5.2311  -5.2287  -5.2274  -5.2237  -5.2234  -5.2227  -5.2128  -5.2092
    -5.2046  -5.1968  -5.1960  -5.1958  -5.1953  -5.1942  -5.1859  -5.1856
    -5.1595  -5.1574  -5.1564  -5.1559  -5.1529  -5.1528  -5.1521  -5.1307
    -5.1307  -5.1257  -5.1255  -5.1235  -5.1226  -5.1211  -5.1195  -5.1194
    -5.1142  -5.1118  -5.1113  -5.1106  -5.1090  -5.0964  -5.0944  -5.0939
    -5.0902  -5.0885  -5.0838  -5.0825  -5.0807  -5.0759  -5.0748  -5.0672
    -5.0562  -5.0483  -5.0399  -5.0380  -5.0376  -5.0307  -5.0285  -5.0282
    -5.0214  -5.0209  -5.0150  -5.0147  -5.0058  -5.0050  -4.9961  -4.9898
    -4.9897  -4.9886  -4.9880  -4.9876  -4.9874  -4.9842  -4.9784  -4.9705
    -4.9669  -4.9663  -4.9560  -4.9497  -4.9429  -4.9009  -4.9003  -4.8827
    -4.8811  -4.8663  -4.8060  -4.8020  -4.7835  -4.7759  -4.7528  -4.7225
    -4.6908  -4.6045  -4.4211  -4.3218  -4.1325  -4.1290  -4.0721  -4.0544
    -3.9522  -3.8685  -3.8671  -3.8322  -3.5951  -3.3867  -2.9971  -2.7626
    -2.6050  -2.5871  -2.4635  -2.4593  -2.2360  -1.9396  -1.8761  -1.7697
    -1.6256  -1.5254  -1.4317  -1.3755  -0.7589  -0.6117  -0.5382  -0.5300
    -0.4387  -0.3852  -0.1842  -0.1760  -0.1020   0.0601   0.0696   0.1337
     0.2367   0.4102   0.6089   0.6120   0.7954   0.9155   1.0000   1.0761
     1.1631   1.1650   1.2240   1.3124   1.3220   1.5999   1.6027   1.9535
     2.2642   2.4636   2.4705   2.7226   2.7313   2.7633   2.7756   2.7805
     2.9491   3.1345   3.1661   3.2539   3.2713   3.7160   3.8432   3.8883
     4.1905   4.2190   4.2420   4.3687   4.4171   4.4537   4.4871   4.5180
     4.6199   4.7783   4.7874   4.8598   4.9350   5.0221   5.2150   5.4346
     5.5444   5.6212   5.6371   5.7152   5.7604   5.8264   5.8379   5.8382
     5.8554   5.8910   6.0256   6.2203   6.2409   6.4480   6.5169   6.5393
     6.5661   6.7153   6.7597   6.7849   6.8656   6.8851   6.9121   7.0175
     7.0368   7.1717   7.2111   7.2763   7.2830   7.3008   7.3467   7.3599
     7.3929   7.4247   7.5049   7.5073   7.5628   7.5968   7.6038   7.6285
     7.6379   7.6700   7.7404   7.7607   7.7956   7.8796   7.8918   7.9553
     7.9609   8.0179   8.1174   8.2726   8.3039   8.3302   8.3466   8.3712
     8.3935   8.4097   8.4316   8.5183   8.5662   8.7000   8.7558   8.8164
     8.8450

     occupation numbers 
     1.0000   1.0000   1.0000   1.0000   1.0000   1.0000   1.0000   1.0000
     1.0000   1.0000   1.0000   1.0000   1.0000   1.0000   1.0000   1.0000
     1.0000   1.0000   1.0000   1.0000   1.0000   1.0000   1.0000   1.0000
     1.0000   1.0000   1.0000   1.0000   1.0000   1.0000   1.0000   1.0000
     1.0000   1.0000   1.0000   1.0000   1.0000   1.0000   1.0000   1.0000
     1.0000   1.0000   1.0000   1.0000   1.0000   1.0000   1.0000   1.0000
     1.0000   1.0000   1.0000   1.0000   1.0000   1.0000   1.0000   1.0000
     1.0000   1.0000   1.0000   1.0000   1.0000   1.0000   1.0000   1.0000
     1.0000   1.0000   1.0000   1.0000   1.0000   1.0000   1.0000   1.0000
     1.0000   1.0000   1.0000   1.0000   1.0000   1.0000   1.0000   1.0000
     1.0000   1.0000   1.0000   1.0000   1.0000   1.0000   1.0000   1.0000
     1.0000   1.0000   1.0000   1.0000   1.0000   1.0000   1.0000   1.0000
     1.0000   1.0000   1.0000   1.0000   1.0000   1.0000   1.0000   1.0000
     1.0000   1.0000   1.0000   1.0000   1.0000   1.0000   1.0000   1.0000
     1.0000   1.0000   1.0000   1.0000   1.0000   1.0000   1.0000   1.0000
     1.0000   1.0000   1.0000   1.0000   1.0000   1.0000   1.0000   1.0000
     1.0000   1.0000   1.0000   1.0000   1.0000   1.0000   1.0000   1.0000
     1.0000   1.0000   1.0000   1.0000   1.0000   1.0000   1.0000   1.0000
     1.0000   1.0000   1.0000   1.0000   1.0000   1.0000   1.0000   1.0000
     1.0000   1.0000   1.0000   1.0000   1.0000   1.0000   1.0000   1.0000
     1.0000   1.0000   1.0000   1.0000   1.0000   1.0000   1.0000   1.0000
     1.0000   1.0000   1.0000   1.0000   1.0000   1.0000   1.0000   1.0000
     1.0000   1.0000   1.0000   1.0000   1.0000   1.0000   1.0000   1.0000
     1.0000   1.0000   1.0000   1.0000   1.0000   1.0000   1.0000   1.0000
     1.0000   1.0000   1.0000   1.0000   1.0000   1.0000   1.0000   1.0000
     1.0000   1.0000   1.0000   1.0000   1.0000   1.0000   1.0000   1.0000
     1.0000   1.0000   1.0000   1.0000   1.0000   1.0000   1.0000   1.0000
     1.0000   1.0000   1.0000   1.0000   1.0000   1.0000   1.0000   1.0000
     1.0000   1.0000   1.0000   1.0000   1.0000   1.0000   1.0000   1.0000
     1.0000   1.0000   1.0000   1.0000   1.0000   1.0000   1.0000   1.0000
     1.0000   1.0000   1.0000   1.0000   1.0000   1.0000   1.0000   1.0000
     1.0000   1.0000   1.0000   1.0000   1.0000   1.0000   1.0000   1.0000
     1.0000   1.0000   1.0000   1.0000   1.0000   1.0000   1.0000   1.0000
     1.0000   1.0000   1.0000   1.0000   1.0000   1.0000   1.0000   1.0000
     1.0000   1.0000   1.0000   1.0000   1.0000   1.0000   1.0000   1.0000
     1.0000   1.0000   1.0000   1.0000   1.0000   1.0000   1.0000   1.0000
     1.0000   1.0000   1.0000   1.0000   1.0000   1.0000   1.0000   1.0000
     1.0000   1.0000   1.0000   1.0000   1.0000   1.0000   1.0000   1.0000
     1.0000   1.0000   1.0000   1.0000   1.0000   1.0000   1.0000   1.0000
     1.0000   1.0000   1.0000   1.0000   1.0000   1.0000   1.0000   1.0000
     1.0000   1.0000   1.0000   1.0000   1.0000   1.0000   1.0000   1.0000
     1.0000   1.0000   1.0000   1.0000   1.0000   1.0000   1.0000   1.0000
     1.0000   1.0000   1.0000   1.0000   1.0000   1.0000   1.0000   1.0000
     1.0000   1.0000   1.0000   1.0000   1.0000   1.0000   1.0000   1.0000
     1.0000   1.0000   1.0000   1.0000   1.0000   1.0000   1.0000   1.0000
     1.0000   1.0000   1.0000   1.0000   1.0000   1.0000   1.0000   1.0000
     1.0000   1.0000   1.0000   1.0000   1.0000   1.0000   1.0000   1.0000
     1.0000   1.0000   1.0000   1.0000   1.0000   1.0000   1.0000   1.0000
     1.0000   1.0000   1.0000   1.0000   1.0000   1.0000   1.0000   1.0000
     1.0000   1.0000   1.0000   1.0000   1.0000   1.0000   1.0000   1.0000
     1.0000   1.0000   1.0000   1.0000   1.0000   1.0000   1.0000   1.0000
     1.0000   1.0000   1.0000   1.0000   1.0000   1.0000   1.0000   1.0000
     1.0000   1.0000   1.0000   1.0000   1.0000   1.0000   1.0000   1.0000
     1.0000   1.0000   1.0000   1.0000   1.0000   1.0000   1.0000   1.0000
     1.0000   1.0000   1.0000   1.0000   1.0000   1.0000   1.0000   1.0000
     1.0000   1.0000   1.0000   1.0000   1.0000   1.0000   1.0000   1.0000
     1.0000   1.0000   1.0000   1.0000   1.0000   1.0000   1.0000   1.0000
     1.0000   1.0000   1.0000   1.0000   1.0000   1.0000   1.0000   1.0000
     1.0000   1.0000   1.0000   1.0000   1.0000   1.0000   1.0000   1.0000
     1.0000   1.0000   1.0000   1.0000   1.0000   1.0000   1.0000   1.0000
     1.0000   1.0000   1.0000   1.0000   1.0000   1.0000   1.0000   1.0000
     1.0000   1.0000   1.0000   1.0000   1.0002   1.0016   1.0056   1.0145
     1.0348   1.0353   1.0547   1.0805   1.0819   0.7469   0.7397   0.0528
     0.0004   0.0000   0.0000   0.0000   0.0000   0.0000   0.0000   0.0000
     0.0000   0.0000   0.0000   0.0000   0.0000   0.0000   0.0000   0.0000
     0.0000   0.0000   0.0000   0.0000   0.0000   0.0000   0.0000   0.0000
     0.0000   0.0000   0.0000   0.0000   0.0000   0.0000   0.0000   0.0000
     0.0000   0.0000   0.0000   0.0000   0.0000   0.0000   0.0000   0.0000
     0.0000   0.0000   0.0000   0.0000   0.0000   0.0000   0.0000   0.0000
     0.0000   0.0000   0.0000   0.0000   0.0000   0.0000   0.0000   0.0000
     0.0000   0.0000   0.0000   0.0000   0.0000   0.0000   0.0000   0.0000
     0.0000   0.0000   0.0000   0.0000   0.0000   0.0000   0.0000   0.0000
     0.0000   0.0000   0.0000   0.0000   0.0000   0.0000   0.0000   0.0000
     0.0000   0.0000   0.0000   0.0000   0.0000   0.0000   0.0000   0.0000
     0.0000   0.0000   0.0000   0.0000   0.0000   0.0000   0.0000   0.0000
     0.0000

          k = 0.0000-0.4660-0.2690 ( 67864 PWs)   bands (ev):

  -124.8079-124.8062-124.8046-124.8031-124.8007-124.7994-124.7985-124.7977
  -124.6788-124.6770-124.6760-124.6742-124.6694-124.6676-124.6664-124.6643
  -124.4662-124.4605-124.4598-124.4595-124.4578-124.4570-124.4565-124.4557
  -124.4556-124.4553-124.4549-124.4545-124.4540-124.4534-124.4526-124.4462
  -124.4199-124.4126-124.4116-124.4109-124.4053-124.4022-124.3990-124.3932
  -124.2964-124.2952-124.2945-124.2938-124.2929-124.2928-124.2923-124.2907
   -78.9671 -78.9646 -78.9628 -78.9614 -78.9601 -78.9599 -78.9587 -78.9583
   -78.9559 -78.9547 -78.9536 -78.9528 -78.9521 -78.9503 -78.9492 -78.9486
   -78.9470 -78.9469 -78.9448 -78.9434 -78.9425 -78.9424 -78.9417 -78.9411
   -78.8430 -78.8412 -78.8337 -78.8317 -78.8297 -78.8286 -78.8277 -78.8269
   -78.8267 -78.8257 -78.8254 -78.8250 -78.8240 -78.8236 -78.8206 -78.8191
   -78.8185 -78.8175 -78.8174 -78.8162 -78.8161 -78.8153 -78.8141 -78.8140
   -78.6331 -78.6265 -78.6261 -78.6248 -78.6242 -78.6232 -78.6223 -78.6220
   -78.6216 -78.6213 -78.6209 -78.6205 -78.6203 -78.6195 -78.6187 -78.6186
   -78.6176 -78.6163 -78.6160 -78.6156 -78.6144 -78.6143 -78.6132 -78.6122
   -78.6047 -78.6043 -78.6008 -78.6006 -78.6002 -78.5988 -78.5987 -78.5983
   -78.5971 -78.5969 -78.5968 -78.5968 -78.5961 -78.5958 -78.5953 -78.5952
   -78.5951 -78.5944 -78.5940 -78.5939 -78.5932 -78.5930 -78.5924 -78.5905
   -78.5864 -78.5828 -78.5822 -78.5819 -78.5756 -78.5728 -78.5696 -78.5677
   -78.5636 -78.5618 -78.5607 -78.5581 -78.5551 -78.5541 -78.5528 -78.5491
   -78.5491 -78.5483 -78.5447 -78.5424 -78.5418 -78.5382 -78.5364 -78.5304
   -78.4733 -78.4722 -78.4713 -78.4708 -78.4699 -78.4696 -78.4692 -78.4676
   -78.4456 -78.4438 -78.4429 -78.4424 -78.4414 -78.4412 -78.4407 -78.4400
   -78.4392 -78.4390 -78.4385 -78.4371 -78.4281 -78.4262 -78.4255 -78.4239
   -17.3321 -15.1405 -12.9572 -12.5891 -10.9140  -9.4000  -8.6733  -7.3977
    -7.3943  -7.2454  -7.1679  -6.5034  -6.5008  -6.3708  -6.3677  -6.3127
    -6.3104  -6.2957  -6.2923  -6.2611  -6.2593  -6.2294  -6.2292  -6.2263
    -6.2260  -6.2074  -6.2059  -6.1577  -6.1554  -6.1549  -6.1527  -6.1166
    -6.1152  -6.1007  -6.0996  -6.0959  -6.0937  -6.0912  -6.0889  -6.0350
    -6.0326  -6.0291  -6.0271  -6.0166  -6.0126  -5.9516  -5.9491  -5.9404
    -5.9384  -5.9352  -5.9340  -5.9306  -5.9284  -5.9223  -5.9174  -5.9164
    -5.9129  -5.8799  -5.8781  -5.8579  -5.8563  -5.8373  -5.8353  -5.8067
    -5.8053  -5.7991  -5.7959  -5.7948  -5.7933  -5.7815  -5.7806  -5.7786
    -5.7752  -5.7331  -5.7329  -5.7299  -5.7294  -5.7255  -5.7248  -5.7026
    -5.7021  -5.6892  -5.6882  -5.6869  -5.6862  -5.6852  -5.6843  -5.6717
    -5.6704  -5.6556  -5.6551  -5.6518  -5.6516  -5.6441  -5.6437  -5.6414
    -5.6413  -5.6381  -5.6374  -5.6083  -5.6063  -5.6039  -5.6012  -5.5952
    -5.5916  -5.5850  -5.5840  -5.5421  -5.5312  -5.5303  -5.5288  -5.5279
    -5.5230  -5.5220  -5.5058  -5.5029  -5.4879  -5.4860  -5.4822  -5.4803
    -5.4707  -5.4700  -5.4682  -5.4671  -5.4551  -5.4549  -5.4488  -5.4478
    -5.4477  -5.4469  -5.4375  -5.4355  -5.4302  -5.4293  -5.4229  -5.4221
    -5.4110  -5.4102  -5.3966  -5.3959  -5.3833  -5.3827  -5.3775  -5.3761
    -5.3514  -5.3482  -5.3269  -5.3245  -5.3115  -5.3112  -5.3096  -5.3086
    -5.2914  -5.2900  -5.2723  -5.2710  -5.2601  -5.2595  -5.2459  -5.2414
    -5.2393  -5.2373  -5.2357  -5.2351  -5.2289  -5.2273  -5.2182  -5.2160
    -5.2120  -5.2112  -5.2109  -5.2104  -5.2066  -5.2057  -5.1993  -5.1969
    -5.1910  -5.1897  -5.1716  -5.1708  -5.1703  -5.1699  -5.1493  -5.1456
    -5.1442  -5.1424  -5.1417  -5.1394  -5.1389  -5.1386  -5.1372  -5.1356
    -5.1351  -5.1335  -5.1192  -5.1178  -5.1061  -5.1058  -5.1050  -5.1049
    -5.0950  -5.0938  -5.0934  -5.0931  -5.0909  -5.0909  -5.0843  -5.0773
    -5.0734  -5.0623  -5.0610  -5.0565  -5.0564  -5.0521  -5.0519  -5.0513
    -5.0493  -5.0489  -5.0466  -5.0254  -5.0247  -5.0244  -5.0216  -5.0196
    -5.0175  -5.0142  -5.0113  -5.0033  -5.0021  -4.9934  -4.9923  -4.9868
    -4.9867  -4.9842  -4.9818  -4.9714  -4.9704  -4.9577  -4.9565  -4.9305
    -4.9255  -4.9178  -4.9172  -4.8988  -4.8975  -4.8725  -4.8718  -4.8582
    -4.8537  -4.8394  -4.8335  -4.8184  -4.8171  -4.7714  -4.7653  -4.7323
    -4.7315  -4.6814  -4.6803  -4.6130  -4.4048  -4.3203  -3.8911  -3.8896
    -3.7096  -3.5861  -3.4959  -3.4739  -3.4678  -3.3804  -2.7716  -2.7479
    -2.6919  -2.5919  -2.5900  -2.3897  -2.3780  -2.2463  -2.2028  -2.1996
    -1.6716  -1.4701  -1.4619  -1.1948  -1.1802  -0.9291  -0.9131  -0.7573
    -0.7506  -0.4641  -0.2927  -0.2738  -0.2300  -0.2284  -0.2178  -0.2172
     0.2208   0.2457   0.8813   1.0165   1.0210   1.3130   1.3279   1.4685
     1.4786   1.5229   1.5352   1.7664   1.7677   1.9794   2.0196   2.0289
     2.0532   2.1453   2.1472   2.8418   2.8510   3.1806   3.1850   3.1856
     3.1905   3.2573   3.3045   3.5579   3.5699   3.6194   3.6266   3.8587
     3.8601   3.9972   4.0432   4.3625   4.3763   4.4246   4.7223   4.7343
     4.7661   4.8274   4.8657   4.9350   5.0101   5.0380   5.0725   5.1037
     5.1559   5.2910   5.2985   5.3699   5.3782   5.4999   5.5239   5.5431
     5.6230   5.7302   5.8749   5.9359   5.9542   5.9681   6.0632   6.2284
     6.3036   6.3770   6.4572   6.4644   6.5366   6.5939   6.7110   6.7602
     6.8274   6.9161   6.9383   7.1592   7.2915   7.3198   7.3365   7.3525
     7.3692   7.3907   7.4766   7.5025   7.5911   7.6044   7.7059   7.7172
     7.7493   7.7884   7.7949   7.7994   7.8986   7.9121   7.9148   7.9196
     8.1109   8.1516   8.1930   8.2365   8.2955   8.3478   8.3940   8.4551
     8.5784   8.5985   8.6545   8.6770   8.7130   8.7803   8.8048   8.8768
     8.9185

     occupation numbers 
     1.0000   1.0000   1.0000   1.0000   1.0000   1.0000   1.0000   1.0000
     1.0000   1.0000   1.0000   1.0000   1.0000   1.0000   1.0000   1.0000
     1.0000   1.0000   1.0000   1.0000   1.0000   1.0000   1.0000   1.0000
     1.0000   1.0000   1.0000   1.0000   1.0000   1.0000   1.0000   1.0000
     1.0000   1.0000   1.0000   1.0000   1.0000   1.0000   1.0000   1.0000
     1.0000   1.0000   1.0000   1.0000   1.0000   1.0000   1.0000   1.0000
     1.0000   1.0000   1.0000   1.0000   1.0000   1.0000   1.0000   1.0000
     1.0000   1.0000   1.0000   1.0000   1.0000   1.0000   1.0000   1.0000
     1.0000   1.0000   1.0000   1.0000   1.0000   1.0000   1.0000   1.0000
     1.0000   1.0000   1.0000   1.0000   1.0000   1.0000   1.0000   1.0000
     1.0000   1.0000   1.0000   1.0000   1.0000   1.0000   1.0000   1.0000
     1.0000   1.0000   1.0000   1.0000   1.0000   1.0000   1.0000   1.0000
     1.0000   1.0000   1.0000   1.0000   1.0000   1.0000   1.0000   1.0000
     1.0000   1.0000   1.0000   1.0000   1.0000   1.0000   1.0000   1.0000
     1.0000   1.0000   1.0000   1.0000   1.0000   1.0000   1.0000   1.0000
     1.0000   1.0000   1.0000   1.0000   1.0000   1.0000   1.0000   1.0000
     1.0000   1.0000   1.0000   1.0000   1.0000   1.0000   1.0000   1.0000
     1.0000   1.0000   1.0000   1.0000   1.0000   1.0000   1.0000   1.0000
     1.0000   1.0000   1.0000   1.0000   1.0000   1.0000   1.0000   1.0000
     1.0000   1.0000   1.0000   1.0000   1.0000   1.0000   1.0000   1.0000
     1.0000   1.0000   1.0000   1.0000   1.0000   1.0000   1.0000   1.0000
     1.0000   1.0000   1.0000   1.0000   1.0000   1.0000   1.0000   1.0000
     1.0000   1.0000   1.0000   1.0000   1.0000   1.0000   1.0000   1.0000
     1.0000   1.0000   1.0000   1.0000   1.0000   1.0000   1.0000   1.0000
     1.0000   1.0000   1.0000   1.0000   1.0000   1.0000   1.0000   1.0000
     1.0000   1.0000   1.0000   1.0000   1.0000   1.0000   1.0000   1.0000
     1.0000   1.0000   1.0000   1.0000   1.0000   1.0000   1.0000   1.0000
     1.0000   1.0000   1.0000   1.0000   1.0000   1.0000   1.0000   1.0000
     1.0000   1.0000   1.0000   1.0000   1.0000   1.0000   1.0000   1.0000
     1.0000   1.0000   1.0000   1.0000   1.0000   1.0000   1.0000   1.0000
     1.0000   1.0000   1.0000   1.0000   1.0000   1.0000   1.0000   1.0000
     1.0000   1.0000   1.0000   1.0000   1.0000   1.0000   1.0000   1.0000
     1.0000   1.0000   1.0000   1.0000   1.0000   1.0000   1.0000   1.0000
     1.0000   1.0000   1.0000   1.0000   1.0000   1.0000   1.0000   1.0000
     1.0000   1.0000   1.0000   1.0000   1.0000   1.0000   1.0000   1.0000
     1.0000   1.0000   1.0000   1.0000   1.0000   1.0000   1.0000   1.0000
     1.0000   1.0000   1.0000   1.0000   1.0000   1.0000   1.0000   1.0000
     1.0000   1.0000   1.0000   1.0000   1.0000   1.0000   1.0000   1.0000
     1.0000   1.0000   1.0000   1.0000   1.0000   1.0000   1.0000   1.0000
     1.0000   1.0000   1.0000   1.0000   1.0000   1.0000   1.0000   1.0000
     1.0000   1.0000   1.0000   1.0000   1.0000   1.0000   1.0000   1.0000
     1.0000   1.0000   1.0000   1.0000   1.0000   1.0000   1.0000   1.0000
     1.0000   1.0000   1.0000   1.0000   1.0000   1.0000   1.0000   1.0000
     1.0000   1.0000   1.0000   1.0000   1.0000   1.0000   1.0000   1.0000
     1.0000   1.0000   1.0000   1.0000   1.0000   1.0000   1.0000   1.0000
     1.0000   1.0000   1.0000   1.0000   1.0000   1.0000   1.0000   1.0000
     1.0000   1.0000   1.0000   1.0000   1.0000   1.0000   1.0000   1.0000
     1.0000   1.0000   1.0000   1.0000   1.0000   1.0000   1.0000   1.0000
     1.0000   1.0000   1.0000   1.0000   1.0000   1.0000   1.0000   1.0000
     1.0000   1.0000   1.0000   1.0000   1.0000   1.0000   1.0000   1.0000
     1.0000   1.0000   1.0000   1.0000   1.0000   1.0000   1.0000   1.0000
     1.0000   1.0000   1.0000   1.0000   1.0000   1.0000   1.0000   1.0000
     1.0000   1.0000   1.0000   1.0000   1.0000   1.0000   1.0000   1.0000
     1.0000   1.0000   1.0000   1.0000   1.0000   1.0000   1.0000   1.0000
     1.0000   1.0000   1.0000   1.0000   1.0000   1.0000   1.0000   1.0000
     1.0000   1.0000   1.0000   1.0000   1.0000   1.0000   1.0000   1.0000
     1.0000   1.0000   1.0000   1.0000   1.0000   1.0000   1.0000   1.0000
     1.0000   1.0000   1.0000   1.0000   1.0000   1.0000   1.0000   1.0000
     1.0000   1.0000   1.0000   1.0000   1.0000   1.0000   1.0000   1.0000
     1.0000   1.0000   1.0000   1.0000   1.0000   1.0000   1.0000   1.0000
     1.0000   1.0000   1.0000   1.0000   1.0000   1.0000   1.0000   1.0000
     1.0000   1.0000   1.0009   1.0070   1.0074   1.0806   1.0826   1.0120
     0.9986   0.9247   0.9003   0.3101   0.3071   0.0386   0.0229   0.0201
     0.0143   0.0034   0.0033   0.0000   0.0000   0.0000   0.0000   0.0000
     0.0000   0.0000   0.0000   0.0000   0.0000   0.0000   0.0000   0.0000
     0.0000   0.0000   0.0000   0.0000   0.0000   0.0000   0.0000   0.0000
     0.0000   0.0000   0.0000   0.0000   0.0000   0.0000   0.0000   0.0000
     0.0000   0.0000   0.0000   0.0000   0.0000   0.0000   0.0000   0.0000
     0.0000   0.0000   0.0000   0.0000   0.0000   0.0000   0.0000   0.0000
     0.0000   0.0000   0.0000   0.0000   0.0000   0.0000   0.0000   0.0000
     0.0000   0.0000   0.0000   0.0000   0.0000   0.0000   0.0000   0.0000
     0.0000   0.0000   0.0000   0.0000   0.0000   0.0000   0.0000   0.0000
     0.0000   0.0000   0.0000   0.0000   0.0000   0.0000   0.0000   0.0000
     0.0000   0.0000   0.0000   0.0000   0.0000   0.0000   0.0000   0.0000
     0.0000   0.0000   0.0000   0.0000   0.0000   0.0000   0.0000   0.0000
     0.0000

          k =-0.5000 0.0000 0.0000 ( 67714 PWs)   bands (ev):

  -124.8079-124.8062-124.8046-124.8031-124.8007-124.7993-124.7986-124.7977
  -124.6788-124.6770-124.6760-124.6742-124.6694-124.6676-124.6665-124.6643
  -124.4662-124.4605-124.4597-124.4596-124.4578-124.4570-124.4565-124.4557
  -124.4556-124.4553-124.4550-124.4544-124.4540-124.4535-124.4526-124.4462
  -124.4199-124.4126-124.4116-124.4109-124.4053-124.4022-124.3990-124.3932
  -124.2964-124.2951-124.2945-124.2939-124.2927-124.2927-124.2925-124.2907
   -78.9697 -78.9631 -78.9629 -78.9613 -78.9600 -78.9583 -78.9570 -78.9568
   -78.9559 -78.9545 -78.9538 -78.9527 -78.9521 -78.9508 -78.9503 -78.9502
   -78.9486 -78.9470 -78.9449 -78.9443 -78.9432 -78.9427 -78.9416 -78.9381
   -78.8457 -78.8364 -78.8341 -78.8325 -78.8297 -78.8286 -78.8276 -78.8269
   -78.8267 -78.8258 -78.8250 -78.8248 -78.8240 -78.8231 -78.8209 -78.8206
   -78.8191 -78.8185 -78.8175 -78.8173 -78.8161 -78.8153 -78.8140 -78.8114
   -78.6331 -78.6264 -78.6261 -78.6248 -78.6243 -78.6242 -78.6222 -78.6219
   -78.6217 -78.6214 -78.6212 -78.6208 -78.6205 -78.6203 -78.6194 -78.6189
   -78.6188 -78.6176 -78.6174 -78.6122 -78.6113 -78.6093 -78.6087 -78.6079
   -78.6067 -78.6061 -78.6051 -78.6050 -78.6043 -78.6006 -78.6002 -78.5986
   -78.5972 -78.5967 -78.5962 -78.5961 -78.5954 -78.5952 -78.5951 -78.5943
   -78.5941 -78.5939 -78.5934 -78.5932 -78.5930 -78.5927 -78.5923 -78.5905
   -78.5864 -78.5828 -78.5822 -78.5819 -78.5756 -78.5728 -78.5696 -78.5689
   -78.5636 -78.5618 -78.5590 -78.5553 -78.5550 -78.5546 -78.5540 -78.5528
   -78.5482 -78.5448 -78.5447 -78.5427 -78.5418 -78.5411 -78.5364 -78.5293
   -78.4733 -78.4721 -78.4714 -78.4708 -78.4697 -78.4696 -78.4694 -78.4676
   -78.4484 -78.4458 -78.4424 -78.4411 -78.4408 -78.4401 -78.4390 -78.4389
   -78.4387 -78.4371 -78.4361 -78.4357 -78.4337 -78.4332 -78.4235 -78.4210
   -17.3321 -15.1400 -12.9603 -12.5892 -10.9056  -9.3997  -8.6828  -7.3967
    -7.3760  -7.2498  -7.1695  -6.4808  -6.4719  -6.3668  -6.3568  -6.3332
    -6.3326  -6.3321  -6.3292  -6.3200  -6.3195  -6.2682  -6.2598  -6.2516
    -6.2424  -6.1975  -6.1860  -6.1497  -6.1472  -6.1375  -6.1321  -6.0950
    -6.0946  -6.0895  -6.0892  -6.0682  -6.0681  -6.0595  -6.0594  -6.0541
    -6.0503  -6.0460  -6.0405  -6.0118  -6.0117  -6.0093  -6.0088  -5.9713
    -5.9677  -5.9511  -5.9507  -5.9479  -5.9475  -5.8931  -5.8928  -5.8884
    -5.8854  -5.8742  -5.8617  -5.8465  -5.8461  -5.8431  -5.8427  -5.8234
    -5.8151  -5.8072  -5.8057  -5.7984  -5.7973  -5.7952  -5.7948  -5.7617
    -5.7612  -5.7560  -5.7554  -5.7387  -5.7348  -5.7070  -5.7063  -5.7036
    -5.7027  -5.6860  -5.6855  -5.6828  -5.6779  -5.6753  -5.6725  -5.6440
    -5.6436  -5.6407  -5.6402  -5.6314  -5.6287  -5.5860  -5.5850  -5.5820
    -5.5814  -5.5810  -5.5803  -5.5801  -5.5768  -5.5497  -5.5492  -5.5478
    -5.5474  -5.5472  -5.5380  -5.5366  -5.5337  -5.5327  -5.5323  -5.5320
    -5.5316  -5.5284  -5.5104  -5.5056  -5.5054  -5.5052  -5.4913  -5.4879
    -5.4444  -5.4439  -5.4426  -5.4423  -5.4197  -5.4185  -5.4180  -5.4179
    -5.4168  -5.4167  -5.3969  -5.3966  -5.3955  -5.3953  -5.3702  -5.3696
    -5.3692  -5.3688  -5.3597  -5.3592  -5.3585  -5.3578  -5.3578  -5.3568
    -5.3547  -5.3504  -5.3282  -5.3281  -5.3266  -5.3247  -5.3243  -5.3181
    -5.3116  -5.3082  -5.2948  -5.2941  -5.2930  -5.2922  -5.2895  -5.2892
    -5.2891  -5.2888  -5.2480  -5.2473  -5.2394  -5.2393  -5.2369  -5.2365
    -5.2272  -5.2178  -5.2085  -5.2076  -5.2071  -5.2066  -5.2050  -5.2047
    -5.1968  -5.1911  -5.1859  -5.1849  -5.1724  -5.1717  -5.1715  -5.1706
    -5.1704  -5.1695  -5.1674  -5.1651  -5.1631  -5.1625  -5.1476  -5.1447
    -5.1343  -5.1341  -5.1331  -5.1324  -5.1274  -5.1256  -5.1249  -5.1205
    -5.1092  -5.1025  -5.1018  -5.1004  -5.0985  -5.0966  -5.0937  -5.0915
    -5.0908  -5.0858  -5.0854  -5.0848  -5.0844  -5.0827  -5.0818  -5.0812
    -5.0755  -5.0441  -5.0431  -5.0398  -5.0394  -5.0389  -5.0388  -5.0301
    -5.0300  -5.0287  -5.0285  -5.0276  -5.0265  -5.0137  -5.0119  -4.9915
    -4.9830  -4.9660  -4.9650  -4.9636  -4.9631  -4.9499  -4.9465  -4.9378
    -4.9373  -4.9349  -4.9348  -4.9012  -4.8989  -4.8900  -4.8748  -4.8737
    -4.8727  -4.8559  -4.8523  -4.8450  -4.8418  -4.8378  -4.8293  -4.8165
    -4.8150  -4.7441  -4.7418  -4.6034  -4.4043  -4.3230  -3.8024  -3.7259
    -3.7178  -3.7158  -3.5350  -3.4441  -3.4293  -3.3860  -2.7838  -2.7252
    -2.6745  -2.2437  -1.9964  -1.9953  -1.9827  -1.9818  -1.8661  -1.8545
    -1.7645  -1.5388  -1.5360  -1.5181  -1.4228  -1.1392  -1.1234  -1.0343
    -1.0177  -0.5579  -0.4304  -0.4229  -0.4210  -0.3590   0.1387   0.1661
     0.3343   0.3523   0.4059   0.4228   0.5126   0.5316   0.9127   1.5329
     1.5364   1.5519   1.5681   1.6327   1.6409   1.8343   1.8506   2.0894
     2.1070   2.1166   2.1213   3.0124   3.0491   3.1723   3.1743   3.2158
     3.2314   3.3061   3.3327   3.7816   3.8000   4.0020   4.0240   4.0809
     4.0899   4.4781   4.4808   4.4940   4.5056   4.5317   4.7594   4.7686
     4.7711   4.8152   4.9757   5.0562   5.0573   5.2296   5.2452   5.2780
     5.2985   5.3480   5.4658   5.7494   5.7541   5.7729   5.8016   5.9047
     5.9108   6.1957   6.1992   6.2073   6.2192   6.2243   6.2356   6.2421
     6.3721   6.4184   6.4354   6.5105   6.5360   6.5437   6.5537   6.5678
     6.5821   6.6034   6.6623   6.7216   6.7522   6.9275   6.9542   7.1411
     7.2020   7.2233   7.2330   7.3379   7.4352   7.5827   7.5945   7.6075
     7.6314   7.6984   7.7359   7.8279   7.8461   7.8521   7.8586   7.8641
     7.8901   8.0325   8.1951   8.2287   8.3321   8.3927   8.4995   8.5091
     8.5125   8.5527   8.5667   8.5968   8.6456   8.6821   8.7030   8.7081
     8.7505

     occupation numbers 
     1.0000   1.0000   1.0000   1.0000   1.0000   1.0000   1.0000   1.0000
     1.0000   1.0000   1.0000   1.0000   1.0000   1.0000   1.0000   1.0000
     1.0000   1.0000   1.0000   1.0000   1.0000   1.0000   1.0000   1.0000
     1.0000   1.0000   1.0000   1.0000   1.0000   1.0000   1.0000   1.0000
     1.0000   1.0000   1.0000   1.0000   1.0000   1.0000   1.0000   1.0000
     1.0000   1.0000   1.0000   1.0000   1.0000   1.0000   1.0000   1.0000
     1.0000   1.0000   1.0000   1.0000   1.0000   1.0000   1.0000   1.0000
     1.0000   1.0000   1.0000   1.0000   1.0000   1.0000   1.0000   1.0000
     1.0000   1.0000   1.0000   1.0000   1.0000   1.0000   1.0000   1.0000
     1.0000   1.0000   1.0000   1.0000   1.0000   1.0000   1.0000   1.0000
     1.0000   1.0000   1.0000   1.0000   1.0000   1.0000   1.0000   1.0000
     1.0000   1.0000   1.0000   1.0000   1.0000   1.0000   1.0000   1.0000
     1.0000   1.0000   1.0000   1.0000   1.0000   1.0000   1.0000   1.0000
     1.0000   1.0000   1.0000   1.0000   1.0000   1.0000   1.0000   1.0000
     1.0000   1.0000   1.0000   1.0000   1.0000   1.0000   1.0000   1.0000
     1.0000   1.0000   1.0000   1.0000   1.0000   1.0000   1.0000   1.0000
     1.0000   1.0000   1.0000   1.0000   1.0000   1.0000   1.0000   1.0000
     1.0000   1.0000   1.0000   1.0000   1.0000   1.0000   1.0000   1.0000
     1.0000   1.0000   1.0000   1.0000   1.0000   1.0000   1.0000   1.0000
     1.0000   1.0000   1.0000   1.0000   1.0000   1.0000   1.0000   1.0000
     1.0000   1.0000   1.0000   1.0000   1.0000   1.0000   1.0000   1.0000
     1.0000   1.0000   1.0000   1.0000   1.0000   1.0000   1.0000   1.0000
     1.0000   1.0000   1.0000   1.0000   1.0000   1.0000   1.0000   1.0000
     1.0000   1.0000   1.0000   1.0000   1.0000   1.0000   1.0000   1.0000
     1.0000   1.0000   1.0000   1.0000   1.0000   1.0000   1.0000   1.0000
     1.0000   1.0000   1.0000   1.0000   1.0000   1.0000   1.0000   1.0000
     1.0000   1.0000   1.0000   1.0000   1.0000   1.0000   1.0000   1.0000
     1.0000   1.0000   1.0000   1.0000   1.0000   1.0000   1.0000   1.0000
     1.0000   1.0000   1.0000   1.0000   1.0000   1.0000   1.0000   1.0000
     1.0000   1.0000   1.0000   1.0000   1.0000   1.0000   1.0000   1.0000
     1.0000   1.0000   1.0000   1.0000   1.0000   1.0000   1.0000   1.0000
     1.0000   1.0000   1.0000   1.0000   1.0000   1.0000   1.0000   1.0000
     1.0000   1.0000   1.0000   1.0000   1.0000   1.0000   1.0000   1.0000
     1.0000   1.0000   1.0000   1.0000   1.0000   1.0000   1.0000   1.0000
     1.0000   1.0000   1.0000   1.0000   1.0000   1.0000   1.0000   1.0000
     1.0000   1.0000   1.0000   1.0000   1.0000   1.0000   1.0000   1.0000
     1.0000   1.0000   1.0000   1.0000   1.0000   1.0000   1.0000   1.0000
     1.0000   1.0000   1.0000   1.0000   1.0000   1.0000   1.0000   1.0000
     1.0000   1.0000   1.0000   1.0000   1.0000   1.0000   1.0000   1.0000
     1.0000   1.0000   1.0000   1.0000   1.0000   1.0000   1.0000   1.0000
     1.0000   1.0000   1.0000   1.0000   1.0000   1.0000   1.0000   1.0000
     1.0000   1.0000   1.0000   1.0000   1.0000   1.0000   1.0000   1.0000
     1.0000   1.0000   1.0000   1.0000   1.0000   1.0000   1.0000   1.0000
     1.0000   1.0000   1.0000   1.0000   1.0000   1.0000   1.0000   1.0000
     1.0000   1.0000   1.0000   1.0000   1.0000   1.0000   1.0000   1.0000
     1.0000   1.0000   1.0000   1.0000   1.0000   1.0000   1.0000   1.0000
     1.0000   1.0000   1.0000   1.0000   1.0000   1.0000   1.0000   1.0000
     1.0000   1.0000   1.0000   1.0000   1.0000   1.0000   1.0000   1.0000
     1.0000   1.0000   1.0000   1.0000   1.0000   1.0000   1.0000   1.0000
     1.0000   1.0000   1.0000   1.0000   1.0000   1.0000   1.0000   1.0000
     1.0000   1.0000   1.0000   1.0000   1.0000   1.0000   1.0000   1.0000
     1.0000   1.0000   1.0000   1.0000   1.0000   1.0000   1.0000   1.0000
     1.0000   1.0000   1.0000   1.0000   1.0000   1.0000   1.0000   1.0000
     1.0000   1.0000   1.0000   1.0000   1.0000   1.0000   1.0000   1.0000
     1.0000   1.0000   1.0000   1.0000   1.0000   1.0000   1.0000   1.0000
     1.0000   1.0000   1.0000   1.0000   1.0000   1.0000   1.0000   1.0000
     1.0000   1.0000   1.0000   1.0000   1.0000   1.0000   1.0000   1.0000
     1.0000   1.0000   1.0000   1.0000   1.0000   1.0000   1.0000   1.0000
     1.0000   1.0000   1.0000   1.0000   1.0000   1.0000   1.0000   1.0000
     1.0000   1.0000   1.0000   1.0000   1.0000   1.0000   1.0000   1.0000
     1.0000   1.0000   1.0000   1.0000   1.0000   1.0000   1.0000   1.0000
     1.0000   1.0000   1.0000   1.0000   1.0000   1.0000   1.0015   0.9049
     0.8976   0.8643   0.8268   0.6587   0.6362   0.1801   0.1555   0.0084
     0.0064   0.0055   0.0051   0.0000   0.0000   0.0000   0.0000   0.0000
     0.0000   0.0000   0.0000   0.0000   0.0000   0.0000   0.0000   0.0000
     0.0000   0.0000   0.0000   0.0000   0.0000   0.0000   0.0000   0.0000
     0.0000   0.0000   0.0000   0.0000   0.0000   0.0000   0.0000   0.0000
     0.0000   0.0000   0.0000   0.0000   0.0000   0.0000   0.0000   0.0000
     0.0000   0.0000   0.0000   0.0000   0.0000   0.0000   0.0000   0.0000
     0.0000   0.0000   0.0000   0.0000   0.0000   0.0000   0.0000   0.0000
     0.0000   0.0000   0.0000   0.0000   0.0000   0.0000   0.0000   0.0000
     0.0000   0.0000   0.0000   0.0000   0.0000   0.0000   0.0000   0.0000
     0.0000   0.0000   0.0000   0.0000   0.0000   0.0000   0.0000   0.0000
     0.0000   0.0000   0.0000   0.0000   0.0000   0.0000   0.0000   0.0000
     0.0000   0.0000   0.0000   0.0000   0.0000   0.0000   0.0000   0.0000
     0.0000

          k =-0.5000-0.4660-0.2690 ( 67764 PWs)   bands (ev):

  -124.8079-124.8062-124.8046-124.8031-124.8007-124.7994-124.7985-124.7977
  -124.6788-124.6770-124.6760-124.6742-124.6694-124.6676-124.6664-124.6643
  -124.4662-124.4605-124.4598-124.4595-124.4578-124.4570-124.4565-124.4557
  -124.4556-124.4553-124.4549-124.4545-124.4540-124.4534-124.4526-124.4462
  -124.4199-124.4126-124.4116-124.4109-124.4053-124.4022-124.3990-124.3932
  -124.2964-124.2952-124.2945-124.2938-124.2929-124.2928-124.2923-124.2907
   -78.9671 -78.9646 -78.9628 -78.9614 -78.9601 -78.9599 -78.9587 -78.9583
   -78.9559 -78.9547 -78.9536 -78.9528 -78.9521 -78.9503 -78.9492 -78.9486
   -78.9470 -78.9469 -78.9448 -78.9434 -78.9425 -78.9424 -78.9417 -78.9411
   -78.8430 -78.8412 -78.8337 -78.8317 -78.8297 -78.8286 -78.8277 -78.8269
   -78.8267 -78.8257 -78.8254 -78.8250 -78.8240 -78.8236 -78.8206 -78.8191
   -78.8185 -78.8175 -78.8174 -78.8162 -78.8161 -78.8153 -78.8141 -78.8140
   -78.6331 -78.6265 -78.6261 -78.6248 -78.6242 -78.6232 -78.6223 -78.6220
   -78.6216 -78.6213 -78.6209 -78.6205 -78.6203 -78.6195 -78.6187 -78.6186
   -78.6176 -78.6163 -78.6160 -78.6156 -78.6144 -78.6143 -78.6132 -78.6122
   -78.6048 -78.6043 -78.6008 -78.6006 -78.6002 -78.5988 -78.5987 -78.5983
   -78.5971 -78.5969 -78.5968 -78.5968 -78.5961 -78.5958 -78.5953 -78.5952
   -78.5952 -78.5944 -78.5940 -78.5939 -78.5932 -78.5930 -78.5924 -78.5905
   -78.5864 -78.5828 -78.5822 -78.5819 -78.5756 -78.5728 -78.5696 -78.5677
   -78.5636 -78.5618 -78.5607 -78.5581 -78.5551 -78.5540 -78.5529 -78.5491
   -78.5491 -78.5482 -78.5448 -78.5424 -78.5418 -78.5382 -78.5364 -78.5304
   -78.4733 -78.4722 -78.4713 -78.4708 -78.4699 -78.4696 -78.4692 -78.4676
   -78.4456 -78.4438 -78.4429 -78.4424 -78.4414 -78.4412 -78.4407 -78.4400
   -78.4392 -78.4390 -78.4385 -78.4371 -78.4281 -78.4262 -78.4255 -78.4239
   -17.3321 -15.1405 -12.9572 -12.5891 -10.9140  -9.4000  -8.6730  -7.2454
    -7.1680  -7.0564  -7.0532  -7.0356  -7.0329  -6.3196  -6.3166  -6.3101
    -6.3078  -6.2683  -6.2662  -6.2656  -6.2637  -6.2285  -6.2260  -6.2194
    -6.2175  -6.2069  -6.2061  -6.2056  -6.2050  -6.1208  -6.1200  -6.1166
    -6.1156  -6.1118  -6.1098  -6.1056  -6.1048  -6.0789  -6.0762  -6.0746
    -6.0716  -6.0396  -6.0365  -6.0361  -6.0337  -6.0021  -5.9998  -5.9972
    -5.9954  -5.9544  -5.9509  -5.9488  -5.9459  -5.8892  -5.8870  -5.8859
    -5.8834  -5.8638  -5.8633  -5.8611  -5.8605  -5.8174  -5.8163  -5.8142
    -5.8136  -5.8134  -5.8131  -5.8129  -5.8121  -5.7961  -5.7936  -5.7886
    -5.7855  -5.7606  -5.7594  -5.7556  -5.7544  -5.7398  -5.7394  -5.7392
    -5.7379  -5.7090  -5.7080  -5.7079  -5.7070  -5.6520  -5.6503  -5.6500
    -5.6480  -5.6387  -5.6380  -5.6378  -5.6366  -5.6309  -5.6289  -5.6265
    -5.6240  -5.6141  -5.6116  -5.6111  -5.6107  -5.5627  -5.5626  -5.5621
    -5.5617  -5.5601  -5.5588  -5.5586  -5.5580  -5.5416  -5.5329  -5.5323
    -5.5318  -5.5310  -5.5069  -5.5051  -5.5033  -5.5019  -5.4998  -5.4983
    -5.4950  -5.4942  -5.4396  -5.4374  -5.4359  -5.4334  -5.4224  -5.4213
    -5.4193  -5.4191  -5.4170  -5.4167  -5.4164  -5.4158  -5.4107  -5.4101
    -5.4096  -5.4094  -5.3652  -5.3647  -5.3634  -5.3628  -5.3514  -5.3508
    -5.3487  -5.3483  -5.2998  -5.2978  -5.2962  -5.2947  -5.2882  -5.2878
    -5.2875  -5.2871  -5.2627  -5.2614  -5.2598  -5.2590  -5.2522  -5.2519
    -5.2514  -5.2504  -5.2352  -5.2329  -5.2319  -5.2313  -5.2241  -5.2231
    -5.2212  -5.2205  -5.2034  -5.2033  -5.2022  -5.2019  -5.1997  -5.1993
    -5.1974  -5.1970  -5.1667  -5.1662  -5.1640  -5.1635  -5.1568  -5.1537
    -5.1529  -5.1519  -5.1342  -5.1328  -5.1319  -5.1308  -5.1286  -5.1282
    -5.1277  -5.1274  -5.1265  -5.1263  -5.1251  -5.1242  -5.1060  -5.1057
    -5.1051  -5.1045  -5.0872  -5.0851  -5.0833  -5.0824  -5.0784  -5.0644
    -5.0638  -5.0630  -5.0628  -5.0526  -5.0513  -5.0500  -5.0485  -5.0387
    -5.0376  -5.0369  -5.0354  -5.0313  -5.0290  -5.0284  -5.0250  -5.0147
    -5.0140  -5.0118  -5.0104  -5.0066  -5.0052  -5.0036  -5.0033  -4.9622
    -4.9612  -4.9606  -4.9602  -4.9601  -4.9593  -4.9589  -4.9587  -4.9441
    -4.9440  -4.9438  -4.9422  -4.9191  -4.9170  -4.9164  -4.9155  -4.9153
    -4.9146  -4.9138  -4.9118  -4.8520  -4.8507  -4.8499  -4.8488  -4.6137
    -4.5972  -4.5672  -4.5569  -4.5542  -4.3714  -4.3191  -3.6401  -3.6058
    -3.5935  -3.5901  -3.5731  -3.3812  -3.0385  -3.0353  -3.0249  -3.0222
    -2.7556  -2.4466  -2.4379  -2.4324  -2.3813  -2.2427  -2.0576  -2.0243
    -2.0182  -2.0155  -1.6255  -1.4929  -1.4871  -1.4791  -1.4700  -0.4892
    -0.3258  -0.3200  -0.3127  -0.3110   0.0533   0.0727   0.0757   0.0922
     0.4939   0.4997   0.5044   0.5407   0.8204   0.8388   0.8746   0.8900
     0.9574   1.1977   1.2035   1.2050   1.2054   2.0312   2.0337   2.0444
     2.0453   3.3878   3.3939   3.4028   3.4426   3.5174   3.5179   3.5270
     3.5465   3.6770   3.6801   3.6953   3.7236   3.9970   4.0424   4.0526
     4.0664   4.0837   4.0865   4.0906   4.0981   4.1062   4.1352   4.1921
     4.2223   4.6669   5.0265   5.2409   5.3786   5.4587   5.5065   5.5267
     5.5380   5.5441   5.5503   5.5599   5.5642   5.5990   5.8788   5.9357
     5.9360   5.9452   5.9479   6.1894   6.2334   6.2536   6.2542   6.2653
     6.2658   6.2860   6.3024   6.4678   6.4819   6.4998   6.5054   6.5138
     6.5182   6.5944   6.6486   6.6741   6.7343   6.7459   6.8278   7.0185
     7.0386   7.0444   7.0815   7.1944   7.1978   7.1999   7.2008   7.2979
     7.5300   7.5536   7.5701   7.7317   7.7551   7.8126   7.8696   7.9207
     7.9290   7.9704   7.9744   8.0517   8.1229   8.1346   8.1368   8.1654
     8.3208   8.3744   8.4284   8.5657   8.6067   8.7218   8.7855   8.8106
     8.8321

     occupation numbers 
     1.0000   1.0000   1.0000   1.0000   1.0000   1.0000   1.0000   1.0000
     1.0000   1.0000   1.0000   1.0000   1.0000   1.0000   1.0000   1.0000
     1.0000   1.0000   1.0000   1.0000   1.0000   1.0000   1.0000   1.0000
     1.0000   1.0000   1.0000   1.0000   1.0000   1.0000   1.0000   1.0000
     1.0000   1.0000   1.0000   1.0000   1.0000   1.0000   1.0000   1.0000
     1.0000   1.0000   1.0000   1.0000   1.0000   1.0000   1.0000   1.0000
     1.0000   1.0000   1.0000   1.0000   1.0000   1.0000   1.0000   1.0000
     1.0000   1.0000   1.0000   1.0000   1.0000   1.0000   1.0000   1.0000
     1.0000   1.0000   1.0000   1.0000   1.0000   1.0000   1.0000   1.0000
     1.0000   1.0000   1.0000   1.0000   1.0000   1.0000   1.0000   1.0000
     1.0000   1.0000   1.0000   1.0000   1.0000   1.0000   1.0000   1.0000
     1.0000   1.0000   1.0000   1.0000   1.0000   1.0000   1.0000   1.0000
     1.0000   1.0000   1.0000   1.0000   1.0000   1.0000   1.0000   1.0000
     1.0000   1.0000   1.0000   1.0000   1.0000   1.0000   1.0000   1.0000
     1.0000   1.0000   1.0000   1.0000   1.0000   1.0000   1.0000   1.0000
     1.0000   1.0000   1.0000   1.0000   1.0000   1.0000   1.0000   1.0000
     1.0000   1.0000   1.0000   1.0000   1.0000   1.0000   1.0000   1.0000
     1.0000   1.0000   1.0000   1.0000   1.0000   1.0000   1.0000   1.0000
     1.0000   1.0000   1.0000   1.0000   1.0000   1.0000   1.0000   1.0000
     1.0000   1.0000   1.0000   1.0000   1.0000   1.0000   1.0000   1.0000
     1.0000   1.0000   1.0000   1.0000   1.0000   1.0000   1.0000   1.0000
     1.0000   1.0000   1.0000   1.0000   1.0000   1.0000   1.0000   1.0000
     1.0000   1.0000   1.0000   1.0000   1.0000   1.0000   1.0000   1.0000
     1.0000   1.0000   1.0000   1.0000   1.0000   1.0000   1.0000   1.0000
     1.0000   1.0000   1.0000   1.0000   1.0000   1.0000   1.0000   1.0000
     1.0000   1.0000   1.0000   1.0000   1.0000   1.0000   1.0000   1.0000
     1.0000   1.0000   1.0000   1.0000   1.0000   1.0000   1.0000   1.0000
     1.0000   1.0000   1.0000   1.0000   1.0000   1.0000   1.0000   1.0000
     1.0000   1.0000   1.0000   1.0000   1.0000   1.0000   1.0000   1.0000
     1.0000   1.0000   1.0000   1.0000   1.0000   1.0000   1.0000   1.0000
     1.0000   1.0000   1.0000   1.0000   1.0000   1.0000   1.0000   1.0000
     1.0000   1.0000   1.0000   1.0000   1.0000   1.0000   1.0000   1.0000
     1.0000   1.0000   1.0000   1.0000   1.0000   1.0000   1.0000   1.0000
     1.0000   1.0000   1.0000   1.0000   1.0000   1.0000   1.0000   1.0000
     1.0000   1.0000   1.0000   1.0000   1.0000   1.0000   1.0000   1.0000
     1.0000   1.0000   1.0000   1.0000   1.0000   1.0000   1.0000   1.0000
     1.0000   1.0000   1.0000   1.0000   1.0000   1.0000   1.0000   1.0000
[...]
     atom    4 type  1   force =     0.00005540   -0.00001416   -0.00003584
     atom    5 type  1   force =    -0.00003097   -0.00002950    0.00008373
     atom    6 type  1   force =    -0.00005615    0.00002958    0.00010890
     atom    7 type  1   force =     0.00000000   -0.00000000   -0.00000000
     atom    8 type  1   force =     0.00000000    0.00000000   -0.00000000
     atom    9 type  1   force =     0.00000770   -0.00000113   -0.00008738
     atom   10 type  1   force =     0.00006874    0.00000228    0.00000938
     atom   11 type  1   force =    -0.00004230   -0.00000145    0.00011355
     atom   12 type  1   force =    -0.00004232    0.00001245    0.00009303
     atom   13 type  1   force =    -0.00000000    0.00000000   -0.00000000
     atom   14 type  1   force =    -0.00000000   -0.00000000   -0.00000000
     atom   15 type  1   force =    -0.00002969    0.00001819   -0.00005355
     atom   16 type  1   force =    -0.00005101   -0.00001555   -0.00001987
     atom   17 type  1   force =     0.00002901   -0.00003227    0.00023655
     atom   18 type  1   force =     0.00005399    0.00003368    0.00024801
     atom   19 type  1   force =    -0.00000000   -0.00000000   -0.00000000
     atom   20 type  1   force =    -0.00000000    0.00000000   -0.00000000
     atom   21 type  1   force =    -0.00000096    0.00000758   -0.00007853
     atom   22 type  1   force =    -0.00006777   -0.00000706    0.00002009
     atom   23 type  1   force =     0.00004184   -0.00000506    0.00025552
     atom   24 type  1   force =     0.00004198    0.00000868    0.00023855
     atom   25 type  1   force =    -0.00000000    0.00000000   -0.00000000
     atom   26 type  1   force =    -0.00000000   -0.00000000   -0.00000000
     atom   27 type  1   force =    -0.00020426   -0.00003294   -0.00004547
     atom   28 type  1   force =    -0.00020792    0.00002138   -0.00011733
     atom   29 type  1   force =    -0.00014370   -0.00000873    0.00014135
     atom   30 type  1   force =    -0.00014320    0.00000442    0.00026608
     atom   31 type  1   force =    -0.00000000   -0.00000000   -0.00000000
     atom   32 type  1   force =    -0.00000000    0.00000000   -0.00000000
     atom   33 type  1   force =    -0.00021126   -0.00000214   -0.00013334
     atom   34 type  1   force =    -0.00019607    0.00000888   -0.00003067
     atom   35 type  1   force =    -0.00013580   -0.00001859    0.00009342
     atom   36 type  1   force =    -0.00014156    0.00004723    0.00017987
     atom   37 type  1   force =     0.00000000    0.00000000   -0.00000000
     atom   38 type  1   force =     0.00000000   -0.00000000   -0.00000000
     atom   39 type  1   force =     0.00020661    0.00003426    0.00009933
     atom   40 type  1   force =     0.00020247   -0.00003610    0.00007644
     atom   41 type  1   force =     0.00014729   -0.00001977    0.00018961
     atom   42 type  1   force =     0.00014546    0.00002692    0.00013966
     atom   43 type  1   force =     0.00000000   -0.00000000   -0.00000000
     atom   44 type  1   force =     0.00000000    0.00000000   -0.00000000
     atom   45 type  1   force =     0.00020344    0.00003366    0.00005344
     atom   46 type  1   force =     0.00020005   -0.00002858    0.00012380
     atom   47 type  1   force =     0.00014772   -0.00001124    0.00015195
     atom   48 type  1   force =     0.00014534    0.00001741    0.00017768
     atom   49 type  3   force =    -0.00000509   -0.00001266    0.00001212
     atom   50 type  3   force =    -0.00001025   -0.00001260    0.00002049
     atom   51 type  3   force =    -0.00001115   -0.00001313    0.00000731
     atom   52 type  3   force =    -0.00000701   -0.00001407    0.00001893
     atom   53 type  3   force =    -0.00000686   -0.00000071    0.00001501
     atom   54 type  3   force =     0.00000079   -0.00001134    0.00001364
     atom   55 type  3   force =    -0.00000265    0.00000837    0.00000711
     atom   56 type  2   force =    -0.00001229   -0.00000171    0.00002054
     atom   57 type  4   force =    -0.00000043    0.00000244    0.00000183
     atom   58 type  4   force =    -0.00000148   -0.00000040    0.00000246
     atom   59 type  4   force =     0.00000112   -0.00000114    0.00000185
     atom   60 type  4   force =    -0.00000250    0.00000220    0.00000349
     atom   61 type  4   force =    -0.00000261   -0.00000053    0.00000026
     atom   62 type  4   force =    -0.00000079   -0.00000180    0.00000424
     atom   63 type  4   force =     0.00000302   -0.00000019    0.00000213
     atom   64 type  4   force =    -0.00000012    0.00000117    0.00000145
     atom   65 type  4   force =    -0.00000115    0.00000226    0.00000227

     DFT-D3 dispersion contribution to forces:
     atom    1 type  1   force =    -0.00000751    0.00001944    0.00142681
     atom    2 type  1   force =    -0.00000599   -0.00001148    0.00146015
     atom    3 type  1   force =     0.00051256    0.00000078    0.00218113
     atom    4 type  1   force =    -0.00008336   -0.00004273    0.00154312
     atom    5 type  1   force =     0.00053831    0.00039686    0.00028617
     atom    6 type  1   force =     0.00075262   -0.00034553    0.00092603
     atom    7 type  1   force =    -0.00000616    0.00001930    0.00145698
     atom    8 type  1   force =    -0.00000385    0.00000272    0.00143943
     atom    9 type  1   force =    -0.00021544    0.00004641    0.00165634
     atom   10 type  1   force =     0.00000364   -0.00003972    0.00163950
     atom   11 type  1   force =     0.00082638    0.00003026    0.00085314
     atom   12 type  1   force =     0.00049880   -0.00022055    0.00023397
     atom   13 type  1   force =     0.00000764    0.00001663    0.00140421
     atom   14 type  1   force =     0.00000619   -0.00000588    0.00143245
     atom   15 type  1   force =    -0.00051514    0.00000639    0.00219213
     atom   16 type  1   force =     0.00005768   -0.00004369    0.00150532
     atom   17 type  1   force =    -0.00052945    0.00043798    0.00038111
     atom   18 type  1   force =    -0.00071283   -0.00036071    0.00105901
     atom   19 type  1   force =     0.00000506    0.00001592    0.00142547
     atom   20 type  1   force =     0.00000509    0.00000128    0.00141824
     atom   21 type  1   force =     0.00016006    0.00005168    0.00166161
     atom   22 type  1   force =    -0.00000324   -0.00004295    0.00162409
     atom   23 type  1   force =    -0.00076522    0.00003346    0.00086856
     atom   24 type  1   force =    -0.00050886   -0.00026619    0.00039004
     atom   25 type  1   force =    -0.00001197    0.00004215    0.00224045
     atom   26 type  1   force =    -0.00001472   -0.00000270    0.00239245
     atom   27 type  1   force =    -0.00000970    0.00004957   -0.00238544
     atom   28 type  1   force =     0.00000417    0.00002786   -0.00202801
     atom   29 type  1   force =     0.00000744    0.00019220   -0.00077733
     atom   30 type  1   force =     0.00002363   -0.00008524   -0.00038360
     atom   31 type  1   force =    -0.00000767    0.00006914    0.00231471
     atom   32 type  1   force =    -0.00000528   -0.00004693    0.00223940
     atom   33 type  1   force =    -0.00001285    0.00000020   -0.00239538
     atom   34 type  1   force =     0.00000512    0.00003025   -0.00215156
     atom   35 type  1   force =     0.00000495    0.00031671   -0.00161507
     atom   36 type  1   force =     0.00004448   -0.00051461   -0.00062347
     atom   37 type  1   force =     0.00001201    0.00002198    0.00235598
     atom   38 type  1   force =     0.00001216    0.00001124    0.00235414
     atom   39 type  1   force =     0.00000445    0.00001861   -0.00225433
     atom   40 type  1   force =    -0.00003431    0.00001899   -0.00221953
     atom   41 type  1   force =     0.00000929    0.00003548   -0.00206096
     atom   42 type  1   force =    -0.00002469   -0.00004801   -0.00132597
     atom   43 type  1   force =     0.00000206    0.00001992    0.00231486
     atom   44 type  1   force =     0.00001100    0.00000618    0.00231635
     atom   45 type  1   force =     0.00001136    0.00000187   -0.00233330
     atom   46 type  1   force =    -0.00001655    0.00002512   -0.00218324
     atom   47 type  1   force =    -0.00002528    0.00019812   -0.00190627
     atom   48 type  1   force =    -0.00002407   -0.00017088   -0.00215679
     atom   49 type  3   force =    -0.00042069    0.00012000   -0.00146082
     atom   50 type  3   force =     0.00002667   -0.00012692   -0.00088403
     atom   51 type  3   force =    -0.00030596    0.00021936   -0.00146724
     atom   52 type  3   force =     0.00038258    0.00011324   -0.00148275
     atom   53 type  3   force =    -0.00000099    0.00002441   -0.00140062
     atom   54 type  3   force =     0.00033308    0.00005324   -0.00145332
     atom   55 type  3   force =    -0.00001219    0.00021433   -0.00103184
     atom   56 type  2   force =     0.00001191   -0.00022786   -0.00142768
     atom   57 type  4   force =     0.00002152   -0.00022170   -0.00141179
     atom   58 type  4   force =    -0.00002050   -0.00010114   -0.00014811
     atom   59 type  4   force =    -0.00002063   -0.00001692   -0.00137790
     atom   60 type  4   force =    -0.00002495   -0.00025307   -0.00140187
     atom   61 type  4   force =    -0.00001044    0.00008468   -0.00089526
     atom   62 type  4   force =     0.00002448   -0.00003063   -0.00137190
     atom   63 type  4   force =     0.00002778    0.00002116   -0.00090404
     atom   64 type  4   force =     0.00002885    0.00018190   -0.00056451
     atom   65 type  4   force =    -0.00002254    0.00002904   -0.00150944

     Total force =     0.013094     Total SCF correction =     0.001079

     DFT-D3 dispersion Force =     0.013391


     Computing stress (Cartesian axis) and pressure


     negative rho (up, down):  4.594E-03 0.000E+00
          total   stress  (Ry/bohr**3)                   (kbar)     P=      -19.74
  -0.00013903   0.00000035   0.00000070          -20.45        0.05        0.10
   0.00000035  -0.00023974   0.00000074            0.05      -35.27        0.11
   0.00000070   0.00000074  -0.00002378            0.10        0.11       -3.50

     kinetic stress (kbar)  12374.66      0.31      0.02
                                0.31  12324.01     -8.51
                                0.02     -8.51  12455.94

     local   stress (kbar)-970721.04    -43.25    -29.07
                              -43.25-983852.62   -584.97
                              -29.07   -584.97 981762.60

     nonloc. stress (kbar)  -1186.66      0.01      0.07
                                0.01  -1172.11      1.17
                                0.07      1.17  -1224.96

     hartree stress (kbar) 512019.92     19.23     12.26
                               19.23 517698.58    236.62
                               12.26    236.62-457513.32

     exc-cor stress (kbar)  -6046.43     -0.01      0.03
                               -0.01  -6043.67      0.64
                                0.03      0.64  -6054.52

     corecor stress (kbar)    -76.69      0.01     -0.01
                                0.01    -76.53     -0.18
                               -0.01     -0.18    -75.70

     ewald   stress (kbar) 453622.13     23.75     16.80
                               23.75 461095.80    355.34
                               16.80    355.34-529349.76

     hubbard stress (kbar)      0.00      0.00      0.00
                                0.00      0.00      0.00
                                0.00      0.00      0.00

     DFT-D   stress (kbar)     -6.34     -0.00      0.01
                               -0.00     -8.73     -0.00
                                0.01     -0.00     -3.79

     XDM     stress (kbar)      0.00      0.00      0.00
                                0.00      0.00      0.00
                                0.00      0.00      0.00

     dft-nl  stress (kbar)      0.00      0.00      0.00
                                0.00      0.00      0.00
                                0.00      0.00      0.00

     TS-vdW  stress (kbar)      0.00      0.00      0.00
                                0.00      0.00      0.00
                                0.00      0.00      0.00

     MDB     stress (kbar)      0.00      0.00      0.00
                                0.00      0.00      0.00
                                0.00      0.00      0.00

     3D-RISM stress (kbar)      0.00      0.00      0.00
                                0.00      0.00      0.00
                                0.00      0.00      0.00

     Energy error            =      2.7E-04 Ry
     Gradient error          =      3.7E-03 Ry/Bohr

     number of scf cycles    =  41
     number of bfgs steps    =  40

     energy             old  =  -22314.7084723043 Ry
     energy             new  =  -22314.7087445840 Ry

     CASE: energy            _new < energy            _old

     new trust radius        =       0.0573169983 bohr
     new conv_thr            =       0.0000000370 Ry


ATOMIC_POSITIONS (angstrom)
Zn               1.2182900000        1.3071800000        0.7547010000    0   0   0
Zn               1.2182900000        6.5359000000        0.7547010000    0   0   0
Zn               1.2237615990       -0.0078199544        3.5757375324
Zn               1.2180996291        5.2220762638        3.5466178109
Zn               1.2245310916       -1.3209845724        6.2583309478
Zn               1.2133447174        3.9127362073        6.2620281404
Zn               1.2182900000        3.9215400000        0.7547010000    0   0   0
Zn               1.2182900000        9.1502600000        0.7547010000    0   0   0
Zn               1.2143969780        2.6107748429        3.6180769551
Zn               1.2161579607        7.8364358002        3.6191443388
Zn               1.2199765023        1.2927729767        6.2306607737
Zn               1.2205283560        6.5204452507        6.2759284741
Zn               6.0914510000        1.3071800000        0.7547010000    0   0   0
Zn               6.0914510000        6.5359000000        0.7547010000    0   0   0
Zn               6.0852368574       -0.0068283076        3.5810717974
Zn               6.0931452862        5.2215649033        3.5583775173
Zn               6.0884848696       -1.3196485319        6.2658395622
Zn               6.0771073300        3.9121206490        6.2840812135
Zn               6.0914510000        3.9215400000        0.7547010000    0   0   0
Zn               6.0914510000        9.1502600000        0.7547010000    0   0   0
Zn               6.1013933668        2.6121950348        3.6365915795
Zn               6.0886109561        7.8357749396        3.6294500302
Zn               6.0798970063        1.2935359742        6.2361671712
Zn               6.0842547003        6.5207394275        6.2936891225
Zn               3.6548710000       -0.0000000000        1.5094010000    0   0   0
Zn               3.6548710000        5.2287200000        1.5094010000    0   0   0
Zn               3.6509113850       -1.3069789305        3.8992894176
Zn               3.6545018895        3.9205658555        3.8292329602
Zn               3.6541170732       -2.6413805479        6.2713902058
Zn               3.6428397508        2.6114160603        6.2111941641
Zn               3.6548710000        2.6143600000        1.5094010000    0   0   0
Zn               3.6548710000        7.8430800000        1.5094010000    0   0   0
Zn               3.6545695908        1.2891637406        3.8593601370
Zn               3.6510876835        6.5360759510        3.8495588548
Zn               3.6514511648       -0.0123090769        6.5058939761
Zn               3.6491429167        5.2084517107        6.2419691166
Zn               8.5280310000       -0.0000000000        1.5094010000    0   0   0
Zn               8.5280310000        5.2287200000        1.5094010000    0   0   0
Zn               8.5268699453       -1.3121520606        3.8464772571
Zn               8.5341563276        3.9211067436        3.8535977793
Zn               8.5302101071       -2.6217178091        6.2538256216
Zn               8.5209913618        2.6046863151        6.2667799236
Zn               8.5280310000        2.6143600000        1.5094010000    0   0   0
Zn               8.5280310000        7.8430800000        1.5094010000    0   0   0
Zn               8.5332562709        1.2990158174        3.8458560237
Zn               8.5288640857        6.5320089679        3.8542475249
Zn               8.5305925633       -0.0082915740        6.2575434127
Zn               8.5218293910        5.2191490311        6.2730753276
C                2.5881355442        2.1712706939        9.5522858781
C                3.7571297411        1.4130876310        9.3911564448
C                2.6675436477        3.5317714353        9.8366227647
C                5.0028253890        2.0351514823        9.5556093650
C                3.9070349659        4.1779539763        9.9794024206
C                5.0674497378        3.4018263857        9.8394214416
C                3.9745935011        5.6605288930       10.2393811712
N                3.6790382488        0.0796694022        8.9225697015
H                2.8188609662       -0.4061555127        9.1674639802
H                3.4255779892        5.9556297301       11.1476562395
H                1.6102063452        1.6964275488        9.4376161609
H                4.4917499386       -0.4905358302        9.1426081576
H                1.7397445197        4.1061554972        9.9133295402
H                5.9236708310        1.4579901335        9.4404473587
H                6.0501178406        3.8748125049        9.9148744175
H                5.0101505255        6.0079852006       10.3370248305
H                3.5363433982        6.2238047059        9.4016687896



     Writing config-only to output data dir ./tmp/Zn100_3layer_ptoluidine_relax.save/ :
     XML data file
     NEW-OLD atomic charge density approx. for the potential

     negative rho (up, down):  4.635E-03 0.000E+00

     total cpu time spent up to now is    90068.7 secs

     Self-consistent Calculation

     iteration #  1     ecut=    40.00 Ry     beta= 0.40
     Davidson diagonalization with overlap

---- Real-time Memory Report at c_bands before calling an iterative solver
           435 MiB given to the printing process from OS
             0 MiB allocation reported by mallinfo(arena+hblkhd)
          8492 MiB available memory on the node where the printing process lives
------------------
     ethr =  1.00E-06,  avg # of iterations =  5.0

     negative rho (up, down):  4.622E-03 0.000E+00

     total cpu time spent up to now is    90403.2 secs

     total energy              =  -22314.70876611 Ry
     estimated scf accuracy    <       0.00212258 Ry

     iteration #  2     ecut=    40.00 Ry     beta= 0.40
     Davidson diagonalization with overlap

---- Real-time Memory Report at c_bands before calling an iterative solver
           435 MiB given to the printing process from OS
             0 MiB allocation reported by mallinfo(arena+hblkhd)
          8328 MiB available memory on the node where the printing process lives
------------------
     ethr =  2.12E-07,  avg # of iterations =  3.0

     negative rho (up, down):  4.610E-03 0.000E+00

     total cpu time spent up to now is    90585.3 secs

     total energy              =  -22314.70890136 Ry
     estimated scf accuracy    <       0.00042963 Ry

     iteration #  3     ecut=    40.00 Ry     beta= 0.40
     Davidson diagonalization with overlap

---- Real-time Memory Report at c_bands before calling an iterative solver
           435 MiB given to the printing process from OS
             0 MiB allocation reported by mallinfo(arena+hblkhd)
          8305 MiB available memory on the node where the printing process lives
------------------
