--------------------------------------------------------------------------
By default, for Open MPI 4.0 and later, infiniband ports on a device
are not used by default.  The intent is to use UCX for these devices.
You can override this policy by setting the btl_openib_allow_ib MCA parameter
to true.

  Local host:              psid01
  Local adapter:           mlx5_0
  Local port:              1

--------------------------------------------------------------------------
--------------------------------------------------------------------------
WARNING: There was an error initializing an OpenFabrics device.

  Local host:   psid01
  Local device: mlx5_0
--------------------------------------------------------------------------

     Program PWSCF v.7.3.1 starts on 26Mar2025 at 15:27:33 

     This program is part of the open-source Quantum ESPRESSO suite
     for quantum simulation of materials; please cite
         "P. Giannozzi et al., J. Phys.:Condens. Matter 21 395502 (2009);
         "P. Giannozzi et al., J. Phys.:Condens. Matter 29 465901 (2017);
         "P. Giannozzi et al., J. Chem. Phys. 152 154105 (2020);
          URL http://www.quantum-espresso.org", 
     in publications or presentations arising from this work. More details at
     http://www.quantum-espresso.org/quote

     Parallel version (MPI), running on    33 processors

     MPI processes distributed on     1 nodes
     36044 MiB available memory on the printing compute node when the environment starts

     Waiting for input...
     Reading input from standard input

     Current dimensions of program PWSCF are:
     Max number of different atomic species (ntypx) = 10
     Max number of k-points (npk) =  40000
     Max angular momentum in pseudopotentials (lmaxx) =  4
     Found identity + ( -0.5000  0.0000  0.0000) symmetry
     This is a supercell, fractional translations are disabled

     R & G space division:  proc/nbgrp/npool/nimage =      33
     Subspace diagonalization in iterative solution of the eigenvalue problem:
     one sub-group per band group will be used
     custom distributed-memory algorithm (size of sub-group:  5*  5 procs)


     Parallelization info
     --------------------
     sticks:   dense  smooth     PW     G-vecs:    dense   smooth      PW
     Min         228     130     36                36393    15714    2270
     Max         230     131     37                36401    15723    2280
     Sum        7555    4303   1189              1201061   518755   75035

     Using Slab Decomposition



     bravais-lattice index     =            0
     lattice parameter (alat)  =      19.7617  a.u.
     unit-cell volume          =   15176.5939 (a.u.)^3
     number of atoms/cell      =           48
     number of atomic types    =            1
     number of electrons       =       960.00
     number of Kohn-Sham states=          576
     kinetic-energy cutoff     =      40.0000  Ry
     charge density cutoff     =     280.0000  Ry
     scf convergence threshold =      1.0E-06
     mixing beta               =       0.4000
     number of iterations used =            8  plain     mixing
     Exchange-correlation= SLA  PW   PBE  PBE
                           (   1   4   3   4   0   0   0)

     celldm(1)=  19.761696  celldm(2)=   0.000000  celldm(3)=   0.000000
     celldm(4)=   0.000000  celldm(5)=   0.000000  celldm(6)=   0.000000

     crystal axes: (cart. coord. in units of alat)
               a(1) = (   1.000000   0.000000   0.000000 )  
               a(2) = (  -0.500000   0.866025   0.000000 )  
               a(3) = (   0.000000   0.000000   2.270759 )  

     reciprocal axes: (cart. coord. in units 2 pi/alat)
               b(1) = (  1.000000  0.577350 -0.000000 )  
               b(2) = (  0.000000  1.154701  0.000000 )  
               b(3) = (  0.000000 -0.000000  0.440381 )  


     PseudoPot. # 1 for Zn read from file:
     /home/ys/qepseudo/SSSP_1.3.0_PBE_efficiency/Zn_pbe_v1.uspp.F.UPF
     MD5 check sum: df62231357ef9e81f77b2b3087fa5675
     Pseudo is Ultrasoft, Zval = 20.0
     Generated by new atomic code, or converted to UPF format
     Using radial grid of  943 points,  6 beta functions with: 
                l(1) =   0
                l(2) =   0
                l(3) =   1
                l(4) =   1
                l(5) =   2
                l(6) =   2
     Q(r) pseudized with  8 coefficients,  rinner =    1.100   1.100   1.100
                                                       1.100   1.100

     atomic species   valence    mass     pseudopotential
     Zn               20.00    65.38000     Zn( 1.00)

     No symmetry found


                                    s                        frac. trans.

      isym =  1     identity                                     

 cryst.   s( 1) = (     1          0          0      )
                  (     0          1          0      )
                  (     0          0          1      )

 cart.    s( 1) = (  1.0000000  0.0000000  0.0000000 )
                  (  0.0000000  1.0000000  0.0000000 )
                  (  0.0000000  0.0000000  1.0000000 )


   Cartesian axes

     site n.     atom                  positions (alat units)
         1        Zn     tau(   1) = (   0.0000000   0.1443375   0.1164998  )
         2        Zn     tau(   2) = (   0.5000000   0.1443375   0.1164998  )
         3        Zn     tau(   3) = (   0.0000000   0.1443375   0.5824993  )
         4        Zn     tau(   4) = (   0.5000000   0.1443375   0.5824993  )
         5        Zn     tau(   5) = (  -0.1250000   0.3608439   0.1164998  )
         6        Zn     tau(   6) = (   0.3750000   0.3608439   0.1164998  )
         7        Zn     tau(   7) = (  -0.1250000   0.3608439   0.5824993  )
         8        Zn     tau(   8) = (   0.3750000   0.3608439   0.5824993  )
         9        Zn     tau(   9) = (  -0.2500000   0.5773502   0.1164998  )
        10        Zn     tau(  10) = (   0.2500000   0.5773502   0.1164998  )
        11        Zn     tau(  11) = (  -0.2500000   0.5773502   0.5824993  )
        12        Zn     tau(  12) = (   0.2500000   0.5773502   0.5824993  )
        13        Zn     tau(  13) = (  -0.3750000   0.7938567   0.1164998  )
        14        Zn     tau(  14) = (   0.1250000   0.7938567   0.1164998  )
        15        Zn     tau(  15) = (  -0.3750000   0.7938567   0.5824993  )
        16        Zn     tau(  16) = (   0.1250000   0.7938567   0.5824993  )
        17        Zn     tau(  17) = (   0.2500000   0.1443375   0.1164998  )
        18        Zn     tau(  18) = (   0.7500000   0.1443375   0.1164998  )
        19        Zn     tau(  19) = (   0.2500000   0.1443375   0.5824993  )
        20        Zn     tau(  20) = (   0.7500000   0.1443375   0.5824993  )
        21        Zn     tau(  21) = (   0.1250000   0.3608439   0.1164998  )
        22        Zn     tau(  22) = (   0.6250000   0.3608439   0.1164998  )
        23        Zn     tau(  23) = (   0.1250000   0.3608439   0.5824993  )
        24        Zn     tau(  24) = (   0.6250000   0.3608439   0.5824993  )
        25        Zn     tau(  25) = (   0.0000000   0.5773502   0.1164998  )
        26        Zn     tau(  26) = (   0.5000000   0.5773502   0.1164998  )
        27        Zn     tau(  27) = (   0.0000000   0.5773502   0.5824993  )
        28        Zn     tau(  28) = (   0.5000000   0.5773502   0.5824993  )
        29        Zn     tau(  29) = (  -0.1250000   0.7938567   0.1164998  )
        30        Zn     tau(  30) = (   0.3750000   0.7938567   0.1164998  )
        31        Zn     tau(  31) = (  -0.1250000   0.7938567   0.5824993  )
        32        Zn     tau(  32) = (   0.3750000   0.7938567   0.5824993  )
        33        Zn     tau(  33) = (   0.1250000   0.0721688   0.3494996  )
        34        Zn     tau(  34) = (   0.6250000   0.0721688   0.3494996  )
        35        Zn     tau(  35) = (   0.0000000   0.2886752   0.3494996  )
        36        Zn     tau(  36) = (   0.5000000   0.2886752   0.3494996  )
        37        Zn     tau(  37) = (  -0.1250000   0.5051815   0.3494996  )
        38        Zn     tau(  38) = (   0.3750000   0.5051815   0.3494996  )
        39        Zn     tau(  39) = (  -0.2500000   0.7216879   0.3494996  )
        40        Zn     tau(  40) = (   0.2500000   0.7216879   0.3494996  )
        41        Zn     tau(  41) = (   0.3750000   0.0721688   0.3494996  )
        42        Zn     tau(  42) = (   0.8750000   0.0721688   0.3494996  )
        43        Zn     tau(  43) = (   0.2500000   0.2886752   0.3494996  )
        44        Zn     tau(  44) = (   0.7500000   0.2886752   0.3494996  )
        45        Zn     tau(  45) = (   0.1250000   0.5051815   0.3494996  )
        46        Zn     tau(  46) = (   0.6250000   0.5051815   0.3494996  )
        47        Zn     tau(  47) = (   0.0000000   0.7216879   0.3494996  )
        48        Zn     tau(  48) = (   0.5000000   0.7216879   0.3494996  )

   Crystallographic axes

     site n.     atom                  positions (cryst. coord.)
         1        Zn     tau(   1) = (  0.0833333  0.1666666  0.0513044  )
         2        Zn     tau(   2) = (  0.5833333  0.1666666  0.0513044  )
         3        Zn     tau(   3) = (  0.0833333  0.1666666  0.2565219  )
         4        Zn     tau(   4) = (  0.5833333  0.1666666  0.2565219  )
         5        Zn     tau(   5) = (  0.0833333  0.4166666  0.0513044  )
         6        Zn     tau(   6) = (  0.5833333  0.4166666  0.0513044  )
         7        Zn     tau(   7) = (  0.0833333  0.4166666  0.2565219  )
         8        Zn     tau(   8) = (  0.5833333  0.4166666  0.2565219  )
         9        Zn     tau(   9) = (  0.0833333  0.6666666  0.0513044  )
        10        Zn     tau(  10) = (  0.5833333  0.6666666  0.0513044  )
        11        Zn     tau(  11) = (  0.0833333  0.6666666  0.2565219  )
        12        Zn     tau(  12) = (  0.5833333  0.6666666  0.2565219  )
        13        Zn     tau(  13) = (  0.0833333  0.9166667  0.0513044  )
        14        Zn     tau(  14) = (  0.5833334  0.9166667  0.0513044  )
        15        Zn     tau(  15) = (  0.0833333  0.9166667  0.2565219  )
        16        Zn     tau(  16) = (  0.5833334  0.9166667  0.2565219  )
        17        Zn     tau(  17) = (  0.3333333  0.1666666  0.0513044  )
        18        Zn     tau(  18) = (  0.8333334  0.1666666  0.0513044  )
        19        Zn     tau(  19) = (  0.3333333  0.1666666  0.2565219  )
        20        Zn     tau(  20) = (  0.8333334  0.1666666  0.2565219  )
        21        Zn     tau(  21) = (  0.3333333  0.4166666  0.0513044  )
        22        Zn     tau(  22) = (  0.8333333  0.4166666  0.0513044  )
        23        Zn     tau(  23) = (  0.3333333  0.4166666  0.2565219  )
        24        Zn     tau(  24) = (  0.8333333  0.4166666  0.2565219  )
        25        Zn     tau(  25) = (  0.3333333  0.6666666  0.0513044  )
        26        Zn     tau(  26) = (  0.8333333  0.6666666  0.0513044  )
        27        Zn     tau(  27) = (  0.3333333  0.6666666  0.2565219  )
        28        Zn     tau(  28) = (  0.8333333  0.6666666  0.2565219  )
        29        Zn     tau(  29) = (  0.3333334  0.9166667  0.0513044  )
        30        Zn     tau(  30) = (  0.8333334  0.9166667  0.0513044  )
        31        Zn     tau(  31) = (  0.3333334  0.9166667  0.2565219  )
        32        Zn     tau(  32) = (  0.8333334  0.9166667  0.2565219  )
        33        Zn     tau(  33) = (  0.1666667  0.0833334  0.1539131  )
        34        Zn     tau(  34) = (  0.6666667  0.0833334  0.1539131  )
        35        Zn     tau(  35) = (  0.1666667  0.3333334  0.1539131  )
        36        Zn     tau(  36) = (  0.6666667  0.3333334  0.1539131  )
        37        Zn     tau(  37) = (  0.1666667  0.5833334  0.1539131  )
        38        Zn     tau(  38) = (  0.6666667  0.5833334  0.1539131  )
        39        Zn     tau(  39) = (  0.1666667  0.8333334  0.1539131  )
        40        Zn     tau(  40) = (  0.6666667  0.8333334  0.1539131  )
        41        Zn     tau(  41) = (  0.4166667  0.0833334  0.1539131  )
        42        Zn     tau(  42) = (  0.9166667  0.0833334  0.1539131  )
        43        Zn     tau(  43) = (  0.4166667  0.3333334  0.1539131  )
        44        Zn     tau(  44) = (  0.9166667  0.3333334  0.1539131  )
        45        Zn     tau(  45) = (  0.4166667  0.5833334  0.1539131  )
        46        Zn     tau(  46) = (  0.9166667  0.5833334  0.1539131  )
        47        Zn     tau(  47) = (  0.4166667  0.8333334  0.1539131  )
        48        Zn     tau(  48) = (  0.9166667  0.8333334  0.1539131  )

     number of k points=    10  Marzari-Vanderbilt smearing, width (Ry)=  0.0800
                       cart. coord. in units 2pi/alat
        k(    1) = (   0.0000000   0.0000000   0.0000000), wk =   0.1250000
        k(    2) = (   0.0000000   0.2886751   0.0000000), wk =   0.2500000
        k(    3) = (   0.0000000  -0.5773503   0.0000000), wk =   0.1250000
        k(    4) = (   0.2500000   0.1443376   0.0000000), wk =   0.2500000
        k(    5) = (   0.2500000   0.4330127   0.0000000), wk =   0.2500000
        k(    6) = (   0.2500000  -0.4330127   0.0000000), wk =   0.2500000
        k(    7) = (   0.2500000  -0.1443376   0.0000000), wk =   0.2500000
        k(    8) = (  -0.5000000  -0.2886751   0.0000000), wk =   0.1250000
        k(    9) = (  -0.5000000   0.0000000   0.0000000), wk =   0.2500000
        k(   10) = (  -0.5000000  -0.8660254   0.0000000), wk =   0.1250000

                       cryst. coord.
        k(    1) = (   0.0000000   0.0000000   0.0000000), wk =   0.1250000
        k(    2) = (   0.0000000   0.2500000   0.0000000), wk =   0.2500000
        k(    3) = (   0.0000000  -0.5000000   0.0000000), wk =   0.1250000
        k(    4) = (   0.2500000   0.0000000   0.0000000), wk =   0.2500000
        k(    5) = (   0.2500000   0.2500000   0.0000000), wk =   0.2500000
        k(    6) = (   0.2500000  -0.5000000   0.0000000), wk =   0.2500000
        k(    7) = (   0.2500000  -0.2500000   0.0000000), wk =   0.2500000
        k(    8) = (  -0.5000000   0.0000000   0.0000000), wk =   0.1250000
        k(    9) = (  -0.5000000   0.2500000   0.0000000), wk =   0.2500000
        k(   10) = (  -0.5000000  -0.5000000   0.0000000), wk =   0.1250000

     Dense  grid:  1201061 G-vectors     FFT dimensions: ( 108, 108, 240)

     Smooth grid:   518755 G-vectors     FFT dimensions: (  80,  80, 192)

     Dynamical RAM for                 wfc:      17.26 MB

     Dynamical RAM for     wfc (w. buffer):     189.88 MB

     Dynamical RAM for           str. fact:       0.56 MB

     Dynamical RAM for           local pot:       0.00 MB

     Dynamical RAM for          nlocal pot:      25.89 MB

     Dynamical RAM for                qrad:       1.34 MB

     Dynamical RAM for          rho,v,vnew:       3.80 MB

     Dynamical RAM for               rhoin:       1.27 MB

     Dynamical RAM for            rho*nmix:       8.89 MB

     Dynamical RAM for           G-vectors:       2.20 MB

     Dynamical RAM for          h,s,v(r/c):       2.42 MB

     Dynamical RAM for          <psi|beta>:       7.59 MB

     Dynamical RAM for                 psi:      34.52 MB

     Dynamical RAM for                hpsi:      34.52 MB

     Dynamical RAM for                spsi:      34.52 MB

     Dynamical RAM for      wfcinit/wfcrot:      46.32 MB

     Dynamical RAM for           addusdens:     129.95 MB

     Estimated static dynamical RAM per process >     229.61 MB

     Estimated max dynamical RAM per process >     368.45 MB

     Estimated total dynamical RAM >      11.87 GB

     Initial potential from superposition of free atoms

     starting charge     959.9932, renormalised to     960.0000

     negative rho (up, down):  4.194E-03 0.000E+00
     Starting wfcs are  624 randomized atomic wfcs
[psid01:03717] 32 more processes have sent help message help-mpi-btl-openib.txt / ib port not selected
[psid01:03717] Set MCA parameter "orte_base_help_aggregate" to 0 to see all help / error messages
[psid01:03717] 32 more processes have sent help message help-mpi-btl-openib.txt / error in device init

     total cpu time spent up to now is      116.7 secs

     Self-consistent Calculation

     iteration #  1     ecut=    40.00 Ry     beta= 0.40
     Davidson diagonalization with overlap

---- Real-time Memory Report at c_bands before calling an iterative solver
           298 MiB given to the printing process from OS
             0 MiB allocation reported by mallinfo(arena+hblkhd)
         28016 MiB available memory on the node where the printing process lives
------------------
     ethr =  1.00E-02,  avg # of iterations =  9.4

     Threshold (ethr) on eigenvalues was too large:
     Diagonalizing with lowered threshold

     Davidson diagonalization with overlap

---- Real-time Memory Report at c_bands before calling an iterative solver
           391 MiB given to the printing process from OS
             0 MiB allocation reported by mallinfo(arena+hblkhd)
         26873 MiB available memory on the node where the printing process lives
------------------
     ethr =  1.60E-04,  avg # of iterations = 11.6

     negative rho (up, down):  4.969E-03 0.000E+00

     total cpu time spent up to now is     1485.2 secs

     total energy              =  -22153.83032098 Ry
     estimated scf accuracy    <       1.56430356 Ry

     iteration #  2     ecut=    40.00 Ry     beta= 0.40
     Davidson diagonalization with overlap

---- Real-time Memory Report at c_bands before calling an iterative solver
           401 MiB given to the printing process from OS
             0 MiB allocation reported by mallinfo(arena+hblkhd)
         26779 MiB available memory on the node where the printing process lives
------------------
     ethr =  1.63E-04,  avg # of iterations =  2.0

     negative rho (up, down):  5.507E-03 0.000E+00

     total cpu time spent up to now is     2240.7 secs

     total energy              =  -22154.20727023 Ry
     estimated scf accuracy    <       0.27793558 Ry

     iteration #  3     ecut=    40.00 Ry     beta= 0.40
     Davidson diagonalization with overlap

---- Real-time Memory Report at c_bands before calling an iterative solver
           404 MiB given to the printing process from OS
             0 MiB allocation reported by mallinfo(arena+hblkhd)
         26769 MiB available memory on the node where the printing process lives
------------------
     c_bands:  1 eigenvalues not converged
     ethr =  2.90E-05,  avg # of iterations =  8.5

     negative rho (up, down):  5.794E-03 0.000E+00

     total cpu time spent up to now is     2939.8 secs

     total energy              =  -22154.22350106 Ry
     estimated scf accuracy    <       0.04946141 Ry

     iteration #  4     ecut=    40.00 Ry     beta= 0.40
     Davidson diagonalization with overlap

---- Real-time Memory Report at c_bands before calling an iterative solver
           404 MiB given to the printing process from OS
             0 MiB allocation reported by mallinfo(arena+hblkhd)
         26740 MiB available memory on the node where the printing process lives
------------------
     ethr =  5.15E-06,  avg # of iterations = 10.4

     negative rho (up, down):  5.954E-03 0.000E+00

     total cpu time spent up to now is     3669.1 secs

     total energy              =  -22154.22223709 Ry
     estimated scf accuracy    <       0.04714643 Ry

     iteration #  5     ecut=    40.00 Ry     beta= 0.40
     Davidson diagonalization with overlap

---- Real-time Memory Report at c_bands before calling an iterative solver
           405 MiB given to the printing process from OS
             0 MiB allocation reported by mallinfo(arena+hblkhd)
         26729 MiB available memory on the node where the printing process lives
------------------
     ethr =  4.91E-06,  avg # of iterations =  3.4

     negative rho (up, down):  5.998E-03 0.000E+00

     total cpu time spent up to now is     4364.8 secs

     total energy              =  -22154.22724150 Ry
     estimated scf accuracy    <       0.00231589 Ry

     iteration #  6     ecut=    40.00 Ry     beta= 0.40
     Davidson diagonalization with overlap

---- Real-time Memory Report at c_bands before calling an iterative solver
           405 MiB given to the printing process from OS
             0 MiB allocation reported by mallinfo(arena+hblkhd)
         26711 MiB available memory on the node where the printing process lives
------------------
     ethr =  2.41E-07,  avg # of iterations =  2.3

     negative rho (up, down):  6.029E-03 0.000E+00

     total cpu time spent up to now is     5116.4 secs

     total energy              =  -22154.22758823 Ry
     estimated scf accuracy    <       0.00023421 Ry

     iteration #  7     ecut=    40.00 Ry     beta= 0.40
     Davidson diagonalization with overlap

---- Real-time Memory Report at c_bands before calling an iterative solver
           406 MiB given to the printing process from OS
             0 MiB allocation reported by mallinfo(arena+hblkhd)
         26692 MiB available memory on the node where the printing process lives
------------------
     ethr =  2.44E-08,  avg # of iterations =  2.3

     negative rho (up, down):  6.052E-03 0.000E+00

     total cpu time spent up to now is     5845.3 secs

     total energy              =  -22154.22759276 Ry
     estimated scf accuracy    <       0.00138335 Ry

     iteration #  8     ecut=    40.00 Ry     beta= 0.40
     Davidson diagonalization with overlap

---- Real-time Memory Report at c_bands before calling an iterative solver
           406 MiB given to the printing process from OS
             0 MiB allocation reported by mallinfo(arena+hblkhd)
         26674 MiB available memory on the node where the printing process lives
------------------
     ethr =  2.44E-08,  avg # of iterations =  2.0

     negative rho (up, down):  6.068E-03 0.000E+00

     total cpu time spent up to now is     6497.3 secs

     total energy              =  -22154.22764151 Ry
     estimated scf accuracy    <       0.00006364 Ry

     iteration #  9     ecut=    40.00 Ry     beta= 0.40
     Davidson diagonalization with overlap

---- Real-time Memory Report at c_bands before calling an iterative solver
           407 MiB given to the printing process from OS
             0 MiB allocation reported by mallinfo(arena+hblkhd)
         26659 MiB available memory on the node where the printing process lives
------------------
     ethr =  6.63E-09,  avg # of iterations =  2.6

     negative rho (up, down):  6.078E-03 0.000E+00

     total cpu time spent up to now is     7348.0 secs

     total energy              =  -22154.22765910 Ry
     estimated scf accuracy    <       0.00002263 Ry

     iteration # 10     ecut=    40.00 Ry     beta= 0.40
     Davidson diagonalization with overlap

---- Real-time Memory Report at c_bands before calling an iterative solver
           407 MiB given to the printing process from OS
             0 MiB allocation reported by mallinfo(arena+hblkhd)
         26642 MiB available memory on the node where the printing process lives
------------------
     ethr =  2.36E-09,  avg # of iterations =  2.0

     negative rho (up, down):  6.086E-03 0.000E+00

     total cpu time spent up to now is     8156.9 secs

     total energy              =  -22154.22766592 Ry
     estimated scf accuracy    <       0.00000202 Ry

     iteration # 11     ecut=    40.00 Ry     beta= 0.40
     Davidson diagonalization with overlap

---- Real-time Memory Report at c_bands before calling an iterative solver
           408 MiB given to the printing process from OS
             0 MiB allocation reported by mallinfo(arena+hblkhd)
         26640 MiB available memory on the node where the printing process lives
------------------
     ethr =  2.10E-10,  avg # of iterations =  1.0

     negative rho (up, down):  6.090E-03 0.000E+00

     total cpu time spent up to now is     8627.2 secs

     total energy              =  -22154.22766542 Ry
     estimated scf accuracy    <       0.00000121 Ry

     iteration # 12     ecut=    40.00 Ry     beta= 0.40
     Davidson diagonalization with overlap

---- Real-time Memory Report at c_bands before calling an iterative solver
           408 MiB given to the printing process from OS
             0 MiB allocation reported by mallinfo(arena+hblkhd)
         26639 MiB available memory on the node where the printing process lives
------------------
     ethr =  1.26E-10,  avg # of iterations =  2.0

     negative rho (up, down):  6.097E-03 0.000E+00

     total cpu time spent up to now is     9396.5 secs

     End of self-consistent calculation

          k = 0.0000 0.0000 0.0000 ( 64855 PWs)   bands (ev):

  -125.0876-125.0859-125.0859-125.0859-125.0859-125.0859-125.0859-125.0842
  -125.0842-125.0842-125.0842-125.0841-125.0841-125.0841-125.0841-125.0841
  -124.8807-124.8807-124.8790-124.8790-124.8789-124.8789-124.8789-124.8789
  -124.8789-124.8789-124.8789-124.8789-124.8789-124.8789-124.8772-124.8772
  -124.8772-124.8772-124.8772-124.8772-124.8772-124.8772-124.8772-124.8772
  -124.8772-124.8772-124.8772-124.8772-124.8772-124.8772-124.8772-124.8772
   -79.2535 -79.2535 -79.2535 -79.2469 -79.2469 -79.2468 -79.2468 -79.2468
   -79.2468 -79.2369 -79.2355 -79.2355 -79.2355 -79.2355 -79.2355 -79.2355
   -79.2350 -79.2350 -79.2350 -79.2349 -79.2349 -79.2349 -79.2335 -79.2335
   -79.2335 -79.2335 -79.2335 -79.2335 -79.2330 -79.2330 -79.2330 -79.2330
   -79.2330 -79.2330 -79.2330 -79.2329 -79.2329 -79.2269 -79.2269 -79.2269
   -79.2221 -79.2221 -79.2221 -79.2221 -79.2221 -79.2221 -79.2174 -79.2174
   -79.0443 -79.0443 -79.0443 -79.0443 -79.0443 -79.0443 -79.0377 -79.0377
   -79.0377 -79.0377 -79.0377 -79.0377 -79.0376 -79.0376 -79.0376 -79.0376
   -79.0376 -79.0376 -79.0364 -79.0362 -79.0345 -79.0345 -79.0345 -79.0345
   -79.0345 -79.0345 -79.0344 -79.0344 -79.0344 -79.0344 -79.0344 -79.0344
   -79.0326 -79.0326 -79.0326 -79.0326 -79.0326 -79.0326 -79.0326 -79.0326
   -79.0326 -79.0326 -79.0326 -79.0325 -79.0325 -79.0325 -79.0325 -79.0325
   -79.0325 -79.0325 -79.0263 -79.0263 -79.0263 -79.0263 -79.0263 -79.0263
   -79.0263 -79.0263 -79.0263 -79.0263 -79.0263 -79.0263 -79.0243 -79.0243
   -79.0243 -79.0243 -79.0243 -79.0243 -79.0243 -79.0243 -79.0243 -79.0243
   -79.0243 -79.0243 -79.0177 -79.0177 -79.0177 -79.0177 -79.0177 -79.0177
   -79.0130 -79.0130 -79.0130 -79.0130 -79.0130 -79.0130 -79.0130 -79.0130
   -79.0130 -79.0130 -79.0130 -79.0130 -79.0083 -79.0083 -79.0083 -79.0083
    -8.6480  -7.4205  -7.1111  -7.0928  -7.0928  -7.0928  -7.0928  -7.0928
    -7.0928  -6.9342  -6.9342  -6.9342  -6.7458  -6.7458  -6.7458  -6.6970
    -6.6970  -6.6970  -6.6090  -6.6090  -6.6090  -6.6089  -6.6089  -6.6089
    -6.5603  -6.5603  -6.5603  -6.5603  -6.5603  -6.5603  -6.5561  -6.5561
    -6.5561  -6.5005  -6.5005  -6.5005  -6.5005  -6.5004  -6.5004  -6.4517
    -6.4517  -6.4517  -6.4517  -6.4517  -6.4517  -6.3556  -6.3556  -6.3556
    -6.3556  -6.3556  -6.3556  -6.3527  -6.3527  -6.3527  -6.2935  -6.2935
    -6.2935  -6.2935  -6.2935  -6.2935  -6.2901  -6.2310  -6.2310  -6.2310
    -6.2310  -6.2310  -6.2310  -6.1908  -6.1908  -6.1908  -6.1908  -6.1908
    -6.1908  -6.1651  -6.1651  -6.1651  -6.1651  -6.1651  -6.1651  -6.1416
    -6.1415  -6.1415  -6.1415  -6.1415  -6.1415  -6.1415  -6.1415  -6.1159
    -6.1159  -6.1159  -6.1159  -6.1159  -6.1159  -6.1154  -6.1154  -6.1154
    -6.0132  -6.0132  -6.0132  -6.0132  -6.0132  -6.0132  -5.9350  -5.9350
    -5.9161  -5.9161  -5.8835  -5.8835  -5.8835  -5.8835  -5.8835  -5.8835
    -5.8815  -5.8815  -5.8815  -5.8815  -5.8815  -5.8815  -5.8525  -5.8525
    -5.8525  -5.8004  -5.8004  -5.8004  -5.8004  -5.8004  -5.8004  -5.7946
    -5.7946  -5.7946  -5.7946  -5.7946  -5.7946  -5.7944  -5.7944  -5.7944
    -5.7944  -5.7944  -5.7944  -5.7720  -5.7720  -5.7720  -5.7719  -5.7719
    -5.7719  -5.7655  -5.7655  -5.7655  -5.7655  -5.7655  -5.7655  -5.7473
    -5.7473  -5.7473  -5.7473  -5.7473  -5.7473  -5.7353  -5.7267  -5.7267
    -5.7267  -5.7267  -5.7267  -5.7267  -5.7159  -5.7159  -5.7159  -5.6311
    -5.6311  -5.5935  -5.5935  -5.5934  -5.5934  -5.5934  -5.5934  -5.5869
    -5.5869  -5.5869  -5.5869  -5.5869  -5.5869  -5.5630  -5.5630  -5.5630
    -5.5630  -5.5630  -5.5630  -5.5467  -5.5467  -5.5467  -5.5208  -5.5208
    -5.5208  -5.5208  -5.5208  -5.5208  -5.5121  -5.5121  -5.5121  -5.5121
    -5.5121  -5.5121  -5.4631  -5.4631  -5.4631  -5.4631  -5.4631  -5.4631
    -5.4520  -5.4520  -5.4520  -5.4513  -5.4513  -5.4513  -5.4142  -5.4142
    -5.4142  -5.4090  -5.4090  -5.4090  -5.4090  -5.4090  -5.4090  -5.4006
    -5.4006  -5.3797  -5.3797  -5.3371  -5.3371  -5.3371  -5.3371  -5.3371
    -5.3371  -5.3086  -5.3086  -5.3086  -5.3086  -5.3086  -5.3086  -5.3003
    -5.3003  -5.3003  -5.0897  -5.0897  -5.0897  -5.0896  -5.0896  -5.0896
    -4.4169  -4.4169  -4.4169  -4.4169  -4.4169  -4.4169  -3.4616  -2.1274
    -2.1274  -2.1274  -2.1274  -2.1274  -2.1274  -2.0335  -2.0335  -2.0335
    -2.0335  -2.0335  -2.0335  -0.8671  -0.8671  -0.8671  -0.7242  -0.6606
    -0.6606  -0.6606  -0.6606  -0.6606  -0.6606  -0.1080  -0.1080  -0.1080
     0.2241   0.2241   0.2241   1.5217   1.5217   1.5217   1.5217   1.5217
     1.5217   1.5674   1.5674   1.5674   1.5674   1.5674   1.5674   2.2882
     2.2882   2.2882   3.0989   3.2843   3.2843   3.2843   4.1296   4.1296
     4.1296   4.8759   4.8759   4.8759   4.8759   4.8759   4.8759   5.0806
     5.2741   5.4097   5.4097   5.4097   5.4097   5.4097   5.4097   5.4127
     5.4127   5.4127   5.4127   5.4127   5.4127   5.5802   5.5802   5.5802
     5.5802   5.5802   5.5802   6.2057   6.4038   6.5504   6.5504   6.5504
     6.8785   6.8785   6.8785   6.8785   6.8785   6.8785   6.9886   6.9886
     6.9886   6.9886   6.9886   6.9886   7.1101   7.1101   7.1101   7.1101
     7.1101   7.1101   7.1701   7.1701   7.1701   7.1701   7.1701   7.1701
     8.0444   8.0444   8.0444   8.0444   8.0444   8.0444   8.1372   8.1372
     8.1372   8.1372   8.1372   8.1372   8.1909   8.1909   8.1909   8.1909
     8.1909   8.1909   8.2127   8.3598   8.3598   8.3598   8.3677   9.2586

     occupation numbers 
     1.0000   1.0000   1.0000   1.0000   1.0000   1.0000   1.0000   1.0000
     1.0000   1.0000   1.0000   1.0000   1.0000   1.0000   1.0000   1.0000
     1.0000   1.0000   1.0000   1.0000   1.0000   1.0000   1.0000   1.0000
     1.0000   1.0000   1.0000   1.0000   1.0000   1.0000   1.0000   1.0000
     1.0000   1.0000   1.0000   1.0000   1.0000   1.0000   1.0000   1.0000
     1.0000   1.0000   1.0000   1.0000   1.0000   1.0000   1.0000   1.0000
     1.0000   1.0000   1.0000   1.0000   1.0000   1.0000   1.0000   1.0000
     1.0000   1.0000   1.0000   1.0000   1.0000   1.0000   1.0000   1.0000
     1.0000   1.0000   1.0000   1.0000   1.0000   1.0000   1.0000   1.0000
     1.0000   1.0000   1.0000   1.0000   1.0000   1.0000   1.0000   1.0000
     1.0000   1.0000   1.0000   1.0000   1.0000   1.0000   1.0000   1.0000
     1.0000   1.0000   1.0000   1.0000   1.0000   1.0000   1.0000   1.0000
     1.0000   1.0000   1.0000   1.0000   1.0000   1.0000   1.0000   1.0000
     1.0000   1.0000   1.0000   1.0000   1.0000   1.0000   1.0000   1.0000
     1.0000   1.0000   1.0000   1.0000   1.0000   1.0000   1.0000   1.0000
     1.0000   1.0000   1.0000   1.0000   1.0000   1.0000   1.0000   1.0000
     1.0000   1.0000   1.0000   1.0000   1.0000   1.0000   1.0000   1.0000
     1.0000   1.0000   1.0000   1.0000   1.0000   1.0000   1.0000   1.0000
     1.0000   1.0000   1.0000   1.0000   1.0000   1.0000   1.0000   1.0000
     1.0000   1.0000   1.0000   1.0000   1.0000   1.0000   1.0000   1.0000
     1.0000   1.0000   1.0000   1.0000   1.0000   1.0000   1.0000   1.0000
     1.0000   1.0000   1.0000   1.0000   1.0000   1.0000   1.0000   1.0000
     1.0000   1.0000   1.0000   1.0000   1.0000   1.0000   1.0000   1.0000
     1.0000   1.0000   1.0000   1.0000   1.0000   1.0000   1.0000   1.0000
     1.0000   1.0000   1.0000   1.0000   1.0000   1.0000   1.0000   1.0000
     1.0000   1.0000   1.0000   1.0000   1.0000   1.0000   1.0000   1.0000
     1.0000   1.0000   1.0000   1.0000   1.0000   1.0000   1.0000   1.0000
     1.0000   1.0000   1.0000   1.0000   1.0000   1.0000   1.0000   1.0000
     1.0000   1.0000   1.0000   1.0000   1.0000   1.0000   1.0000   1.0000
     1.0000   1.0000   1.0000   1.0000   1.0000   1.0000   1.0000   1.0000
     1.0000   1.0000   1.0000   1.0000   1.0000   1.0000   1.0000   1.0000
     1.0000   1.0000   1.0000   1.0000   1.0000   1.0000   1.0000   1.0000
     1.0000   1.0000   1.0000   1.0000   1.0000   1.0000   1.0000   1.0000
     1.0000   1.0000   1.0000   1.0000   1.0000   1.0000   1.0000   1.0000
     1.0000   1.0000   1.0000   1.0000   1.0000   1.0000   1.0000   1.0000
     1.0000   1.0000   1.0000   1.0000   1.0000   1.0000   1.0000   1.0000
     1.0000   1.0000   1.0000   1.0000   1.0000   1.0000   1.0000   1.0000
     1.0000   1.0000   1.0000   1.0000   1.0000   1.0000   1.0000   1.0000
     1.0000   1.0000   1.0000   1.0000   1.0000   1.0000   1.0000   1.0000
     1.0000   1.0000   1.0000   1.0000   1.0000   1.0000   1.0000   1.0000
     1.0000   1.0000   1.0000   1.0000   1.0000   1.0000   1.0000   1.0000
     1.0000   1.0000   1.0000   1.0000   1.0000   1.0000   1.0000   1.0000
     1.0000   1.0000   1.0000   1.0000   1.0000   1.0000   1.0000   1.0000
     1.0000   1.0000   1.0000   1.0000   1.0000   1.0000   1.0000   1.0000
     1.0000   1.0000   1.0000   1.0000   1.0000   1.0000   1.0000   1.0000
     1.0000   1.0000   1.0000   1.0000   1.0000   1.0000   1.0000   1.0000
     1.0000   1.0000   1.0000   1.0000   1.0000   1.0000   1.0000   1.0000
     1.0000   1.0000   1.0000   1.0000   1.0000   1.0000   1.0000   1.0000
     1.0000   1.0000   1.0000   1.0000   1.0000   1.0000   1.0000   1.0000
     1.0000   1.0000   1.0000   1.0000   1.0000   1.0000   1.0000   1.0000
     1.0000   1.0000   1.0000   1.0000   1.0000   1.0000   1.0000   1.0000
     1.0000   1.0000   1.0000   1.0000   1.0000   1.0000   1.0000   1.0000
     1.0000   1.0000   1.0000   1.0000   1.0000   1.0000   1.0000   1.0000
     1.0000   1.0000   1.0000   1.0000   1.0000   1.0000   1.0000   1.0000
     1.0000   1.0000   1.0000   1.0000   1.0000   1.0000   1.0000   1.0000
     1.0000   1.0000   1.0000   1.0000   1.0000   1.0000   1.0000   1.0003
     1.0003   1.0003   1.0003   1.0003   1.0003   1.0004   1.0004   1.0004
     1.0004   1.0004   1.0004   1.0268   1.0268   1.0268   1.0368   1.0418
     1.0418   1.0418   1.0418   1.0418   1.0418   1.0822   1.0822   1.0822
     1.0672   1.0672   1.0672   0.3925   0.3925   0.3925   0.3925   0.3925
     0.3925   0.3645   0.3645   0.3645   0.3645   0.3645   0.3645   0.0747
     0.0747   0.0747   0.0047   0.0022   0.0022   0.0022   0.0000   0.0000
     0.0000   0.0000   0.0000   0.0000   0.0000   0.0000   0.0000   0.0000
     0.0000   0.0000   0.0000   0.0000   0.0000   0.0000   0.0000   0.0000
     0.0000   0.0000   0.0000   0.0000   0.0000   0.0000   0.0000   0.0000
     0.0000   0.0000   0.0000   0.0000   0.0000   0.0000   0.0000   0.0000
     0.0000   0.0000   0.0000   0.0000   0.0000   0.0000   0.0000   0.0000
     0.0000   0.0000   0.0000   0.0000   0.0000   0.0000   0.0000   0.0000
     0.0000   0.0000   0.0000   0.0000   0.0000   0.0000   0.0000   0.0000
     0.0000   0.0000   0.0000   0.0000   0.0000   0.0000   0.0000   0.0000
     0.0000   0.0000   0.0000   0.0000   0.0000   0.0000   0.0000   0.0000
     0.0000   0.0000   0.0000   0.0000   0.0000   0.0000   0.0000   0.0000

          k = 0.0000 0.2887 0.0000 ( 64808 PWs)   bands (ev):

  -125.0875-125.0866-125.0862-125.0862-125.0855-125.0855-125.0852-125.0845
  -125.0845-125.0843-125.0842-125.0842-125.0841-125.0841-125.0839-125.0839
  -124.8805-124.8805-124.8796-124.8796-124.8792-124.8792-124.8792-124.8792
  -124.8785-124.8785-124.8785-124.8785-124.8783-124.8783-124.8776-124.8776
  -124.8776-124.8776-124.8773-124.8773-124.8772-124.8772-124.8772-124.8772
  -124.8772-124.8772-124.8772-124.8772-124.8769-124.8769-124.8769-124.8769
   -79.2527 -79.2527 -79.2521 -79.2482 -79.2482 -79.2473 -79.2473 -79.2453
   -79.2453 -79.2424 -79.2392 -79.2392 -79.2368 -79.2365 -79.2365 -79.2357
   -79.2353 -79.2353 -79.2345 -79.2345 -79.2342 -79.2334 -79.2334 -79.2331
   -79.2330 -79.2330 -79.2330 -79.2329 -79.2327 -79.2327 -79.2324 -79.2324
   -79.2321 -79.2321 -79.2298 -79.2298 -79.2286 -79.2276 -79.2276 -79.2265
   -79.2239 -79.2236 -79.2236 -79.2217 -79.2217 -79.2203 -79.2188 -79.2178
   -79.0436 -79.0436 -79.0435 -79.0435 -79.0429 -79.0429 -79.0390 -79.0390
   -79.0390 -79.0390 -79.0381 -79.0381 -79.0380 -79.0380 -79.0363 -79.0362
   -79.0362 -79.0361 -79.0361 -79.0361 -79.0352 -79.0351 -79.0348 -79.0348
   -79.0347 -79.0347 -79.0340 -79.0340 -79.0340 -79.0340 -79.0337 -79.0337
   -79.0332 -79.0332 -79.0330 -79.0330 -79.0330 -79.0330 -79.0327 -79.0327
   -79.0326 -79.0326 -79.0326 -79.0326 -79.0326 -79.0325 -79.0325 -79.0325
   -79.0323 -79.0323 -79.0322 -79.0322 -79.0300 -79.0300 -79.0300 -79.0300
   -79.0274 -79.0274 -79.0273 -79.0273 -79.0233 -79.0233 -79.0233 -79.0233
   -79.0230 -79.0230 -79.0230 -79.0230 -79.0206 -79.0206 -79.0206 -79.0206
   -79.0194 -79.0194 -79.0185 -79.0185 -79.0185 -79.0185 -79.0174 -79.0174
   -79.0148 -79.0148 -79.0145 -79.0145 -79.0145 -79.0145 -79.0126 -79.0126
   -79.0125 -79.0125 -79.0112 -79.0112 -79.0097 -79.0097 -79.0087 -79.0086
    -8.5292  -7.6458  -7.3206  -7.2736  -7.2736  -7.0486  -6.9181  -6.8918
    -6.8918  -6.8705  -6.8685  -6.8685  -6.7270  -6.7122  -6.7122  -6.7108
    -6.6948  -6.6818  -6.6574  -6.6574  -6.6099  -6.6010  -6.5971  -6.5971
    -6.5874  -6.5874  -6.5685  -6.5685  -6.5488  -6.5488  -6.5400  -6.5400
    -6.5366  -6.5331  -6.5331  -6.5287  -6.5287  -6.5220  -6.5220  -6.5081
    -6.5081  -6.4821  -6.4821  -6.4428  -6.4428  -6.4154  -6.4154  -6.4013
    -6.4013  -6.3957  -6.3414  -6.3366  -6.3366  -6.3362  -6.3362  -6.3348
    -6.3348  -6.2875  -6.2875  -6.2791  -6.2717  -6.2492  -6.2492  -6.2430
    -6.2430  -6.2417  -6.2417  -6.2412  -6.2271  -6.2271  -6.2240  -6.2240
    -6.2146  -6.2146  -6.2043  -6.2043  -6.1991  -6.1972  -6.1972  -6.1748
    -6.1572  -6.1426  -6.1426  -6.1330  -6.1330  -6.1199  -6.1199  -6.1123
    -6.1085  -6.1085  -6.0960  -6.0827  -6.0827  -6.0688  -6.0688  -6.0679
    -6.0679  -5.9776  -5.9776  -5.9775  -5.9775  -5.9623  -5.9598  -5.9553
    -5.9549  -5.9528  -5.9528  -5.9432  -5.9432  -5.9312  -5.9294  -5.9294
    -5.9109  -5.9109  -5.9078  -5.9042  -5.9006  -5.8928  -5.8928  -5.8870
    -5.8664  -5.8664  -5.8570  -5.8570  -5.8455  -5.8313  -5.8143  -5.8143
    -5.8131  -5.8131  -5.8055  -5.8055  -5.7964  -5.7957  -5.7957  -5.7906
    -5.7906  -5.7746  -5.7746  -5.7655  -5.7655  -5.7600  -5.7490  -5.7490
    -5.7330  -5.7316  -5.7316  -5.7229  -5.7229  -5.7152  -5.7152  -5.7141
    -5.7141  -5.7100  -5.7100  -5.6969  -5.6856  -5.6856  -5.6753  -5.6620
    -5.6576  -5.6576  -5.6511  -5.6511  -5.6375  -5.6361  -5.6361  -5.6334
    -5.6334  -5.6313  -5.6285  -5.6237  -5.6237  -5.5985  -5.5806  -5.5783
    -5.5783  -5.5743  -5.5743  -5.5658  -5.5658  -5.5627  -5.5627  -5.5617
    -5.5617  -5.5604  -5.5448  -5.5448  -5.5431  -5.5392  -5.5392  -5.5305
    -5.5305  -5.5093  -5.5093  -5.4806  -5.4779  -5.4761  -5.4761  -5.4718
    -5.4718  -5.4696  -5.4696  -5.4570  -5.4570  -5.4484  -5.4434  -5.4434
    -5.4407  -5.4364  -5.4317  -5.4314  -5.4193  -5.4193  -5.4172  -5.4172
    -5.4057  -5.4051  -5.4051  -5.3981  -5.3855  -5.3855  -5.3819  -5.3768
    -5.3638  -5.3638  -5.3595  -5.3507  -5.3389  -5.3389  -5.3329  -5.3288
    -5.3288  -5.3192  -5.3192  -5.3114  -5.3114  -5.3009  -5.3009  -5.1634
    -5.1634  -5.1476  -5.1476  -5.1422  -5.1422  -5.1238  -5.1231  -4.9659
    -4.9556  -4.6574  -4.6574  -3.9008  -3.9008  -3.4999  -3.4167  -3.4167
    -3.3769  -2.6864  -2.3150  -2.3150  -2.2460  -2.0450  -2.0450  -1.9916
    -1.9916  -1.5285  -1.5285  -1.3164  -1.3164  -1.1308  -0.8156  -0.5972
    -0.5972  -0.5814  -0.5814  -0.5642   0.0030   0.0030   0.2547   0.2547
     0.5370   0.5370   0.6205   0.8574   0.8776   0.8776   1.1704   1.1704
     1.5413   1.5413   2.2129   2.2129   2.6272   2.6773   2.6773   2.7074
     2.7616   2.7616   2.9337   2.9337   3.2109   3.5252   3.6705   3.6705
     3.8846   3.8846   4.1041   4.1713   4.1713   4.5485   4.5485   4.7889
     4.7889   4.8222   4.8222   5.1269   5.1269   5.1403   5.1403   5.1934
     5.3891   5.4187   5.4187   5.5559   5.6299   5.7794   5.7794   5.7986
     6.0697   6.0697   6.0951   6.3007   6.3007   6.3081   6.3218   6.5163
     6.5446   6.5446   6.5742   6.5742   6.6861   6.7669   6.7669   6.9971
     6.9971   7.0732   7.0732   7.1636   7.1636   7.2465   7.2921   7.2921
     7.4143   7.4271   7.4271   7.4285   7.4285   7.6366   7.6366   7.6756
     7.6756   7.7059   7.7059   7.7399   7.8615   7.8615   7.9215   7.9215
     7.9997   7.9997   8.1423   8.2994   8.3282   8.4794   8.6418   8.6418
     8.6868   8.7116   8.7116   8.7947   8.7947   8.8161   8.8161   8.8208

     occupation numbers 
     1.0000   1.0000   1.0000   1.0000   1.0000   1.0000   1.0000   1.0000
     1.0000   1.0000   1.0000   1.0000   1.0000   1.0000   1.0000   1.0000
     1.0000   1.0000   1.0000   1.0000   1.0000   1.0000   1.0000   1.0000
     1.0000   1.0000   1.0000   1.0000   1.0000   1.0000   1.0000   1.0000
     1.0000   1.0000   1.0000   1.0000   1.0000   1.0000   1.0000   1.0000
     1.0000   1.0000   1.0000   1.0000   1.0000   1.0000   1.0000   1.0000
     1.0000   1.0000   1.0000   1.0000   1.0000   1.0000   1.0000   1.0000
     1.0000   1.0000   1.0000   1.0000   1.0000   1.0000   1.0000   1.0000
     1.0000   1.0000   1.0000   1.0000   1.0000   1.0000   1.0000   1.0000
     1.0000   1.0000   1.0000   1.0000   1.0000   1.0000   1.0000   1.0000
     1.0000   1.0000   1.0000   1.0000   1.0000   1.0000   1.0000   1.0000
     1.0000   1.0000   1.0000   1.0000   1.0000   1.0000   1.0000   1.0000
     1.0000   1.0000   1.0000   1.0000   1.0000   1.0000   1.0000   1.0000
     1.0000   1.0000   1.0000   1.0000   1.0000   1.0000   1.0000   1.0000
     1.0000   1.0000   1.0000   1.0000   1.0000   1.0000   1.0000   1.0000
     1.0000   1.0000   1.0000   1.0000   1.0000   1.0000   1.0000   1.0000
     1.0000   1.0000   1.0000   1.0000   1.0000   1.0000   1.0000   1.0000
     1.0000   1.0000   1.0000   1.0000   1.0000   1.0000   1.0000   1.0000
     1.0000   1.0000   1.0000   1.0000   1.0000   1.0000   1.0000   1.0000
     1.0000   1.0000   1.0000   1.0000   1.0000   1.0000   1.0000   1.0000
     1.0000   1.0000   1.0000   1.0000   1.0000   1.0000   1.0000   1.0000
     1.0000   1.0000   1.0000   1.0000   1.0000   1.0000   1.0000   1.0000
     1.0000   1.0000   1.0000   1.0000   1.0000   1.0000   1.0000   1.0000
     1.0000   1.0000   1.0000   1.0000   1.0000   1.0000   1.0000   1.0000
     1.0000   1.0000   1.0000   1.0000   1.0000   1.0000   1.0000   1.0000
     1.0000   1.0000   1.0000   1.0000   1.0000   1.0000   1.0000   1.0000
     1.0000   1.0000   1.0000   1.0000   1.0000   1.0000   1.0000   1.0000
     1.0000   1.0000   1.0000   1.0000   1.0000   1.0000   1.0000   1.0000
     1.0000   1.0000   1.0000   1.0000   1.0000   1.0000   1.0000   1.0000
     1.0000   1.0000   1.0000   1.0000   1.0000   1.0000   1.0000   1.0000
     1.0000   1.0000   1.0000   1.0000   1.0000   1.0000   1.0000   1.0000
     1.0000   1.0000   1.0000   1.0000   1.0000   1.0000   1.0000   1.0000
     1.0000   1.0000   1.0000   1.0000   1.0000   1.0000   1.0000   1.0000
     1.0000   1.0000   1.0000   1.0000   1.0000   1.0000   1.0000   1.0000
     1.0000   1.0000   1.0000   1.0000   1.0000   1.0000   1.0000   1.0000
     1.0000   1.0000   1.0000   1.0000   1.0000   1.0000   1.0000   1.0000
     1.0000   1.0000   1.0000   1.0000   1.0000   1.0000   1.0000   1.0000
     1.0000   1.0000   1.0000   1.0000   1.0000   1.0000   1.0000   1.0000
     1.0000   1.0000   1.0000   1.0000   1.0000   1.0000   1.0000   1.0000
     1.0000   1.0000   1.0000   1.0000   1.0000   1.0000   1.0000   1.0000
     1.0000   1.0000   1.0000   1.0000   1.0000   1.0000   1.0000   1.0000
     1.0000   1.0000   1.0000   1.0000   1.0000   1.0000   1.0000   1.0000
     1.0000   1.0000   1.0000   1.0000   1.0000   1.0000   1.0000   1.0000
     1.0000   1.0000   1.0000   1.0000   1.0000   1.0000   1.0000   1.0000
     1.0000   1.0000   1.0000   1.0000   1.0000   1.0000   1.0000   1.0000
     1.0000   1.0000   1.0000   1.0000   1.0000   1.0000   1.0000   1.0000
     1.0000   1.0000   1.0000   1.0000   1.0000   1.0000   1.0000   1.0000
     1.0000   1.0000   1.0000   1.0000   1.0000   1.0000   1.0000   1.0000
     1.0000   1.0000   1.0000   1.0000   1.0000   1.0000   1.0000   1.0000
     1.0000   1.0000   1.0000   1.0000   1.0000   1.0000   1.0000   1.0000
     1.0000   1.0000   1.0000   1.0000   1.0000   1.0000   1.0000   1.0000
     1.0000   1.0000   1.0000   1.0000   1.0000   1.0000   1.0000   1.0000
     1.0000   1.0000   1.0000   1.0000   1.0000   1.0000   1.0000   1.0000
     1.0000   1.0000   1.0000   1.0000   1.0000   1.0000   1.0000   1.0000
     1.0000   1.0000   1.0000   1.0000   1.0000   1.0000   1.0000   1.0000
     1.0000   1.0000   1.0000   1.0000   1.0000   1.0000   1.0000   1.0000
     1.0000   1.0000   1.0001   1.0001   1.0002   1.0004   1.0004   1.0005
     1.0005   1.0036   1.0036   1.0075   1.0075   1.0133   1.0302   1.0471
     1.0471   1.0484   1.0484   1.0499   1.0831   1.0831   1.0627   1.0627
     0.9890   0.9890   0.9555   0.8332   0.8212   0.8212   0.6286   0.6286
     0.3804   0.3804   0.0915   0.0915   0.0268   0.0226   0.0226   0.0204
     0.0169   0.0169   0.0090   0.0090   0.0030   0.0007   0.0004   0.0004
     0.0001   0.0001   0.0000   0.0000   0.0000   0.0000   0.0000   0.0000
     0.0000   0.0000   0.0000   0.0000   0.0000   0.0000   0.0000   0.0000
     0.0000   0.0000   0.0000   0.0000   0.0000   0.0000   0.0000   0.0000
     0.0000   0.0000   0.0000   0.0000   0.0000   0.0000   0.0000   0.0000
     0.0000   0.0000   0.0000   0.0000   0.0000   0.0000   0.0000   0.0000
     0.0000   0.0000   0.0000   0.0000   0.0000   0.0000   0.0000   0.0000
     0.0000   0.0000   0.0000   0.0000   0.0000   0.0000   0.0000   0.0000
     0.0000   0.0000   0.0000   0.0000   0.0000   0.0000   0.0000   0.0000
     0.0000   0.0000   0.0000   0.0000   0.0000   0.0000   0.0000   0.0000
     0.0000   0.0000   0.0000   0.0000   0.0000   0.0000   0.0000   0.0000

          k = 0.0000-0.5774 0.0000 ( 64842 PWs)   bands (ev):

  -125.0871-125.0871-125.0863-125.0862-125.0850-125.0850-125.0850-125.0850
  -125.0847-125.0846-125.0842-125.0842-125.0841-125.0841-125.0838-125.0838
  -124.8802-124.8802-124.8802-124.8802-124.8793-124.8793-124.8793-124.8793
  -124.8781-124.8781-124.8781-124.8781-124.8781-124.8781-124.8781-124.8781
  -124.8777-124.8777-124.8777-124.8777-124.8772-124.8772-124.8772-124.8772
  -124.8772-124.8772-124.8772-124.8772-124.8768-124.8768-124.8768-124.8768
   -79.2507 -79.2507 -79.2507 -79.2507 -79.2483 -79.2482 -79.2472 -79.2472
   -79.2427 -79.2427 -79.2427 -79.2427 -79.2378 -79.2378 -79.2364 -79.2363
   -79.2354 -79.2354 -79.2340 -79.2340 -79.2340 -79.2340 -79.2336 -79.2335
   -79.2330 -79.2330 -79.2330 -79.2329 -79.2326 -79.2326 -79.2312 -79.2312
   -79.2296 -79.2296 -79.2296 -79.2296 -79.2263 -79.2263 -79.2263 -79.2263
   -79.2255 -79.2255 -79.2227 -79.2227 -79.2217 -79.2217 -79.2188 -79.2188
   -79.0415 -79.0415 -79.0415 -79.0415 -79.0415 -79.0415 -79.0415 -79.0415
   -79.0391 -79.0390 -79.0390 -79.0390 -79.0380 -79.0380 -79.0380 -79.0380
   -79.0359 -79.0359 -79.0357 -79.0357 -79.0349 -79.0349 -79.0348 -79.0348
   -79.0336 -79.0336 -79.0336 -79.0336 -79.0335 -79.0335 -79.0335 -79.0335
   -79.0335 -79.0335 -79.0335 -79.0335 -79.0335 -79.0335 -79.0335 -79.0335
   -79.0331 -79.0331 -79.0331 -79.0331 -79.0326 -79.0326 -79.0326 -79.0326
   -79.0326 -79.0325 -79.0325 -79.0325 -79.0322 -79.0322 -79.0321 -79.0321
   -79.0286 -79.0286 -79.0286 -79.0286 -79.0220 -79.0220 -79.0220 -79.0220
   -79.0205 -79.0205 -79.0205 -79.0205 -79.0205 -79.0205 -79.0205 -79.0205
   -79.0172 -79.0172 -79.0172 -79.0172 -79.0172 -79.0172 -79.0172 -79.0172
   -79.0164 -79.0163 -79.0163 -79.0163 -79.0136 -79.0136 -79.0136 -79.0136
   -79.0126 -79.0126 -79.0126 -79.0126 -79.0097 -79.0097 -79.0097 -79.0097
    -8.1814  -8.1814  -7.3426  -7.3426  -7.0461  -7.0460  -6.8834  -6.8834
    -6.8797  -6.8797  -6.7694  -6.7694  -6.7694  -6.7693  -6.6741  -6.6741
    -6.6677  -6.6677  -6.6677  -6.6677  -6.6441  -6.6441  -6.6281  -6.6280
    -6.6280  -6.6280  -6.5736  -6.5736  -6.5483  -6.5483  -6.5482  -6.5482
    -6.5268  -6.5268  -6.5091  -6.5091  -6.5091  -6.5091  -6.4840  -6.4840
    -6.4840  -6.4840  -6.4804  -6.4804  -6.4710  -6.4710  -6.4458  -6.4458
    -6.4407  -6.4407  -6.4407  -6.4407  -6.3307  -6.3307  -6.3209  -6.3209
    -6.3117  -6.3117  -6.3117  -6.3117  -6.3113  -6.3113  -6.2899  -6.2899
    -6.2899  -6.2899  -6.2560  -6.2559  -6.2405  -6.2405  -6.2405  -6.2405
    -6.2265  -6.2265  -6.2207  -6.2207  -6.1894  -6.1894  -6.1603  -6.1603
    -6.1304  -6.1304  -6.1223  -6.1223  -6.1011  -6.1011  -6.1011  -6.1011
    -6.0809  -6.0809  -6.0809  -6.0809  -6.0606  -6.0606  -6.0509  -6.0509
    -6.0458  -6.0458  -6.0401  -6.0401  -6.0284  -6.0284  -6.0086  -6.0086
    -6.0086  -6.0086  -5.9653  -5.9653  -5.9641  -5.9641  -5.9345  -5.9345
    -5.9231  -5.9231  -5.8916  -5.8916  -5.8916  -5.8916  -5.8338  -5.8337
    -5.8284  -5.8284  -5.8269  -5.8269  -5.8269  -5.8269  -5.8256  -5.8256
    -5.8049  -5.8049  -5.8032  -5.8032  -5.7946  -5.7946  -5.7946  -5.7946
    -5.7865  -5.7864  -5.7853  -5.7853  -5.7853  -5.7853  -5.7750  -5.7750
    -5.7728  -5.7728  -5.7728  -5.7728  -5.6931  -5.6931  -5.6918  -5.6918
    -5.6858  -5.6858  -5.6635  -5.6635  -5.6635  -5.6635  -5.6511  -5.6511
    -5.6410  -5.6410  -5.6223  -5.6223  -5.6223  -5.6222  -5.6130  -5.6130
    -5.5885  -5.5885  -5.5616  -5.5615  -5.5472  -5.5472  -5.5472  -5.5472
    -5.5439  -5.5439  -5.5439  -5.5439  -5.5416  -5.5416  -5.5385  -5.5385
    -5.5169  -5.5169  -5.5169  -5.5169  -5.5058  -5.5058  -5.5054  -5.5054
    -5.5047  -5.5047  -5.4969  -5.4969  -5.4819  -5.4819  -5.4819  -5.4819
    -5.4686  -5.4685  -5.4685  -5.4685  -5.4572  -5.4572  -5.4406  -5.4406
    -5.4338  -5.4338  -5.4338  -5.4338  -5.4302  -5.4302  -5.4301  -5.4301
    -5.4221  -5.4221  -5.4199  -5.4199  -5.4191  -5.4191  -5.3882  -5.3882
    -5.3812  -5.3812  -5.3812  -5.3812  -5.3421  -5.3421  -5.3421  -5.3421
    -5.2722  -5.2722  -5.2722  -5.2722  -5.2536  -5.2536  -5.2527  -5.2527
    -5.2527  -5.2527  -5.2197  -5.2197  -5.2170  -5.2170  -4.7211  -4.7211
    -4.4400  -4.4400  -4.4400  -4.4400  -3.7514  -3.7514  -3.1227  -3.1227
    -3.0816  -3.0816  -3.0816  -3.0816  -2.4045  -2.4045  -2.2601  -2.2601
    -1.7818  -1.7818  -1.7818  -1.7818  -0.7692  -0.7692  -0.7692  -0.7692
    -0.3461  -0.3461  -0.3460  -0.3460  -0.1027  -0.1027  -0.0014  -0.0014
     0.9963   0.9963   1.0362   1.0362   1.3141   1.3141   1.3509   1.3509
     1.3509   1.3509   2.2024   2.2024   2.8801   2.8801   2.8801   2.8801
     3.0882   3.0882   3.0882   3.0882   3.3018   3.3018   3.5466   3.5467
     3.8455   3.8455   3.8455   3.8455   3.9839   3.9839   4.2337   4.2337
     4.4393   4.4393   4.7298   4.7298   4.8365   4.8365   5.4673   5.4673
     5.5319   5.5319   5.7339   5.7339   5.7817   5.7817   5.9171   5.9171
     5.9172   5.9172   5.9703   5.9703   5.9703   5.9703   6.1460   6.1460
     6.1460   6.1460   6.4331   6.4331   6.5389   6.5389   6.6524   6.6524
     6.6694   6.6694   6.8535   6.8535   6.8587   6.8587   6.9896   6.9896
     6.9896   6.9896   7.5920   7.5920   7.7509   7.7509   8.0522   8.0522
     8.0878   8.0878   8.0878   8.0878   8.2661   8.2661   8.4856   8.4856
     8.4856   8.4856   8.6157   8.6157   8.6157   8.6157   8.6740   8.6740
     8.7231   8.7231   8.8136   8.8137   8.9898   8.9898   8.9899   8.9899

     occupation numbers 
     1.0000   1.0000   1.0000   1.0000   1.0000   1.0000   1.0000   1.0000
     1.0000   1.0000   1.0000   1.0000   1.0000   1.0000   1.0000   1.0000
     1.0000   1.0000   1.0000   1.0000   1.0000   1.0000   1.0000   1.0000
     1.0000   1.0000   1.0000   1.0000   1.0000   1.0000   1.0000   1.0000
     1.0000   1.0000   1.0000   1.0000   1.0000   1.0000   1.0000   1.0000
     1.0000   1.0000   1.0000   1.0000   1.0000   1.0000   1.0000   1.0000
     1.0000   1.0000   1.0000   1.0000   1.0000   1.0000   1.0000   1.0000
     1.0000   1.0000   1.0000   1.0000   1.0000   1.0000   1.0000   1.0000
     1.0000   1.0000   1.0000   1.0000   1.0000   1.0000   1.0000   1.0000
     1.0000   1.0000   1.0000   1.0000   1.0000   1.0000   1.0000   1.0000
     1.0000   1.0000   1.0000   1.0000   1.0000   1.0000   1.0000   1.0000
     1.0000   1.0000   1.0000   1.0000   1.0000   1.0000   1.0000   1.0000
     1.0000   1.0000   1.0000   1.0000   1.0000   1.0000   1.0000   1.0000
     1.0000   1.0000   1.0000   1.0000   1.0000   1.0000   1.0000   1.0000
     1.0000   1.0000   1.0000   1.0000   1.0000   1.0000   1.0000   1.0000
     1.0000   1.0000   1.0000   1.0000   1.0000   1.0000   1.0000   1.0000
     1.0000   1.0000   1.0000   1.0000   1.0000   1.0000   1.0000   1.0000
     1.0000   1.0000   1.0000   1.0000   1.0000   1.0000   1.0000   1.0000
     1.0000   1.0000   1.0000   1.0000   1.0000   1.0000   1.0000   1.0000
     1.0000   1.0000   1.0000   1.0000   1.0000   1.0000   1.0000   1.0000
     1.0000   1.0000   1.0000   1.0000   1.0000   1.0000   1.0000   1.0000
     1.0000   1.0000   1.0000   1.0000   1.0000   1.0000   1.0000   1.0000
     1.0000   1.0000   1.0000   1.0000   1.0000   1.0000   1.0000   1.0000
     1.0000   1.0000   1.0000   1.0000   1.0000   1.0000   1.0000   1.0000
     1.0000   1.0000   1.0000   1.0000   1.0000   1.0000   1.0000   1.0000
     1.0000   1.0000   1.0000   1.0000   1.0000   1.0000   1.0000   1.0000
     1.0000   1.0000   1.0000   1.0000   1.0000   1.0000   1.0000   1.0000
     1.0000   1.0000   1.0000   1.0000   1.0000   1.0000   1.0000   1.0000
     1.0000   1.0000   1.0000   1.0000   1.0000   1.0000   1.0000   1.0000
     1.0000   1.0000   1.0000   1.0000   1.0000   1.0000   1.0000   1.0000
     1.0000   1.0000   1.0000   1.0000   1.0000   1.0000   1.0000   1.0000
     1.0000   1.0000   1.0000   1.0000   1.0000   1.0000   1.0000   1.0000
     1.0000   1.0000   1.0000   1.0000   1.0000   1.0000   1.0000   1.0000
     1.0000   1.0000   1.0000   1.0000   1.0000   1.0000   1.0000   1.0000
     1.0000   1.0000   1.0000   1.0000   1.0000   1.0000   1.0000   1.0000
     1.0000   1.0000   1.0000   1.0000   1.0000   1.0000   1.0000   1.0000
     1.0000   1.0000   1.0000   1.0000   1.0000   1.0000   1.0000   1.0000
     1.0000   1.0000   1.0000   1.0000   1.0000   1.0000   1.0000   1.0000
     1.0000   1.0000   1.0000   1.0000   1.0000   1.0000   1.0000   1.0000
     1.0000   1.0000   1.0000   1.0000   1.0000   1.0000   1.0000   1.0000
     1.0000   1.0000   1.0000   1.0000   1.0000   1.0000   1.0000   1.0000
     1.0000   1.0000   1.0000   1.0000   1.0000   1.0000   1.0000   1.0000
     1.0000   1.0000   1.0000   1.0000   1.0000   1.0000   1.0000   1.0000
     1.0000   1.0000   1.0000   1.0000   1.0000   1.0000   1.0000   1.0000
     1.0000   1.0000   1.0000   1.0000   1.0000   1.0000   1.0000   1.0000
     1.0000   1.0000   1.0000   1.0000   1.0000   1.0000   1.0000   1.0000
     1.0000   1.0000   1.0000   1.0000   1.0000   1.0000   1.0000   1.0000
     1.0000   1.0000   1.0000   1.0000   1.0000   1.0000   1.0000   1.0000
     1.0000   1.0000   1.0000   1.0000   1.0000   1.0000   1.0000   1.0000
     1.0000   1.0000   1.0000   1.0000   1.0000   1.0000   1.0000   1.0000
     1.0000   1.0000   1.0000   1.0000   1.0000   1.0000   1.0000   1.0000
     1.0000   1.0000   1.0000   1.0000   1.0000   1.0000   1.0000   1.0000
     1.0000   1.0000   1.0000   1.0000   1.0000   1.0000   1.0000   1.0000
     1.0000   1.0000   1.0000   1.0000   1.0000   1.0000   1.0000   1.0000
     1.0000   1.0000   1.0000   1.0000   1.0000   1.0000   1.0000   1.0000
     1.0000   1.0000   1.0000   1.0000   1.0000   1.0000   1.0000   1.0000
     1.0000   1.0000   1.0000   1.0000   1.0001   1.0001   1.0002   1.0002
     1.0013   1.0013   1.0013   1.0013   1.0335   1.0335   1.0335   1.0335
     1.0684   1.0684   1.0684   1.0684   1.0823   1.0823   1.0831   1.0831
     0.7464   0.7464   0.7201   0.7201   0.5293   0.5293   0.5043   0.5043
     0.5043   0.5043   0.0941   0.0941   0.0110   0.0110   0.0110   0.0110
     0.0049   0.0049   0.0049   0.0049   0.0020   0.0020   0.0006   0.0006
     0.0001   0.0001   0.0001   0.0001   0.0001   0.0001   0.0000   0.0000
     0.0000   0.0000   0.0000   0.0000   0.0000   0.0000   0.0000   0.0000
     0.0000   0.0000   0.0000   0.0000   0.0000   0.0000   0.0000   0.0000
     0.0000   0.0000   0.0000   0.0000   0.0000   0.0000   0.0000   0.0000
     0.0000   0.0000   0.0000   0.0000   0.0000   0.0000   0.0000   0.0000
     0.0000   0.0000   0.0000   0.0000   0.0000   0.0000   0.0000   0.0000
     0.0000   0.0000   0.0000   0.0000   0.0000   0.0000   0.0000   0.0000
     0.0000   0.0000   0.0000   0.0000   0.0000   0.0000   0.0000   0.0000
     0.0000   0.0000   0.0000   0.0000   0.0000   0.0000   0.0000   0.0000
     0.0000   0.0000   0.0000   0.0000   0.0000   0.0000   0.0000   0.0000

          k = 0.2500 0.1443 0.0000 ( 64808 PWs)   bands (ev):

  -125.0875-125.0866-125.0862-125.0862-125.0855-125.0855-125.0852-125.0846
  -125.0845-125.0843-125.0842-125.0841-125.0841-125.0841-125.0839-125.0839
  -124.8805-124.8805-124.8796-124.8796-124.8792-124.8792-124.8792-124.8792
  -124.8785-124.8785-124.8785-124.8785-124.8783-124.8783-124.8776-124.8776
  -124.8776-124.8776-124.8773-124.8773-124.8772-124.8772-124.8772-124.8772
  -124.8772-124.8772-124.8772-124.8772-124.8769-124.8769-124.8769-124.8769
   -79.2527 -79.2527 -79.2521 -79.2482 -79.2482 -79.2473 -79.2473 -79.2453
   -79.2453 -79.2424 -79.2392 -79.2392 -79.2368 -79.2365 -79.2365 -79.2357
   -79.2353 -79.2353 -79.2345 -79.2345 -79.2342 -79.2334 -79.2334 -79.2331
   -79.2330 -79.2330 -79.2330 -79.2330 -79.2327 -79.2327 -79.2324 -79.2324
   -79.2321 -79.2321 -79.2298 -79.2298 -79.2286 -79.2276 -79.2276 -79.2265
   -79.2239 -79.2236 -79.2236 -79.2217 -79.2217 -79.2203 -79.2188 -79.2178
   -79.0436 -79.0436 -79.0435 -79.0435 -79.0429 -79.0429 -79.0390 -79.0390
   -79.0390 -79.0390 -79.0381 -79.0381 -79.0380 -79.0380 -79.0363 -79.0362
   -79.0362 -79.0361 -79.0361 -79.0361 -79.0352 -79.0351 -79.0348 -79.0348
   -79.0347 -79.0347 -79.0340 -79.0340 -79.0340 -79.0340 -79.0337 -79.0337
   -79.0332 -79.0332 -79.0330 -79.0330 -79.0330 -79.0330 -79.0327 -79.0327
   -79.0326 -79.0326 -79.0326 -79.0326 -79.0325 -79.0325 -79.0325 -79.0325
   -79.0323 -79.0323 -79.0322 -79.0322 -79.0300 -79.0300 -79.0300 -79.0300
   -79.0274 -79.0274 -79.0273 -79.0273 -79.0233 -79.0233 -79.0233 -79.0233
   -79.0230 -79.0230 -79.0230 -79.0230 -79.0206 -79.0206 -79.0206 -79.0206
   -79.0194 -79.0194 -79.0185 -79.0185 -79.0185 -79.0185 -79.0174 -79.0174
   -79.0148 -79.0148 -79.0145 -79.0145 -79.0145 -79.0145 -79.0126 -79.0126
   -79.0125 -79.0125 -79.0112 -79.0112 -79.0097 -79.0097 -79.0087 -79.0086
    -8.5292  -7.6458  -7.3206  -7.2736  -7.2736  -7.0486  -6.9181  -6.8918
    -6.8918  -6.8705  -6.8685  -6.8685  -6.7270  -6.7122  -6.7122  -6.7108
    -6.6948  -6.6818  -6.6574  -6.6574  -6.6099  -6.6010  -6.5971  -6.5971
    -6.5874  -6.5874  -6.5685  -6.5685  -6.5488  -6.5488  -6.5400  -6.5400
    -6.5366  -6.5331  -6.5331  -6.5287  -6.5287  -6.5220  -6.5220  -6.5081
    -6.5081  -6.4821  -6.4821  -6.4428  -6.4428  -6.4154  -6.4154  -6.4013
    -6.4013  -6.3957  -6.3414  -6.3366  -6.3366  -6.3362  -6.3362  -6.3348
    -6.3348  -6.2875  -6.2875  -6.2791  -6.2717  -6.2492  -6.2492  -6.2430
    -6.2430  -6.2417  -6.2417  -6.2412  -6.2271  -6.2271  -6.2240  -6.2240
    -6.2146  -6.2146  -6.2043  -6.2043  -6.1991  -6.1972  -6.1972  -6.1748
    -6.1572  -6.1426  -6.1426  -6.1330  -6.1330  -6.1199  -6.1199  -6.1123
    -6.1085  -6.1085  -6.0960  -6.0827  -6.0827  -6.0688  -6.0688  -6.0679
    -6.0679  -5.9776  -5.9776  -5.9775  -5.9775  -5.9623  -5.9598  -5.9553
    -5.9549  -5.9528  -5.9528  -5.9432  -5.9432  -5.9312  -5.9294  -5.9294
    -5.9109  -5.9109  -5.9078  -5.9042  -5.9006  -5.8928  -5.8928  -5.8870
    -5.8664  -5.8664  -5.8570  -5.8570  -5.8455  -5.8313  -5.8143  -5.8143
    -5.8131  -5.8131  -5.8055  -5.8055  -5.7964  -5.7957  -5.7957  -5.7906
    -5.7906  -5.7746  -5.7746  -5.7655  -5.7655  -5.7600  -5.7490  -5.7490
    -5.7330  -5.7316  -5.7316  -5.7229  -5.7229  -5.7152  -5.7152  -5.7141
    -5.7141  -5.7100  -5.7100  -5.6969  -5.6856  -5.6856  -5.6753  -5.6620
    -5.6576  -5.6576  -5.6511  -5.6511  -5.6375  -5.6361  -5.6361  -5.6334
    -5.6334  -5.6313  -5.6285  -5.6237  -5.6237  -5.5985  -5.5806  -5.5783
    -5.5783  -5.5743  -5.5743  -5.5658  -5.5658  -5.5627  -5.5627  -5.5617
    -5.5617  -5.5604  -5.5448  -5.5448  -5.5431  -5.5392  -5.5392  -5.5305
    -5.5305  -5.5093  -5.5093  -5.4806  -5.4779  -5.4761  -5.4761  -5.4718
    -5.4718  -5.4696  -5.4696  -5.4570  -5.4570  -5.4484  -5.4434  -5.4434
    -5.4407  -5.4364  -5.4317  -5.4314  -5.4193  -5.4193  -5.4172  -5.4172
    -5.4057  -5.4051  -5.4051  -5.3981  -5.3855  -5.3855  -5.3819  -5.3768
    -5.3638  -5.3638  -5.3595  -5.3507  -5.3389  -5.3389  -5.3329  -5.3288
    -5.3288  -5.3192  -5.3192  -5.3114  -5.3114  -5.3009  -5.3009  -5.1634
    -5.1634  -5.1476  -5.1476  -5.1422  -5.1422  -5.1238  -5.1231  -4.9659
    -4.9556  -4.6574  -4.6574  -3.9008  -3.9008  -3.4999  -3.4167  -3.4167
    -3.3769  -2.6864  -2.3150  -2.3150  -2.2460  -2.0450  -2.0450  -1.9916
    -1.9916  -1.5285  -1.5285  -1.3164  -1.3164  -1.1308  -0.8156  -0.5972
    -0.5972  -0.5814  -0.5814  -0.5642   0.0030   0.0030   0.2547   0.2547
     0.5370   0.5370   0.6205   0.8574   0.8776   0.8776   1.1704   1.1704
     1.5413   1.5413   2.2129   2.2129   2.6272   2.6773   2.6773   2.7074
     2.7616   2.7616   2.9337   2.9337   3.2109   3.5252   3.6705   3.6705
     3.8846   3.8846   4.1041   4.1713   4.1713   4.5485   4.5485   4.7889
     4.7889   4.8222   4.8222   5.1269   5.1269   5.1403   5.1403   5.1934
     5.3891   5.4187   5.4187   5.5559   5.6299   5.7794   5.7794   5.7986
     6.0697   6.0697   6.0951   6.3007   6.3007   6.3081   6.3218   6.5163
     6.5446   6.5446   6.5742   6.5742   6.6861   6.7669   6.7669   6.9971
     6.9971   7.0732   7.0732   7.1636   7.1636   7.2465   7.2921   7.2921
     7.4143   7.4271   7.4271   7.4285   7.4285   7.6366   7.6366   7.6756
     7.6756   7.7059   7.7059   7.7399   7.8615   7.8615   7.9215   7.9215
     7.9997   7.9997   8.1423   8.2994   8.3282   8.4795   8.6418   8.6418
     8.6868   8.7116   8.7947   8.7947   8.8161   8.8161   8.8206   8.8208

     occupation numbers 
     1.0000   1.0000   1.0000   1.0000   1.0000   1.0000   1.0000   1.0000
     1.0000   1.0000   1.0000   1.0000   1.0000   1.0000   1.0000   1.0000
     1.0000   1.0000   1.0000   1.0000   1.0000   1.0000   1.0000   1.0000
     1.0000   1.0000   1.0000   1.0000   1.0000   1.0000   1.0000   1.0000
     1.0000   1.0000   1.0000   1.0000   1.0000   1.0000   1.0000   1.0000
     1.0000   1.0000   1.0000   1.0000   1.0000   1.0000   1.0000   1.0000
     1.0000   1.0000   1.0000   1.0000   1.0000   1.0000   1.0000   1.0000
     1.0000   1.0000   1.0000   1.0000   1.0000   1.0000   1.0000   1.0000
     1.0000   1.0000   1.0000   1.0000   1.0000   1.0000   1.0000   1.0000
     1.0000   1.0000   1.0000   1.0000   1.0000   1.0000   1.0000   1.0000
     1.0000   1.0000   1.0000   1.0000   1.0000   1.0000   1.0000   1.0000
     1.0000   1.0000   1.0000   1.0000   1.0000   1.0000   1.0000   1.0000
     1.0000   1.0000   1.0000   1.0000   1.0000   1.0000   1.0000   1.0000
     1.0000   1.0000   1.0000   1.0000   1.0000   1.0000   1.0000   1.0000
     1.0000   1.0000   1.0000   1.0000   1.0000   1.0000   1.0000   1.0000
     1.0000   1.0000   1.0000   1.0000   1.0000   1.0000   1.0000   1.0000
     1.0000   1.0000   1.0000   1.0000   1.0000   1.0000   1.0000   1.0000
     1.0000   1.0000   1.0000   1.0000   1.0000   1.0000   1.0000   1.0000
     1.0000   1.0000   1.0000   1.0000   1.0000   1.0000   1.0000   1.0000
     1.0000   1.0000   1.0000   1.0000   1.0000   1.0000   1.0000   1.0000
     1.0000   1.0000   1.0000   1.0000   1.0000   1.0000   1.0000   1.0000
     1.0000   1.0000   1.0000   1.0000   1.0000   1.0000   1.0000   1.0000
     1.0000   1.0000   1.0000   1.0000   1.0000   1.0000   1.0000   1.0000
     1.0000   1.0000   1.0000   1.0000   1.0000   1.0000   1.0000   1.0000
     1.0000   1.0000   1.0000   1.0000   1.0000   1.0000   1.0000   1.0000
     1.0000   1.0000   1.0000   1.0000   1.0000   1.0000   1.0000   1.0000
     1.0000   1.0000   1.0000   1.0000   1.0000   1.0000   1.0000   1.0000
     1.0000   1.0000   1.0000   1.0000   1.0000   1.0000   1.0000   1.0000
     1.0000   1.0000   1.0000   1.0000   1.0000   1.0000   1.0000   1.0000
     1.0000   1.0000   1.0000   1.0000   1.0000   1.0000   1.0000   1.0000
     1.0000   1.0000   1.0000   1.0000   1.0000   1.0000   1.0000   1.0000
     1.0000   1.0000   1.0000   1.0000   1.0000   1.0000   1.0000   1.0000
     1.0000   1.0000   1.0000   1.0000   1.0000   1.0000   1.0000   1.0000
     1.0000   1.0000   1.0000   1.0000   1.0000   1.0000   1.0000   1.0000
     1.0000   1.0000   1.0000   1.0000   1.0000   1.0000   1.0000   1.0000
     1.0000   1.0000   1.0000   1.0000   1.0000   1.0000   1.0000   1.0000
     1.0000   1.0000   1.0000   1.0000   1.0000   1.0000   1.0000   1.0000
     1.0000   1.0000   1.0000   1.0000   1.0000   1.0000   1.0000   1.0000
     1.0000   1.0000   1.0000   1.0000   1.0000   1.0000   1.0000   1.0000
     1.0000   1.0000   1.0000   1.0000   1.0000   1.0000   1.0000   1.0000
     1.0000   1.0000   1.0000   1.0000   1.0000   1.0000   1.0000   1.0000
     1.0000   1.0000   1.0000   1.0000   1.0000   1.0000   1.0000   1.0000
     1.0000   1.0000   1.0000   1.0000   1.0000   1.0000   1.0000   1.0000
     1.0000   1.0000   1.0000   1.0000   1.0000   1.0000   1.0000   1.0000
     1.0000   1.0000   1.0000   1.0000   1.0000   1.0000   1.0000   1.0000
     1.0000   1.0000   1.0000   1.0000   1.0000   1.0000   1.0000   1.0000
     1.0000   1.0000   1.0000   1.0000   1.0000   1.0000   1.0000   1.0000
     1.0000   1.0000   1.0000   1.0000   1.0000   1.0000   1.0000   1.0000
     1.0000   1.0000   1.0000   1.0000   1.0000   1.0000   1.0000   1.0000
     1.0000   1.0000   1.0000   1.0000   1.0000   1.0000   1.0000   1.0000
     1.0000   1.0000   1.0000   1.0000   1.0000   1.0000   1.0000   1.0000
     1.0000   1.0000   1.0000   1.0000   1.0000   1.0000   1.0000   1.0000
     1.0000   1.0000   1.0000   1.0000   1.0000   1.0000   1.0000   1.0000
     1.0000   1.0000   1.0000   1.0000   1.0000   1.0000   1.0000   1.0000
     1.0000   1.0000   1.0000   1.0000   1.0000   1.0000   1.0000   1.0000
     1.0000   1.0000   1.0000   1.0000   1.0000   1.0000   1.0000   1.0000
     1.0000   1.0000   1.0001   1.0001   1.0002   1.0004   1.0004   1.0005
     1.0005   1.0036   1.0036   1.0075   1.0075   1.0133   1.0302   1.0471
     1.0471   1.0484   1.0484   1.0499   1.0831   1.0831   1.0627   1.0627
     0.9890   0.9890   0.9555   0.8332   0.8212   0.8212   0.6286   0.6286
     0.3804   0.3804   0.0915   0.0915   0.0268   0.0226   0.0226   0.0204
     0.0169   0.0169   0.0090   0.0090   0.0030   0.0007   0.0004   0.0004
     0.0001   0.0001   0.0000   0.0000   0.0000   0.0000   0.0000   0.0000
     0.0000   0.0000   0.0000   0.0000   0.0000   0.0000   0.0000   0.0000
     0.0000   0.0000   0.0000   0.0000   0.0000   0.0000   0.0000   0.0000
     0.0000   0.0000   0.0000   0.0000   0.0000   0.0000   0.0000   0.0000
     0.0000   0.0000   0.0000   0.0000   0.0000   0.0000   0.0000   0.0000
     0.0000   0.0000   0.0000   0.0000   0.0000   0.0000   0.0000   0.0000
     0.0000   0.0000   0.0000   0.0000   0.0000   0.0000   0.0000   0.0000
     0.0000   0.0000   0.0000   0.0000   0.0000   0.0000   0.0000   0.0000
     0.0000   0.0000   0.0000   0.0000   0.0000   0.0000   0.0000   0.0000
     0.0000   0.0000   0.0000   0.0000   0.0000   0.0000   0.0000   0.0000

          k = 0.2500 0.4330 0.0000 ( 64876 PWs)   bands (ev):

  -125.0872-125.0868-125.0868-125.0856-125.0856-125.0851-125.0849-125.0849
  -125.0845-125.0845-125.0844-125.0844-125.0840-125.0839-125.0839-125.0837
  -124.8803-124.8803-124.8798-124.8798-124.8798-124.8798-124.8787-124.8787
  -124.8787-124.8787-124.8781-124.8781-124.8779-124.8779-124.8779-124.8779
  -124.8776-124.8775-124.8775-124.8775-124.8775-124.8775-124.8774-124.8774
  -124.8771-124.8771-124.8770-124.8770-124.8770-124.8770-124.8768-124.8768
   -79.2518 -79.2502 -79.2502 -79.2497 -79.2496 -79.2475 -79.2475 -79.2454
   -79.2454 -79.2450 -79.2415 -79.2406 -79.2370 -79.2370 -79.2365 -79.2360
   -79.2360 -79.2347 -79.2347 -79.2340 -79.2338 -79.2338 -79.2335 -79.2335
   -79.2334 -79.2334 -79.2333 -79.2333 -79.2328 -79.2327 -79.2327 -79.2325
   -79.2301 -79.2283 -79.2283 -79.2269 -79.2269 -79.2268 -79.2262 -79.2262
   -79.2255 -79.2255 -79.2240 -79.2240 -79.2214 -79.2199 -79.2199 -79.2185
   -79.0426 -79.0426 -79.0410 -79.0410 -79.0410 -79.0410 -79.0405 -79.0405
   -79.0404 -79.0404 -79.0383 -79.0383 -79.0383 -79.0383 -79.0363 -79.0362
   -79.0362 -79.0362 -79.0360 -79.0358 -79.0358 -79.0358 -79.0355 -79.0355
   -79.0353 -79.0353 -79.0342 -79.0342 -79.0341 -79.0341 -79.0336 -79.0335
   -79.0334 -79.0333 -79.0333 -79.0333 -79.0329 -79.0329 -79.0329 -79.0329
   -79.0328 -79.0328 -79.0328 -79.0328 -79.0324 -79.0324 -79.0323 -79.0323
   -79.0323 -79.0323 -79.0323 -79.0323 -79.0321 -79.0321 -79.0315 -79.0315
   -79.0278 -79.0278 -79.0278 -79.0278 -79.0243 -79.0243 -79.0243 -79.0243
   -79.0210 -79.0209 -79.0192 -79.0191 -79.0191 -79.0191 -79.0177 -79.0177
   -79.0177 -79.0177 -79.0177 -79.0177 -79.0170 -79.0170 -79.0170 -79.0170
   -79.0163 -79.0163 -79.0163 -79.0163 -79.0149 -79.0149 -79.0148 -79.0148
   -79.0123 -79.0123 -79.0108 -79.0108 -79.0107 -79.0107 -79.0094 -79.0094
    -8.2956  -7.8488  -7.8488  -7.1321  -6.9337  -6.8598  -6.8598  -6.8280
    -6.8280  -6.8173  -6.8173  -6.8131  -6.8131  -6.7884  -6.7474  -6.7473
    -6.7182  -6.7182  -6.6757  -6.6757  -6.6442  -6.6285  -6.6285  -6.6241
    -6.6241  -6.6088  -6.6088  -6.5878  -6.5878  -6.5812  -6.5811  -6.5631
    -6.5555  -6.5555  -6.5118  -6.5118  -6.4920  -6.4914  -6.4914  -6.4822
    -6.4822  -6.4622  -6.4589  -6.4372  -6.4344  -6.4344  -6.4318  -6.4318
    -6.4224  -6.4224  -6.4135  -6.3886  -6.3886  -6.3325  -6.3206  -6.3206
    -6.3167  -6.3167  -6.3117  -6.3117  -6.3112  -6.2977  -6.2880  -6.2829
    -6.2829  -6.2757  -6.2684  -6.2683  -6.2632  -6.2632  -6.2618  -6.2408
    -6.2408  -6.2208  -6.2208  -6.1968  -6.1968  -6.1850  -6.1668  -6.1642
    -6.1599  -6.1599  -6.1375  -6.1375  -6.1284  -6.1284  -6.1132  -6.1077
    -6.0741  -6.0741  -6.0651  -6.0651  -6.0608  -6.0523  -6.0383  -6.0383
    -6.0169  -6.0097  -6.0097  -6.0078  -5.9985  -5.9985  -5.9905  -5.9905
    -5.9890  -5.9890  -5.9745  -5.9664  -5.9604  -5.9347  -5.9347  -5.9262
    -5.9261  -5.9242  -5.9184  -5.9095  -5.9095  -5.9058  -5.9033  -5.8965
    -5.8964  -5.8722  -5.8722  -5.8652  -5.8652  -5.8533  -5.8533  -5.8519
    -5.8495  -5.8490  -5.8490  -5.8268  -5.8170  -5.8170  -5.8113  -5.7906
    -5.7825  -5.7825  -5.7751  -5.7710  -5.7710  -5.7686  -5.7325  -5.7325
    -5.7123  -5.7123  -5.7094  -5.7094  -5.6752  -5.6719  -5.6719  -5.6713
    -5.6713  -5.6653  -5.6525  -5.6489  -5.6489  -5.6420  -5.6419  -5.6115
    -5.6115  -5.6101  -5.6096  -5.6096  -5.6008  -5.6008  -5.5985  -5.5985
    -5.5960  -5.5960  -5.5923  -5.5922  -5.5847  -5.5847  -5.5671  -5.5671
    -5.5663  -5.5663  -5.5622  -5.5588  -5.5532  -5.5532  -5.5329  -5.5329
    -5.5312  -5.5279  -5.5279  -5.5254  -5.5209  -5.5016  -5.5016  -5.4999
    -5.4973  -5.4973  -5.4830  -5.4786  -5.4786  -5.4780  -5.4780  -5.4756
    -5.4756  -5.4734  -5.4734  -5.4609  -5.4609  -5.4583  -5.4583  -5.4514
    -5.4514  -5.4493  -5.4352  -5.4352  -5.4278  -5.4278  -5.4268  -5.4160
    -5.4122  -5.4041  -5.4041  -5.3933  -5.3933  -5.3922  -5.3870  -5.3862
    -5.3822  -5.3822  -5.3530  -5.3463  -5.3463  -5.3267  -5.3266  -5.3001
    -5.2941  -5.2941  -5.2913  -5.2912  -5.2897  -5.2897  -5.2752  -5.2471
    -5.2053  -5.2053  -5.2012  -5.2012  -5.1633  -5.1633  -5.0833  -5.0832
    -4.4776  -4.2555  -4.2555  -4.0634  -4.0634  -3.2683  -3.2683  -3.2075
    -3.1649  -2.9010  -2.9010  -2.8622  -2.8622  -2.8006  -2.8006  -1.8164
    -1.8163  -1.7151  -1.7151  -1.4338  -1.4338  -0.8589  -0.4900  -0.4900
    -0.4366  -0.4366  -0.3478  -0.2538   0.2709   0.3373   0.3373   0.4089
     0.4089   0.6843   0.6843   0.7681   0.9493   0.9493   1.0619   1.3920
     1.3920   1.9625   1.9625   2.5098   2.5312   2.7958   2.9720   3.0664
     3.3023   3.3023   3.3432   3.3432   3.4328   3.4328   3.4349   3.5592
     3.5592   3.6508   3.8819   3.8819   4.3603   4.3603   4.3709   4.4126
     4.4231   4.4231   4.5422   4.5422   4.8579   4.9178   5.1254   5.1254
     5.2127   5.2127   5.4191   5.4282   5.4282   5.4309   5.4309   5.6190
     5.8701   5.8701   6.0785   6.0785   6.0832   6.1042   6.1042   6.5337
     6.5337   6.5536   6.6312   6.6341   6.6341   6.7411   6.9400   6.9792
     6.9792   6.9869   7.0161   7.0161   7.0311   7.0312   7.1384   7.1384
     7.1904   7.1904   7.2140   7.2140   7.2168   7.2168   7.4542   7.4542
     8.0963   8.2046   8.2046   8.3494   8.3602   8.3892   8.3892   8.5132
     8.5277   8.5277   8.5589   8.5695   8.5695   8.6281   8.6281   8.6418
     8.6569   8.6569   8.7025   8.7203   8.8137   8.8137   9.0187   9.3116

     occupation numbers 
     1.0000   1.0000   1.0000   1.0000   1.0000   1.0000   1.0000   1.0000
     1.0000   1.0000   1.0000   1.0000   1.0000   1.0000   1.0000   1.0000
     1.0000   1.0000   1.0000   1.0000   1.0000   1.0000   1.0000   1.0000
     1.0000   1.0000   1.0000   1.0000   1.0000   1.0000   1.0000   1.0000
     1.0000   1.0000   1.0000   1.0000   1.0000   1.0000   1.0000   1.0000
     1.0000   1.0000   1.0000   1.0000   1.0000   1.0000   1.0000   1.0000
     1.0000   1.0000   1.0000   1.0000   1.0000   1.0000   1.0000   1.0000
     1.0000   1.0000   1.0000   1.0000   1.0000   1.0000   1.0000   1.0000
     1.0000   1.0000   1.0000   1.0000   1.0000   1.0000   1.0000   1.0000
     1.0000   1.0000   1.0000   1.0000   1.0000   1.0000   1.0000   1.0000
     1.0000   1.0000   1.0000   1.0000   1.0000   1.0000   1.0000   1.0000
     1.0000   1.0000   1.0000   1.0000   1.0000   1.0000   1.0000   1.0000
     1.0000   1.0000   1.0000   1.0000   1.0000   1.0000   1.0000   1.0000
     1.0000   1.0000   1.0000   1.0000   1.0000   1.0000   1.0000   1.0000
     1.0000   1.0000   1.0000   1.0000   1.0000   1.0000   1.0000   1.0000
     1.0000   1.0000   1.0000   1.0000   1.0000   1.0000   1.0000   1.0000
     1.0000   1.0000   1.0000   1.0000   1.0000   1.0000   1.0000   1.0000
     1.0000   1.0000   1.0000   1.0000   1.0000   1.0000   1.0000   1.0000
     1.0000   1.0000   1.0000   1.0000   1.0000   1.0000   1.0000   1.0000
     1.0000   1.0000   1.0000   1.0000   1.0000   1.0000   1.0000   1.0000
     1.0000   1.0000   1.0000   1.0000   1.0000   1.0000   1.0000   1.0000
     1.0000   1.0000   1.0000   1.0000   1.0000   1.0000   1.0000   1.0000
     1.0000   1.0000   1.0000   1.0000   1.0000   1.0000   1.0000   1.0000
     1.0000   1.0000   1.0000   1.0000   1.0000   1.0000   1.0000   1.0000
     1.0000   1.0000   1.0000   1.0000   1.0000   1.0000   1.0000   1.0000
     1.0000   1.0000   1.0000   1.0000   1.0000   1.0000   1.0000   1.0000
     1.0000   1.0000   1.0000   1.0000   1.0000   1.0000   1.0000   1.0000
     1.0000   1.0000   1.0000   1.0000   1.0000   1.0000   1.0000   1.0000
     1.0000   1.0000   1.0000   1.0000   1.0000   1.0000   1.0000   1.0000
     1.0000   1.0000   1.0000   1.0000   1.0000   1.0000   1.0000   1.0000
     1.0000   1.0000   1.0000   1.0000   1.0000   1.0000   1.0000   1.0000
     1.0000   1.0000   1.0000   1.0000   1.0000   1.0000   1.0000   1.0000
     1.0000   1.0000   1.0000   1.0000   1.0000   1.0000   1.0000   1.0000
     1.0000   1.0000   1.0000   1.0000   1.0000   1.0000   1.0000   1.0000
     1.0000   1.0000   1.0000   1.0000   1.0000   1.0000   1.0000   1.0000
     1.0000   1.0000   1.0000   1.0000   1.0000   1.0000   1.0000   1.0000
     1.0000   1.0000   1.0000   1.0000   1.0000   1.0000   1.0000   1.0000
     1.0000   1.0000   1.0000   1.0000   1.0000   1.0000   1.0000   1.0000
     1.0000   1.0000   1.0000   1.0000   1.0000   1.0000   1.0000   1.0000
     1.0000   1.0000   1.0000   1.0000   1.0000   1.0000   1.0000   1.0000
     1.0000   1.0000   1.0000   1.0000   1.0000   1.0000   1.0000   1.0000
     1.0000   1.0000   1.0000   1.0000   1.0000   1.0000   1.0000   1.0000
     1.0000   1.0000   1.0000   1.0000   1.0000   1.0000   1.0000   1.0000
     1.0000   1.0000   1.0000   1.0000   1.0000   1.0000   1.0000   1.0000
     1.0000   1.0000   1.0000   1.0000   1.0000   1.0000   1.0000   1.0000
     1.0000   1.0000   1.0000   1.0000   1.0000   1.0000   1.0000   1.0000
     1.0000   1.0000   1.0000   1.0000   1.0000   1.0000   1.0000   1.0000
     1.0000   1.0000   1.0000   1.0000   1.0000   1.0000   1.0000   1.0000
     1.0000   1.0000   1.0000   1.0000   1.0000   1.0000   1.0000   1.0000
     1.0000   1.0000   1.0000   1.0000   1.0000   1.0000   1.0000   1.0000
     1.0000   1.0000   1.0000   1.0000   1.0000   1.0000   1.0000   1.0000
     1.0000   1.0000   1.0000   1.0000   1.0000   1.0000   1.0000   1.0000
     1.0000   1.0000   1.0000   1.0000   1.0000   1.0000   1.0000   1.0000
     1.0000   1.0000   1.0000   1.0000   1.0000   1.0000   1.0000   1.0000
     1.0000   1.0000   1.0000   1.0000   1.0000   1.0000   1.0000   1.0000
     1.0000   1.0000   1.0000   1.0000   1.0000   1.0000   1.0000   1.0000
     1.0000   1.0000   1.0000   1.0000   1.0000   1.0000   1.0000   1.0012
     1.0012   1.0018   1.0018   1.0050   1.0050   1.0273   1.0563   1.0563
     1.0609   1.0609   1.0682   1.0751   1.0601   1.0473   1.0473   1.0299
     1.0299   0.9264   0.9264   0.8837   0.7768   0.7768   0.7028   0.4765
     0.4765   0.1688   0.1688   0.0390   0.0365   0.0150   0.0078   0.0054
     0.0020   0.0020   0.0017   0.0017   0.0011   0.0011   0.0011   0.0006
     0.0006   0.0004   0.0001   0.0001   0.0000   0.0000   0.0000   0.0000
     0.0000   0.0000   0.0000   0.0000   0.0000   0.0000   0.0000   0.0000
     0.0000   0.0000   0.0000   0.0000   0.0000   0.0000   0.0000   0.0000
     0.0000   0.0000   0.0000   0.0000   0.0000   0.0000   0.0000   0.0000
     0.0000   0.0000   0.0000   0.0000   0.0000   0.0000   0.0000   0.0000
     0.0000   0.0000   0.0000   0.0000   0.0000   0.0000   0.0000   0.0000
     0.0000   0.0000   0.0000   0.0000   0.0000   0.0000   0.0000   0.0000
     0.0000   0.0000   0.0000   0.0000   0.0000   0.0000   0.0000   0.0000
     0.0000   0.0000   0.0000   0.0000   0.0000   0.0000   0.0000   0.0000
     0.0000   0.0000   0.0000   0.0000   0.0000   0.0000   0.0000   0.0000

          k = 0.2500-0.4330 0.0000 ( 64876 PWs)   bands (ev):

  -125.0872-125.0868-125.0868-125.0856-125.0856-125.0851-125.0849-125.0849
  -125.0845-125.0845-125.0844-125.0844-125.0840-125.0839-125.0839-125.0837
  -124.8803-124.8803-124.8798-124.8798-124.8798-124.8798-124.8787-124.8787
  -124.8787-124.8787-124.8781-124.8781-124.8779-124.8779-124.8779-124.8779
  -124.8776-124.8775-124.8775-124.8775-124.8775-124.8775-124.8774-124.8774
  -124.8771-124.8771-124.8770-124.8770-124.8770-124.8770-124.8768-124.8768
   -79.2518 -79.2502 -79.2502 -79.2497 -79.2496 -79.2475 -79.2475 -79.2454
   -79.2454 -79.2450 -79.2415 -79.2406 -79.2370 -79.2370 -79.2365 -79.2360
   -79.2360 -79.2347 -79.2347 -79.2340 -79.2338 -79.2338 -79.2335 -79.2335
   -79.2334 -79.2334 -79.2333 -79.2333 -79.2328 -79.2327 -79.2327 -79.2325
[...]
     1.0000   1.0000   1.0000   1.0000   1.0000   1.0000   1.0000   1.0000
     1.0000   1.0000   1.0000   1.0000   1.0000   1.0000   1.0000   1.0000
     1.0000   1.0000   1.0000   1.0000   1.0000   1.0000   1.0000   1.0000
     1.0000   1.0000   1.0000   1.0000   1.0000   1.0000   1.0000   1.0000
     1.0000   1.0000   1.0000   1.0000   1.0000   1.0000   1.0000   1.0000
     1.0000   1.0000   1.0000   1.0000   1.0000   1.0000   1.0000   1.0000
     1.0000   1.0000   1.0000   1.0000   1.0000   1.0000   1.0000   1.0000
     1.0000   1.0000   1.0000   1.0000   1.0000   1.0000   1.0000   1.0000
     1.0000   1.0000   1.0000   1.0000   1.0000   1.0000   1.0000   1.0000
     1.0000   1.0000   1.0000   1.0000   1.0000   1.0000   1.0000   1.0000
     1.0000   1.0000   1.0000   1.0000   1.0000   1.0000   1.0000   1.0000
     1.0000   1.0000   1.0000   1.0000   1.0000   1.0000   1.0000   1.0000
     1.0000   1.0000   1.0000   1.0000   1.0000   1.0000   1.0000   1.0000
     1.0000   1.0000   1.0000   1.0000   1.0000   1.0000   1.0000   1.0000
     1.0000   1.0000   1.0000   1.0000   1.0000   1.0000   1.0000   1.0000
     1.0000   1.0000   1.0000   1.0000   1.0000   1.0000   1.0000   1.0000
     1.0000   1.0000   1.0000   1.0000   1.0000   1.0000   1.0000   1.0000
     1.0000   1.0000   1.0000   1.0000   1.0000   1.0000   1.0000   1.0000
     1.0000   1.0000   1.0000   1.0000   1.0000   1.0000   1.0000   1.0000
     1.0000   1.0000   1.0000   1.0000   1.0000   1.0000   1.0000   1.0000
     1.0000   1.0000   1.0000   1.0000   1.0000   1.0000   1.0000   1.0000
     1.0000   1.0000   1.0000   1.0000   1.0000   1.0000   1.0000   1.0000
     1.0000   1.0000   1.0000   1.0000   1.0000   1.0000   1.0000   1.0000
     1.0000   1.0000   1.0000   1.0000   1.0000   1.0000   1.0000   1.0000
     1.0000   1.0000   1.0000   1.0000   1.0000   1.0000   1.0000   1.0000
     1.0000   1.0000   1.0000   1.0000   1.0000   1.0000   1.0000   1.0000
     1.0000   1.0000   1.0000   1.0000   1.0000   1.0000   1.0000   1.0000
     1.0000   1.0000   1.0000   1.0000   1.0000   1.0000   1.0000   1.0000
     1.0000   1.0000   1.0000   1.0000   1.0000   1.0000   1.0000   1.0000
     1.0000   1.0000   1.0000   1.0000   1.0000   1.0000   1.0000   1.0000
     1.0000   1.0000   1.0000   1.0000   1.0000   1.0000   1.0000   1.0000
     1.0000   1.0000   1.0000   1.0000   1.0000   1.0000   1.0000   1.0000
     1.0000   1.0000   1.0000   1.0000   1.0000   1.0000   1.0000   1.0000
     1.0000   1.0000   1.0000   1.0000   1.0000   1.0000   1.0000   1.0000
     1.0000   1.0000   1.0000   1.0000   1.0000   1.0000   1.0000   1.0000
     1.0000   1.0000   1.0000   1.0000   1.0000   1.0000   1.0000   1.0000
     1.0000   1.0000   1.0000   1.0000   1.0000   1.0000   1.0000   1.0000
     1.0000   1.0000   1.0000   1.0000   1.0000   1.0000   1.0000   1.0000
     1.0000   1.0000   1.0000   1.0000   1.0000   1.0000   1.0000   1.0012
     1.0012   1.0018   1.0018   1.0050   1.0050   1.0273   1.0563   1.0563
     1.0609   1.0609   1.0682   1.0751   1.0601   1.0473   1.0473   1.0299
     1.0299   0.9264   0.9264   0.8837   0.7768   0.7768   0.7028   0.4765
     0.4765   0.1688   0.1688   0.0390   0.0365   0.0150   0.0078   0.0054
     0.0020   0.0020   0.0017   0.0017   0.0011   0.0011   0.0011   0.0006
     0.0006   0.0004   0.0001   0.0001   0.0000   0.0000   0.0000   0.0000
     0.0000   0.0000   0.0000   0.0000   0.0000   0.0000   0.0000   0.0000
     0.0000   0.0000   0.0000   0.0000   0.0000   0.0000   0.0000   0.0000
     0.0000   0.0000   0.0000   0.0000   0.0000   0.0000   0.0000   0.0000
     0.0000   0.0000   0.0000   0.0000   0.0000   0.0000   0.0000   0.0000
     0.0000   0.0000   0.0000   0.0000   0.0000   0.0000   0.0000   0.0000
     0.0000   0.0000   0.0000   0.0000   0.0000   0.0000   0.0000   0.0000
     0.0000   0.0000   0.0000   0.0000   0.0000   0.0000   0.0000   0.0000
     0.0000   0.0000   0.0000   0.0000   0.0000   0.0000   0.0000   0.0000
     0.0000   0.0000   0.0000   0.0000   0.0000   0.0000   0.0000   0.0000

          k =-0.5000-0.8660 0.0000 ( 64842 PWs)   bands (ev):

  -125.0871-125.0871-125.0863-125.0862-125.0850-125.0850-125.0850-125.0850
  -125.0847-125.0846-125.0842-125.0842-125.0841-125.0841-125.0838-125.0838
  -124.8802-124.8802-124.8802-124.8802-124.8793-124.8793-124.8793-124.8793
  -124.8781-124.8781-124.8781-124.8781-124.8781-124.8781-124.8781-124.8781
  -124.8777-124.8777-124.8777-124.8777-124.8772-124.8772-124.8772-124.8772
  -124.8772-124.8772-124.8772-124.8772-124.8768-124.8768-124.8768-124.8768
   -79.2507 -79.2507 -79.2507 -79.2507 -79.2482 -79.2482 -79.2472 -79.2472
   -79.2427 -79.2427 -79.2427 -79.2427 -79.2378 -79.2378 -79.2364 -79.2364
   -79.2354 -79.2354 -79.2340 -79.2340 -79.2340 -79.2340 -79.2336 -79.2335
   -79.2330 -79.2330 -79.2330 -79.2330 -79.2326 -79.2326 -79.2312 -79.2312
   -79.2296 -79.2296 -79.2296 -79.2296 -79.2263 -79.2263 -79.2263 -79.2263
   -79.2255 -79.2255 -79.2227 -79.2227 -79.2217 -79.2217 -79.2188 -79.2188
   -79.0415 -79.0415 -79.0415 -79.0415 -79.0415 -79.0415 -79.0415 -79.0415
   -79.0391 -79.0390 -79.0390 -79.0390 -79.0380 -79.0380 -79.0380 -79.0380
   -79.0359 -79.0359 -79.0357 -79.0357 -79.0349 -79.0349 -79.0348 -79.0348
   -79.0336 -79.0336 -79.0336 -79.0336 -79.0335 -79.0335 -79.0335 -79.0335
   -79.0335 -79.0335 -79.0335 -79.0335 -79.0335 -79.0335 -79.0335 -79.0335
   -79.0331 -79.0331 -79.0331 -79.0331 -79.0326 -79.0326 -79.0326 -79.0326
   -79.0325 -79.0325 -79.0325 -79.0325 -79.0322 -79.0322 -79.0321 -79.0321
   -79.0286 -79.0286 -79.0286 -79.0286 -79.0220 -79.0220 -79.0220 -79.0220
   -79.0205 -79.0205 -79.0205 -79.0205 -79.0205 -79.0205 -79.0205 -79.0205
   -79.0172 -79.0172 -79.0172 -79.0172 -79.0172 -79.0172 -79.0172 -79.0172
   -79.0164 -79.0163 -79.0163 -79.0163 -79.0136 -79.0136 -79.0136 -79.0136
   -79.0126 -79.0126 -79.0126 -79.0126 -79.0097 -79.0097 -79.0097 -79.0097
    -8.1814  -8.1814  -7.3426  -7.3426  -7.0461  -7.0460  -6.8834  -6.8834
    -6.8797  -6.8797  -6.7694  -6.7694  -6.7694  -6.7693  -6.6741  -6.6741
    -6.6677  -6.6677  -6.6677  -6.6677  -6.6441  -6.6441  -6.6281  -6.6280
    -6.6280  -6.6280  -6.5736  -6.5736  -6.5483  -6.5483  -6.5482  -6.5482
    -6.5268  -6.5268  -6.5091  -6.5091  -6.5091  -6.5091  -6.4840  -6.4840
    -6.4840  -6.4840  -6.4804  -6.4804  -6.4710  -6.4710  -6.4458  -6.4458
    -6.4407  -6.4407  -6.4407  -6.4407  -6.3307  -6.3307  -6.3209  -6.3209
    -6.3117  -6.3117  -6.3117  -6.3117  -6.3113  -6.3113  -6.2899  -6.2899
    -6.2899  -6.2899  -6.2560  -6.2560  -6.2405  -6.2405  -6.2405  -6.2405
    -6.2265  -6.2265  -6.2207  -6.2207  -6.1894  -6.1894  -6.1603  -6.1603
    -6.1304  -6.1304  -6.1223  -6.1223  -6.1011  -6.1011  -6.1011  -6.1011
    -6.0810  -6.0809  -6.0809  -6.0809  -6.0606  -6.0606  -6.0509  -6.0509
    -6.0458  -6.0458  -6.0401  -6.0401  -6.0284  -6.0284  -6.0086  -6.0086
    -6.0086  -6.0086  -5.9653  -5.9653  -5.9641  -5.9641  -5.9345  -5.9345
    -5.9231  -5.9231  -5.8916  -5.8916  -5.8916  -5.8916  -5.8337  -5.8337
    -5.8284  -5.8284  -5.8269  -5.8269  -5.8269  -5.8269  -5.8256  -5.8256
    -5.8049  -5.8049  -5.8032  -5.8032  -5.7946  -5.7946  -5.7946  -5.7946
    -5.7865  -5.7864  -5.7853  -5.7853  -5.7853  -5.7853  -5.7750  -5.7750
    -5.7728  -5.7728  -5.7728  -5.7728  -5.6931  -5.6931  -5.6918  -5.6918
    -5.6858  -5.6858  -5.6635  -5.6635  -5.6635  -5.6635  -5.6511  -5.6511
    -5.6410  -5.6410  -5.6223  -5.6223  -5.6223  -5.6223  -5.6130  -5.6130
    -5.5885  -5.5885  -5.5616  -5.5615  -5.5472  -5.5472  -5.5472  -5.5472
    -5.5439  -5.5439  -5.5439  -5.5439  -5.5416  -5.5416  -5.5385  -5.5385
    -5.5169  -5.5169  -5.5169  -5.5169  -5.5058  -5.5058  -5.5054  -5.5054
    -5.5047  -5.5047  -5.4969  -5.4969  -5.4819  -5.4819  -5.4819  -5.4819
    -5.4686  -5.4685  -5.4685  -5.4685  -5.4572  -5.4572  -5.4406  -5.4406
    -5.4338  -5.4338  -5.4338  -5.4338  -5.4302  -5.4302  -5.4301  -5.4301
    -5.4221  -5.4221  -5.4199  -5.4199  -5.4191  -5.4191  -5.3882  -5.3882
    -5.3812  -5.3812  -5.3812  -5.3812  -5.3421  -5.3421  -5.3421  -5.3421
    -5.2722  -5.2722  -5.2722  -5.2722  -5.2536  -5.2536  -5.2527  -5.2527
    -5.2527  -5.2527  -5.2197  -5.2197  -5.2170  -5.2170  -4.7211  -4.7211
    -4.4400  -4.4400  -4.4400  -4.4400  -3.7514  -3.7514  -3.1227  -3.1227
    -3.0816  -3.0816  -3.0816  -3.0816  -2.4045  -2.4045  -2.2601  -2.2601
    -1.7818  -1.7818  -1.7818  -1.7818  -0.7692  -0.7692  -0.7692  -0.7692
    -0.3461  -0.3461  -0.3460  -0.3460  -0.1027  -0.1027  -0.0014  -0.0014
     0.9963   0.9963   1.0362   1.0362   1.3141   1.3141   1.3509   1.3509
     1.3509   1.3509   2.2024   2.2024   2.8801   2.8801   2.8801   2.8801
     3.0882   3.0882   3.0882   3.0882   3.3018   3.3018   3.5466   3.5467
     3.8455   3.8455   3.8455   3.8455   3.9839   3.9839   4.2337   4.2337
     4.4393   4.4393   4.7298   4.7298   4.8365   4.8365   5.4673   5.4673
     5.5319   5.5319   5.7339   5.7339   5.7817   5.7817   5.9171   5.9171
     5.9171   5.9172   5.9703   5.9703   5.9703   5.9703   6.1460   6.1460
     6.1460   6.1460   6.4331   6.4331   6.5389   6.5389   6.6524   6.6524
     6.6694   6.6694   6.8535   6.8535   6.8587   6.8587   6.9896   6.9896
     6.9896   6.9896   7.5920   7.5920   7.7509   7.7509   8.0522   8.0522
     8.0878   8.0878   8.0878   8.0878   8.2661   8.2661   8.4856   8.4856
     8.4856   8.4856   8.6157   8.6157   8.6157   8.6157   8.6740   8.6740
     8.7231   8.7231   8.8136   8.8136   8.9898   8.9898   8.9900   8.9900

     occupation numbers 
     1.0000   1.0000   1.0000   1.0000   1.0000   1.0000   1.0000   1.0000
     1.0000   1.0000   1.0000   1.0000   1.0000   1.0000   1.0000   1.0000
     1.0000   1.0000   1.0000   1.0000   1.0000   1.0000   1.0000   1.0000
     1.0000   1.0000   1.0000   1.0000   1.0000   1.0000   1.0000   1.0000
     1.0000   1.0000   1.0000   1.0000   1.0000   1.0000   1.0000   1.0000
     1.0000   1.0000   1.0000   1.0000   1.0000   1.0000   1.0000   1.0000
     1.0000   1.0000   1.0000   1.0000   1.0000   1.0000   1.0000   1.0000
     1.0000   1.0000   1.0000   1.0000   1.0000   1.0000   1.0000   1.0000
     1.0000   1.0000   1.0000   1.0000   1.0000   1.0000   1.0000   1.0000
     1.0000   1.0000   1.0000   1.0000   1.0000   1.0000   1.0000   1.0000
     1.0000   1.0000   1.0000   1.0000   1.0000   1.0000   1.0000   1.0000
     1.0000   1.0000   1.0000   1.0000   1.0000   1.0000   1.0000   1.0000
     1.0000   1.0000   1.0000   1.0000   1.0000   1.0000   1.0000   1.0000
     1.0000   1.0000   1.0000   1.0000   1.0000   1.0000   1.0000   1.0000
     1.0000   1.0000   1.0000   1.0000   1.0000   1.0000   1.0000   1.0000
     1.0000   1.0000   1.0000   1.0000   1.0000   1.0000   1.0000   1.0000
     1.0000   1.0000   1.0000   1.0000   1.0000   1.0000   1.0000   1.0000
     1.0000   1.0000   1.0000   1.0000   1.0000   1.0000   1.0000   1.0000
     1.0000   1.0000   1.0000   1.0000   1.0000   1.0000   1.0000   1.0000
     1.0000   1.0000   1.0000   1.0000   1.0000   1.0000   1.0000   1.0000
     1.0000   1.0000   1.0000   1.0000   1.0000   1.0000   1.0000   1.0000
     1.0000   1.0000   1.0000   1.0000   1.0000   1.0000   1.0000   1.0000
     1.0000   1.0000   1.0000   1.0000   1.0000   1.0000   1.0000   1.0000
     1.0000   1.0000   1.0000   1.0000   1.0000   1.0000   1.0000   1.0000
     1.0000   1.0000   1.0000   1.0000   1.0000   1.0000   1.0000   1.0000
     1.0000   1.0000   1.0000   1.0000   1.0000   1.0000   1.0000   1.0000
     1.0000   1.0000   1.0000   1.0000   1.0000   1.0000   1.0000   1.0000
     1.0000   1.0000   1.0000   1.0000   1.0000   1.0000   1.0000   1.0000
     1.0000   1.0000   1.0000   1.0000   1.0000   1.0000   1.0000   1.0000
     1.0000   1.0000   1.0000   1.0000   1.0000   1.0000   1.0000   1.0000
     1.0000   1.0000   1.0000   1.0000   1.0000   1.0000   1.0000   1.0000
     1.0000   1.0000   1.0000   1.0000   1.0000   1.0000   1.0000   1.0000
     1.0000   1.0000   1.0000   1.0000   1.0000   1.0000   1.0000   1.0000
     1.0000   1.0000   1.0000   1.0000   1.0000   1.0000   1.0000   1.0000
     1.0000   1.0000   1.0000   1.0000   1.0000   1.0000   1.0000   1.0000
     1.0000   1.0000   1.0000   1.0000   1.0000   1.0000   1.0000   1.0000
     1.0000   1.0000   1.0000   1.0000   1.0000   1.0000   1.0000   1.0000
     1.0000   1.0000   1.0000   1.0000   1.0000   1.0000   1.0000   1.0000
     1.0000   1.0000   1.0000   1.0000   1.0000   1.0000   1.0000   1.0000
     1.0000   1.0000   1.0000   1.0000   1.0000   1.0000   1.0000   1.0000
     1.0000   1.0000   1.0000   1.0000   1.0000   1.0000   1.0000   1.0000
     1.0000   1.0000   1.0000   1.0000   1.0000   1.0000   1.0000   1.0000
     1.0000   1.0000   1.0000   1.0000   1.0000   1.0000   1.0000   1.0000
     1.0000   1.0000   1.0000   1.0000   1.0000   1.0000   1.0000   1.0000
     1.0000   1.0000   1.0000   1.0000   1.0000   1.0000   1.0000   1.0000
     1.0000   1.0000   1.0000   1.0000   1.0000   1.0000   1.0000   1.0000
     1.0000   1.0000   1.0000   1.0000   1.0000   1.0000   1.0000   1.0000
     1.0000   1.0000   1.0000   1.0000   1.0000   1.0000   1.0000   1.0000
     1.0000   1.0000   1.0000   1.0000   1.0000   1.0000   1.0000   1.0000
     1.0000   1.0000   1.0000   1.0000   1.0000   1.0000   1.0000   1.0000
     1.0000   1.0000   1.0000   1.0000   1.0000   1.0000   1.0000   1.0000
     1.0000   1.0000   1.0000   1.0000   1.0000   1.0000   1.0000   1.0000
     1.0000   1.0000   1.0000   1.0000   1.0000   1.0000   1.0000   1.0000
     1.0000   1.0000   1.0000   1.0000   1.0000   1.0000   1.0000   1.0000
     1.0000   1.0000   1.0000   1.0000   1.0000   1.0000   1.0000   1.0000
     1.0000   1.0000   1.0000   1.0000   1.0000   1.0000   1.0000   1.0000
     1.0000   1.0000   1.0000   1.0000   1.0001   1.0001   1.0002   1.0002
     1.0013   1.0013   1.0013   1.0013   1.0335   1.0335   1.0335   1.0335
     1.0684   1.0684   1.0684   1.0684   1.0823   1.0823   1.0831   1.0831
     0.7464   0.7464   0.7201   0.7201   0.5293   0.5293   0.5043   0.5043
     0.5043   0.5043   0.0941   0.0941   0.0110   0.0110   0.0110   0.0110
     0.0049   0.0049   0.0049   0.0049   0.0020   0.0020   0.0006   0.0006
     0.0001   0.0001   0.0001   0.0001   0.0001   0.0001   0.0000   0.0000
     0.0000   0.0000   0.0000   0.0000   0.0000   0.0000   0.0000   0.0000
     0.0000   0.0000   0.0000   0.0000   0.0000   0.0000   0.0000   0.0000
     0.0000   0.0000   0.0000   0.0000   0.0000   0.0000   0.0000   0.0000
     0.0000   0.0000   0.0000   0.0000   0.0000   0.0000   0.0000   0.0000
     0.0000   0.0000   0.0000   0.0000   0.0000   0.0000   0.0000   0.0000
     0.0000   0.0000   0.0000   0.0000   0.0000   0.0000   0.0000   0.0000
     0.0000   0.0000   0.0000   0.0000   0.0000   0.0000   0.0000   0.0000
     0.0000   0.0000   0.0000   0.0000   0.0000   0.0000   0.0000   0.0000
     0.0000   0.0000   0.0000   0.0000   0.0000   0.0000   0.0000   0.0000

     the Fermi energy is     1.5088 ev

!    total energy              =  -22154.22766566 Ry
     estimated scf accuracy    <          9.0E-09 Ry
     smearing contrib. (-TS)   =       0.05564799 Ry
     internal energy E=F+TS    =  -22154.28331365 Ry

     The total energy is F=E-TS. E is the sum of the following terms:
     one-electron contribution = -144864.03711962 Ry
     hartree contribution      =   72364.65531845 Ry
     xc contribution           =   -2024.14945618 Ry
     ewald contribution        =   52369.24794370 Ry

     convergence has been achieved in  12 iterations

     Writing all to output data dir ./tmp/Zn002.save/ :
     XML data file, charge density, pseudopotentials, collected wavefunctions

     init_run     :    115.79s CPU    116.59s WALL (       1 calls)
     electrons    :   9211.08s CPU   9279.96s WALL (       1 calls)

     Called by init_run:
     wfcinit      :    114.51s CPU    115.23s WALL (       1 calls)
     wfcinit:atom :      0.08s CPU      0.12s WALL (      10 calls)
     wfcinit:wfcr :    113.38s CPU    113.97s WALL (      10 calls)
     potinit      :      0.07s CPU      0.09s WALL (       1 calls)
     hinit0       :      0.04s CPU      0.04s WALL (       1 calls)

     Called by electrons:
     c_bands      :   8817.27s CPU   8881.70s WALL (      13 calls)
     sum_band     :    362.91s CPU    365.93s WALL (      13 calls)
     v_of_rho     :      0.89s CPU      0.93s WALL (      13 calls)
     v_h          :      0.06s CPU      0.06s WALL (      13 calls)
     v_xc         :      0.83s CPU      0.87s WALL (      13 calls)
     newd         :     30.71s CPU     32.05s WALL (      13 calls)
     mix_rho      :      0.11s CPU      0.12s WALL (      13 calls)

     Called by c_bands:
     init_us_2    :      4.99s CPU      5.05s WALL (     270 calls)
     cegterg      :   8806.55s CPU   8870.63s WALL (     130 calls)

     Called by sum_band:
     sum_band:wei :      0.09s CPU      0.09s WALL (      13 calls)
     sum_band:loo :    350.84s CPU    352.58s WALL (      13 calls)
     sum_band:buf :      1.08s CPU      1.12s WALL (     130 calls)
     sum_band:ini :      2.42s CPU      2.43s WALL (     130 calls)
     sum_band:cal :    299.08s CPU    300.43s WALL (     130 calls)
     sum_band:bec :      2.65s CPU      2.66s WALL (     130 calls)
     addusdens    :     10.42s CPU     11.68s WALL (      13 calls)
                                        0.00s GPU  (      13 calls)
     addusd:skk   :      0.10s CPU      0.20s WALL (      13 calls)
                                        0.00s GPU  (      13 calls)

     Called by *egterg:
     cdiaghg      :    326.05s CPU    338.64s WALL (     715 calls)
     cegterg:over :   2068.63s CPU   2075.56s WALL (     595 calls)
     cegterg:upda :    580.95s CPU    585.66s WALL (     595 calls)
     cegterg:last :   3359.35s CPU   3376.20s WALL (     250 calls)
     cdiaghg:chol :     20.62s CPU     20.68s WALL (     715 calls)
     cdiaghg:inve :      3.34s CPU      3.35s WALL (     715 calls)
     cdiaghg:para :     85.77s CPU     87.40s WALL (    1430 calls)
     h_psi        :   1578.77s CPU   1589.53s WALL (     735 calls)
     s_psi        :    650.46s CPU    652.08s WALL (     735 calls)
     g_psi        :      0.86s CPU      0.88s WALL (     595 calls)

     Called by h_psi:
     h_psi:calbec :    714.60s CPU    717.92s WALL (     735 calls)
     vloc_psi     :    205.81s CPU    207.37s WALL (     735 calls)
     add_vuspsi   :    656.37s CPU    658.15s WALL (     735 calls)

     General routines
     calbec       :   1013.68s CPU   1018.35s WALL (     865 calls)
     fft          :      1.93s CPU      2.01s WALL (     167 calls)
     ffts         :      0.03s CPU      0.03s WALL (      26 calls)
     fftw         :    216.65s CPU    218.24s WALL (  431858 calls)
     interpolate  :      0.06s CPU      0.06s WALL (      13 calls)

     Parallel routines

     PWSCF        :      2h35m CPU      2h36m WALL


   This run was terminated on:  18: 4:21  26Mar2025            

=------------------------------------------------------------------------------=
   JOB DONE.
=------------------------------------------------------------------------------=
Note: The following floating-point exceptions are signalling: IEEE_DENORMAL
Note: The following floating-point exceptions are signalling: IEEE_DENORMAL
Note: The following floating-point exceptions are signalling: IEEE_DENORMAL
Note: The following floating-point exceptions are signalling: IEEE_DENORMAL
Note: The following floating-point exceptions are signalling: IEEE_DENORMAL
Note: The following floating-point exceptions are signalling: IEEE_DENORMAL
Note: The following floating-point exceptions are signalling: IEEE_DENORMAL
Note: The following floating-point exceptions are signalling: IEEE_DENORMAL
Note: The following floating-point exceptions are signalling: IEEE_DENORMAL
Note: The following floating-point exceptions are signalling: IEEE_DENORMAL
Note: The following floating-point exceptions are signalling: IEEE_DENORMAL
