--------------------------------------------------------------------------
WARNING: There was an error initializing an OpenFabrics device.

  Local host:   ga00
  Local device: mlx5_0
--------------------------------------------------------------------------

     Program PWSCF v.7.3.1 starts on  5Apr2025 at  5: 9:46 

     This program is part of the open-source Quantum ESPRESSO suite
     for quantum simulation of materials; please cite
         "P. Giannozzi et al., J. Phys.:Condens. Matter 21 395502 (2009);
         "P. Giannozzi et al., J. Phys.:Condens. Matter 29 465901 (2017);
         "P. Giannozzi et al., J. Chem. Phys. 152 154105 (2020);
          URL http://www.quantum-espresso.org", 
     in publications or presentations arising from this work. More details at
     http://www.quantum-espresso.org/quote

     Parallel version (MPI), running on    31 processors

     MPI processes distributed on     1 nodes
     113136 MiB available memory on the printing compute node when the environment starts

     Waiting for input...
     Reading input from standard input
Warning: card &CELL ignored
Warning: card   CELL_DOFREE = 'ALL' ignored
Warning: card / ignored

     Current dimensions of program PWSCF are:
     Max number of different atomic species (ntypx) = 10
     Max number of k-points (npk) =  40000
     Max angular momentum in pseudopotentials (lmaxx) =  4
     Presently stress not available with electric field and gates


     R & G space division:  proc/nbgrp/npool/nimage =      31
     Subspace diagonalization in iterative solution of the eigenvalue problem:
     one sub-group per band group will be used
     custom distributed-memory algorithm (size of sub-group:  5*  5 procs)


     Parallelization info
     --------------------
     sticks:   dense  smooth     PW     G-vecs:    dense   smooth      PW
     Min         243     138     37                38743    16729    2309
     Max         246     140     38                38746    16740    2312
     Sum        7555    4303   1159              1201061   518755   71619

     Using Slab Decomposition



     bravais-lattice index     =            0
     lattice parameter (alat)  =      19.7617  a.u.
     unit-cell volume          =   15176.5939 (a.u.)^3
     number of atoms/cell      =           48
     number of atomic types    =            1
     number of electrons       =       959.00
     number of Kohn-Sham states=          576
     kinetic-energy cutoff     =      40.0000  Ry
     charge density cutoff     =     280.0000  Ry
     scf convergence threshold =      1.0E-06
     mixing beta               =       0.4000
     number of iterations used =            8  plain     mixing
     Exchange-correlation= SLA  PW   PBE  PBE
                           (   1   4   3   4   0   0   0)

     celldm(1)=  19.761696  celldm(2)=   0.000000  celldm(3)=   0.000000
     celldm(4)=   0.000000  celldm(5)=   0.000000  celldm(6)=   0.000000

     crystal axes: (cart. coord. in units of alat)
               a(1) = (   1.000000   0.000000   0.000000 )  
               a(2) = (  -0.500000   0.866025   0.000000 )  
               a(3) = (   0.000000   0.000000   2.270759 )  

     reciprocal axes: (cart. coord. in units 2 pi/alat)
               b(1) = (  1.000000  0.577350 -0.000000 )  
               b(2) = (  0.000000  1.154701  0.000000 )  
               b(3) = (  0.000000 -0.000000  0.440381 )  


     PseudoPot. # 1 for Zn read from file:
     /home/yongsang/Research/PSID_server_room/qe/[00]QE/qepseudo/SSSP_1.3.0_PBE_efficiency/Zn_pbe_v1.uspp.F.UPF
     MD5 check sum: df62231357ef9e81f77b2b3087fa5675
     Pseudo is Ultrasoft, Zval = 20.0
     Generated by new atomic code, or converted to UPF format
     Using radial grid of  943 points,  6 beta functions with: 
                l(1) =   0
                l(2) =   0
                l(3) =   1
                l(4) =   1
                l(5) =   2
                l(6) =   2
     Q(r) pseudized with  8 coefficients,  rinner =    1.100   1.100   1.100
                                                       1.100   1.100

     atomic species   valence    mass     pseudopotential
     Zn               20.00    65.38000     Zn( 1.00)

     No symmetry found


                                    s                        frac. trans.

      isym =  1     identity                                     

 cryst.   s( 1) = (     1          0          0      )
                  (     0          1          0      )
                  (     0          0          1      )

 cart.    s( 1) = (  1.0000000  0.0000000  0.0000000 )
                  (  0.0000000  1.0000000  0.0000000 )
                  (  0.0000000  0.0000000  1.0000000 )


   Cartesian axes

     site n.     atom                  positions (alat units)
         1        Zn     tau(   1) = (   0.0000000   0.1443375   0.1164998  )
         2        Zn     tau(   2) = (   0.5000000   0.1443375   0.1164998  )
         3        Zn     tau(   3) = (  -0.0000028   0.1443288   0.5893147  )
         4        Zn     tau(   4) = (   0.5000063   0.1444162   0.5894224  )
         5        Zn     tau(   5) = (  -0.1250000   0.3608439   0.1164998  )
         6        Zn     tau(   6) = (   0.3750000   0.3608439   0.1164998  )
         7        Zn     tau(   7) = (  -0.1250519   0.3608939   0.5893373  )
         8        Zn     tau(   8) = (   0.3750559   0.3609312   0.5893259  )
         9        Zn     tau(   9) = (  -0.2500000   0.5773502   0.1164998  )
        10        Zn     tau(  10) = (   0.2500000   0.5773502   0.1164998  )
        11        Zn     tau(  11) = (  -0.2500755   0.5773115   0.5893062  )
        12        Zn     tau(  12) = (   0.2500706   0.5773194   0.5893683  )
        13        Zn     tau(  13) = (  -0.3750000   0.7938567   0.1164998  )
        14        Zn     tau(  14) = (   0.1250000   0.7938567   0.1164998  )
        15        Zn     tau(  15) = (  -0.3750282   0.7937620   0.5892922  )
        16        Zn     tau(  16) = (   0.1250261   0.7938119   0.5894597  )
        17        Zn     tau(  17) = (   0.2500000   0.1443375   0.1164998  )
        18        Zn     tau(  18) = (   0.7500000   0.1443375   0.1164998  )
        19        Zn     tau(  19) = (   0.2499869   0.1443517   0.5893259  )
        20        Zn     tau(  20) = (   0.7500091   0.1443904   0.5894171  )
        21        Zn     tau(  21) = (   0.1250000   0.3608439   0.1164998  )
        22        Zn     tau(  22) = (   0.6250000   0.3608439   0.1164998  )
        23        Zn     tau(  23) = (   0.1250128   0.3608820   0.5893185  )
        24        Zn     tau(  24) = (   0.6249827   0.3609428   0.5893301  )
        25        Zn     tau(  25) = (   0.0000000   0.5773502   0.1164998  )
        26        Zn     tau(  26) = (   0.5000000   0.5773502   0.1164998  )
        27        Zn     tau(  27) = (  -0.0000277   0.5773140   0.5893837  )
        28        Zn     tau(  28) = (   0.5000305   0.5773158   0.5892824  )
        29        Zn     tau(  29) = (  -0.1250000   0.7938567   0.1164998  )
        30        Zn     tau(  30) = (   0.3750000   0.7938567   0.1164998  )
        31        Zn     tau(  31) = (  -0.1250544   0.7937943   0.5893864  )
        32        Zn     tau(  32) = (   0.3750529   0.7937806   0.5893662  )
        33        Zn     tau(  33) = (   0.1249604   0.0721258   0.3528222  )
        34        Zn     tau(  34) = (   0.6250402   0.0722582   0.3530318  )
        35        Zn     tau(  35) = (  -0.0000909   0.2887357   0.3529168  )
        36        Zn     tau(  36) = (   0.5000909   0.2888123   0.3530366  )
        37        Zn     tau(  37) = (  -0.1251119   0.5051366   0.3530212  )
        38        Zn     tau(  38) = (   0.3751115   0.5051777   0.3530364  )
        39        Zn     tau(  39) = (  -0.2500579   0.7215434   0.3529342  )
        40        Zn     tau(  40) = (   0.2500581   0.7216415   0.3530241  )
        41        Zn     tau(  41) = (   0.3750642   0.0722100   0.3529096  )
        42        Zn     tau(  42) = (   0.8749335   0.0721725   0.3529557  )
        43        Zn     tau(  43) = (   0.2500889   0.2887828   0.3529046  )
        44        Zn     tau(  44) = (   0.7499090   0.2887654   0.3530512  )
        45        Zn     tau(  45) = (   0.1250386   0.5051978   0.3529893  )
        46        Zn     tau(  46) = (   0.6249614   0.5051196   0.3530706  )
        47        Zn     tau(  47) = (   0.0000156   0.7216406   0.3529879  )
        48        Zn     tau(  48) = (   0.4999831   0.7215417   0.3529641  )

     --------------------------------------------
     DFT-D3 Dispersion Correction (3-body terms):
     --------------------------------------------
       Reference C6 values for interpolation: 

         atom   Coordination number   C6
         Zn         0.000           681.04
         Zn         1.942           306.91

       Values used:

         atom   Coordination number  R0_AB[au]  C6      C8
         Zn         6.782            3.053    306.91  23930.67
         Zn         6.779            3.053    306.91  23930.67
         Zn         6.779            3.053    306.91  23930.67
         Zn         6.779            3.053    306.91  23930.67
         Zn         6.780            3.053    306.91  23930.67
         Zn         6.780            3.053    306.91  23930.67
         Zn         6.786            3.053    306.91  23930.67
         Zn         6.788            3.053    306.91  23930.67
         Zn         6.780            3.053    306.91  23930.67
         Zn         6.778            3.053    306.91  23930.67
         Zn         6.791            3.053    306.91  23930.67
         Zn         6.785            3.053    306.91  23930.67
         Zn         6.782            3.053    306.91  23930.67
         Zn         6.777            3.053    306.91  23930.67
         Zn         6.783            3.053    306.91  23930.67
         Zn         6.777            3.053    306.91  23930.67
         Zn         6.782            3.053    306.91  23930.67
         Zn         6.779            3.053    306.91  23930.67
         Zn         6.777            3.053    306.91  23930.67
         Zn         6.781            3.053    306.91  23930.67
         Zn         6.780            3.053    306.91  23930.67
         Zn         6.779            3.053    306.91  23930.67
         Zn         6.782            3.053    306.91  23930.67
         Zn         6.793            3.053    306.91  23930.67
         Zn         6.778            3.053    306.91  23930.67
         Zn         6.780            3.053    306.91  23930.67
         Zn         6.782            3.053    306.91  23930.67
         Zn         6.795            3.053    306.91  23930.67
         Zn         6.779            3.053    306.91  23930.67
         Zn         6.779            3.053    306.91  23930.67
         Zn         6.777            3.053    306.91  23930.67
         Zn         6.783            3.053    306.91  23930.67
         Zn         8.379            3.053    306.91  23930.67
         Zn         8.379            3.053    306.91  23930.67
         Zn         8.381            3.053    306.91  23930.67
         Zn         8.387            3.053    306.91  23930.67
         Zn         8.386            3.053    306.91  23930.67
         Zn         8.390            3.053    306.91  23930.67
         Zn         8.383            3.053    306.91  23930.67
         Zn         8.381            3.053    306.91  23930.67
         Zn         8.377            3.053    306.91  23930.67
         Zn         8.380            3.053    306.91  23930.67
         Zn         8.381            3.053    306.91  23930.67
         Zn         8.387            3.053    306.91  23930.67
         Zn         8.382            3.053    306.91  23930.67
         Zn         8.394            3.053    306.91  23930.67
         Zn         8.378            3.053    306.91  23930.67
         Zn         8.387            3.053    306.91  23930.67

         Molecular C6 ( Ry / a.u.^6 ) =    707110.50


   Crystallographic axes

     site n.     atom                  positions (cryst. coord.)
         1        Zn     tau(   1) = (  0.0833333  0.1666666  0.0513044  )
         2        Zn     tau(   2) = (  0.5833333  0.1666666  0.0513044  )
         3        Zn     tau(   3) = (  0.0833255  0.1666566  0.2595232  )
         4        Zn     tau(   4) = (  0.5833850  0.1667575  0.2595707  )
         5        Zn     tau(   5) = (  0.0833333  0.4166666  0.0513044  )
         6        Zn     tau(   6) = (  0.5833333  0.4166666  0.0513044  )
         7        Zn     tau(   7) = (  0.0833103  0.4167244  0.2595332  )
         8        Zn     tau(   8) = (  0.5834397  0.4167674  0.2595282  )
         9        Zn     tau(   9) = (  0.0833333  0.6666666  0.0513044  )
        10        Zn     tau(  10) = (  0.5833333  0.6666666  0.0513044  )
        11        Zn     tau(  11) = (  0.0832354  0.6666219  0.2595195  )
        12        Zn     tau(  12) = (  0.5833861  0.6666310  0.2595469  )
        13        Zn     tau(  13) = (  0.0833333  0.9166667  0.0513044  )
        14        Zn     tau(  14) = (  0.5833334  0.9166667  0.0513044  )
        15        Zn     tau(  15) = (  0.0832505  0.9165574  0.2595133  )
        16        Zn     tau(  16) = (  0.5833336  0.9166150  0.2595871  )
        17        Zn     tau(  17) = (  0.3333333  0.1666666  0.0513044  )
        18        Zn     tau(  18) = (  0.8333334  0.1666666  0.0513044  )
        19        Zn     tau(  19) = (  0.3333283  0.1666830  0.2595282  )
        20        Zn     tau(  20) = (  0.8333729  0.1667277  0.2595683  )
        21        Zn     tau(  21) = (  0.3333333  0.4166666  0.0513044  )
        22        Zn     tau(  22) = (  0.8333333  0.4166666  0.0513044  )
        23        Zn     tau(  23) = (  0.3333682  0.4167106  0.2595249  )
        24        Zn     tau(  24) = (  0.8333732  0.4167809  0.2595300  )
        25        Zn     tau(  25) = (  0.3333333  0.6666666  0.0513044  )
        26        Zn     tau(  26) = (  0.8333333  0.6666666  0.0513044  )
        27        Zn     tau(  27) = (  0.3332848  0.6666248  0.2595536  )
        28        Zn     tau(  28) = (  0.8333439  0.6666269  0.2595090  )
        29        Zn     tau(  29) = (  0.3333334  0.9166667  0.0513044  )
        30        Zn     tau(  30) = (  0.8333334  0.9166667  0.0513044  )
        31        Zn     tau(  31) = (  0.3332430  0.9165947  0.2595548  )
        32        Zn     tau(  32) = (  0.8333424  0.9165789  0.2595459  )
        33        Zn     tau(  33) = (  0.1666023  0.0832837  0.1553763  )
        34        Zn     tau(  34) = (  0.6667585  0.0834366  0.1554686  )
        35        Zn     tau(  35) = (  0.1666108  0.3334033  0.1554180  )
        36        Zn     tau(  36) = (  0.6668367  0.3334917  0.1554708  )
        37        Zn     tau(  37) = (  0.1665288  0.5832815  0.1554640  )
        38        Zn     tau(  38) = (  0.6667759  0.5833289  0.1554707  )
        39        Zn     tau(  39) = (  0.1665254  0.8331665  0.1554257  )
        40        Zn     tau(  40) = (  0.6666980  0.8332799  0.1554653  )
        41        Zn     tau(  41) = (  0.4167547  0.0833809  0.1554148  )
        42        Zn     tau(  42) = (  0.9166023  0.0833376  0.1554351  )
        43        Zn     tau(  43) = (  0.4168177  0.3334577  0.1554126  )
        44        Zn     tau(  44) = (  0.9166278  0.3334375  0.1554772  )
        45        Zn     tau(  45) = (  0.4167147  0.5833521  0.1554499  )
        46        Zn     tau(  46) = (  0.9165924  0.5832619  0.1554857  )
        47        Zn     tau(  47) = (  0.4166549  0.8332788  0.1554493  )
        48        Zn     tau(  48) = (  0.9165654  0.8331646  0.1554388  )

     number of k points=     5  Marzari-Vanderbilt smearing, width (Ry)=  0.0200
                       cart. coord. in units 2pi/alat
        k(    1) = (   0.0000000   0.0000000   0.0000000), wk =   0.2222222
        k(    2) = (   0.0000000   0.3849002   0.0000000), wk =   0.4444444
        k(    3) = (   0.3333333   0.1924501   0.0000000), wk =   0.4444444
        k(    4) = (   0.3333333   0.5773503   0.0000000), wk =   0.4444444
        k(    5) = (   0.3333333  -0.1924501   0.0000000), wk =   0.4444444

                       cryst. coord.
        k(    1) = (   0.0000000   0.0000000   0.0000000), wk =   0.2222222
        k(    2) = (   0.0000000   0.3333333   0.0000000), wk =   0.4444444
        k(    3) = (   0.3333333   0.0000000   0.0000000), wk =   0.4444444
        k(    4) = (   0.3333333   0.3333333   0.0000000), wk =   0.4444444
        k(    5) = (   0.3333333  -0.3333333   0.0000000), wk =   0.4444444

     Dense  grid:  1201061 G-vectors     FFT dimensions: ( 108, 108, 240)

     Smooth grid:   518755 G-vectors     FFT dimensions: (  80,  80, 192)

     Dynamical RAM for                 wfc:      18.38 MB

     Dynamical RAM for     wfc (w. buffer):     110.27 MB

     Dynamical RAM for           str. fact:       0.59 MB

     Dynamical RAM for           local pot:       0.00 MB

     Dynamical RAM for          nlocal pot:      27.57 MB

     Dynamical RAM for                qrad:       1.34 MB

     Dynamical RAM for          rho,v,vnew:       3.91 MB

     Dynamical RAM for               rhoin:       1.30 MB

     Dynamical RAM for            rho*nmix:       9.46 MB

     Dynamical RAM for           G-vectors:       2.34 MB

     Dynamical RAM for          h,s,v(r/c):       2.42 MB

     Dynamical RAM for          <psi|beta>:       7.59 MB

     Dynamical RAM for                 psi:      36.76 MB

     Dynamical RAM for                hpsi:      36.76 MB

     Dynamical RAM for                spsi:      36.76 MB

     Dynamical RAM for      wfcinit/wfcrot:      48.74 MB

     Dynamical RAM for           addusdens:     138.34 MB

     Dynamical RAM for          addusforce:     194.40 MB

     Estimated static dynamical RAM per process >     152.07 MB

     Estimated max dynamical RAM per process >     355.93 MB

     Estimated total dynamical RAM >      10.78 GB

     Initial potential from superposition of free atoms

     starting charge     959.9932, renormalised to     959.0000

     negative rho (up, down):  3.973E-03 0.000E+00

     Adding external electric field

     Computed dipole along edir(1) : 
        Elec. dipole         -0.3352 Ry au,         -0.8520 Debye
        Ion. dipole          -0.4919 Ry au,         -1.2502 Debye
        Dipole             -189.1636 Ry au,       -480.8059 Debye
        Dipole field         -0.1566 Ry au, 

        Potential amp.        5.5715 Ry
        Total length         17.7855 bohr

     Starting wfcs are  624 randomized atomic wfcs
[ga00:4017518] 30 more processes have sent help message help-mpi-btl-openib.txt / error in device init
[ga00:4017518] Set MCA parameter "orte_base_help_aggregate" to 0 to see all help / error messages

     total cpu time spent up to now is       23.8 secs

     Self-consistent Calculation

     iteration #  1     ecut=    40.00 Ry     beta= 0.40
     Davidson diagonalization with overlap

---- Real-time Memory Report at c_bands before calling an iterative solver
           391 MiB given to the printing process from OS
             0 MiB allocation reported by mallinfo(arena+hblkhd)
        107112 MiB available memory on the node where the printing process lives
------------------
     ethr =  1.00E-02,  avg # of iterations = 10.2

     negative rho (up, down):  1.319E-03 0.000E+00

     Adding external electric field

     Computed dipole along edir(1) : 
        Elec. dipole         -1.0730 Ry au,         -2.7274 Debye
        Ion. dipole          -0.4919 Ry au,         -1.2502 Debye
        Dipole              701.8907 Ry au,       1784.0281 Debye
        Dipole field          0.5812 Ry au, 

        Potential amp.      -20.6729 Ry
        Total length         17.7855 bohr


     total cpu time spent up to now is      222.0 secs

     total energy              =  -16850.83996535 Ry
     estimated scf accuracy    <    8976.71065255 Ry

     iteration #  2     ecut=    40.00 Ry     beta= 0.40
     Davidson diagonalization with overlap

---- Real-time Memory Report at c_bands before calling an iterative solver
           494 MiB given to the printing process from OS
             0 MiB allocation reported by mallinfo(arena+hblkhd)
        106597 MiB available memory on the node where the printing process lives
------------------
     ethr =  1.00E-02,  avg # of iterations = 28.2

     negative rho (up, down):  2.050E-03 0.000E+00

     Adding external electric field

     Computed dipole along edir(1) : 
        Elec. dipole         -0.5954 Ry au,         -1.5133 Debye
        Ion. dipole          -0.4919 Ry au,         -1.2502 Debye
        Dipole              125.0468 Ry au,        317.8372 Debye
        Dipole field          0.1035 Ry au, 

        Potential amp.       -3.6830 Ry
        Total length         17.7855 bohr


     total cpu time spent up to now is      992.8 secs

     total energy              =  -19671.20768650 Ry
     estimated scf accuracy    <   65505.21425514 Ry

     iteration #  3     ecut=    40.00 Ry     beta= 0.40
     Davidson diagonalization with overlap

---- Real-time Memory Report at c_bands before calling an iterative solver
           506 MiB given to the printing process from OS
             0 MiB allocation reported by mallinfo(arena+hblkhd)
        106645 MiB available memory on the node where the printing process lives
------------------
     ethr =  1.00E-02,  avg # of iterations = 11.0

     negative rho (up, down):  5.254E-03 0.000E+00

     Adding external electric field

     Computed dipole along edir(1) : 
        Elec. dipole         -0.5369 Ry au,         -1.3648 Debye
        Ion. dipole          -0.4919 Ry au,         -1.2502 Debye
        Dipole               54.4629 Ry au,        138.4309 Debye
        Dipole field          0.0451 Ry au, 

        Potential amp.       -1.6041 Ry
        Total length         17.7855 bohr


     total cpu time spent up to now is     1300.2 secs

     total energy              =  -21927.16612891 Ry
     estimated scf accuracy    <    7850.64611090 Ry

     iteration #  4     ecut=    40.00 Ry     beta= 0.40
     Davidson diagonalization with overlap

---- Real-time Memory Report at c_bands before calling an iterative solver
           512 MiB given to the printing process from OS
             0 MiB allocation reported by mallinfo(arena+hblkhd)
        106652 MiB available memory on the node where the printing process lives
------------------
     ethr =  1.00E-02,  avg # of iterations =  8.0

     negative rho (up, down):  3.879E-03 0.000E+00

     Adding external electric field

     Computed dipole along edir(1) : 
        Elec. dipole         -0.4959 Ry au,         -1.2605 Debye
        Ion. dipole          -0.4919 Ry au,         -1.2502 Debye
        Dipole                4.9279 Ry au,         12.5255 Debye
        Dipole field          0.0041 Ry au, 

        Potential amp.       -0.1451 Ry
        Total length         17.7855 bohr


     total cpu time spent up to now is     1465.9 secs

     total energy              =  -22299.74315622 Ry
     estimated scf accuracy    <    1297.45532221 Ry

     iteration #  5     ecut=    40.00 Ry     beta= 0.40
     Davidson diagonalization with overlap

---- Real-time Memory Report at c_bands before calling an iterative solver
           512 MiB given to the printing process from OS
             0 MiB allocation reported by mallinfo(arena+hblkhd)
        106597 MiB available memory on the node where the printing process lives
------------------
     ethr =  1.00E-02,  avg # of iterations =  6.0

     negative rho (up, down):  3.606E-03 0.000E+00

     Adding external electric field

     Computed dipole along edir(1) : 
        Elec. dipole         -0.4969 Ry au,         -1.2630 Debye
        Ion. dipole          -0.4919 Ry au,         -1.2502 Debye
        Dipole                6.1238 Ry au,         15.5651 Debye
        Dipole field          0.0051 Ry au, 

        Potential amp.       -0.1804 Ry
        Total length         17.7855 bohr


     total cpu time spent up to now is     1573.3 secs

     total energy              =  -22292.78513393 Ry
     estimated scf accuracy    <     522.10529832 Ry

     iteration #  6     ecut=    40.00 Ry     beta= 0.40
     Davidson diagonalization with overlap

---- Real-time Memory Report at c_bands before calling an iterative solver
           515 MiB given to the printing process from OS
             0 MiB allocation reported by mallinfo(arena+hblkhd)
        106606 MiB available memory on the node where the printing process lives
------------------
     ethr =  1.00E-02,  avg # of iterations =  2.0

     negative rho (up, down):  3.368E-03 0.000E+00

     Adding external electric field

     Computed dipole along edir(1) : 
        Elec. dipole         -0.4768 Ry au,         -1.2119 Debye
        Ion. dipole          -0.4919 Ry au,         -1.2502 Debye
        Dipole              -18.1850 Ry au,        -46.2217 Debye
        Dipole field         -0.0151 Ry au, 

        Potential amp.        0.5356 Ry
        Total length         17.7855 bohr


     total cpu time spent up to now is     1644.6 secs

     total energy              =  -22207.63832298 Ry
     estimated scf accuracy    <     454.06818479 Ry

     iteration #  7     ecut=    40.00 Ry     beta= 0.40
     Davidson diagonalization with overlap

---- Real-time Memory Report at c_bands before calling an iterative solver
           519 MiB given to the printing process from OS
             0 MiB allocation reported by mallinfo(arena+hblkhd)
        106547 MiB available memory on the node where the printing process lives
------------------
     ethr =  1.00E-02,  avg # of iterations =  2.0

     negative rho (up, down):  3.357E-03 0.000E+00

     Adding external electric field

     Computed dipole along edir(1) : 
        Elec. dipole         -0.4701 Ry au,         -1.1948 Debye
        Ion. dipole          -0.4919 Ry au,         -1.2502 Debye
        Dipole              -26.3258 Ry au,        -66.9136 Debye
        Dipole field         -0.0218 Ry au, 

        Potential amp.        0.7754 Ry
        Total length         17.7855 bohr


     total cpu time spent up to now is     1721.4 secs

     total energy              =  -22198.91462623 Ry
     estimated scf accuracy    <     280.34969327 Ry

     iteration #  8     ecut=    40.00 Ry     beta= 0.40
     Davidson diagonalization with overlap

---- Real-time Memory Report at c_bands before calling an iterative solver
           519 MiB given to the printing process from OS
             0 MiB allocation reported by mallinfo(arena+hblkhd)
        106559 MiB available memory on the node where the printing process lives
------------------
     ethr =  1.00E-02,  avg # of iterations =  1.2

     negative rho (up, down):  3.436E-03 0.000E+00

     Adding external electric field

     Computed dipole along edir(1) : 
        Elec. dipole         -0.4676 Ry au,         -1.1884 Debye
        Ion. dipole          -0.4919 Ry au,         -1.2502 Debye
        Dipole              -29.3270 Ry au,        -74.5418 Debye
        Dipole field         -0.0243 Ry au, 

        Potential amp.        0.8638 Ry
        Total length         17.7855 bohr


     total cpu time spent up to now is     1782.1 secs

     total energy              =  -22194.70737027 Ry
     estimated scf accuracy    <     218.23875155 Ry

     iteration #  9     ecut=    40.00 Ry     beta= 0.40
     Davidson diagonalization with overlap

---- Real-time Memory Report at c_bands before calling an iterative solver
           520 MiB given to the printing process from OS
             0 MiB allocation reported by mallinfo(arena+hblkhd)
        106539 MiB available memory on the node where the printing process lives
------------------
     ethr =  1.00E-02,  avg # of iterations =  1.2

     negative rho (up, down):  3.473E-03 0.000E+00

     Adding external electric field

     Computed dipole along edir(1) : 
        Elec. dipole         -0.4624 Ry au,         -1.1752 Debye
        Ion. dipole          -0.4919 Ry au,         -1.2502 Debye
        Dipole              -35.6282 Ry au,        -90.5578 Debye
        Dipole field         -0.0295 Ry au, 

        Potential amp.        1.0494 Ry
        Total length         17.7855 bohr


     total cpu time spent up to now is     1842.8 secs

     total energy              =  -22183.20053331 Ry
     estimated scf accuracy    <     187.26627667 Ry

     iteration # 10     ecut=    40.00 Ry     beta= 0.40
     Davidson diagonalization with overlap

---- Real-time Memory Report at c_bands before calling an iterative solver
           520 MiB given to the printing process from OS
             0 MiB allocation reported by mallinfo(arena+hblkhd)
        106524 MiB available memory on the node where the printing process lives
------------------
     ethr =  1.00E-02,  avg # of iterations =  1.0

     negative rho (up, down):  4.042E-03 0.000E+00

     Adding external electric field

     Computed dipole along edir(1) : 
        Elec. dipole         -0.4270 Ry au,         -1.0853 Debye
        Ion. dipole          -0.4919 Ry au,         -1.2502 Debye
        Dipole              -78.3370 Ry au,       -199.1128 Debye
        Dipole field         -0.0649 Ry au, 

        Potential amp.        2.3073 Ry
        Total length         17.7855 bohr


     total cpu time spent up to now is     1901.0 secs

     total energy              =  -22124.16167190 Ry
     estimated scf accuracy    <     137.25873176 Ry

     iteration # 11     ecut=    40.00 Ry     beta= 0.40
     Davidson diagonalization with overlap

---- Real-time Memory Report at c_bands before calling an iterative solver
           522 MiB given to the printing process from OS
             0 MiB allocation reported by mallinfo(arena+hblkhd)
        106521 MiB available memory on the node where the printing process lives
------------------
     ethr =  1.00E-02,  avg # of iterations =  7.0

     negative rho (up, down):  3.104E-03 0.000E+00

     Adding external electric field

     Computed dipole along edir(1) : 
        Elec. dipole         -0.4345 Ry au,         -1.1044 Debye
        Ion. dipole          -0.4919 Ry au,         -1.2502 Debye
        Dipole              -69.2782 Ry au,       -176.0875 Debye
        Dipole field         -0.0574 Ry au, 

        Potential amp.        2.0405 Ry
        Total length         17.7855 bohr


     total cpu time spent up to now is     2019.0 secs

     total energy              =  -22137.90301986 Ry
     estimated scf accuracy    <     106.40673214 Ry

     iteration # 12     ecut=    40.00 Ry     beta= 0.40
     Davidson diagonalization with overlap

---- Real-time Memory Report at c_bands before calling an iterative solver
           522 MiB given to the printing process from OS
             0 MiB allocation reported by mallinfo(arena+hblkhd)
        106513 MiB available memory on the node where the printing process lives
------------------
     ethr =  1.00E-02,  avg # of iterations =  3.0

     negative rho (up, down):  3.245E-03 0.000E+00

     Adding external electric field

     Computed dipole along edir(1) : 
        Elec. dipole         -0.4341 Ry au,         -1.1033 Debye
        Ion. dipole          -0.4919 Ry au,         -1.2502 Debye
        Dipole              -69.7974 Ry au,       -177.4073 Debye
        Dipole field         -0.0578 Ry au, 

        Potential amp.        2.0558 Ry
        Total length         17.7855 bohr


     total cpu time spent up to now is     2092.6 secs

     total energy              =  -22144.47464754 Ry
     estimated scf accuracy    <       9.06729641 Ry

     iteration # 13     ecut=    40.00 Ry     beta= 0.40
     Davidson diagonalization with overlap

---- Real-time Memory Report at c_bands before calling an iterative solver
           522 MiB given to the printing process from OS
             0 MiB allocation reported by mallinfo(arena+hblkhd)
        106483 MiB available memory on the node where the printing process lives
------------------
     ethr =  9.45E-04,  avg # of iterations =  8.0

     negative rho (up, down):  4.218E-03 0.000E+00

     Adding external electric field

     Computed dipole along edir(1) : 
        Elec. dipole         -0.4288 Ry au,         -1.0899 Debye
        Ion. dipole          -0.4919 Ry au,         -1.2502 Debye
        Dipole              -76.1699 Ry au,       -193.6046 Debye
        Dipole field         -0.0631 Ry au, 

        Potential amp.        2.2434 Ry
        Total length         17.7855 bohr


     total cpu time spent up to now is     2175.8 secs

     total energy              =  -22144.78819044 Ry
     estimated scf accuracy    <       3.16909951 Ry

     iteration # 14     ecut=    40.00 Ry     beta= 0.40
     Davidson diagonalization with overlap

---- Real-time Memory Report at c_bands before calling an iterative solver
           522 MiB given to the printing process from OS
             0 MiB allocation reported by mallinfo(arena+hblkhd)
        106496 MiB available memory on the node where the printing process lives
------------------
     ethr =  3.30E-04,  avg # of iterations = 10.0

     negative rho (up, down):  3.232E-03 0.000E+00

     Adding external electric field

     Computed dipole along edir(1) : 
        Elec. dipole         -0.4340 Ry au,         -1.1032 Debye
        Ion. dipole          -0.4919 Ry au,         -1.2502 Debye
        Dipole              -69.8284 Ry au,       -177.4861 Debye
        Dipole field         -0.0578 Ry au, 

        Potential amp.        2.0567 Ry
        Total length         17.7855 bohr


     total cpu time spent up to now is     2294.9 secs

     total energy              =  -22139.13449060 Ry
     estimated scf accuracy    <      63.65901951 Ry

     iteration # 15     ecut=    40.00 Ry     beta= 0.40
     Davidson diagonalization with overlap

---- Real-time Memory Report at c_bands before calling an iterative solver
           522 MiB given to the printing process from OS
             0 MiB allocation reported by mallinfo(arena+hblkhd)
        106495 MiB available memory on the node where the printing process lives
------------------
     ethr =  3.30E-04,  avg # of iterations = 12.2

     negative rho (up, down):  3.080E-03 0.000E+00

     Adding external electric field

     Computed dipole along edir(1) : 
        Elec. dipole         -0.4348 Ry au,         -1.1051 Debye
        Ion. dipole          -0.4919 Ry au,         -1.2502 Debye
        Dipole              -68.9105 Ry au,       -175.1530 Debye
        Dipole field         -0.0571 Ry au, 

        Potential amp.        2.0296 Ry
        Total length         17.7855 bohr


     total cpu time spent up to now is     2401.6 secs

     total energy              =  -22143.91754442 Ry
     estimated scf accuracy    <       1.10923789 Ry

     iteration # 16     ecut=    40.00 Ry     beta= 0.40
     Davidson diagonalization with overlap

---- Real-time Memory Report at c_bands before calling an iterative solver
           522 MiB given to the printing process from OS
             0 MiB allocation reported by mallinfo(arena+hblkhd)
        106498 MiB available memory on the node where the printing process lives
------------------
     ethr =  1.16E-04,  avg # of iterations = 11.6

     negative rho (up, down):  3.083E-03 0.000E+00

     Adding external electric field

     Computed dipole along edir(1) : 
        Elec. dipole         -0.4350 Ry au,         -1.1057 Debye
        Ion. dipole          -0.4919 Ry au,         -1.2502 Debye
        Dipole              -68.6624 Ry au,       -174.5223 Debye
        Dipole field         -0.0569 Ry au, 

        Potential amp.        2.0223 Ry
        Total length         17.7855 bohr


     total cpu time spent up to now is     2497.1 secs

     total energy              =  -22144.05629238 Ry
     estimated scf accuracy    <       0.87413126 Ry

     iteration # 17     ecut=    40.00 Ry     beta= 0.40
     Davidson diagonalization with overlap

---- Real-time Memory Report at c_bands before calling an iterative solver
           522 MiB given to the printing process from OS
             0 MiB allocation reported by mallinfo(arena+hblkhd)
        106500 MiB available memory on the node where the printing process lives
------------------
     ethr =  9.12E-05,  avg # of iterations =  7.4

     negative rho (up, down):  3.090E-03 0.000E+00

     Adding external electric field

     Computed dipole along edir(1) : 
        Elec. dipole         -0.4344 Ry au,         -1.1041 Debye
        Ion. dipole          -0.4919 Ry au,         -1.2502 Debye
        Dipole              -69.3849 Ry au,       -176.3588 Debye
        Dipole field         -0.0575 Ry au, 

        Potential amp.        2.0436 Ry
        Total length         17.7855 bohr


     total cpu time spent up to now is     2574.4 secs

     total energy              =  -22143.98034453 Ry
     estimated scf accuracy    <       0.67458117 Ry

     iteration # 18     ecut=    40.00 Ry     beta= 0.40
     Davidson diagonalization with overlap

---- Real-time Memory Report at c_bands before calling an iterative solver
           522 MiB given to the printing process from OS
             0 MiB allocation reported by mallinfo(arena+hblkhd)
        106473 MiB available memory on the node where the printing process lives
------------------
     ethr =  7.03E-05,  avg # of iterations =  8.2

     negative rho (up, down):  3.117E-03 0.000E+00

     Adding external electric field

     Computed dipole along edir(1) : 
        Elec. dipole         -0.4341 Ry au,         -1.1034 Debye
        Ion. dipole          -0.4919 Ry au,         -1.2502 Debye
        Dipole              -69.7440 Ry au,       -177.2715 Debye
        Dipole field         -0.0577 Ry au, 

        Potential amp.        2.0542 Ry
        Total length         17.7855 bohr


     total cpu time spent up to now is     2654.3 secs

     total energy              =  -22143.92333673 Ry
     estimated scf accuracy    <       0.37746386 Ry

     iteration # 19     ecut=    40.00 Ry     beta= 0.40
     Davidson diagonalization with overlap

---- Real-time Memory Report at c_bands before calling an iterative solver
           522 MiB given to the printing process from OS
             0 MiB allocation reported by mallinfo(arena+hblkhd)
        106477 MiB available memory on the node where the printing process lives
------------------
     ethr =  3.94E-05,  avg # of iterations =  9.0

     negative rho (up, down):  3.150E-03 0.000E+00

     Adding external electric field

     Computed dipole along edir(1) : 
        Elec. dipole         -0.4340 Ry au,         -1.1030 Debye
        Ion. dipole          -0.4919 Ry au,         -1.2502 Debye
        Dipole              -69.9207 Ry au,       -177.7206 Debye
        Dipole field         -0.0579 Ry au, 

        Potential amp.        2.0594 Ry
        Total length         17.7855 bohr


     total cpu time spent up to now is     2735.7 secs

     total energy              =  -22143.88924240 Ry
     estimated scf accuracy    <       0.24175081 Ry

     iteration # 20     ecut=    40.00 Ry     beta= 0.40
     Davidson diagonalization with overlap

---- Real-time Memory Report at c_bands before calling an iterative solver
           522 MiB given to the printing process from OS
             0 MiB allocation reported by mallinfo(arena+hblkhd)
        106479 MiB available memory on the node where the printing process lives
------------------
     ethr =  2.52E-05,  avg # of iterations = 10.8

     negative rho (up, down):  3.260E-03 0.000E+00

     Adding external electric field

     Computed dipole along edir(1) : 
        Elec. dipole         -0.4336 Ry au,         -1.1020 Debye
        Ion. dipole          -0.4919 Ry au,         -1.2502 Debye
        Dipole              -70.3989 Ry au,       -178.9361 Debye
        Dipole field         -0.0583 Ry au, 

        Potential amp.        2.0735 Ry
        Total length         17.7855 bohr


     total cpu time spent up to now is     2818.6 secs

     total energy              =  -22143.83421487 Ry
     estimated scf accuracy    <       0.16928037 Ry

     iteration # 21     ecut=    40.00 Ry     beta= 0.40
     Davidson diagonalization with overlap

---- Real-time Memory Report at c_bands before calling an iterative solver
           523 MiB given to the printing process from OS
             0 MiB allocation reported by mallinfo(arena+hblkhd)
        106478 MiB available memory on the node where the printing process lives
------------------
     ethr =  1.77E-05,  avg # of iterations = 12.8

     negative rho (up, down):  3.405E-03 0.000E+00

     Adding external electric field

     Computed dipole along edir(1) : 
        Elec. dipole         -0.4335 Ry au,         -1.1019 Debye
        Ion. dipole          -0.4919 Ry au,         -1.2502 Debye
        Dipole              -70.4685 Ry au,       -179.1132 Debye
        Dipole field         -0.0583 Ry au, 

        Potential amp.        2.0755 Ry
        Total length         17.7855 bohr


     total cpu time spent up to now is     2909.3 secs

     total energy              =  -22143.82881001 Ry
     estimated scf accuracy    <       0.03912040 Ry

     iteration # 22     ecut=    40.00 Ry     beta= 0.40
     Davidson diagonalization with overlap

---- Real-time Memory Report at c_bands before calling an iterative solver
           523 MiB given to the printing process from OS
             0 MiB allocation reported by mallinfo(arena+hblkhd)
        106473 MiB available memory on the node where the printing process lives
------------------
     ethr =  4.08E-06,  avg # of iterations = 12.8

     negative rho (up, down):  3.550E-03 0.000E+00

     Adding external electric field

     Computed dipole along edir(1) : 
        Elec. dipole         -0.4335 Ry au,         -1.1020 Debye
        Ion. dipole          -0.4919 Ry au,         -1.2502 Debye
        Dipole              -70.4192 Ry au,       -178.9877 Debye
        Dipole field         -0.0583 Ry au, 

        Potential amp.        2.0741 Ry
        Total length         17.7855 bohr


     total cpu time spent up to now is     3000.9 secs

     total energy              =  -22143.83062298 Ry
     estimated scf accuracy    <       0.00559926 Ry

     iteration # 23     ecut=    40.00 Ry     beta= 0.40
     Davidson diagonalization with overlap

---- Real-time Memory Report at c_bands before calling an iterative solver
           523 MiB given to the printing process from OS
             0 MiB allocation reported by mallinfo(arena+hblkhd)
        106468 MiB available memory on the node where the printing process lives
------------------
     ethr =  5.84E-07,  avg # of iterations =  7.6

     negative rho (up, down):  3.640E-03 0.000E+00

     Adding external electric field

     Computed dipole along edir(1) : 
        Elec. dipole         -0.4335 Ry au,         -1.1017 Debye
        Ion. dipole          -0.4919 Ry au,         -1.2502 Debye
        Dipole              -70.5190 Ry au,       -179.2415 Debye
        Dipole field         -0.0584 Ry au, 

        Potential amp.        2.0770 Ry
        Total length         17.7855 bohr


     total cpu time spent up to now is     3081.0 secs

     total energy              =  -22143.83087244 Ry
     estimated scf accuracy    <       0.00224900 Ry

     iteration # 24     ecut=    40.00 Ry     beta= 0.40
     Davidson diagonalization with overlap

---- Real-time Memory Report at c_bands before calling an iterative solver
           523 MiB given to the printing process from OS
             0 MiB allocation reported by mallinfo(arena+hblkhd)
        106419 MiB available memory on the node where the printing process lives
------------------
     ethr =  2.35E-07,  avg # of iterations =  3.0

     negative rho (up, down):  3.798E-03 0.000E+00

     Adding external electric field

     Computed dipole along edir(1) : 
        Elec. dipole         -0.4335 Ry au,         -1.1020 Debye
        Ion. dipole          -0.4919 Ry au,         -1.2502 Debye
        Dipole              -70.4187 Ry au,       -178.9864 Debye
        Dipole field         -0.0583 Ry au, 

        Potential amp.        2.0741 Ry
        Total length         17.7855 bohr


     total cpu time spent up to now is     3154.5 secs

     total energy              =  -22143.83110151 Ry
     estimated scf accuracy    <       0.00298859 Ry

     iteration # 25     ecut=    40.00 Ry     beta= 0.40
     Davidson diagonalization with overlap

---- Real-time Memory Report at c_bands before calling an iterative solver
           523 MiB given to the printing process from OS
             0 MiB allocation reported by mallinfo(arena+hblkhd)
        106455 MiB available memory on the node where the printing process lives
------------------
     ethr =  2.35E-07,  avg # of iterations =  7.2

     negative rho (up, down):  3.996E-03 0.000E+00

     Adding external electric field

     Computed dipole along edir(1) : 
        Elec. dipole         -0.4335 Ry au,         -1.1019 Debye
        Ion. dipole          -0.4919 Ry au,         -1.2502 Debye
        Dipole              -70.4607 Ry au,       -179.0932 Debye
        Dipole field         -0.0583 Ry au, 

        Potential amp.        2.0753 Ry
        Total length         17.7855 bohr


     total cpu time spent up to now is     3232.6 secs

     total energy              =  -22143.83126260 Ry
     estimated scf accuracy    <       0.00124850 Ry

     iteration # 26     ecut=    40.00 Ry     beta= 0.40
     Davidson diagonalization with overlap

---- Real-time Memory Report at c_bands before calling an iterative solver
           523 MiB given to the printing process from OS
             0 MiB allocation reported by mallinfo(arena+hblkhd)
        106456 MiB available memory on the node where the printing process lives
------------------
     ethr =  1.30E-07,  avg # of iterations =  5.8

     negative rho (up, down):  4.071E-03 0.000E+00

     Adding external electric field

     Computed dipole along edir(1) : 
        Elec. dipole         -0.4335 Ry au,         -1.1019 Debye
        Ion. dipole          -0.4919 Ry au,         -1.2502 Debye
        Dipole              -70.4600 Ry au,       -179.0915 Debye
        Dipole field         -0.0583 Ry au, 

        Potential amp.        2.0753 Ry
        Total length         17.7855 bohr


     total cpu time spent up to now is     3309.6 secs

     total energy              =  -22143.83145120 Ry
     estimated scf accuracy    <       0.00031131 Ry

     iteration # 27     ecut=    40.00 Ry     beta= 0.40
     Davidson diagonalization with overlap

---- Real-time Memory Report at c_bands before calling an iterative solver
           523 MiB given to the printing process from OS
             0 MiB allocation reported by mallinfo(arena+hblkhd)
        106451 MiB available memory on the node where the printing process lives
------------------
     ethr =  3.25E-08,  avg # of iterations =  2.0

     negative rho (up, down):  4.070E-03 0.000E+00

     Adding external electric field

     Computed dipole along edir(1) : 
        Elec. dipole         -0.4335 Ry au,         -1.1019 Debye
        Ion. dipole          -0.4919 Ry au,         -1.2502 Debye
        Dipole              -70.4416 Ry au,       -179.0446 Debye
        Dipole field         -0.0583 Ry au, 

        Potential amp.        2.0747 Ry
        Total length         17.7855 bohr


     total cpu time spent up to now is     3380.2 secs

     total energy              =  -22143.83145614 Ry
     estimated scf accuracy    <       0.00006391 Ry

     iteration # 28     ecut=    40.00 Ry     beta= 0.40
     Davidson diagonalization with overlap

---- Real-time Memory Report at c_bands before calling an iterative solver
           523 MiB given to the printing process from OS
             0 MiB allocation reported by mallinfo(arena+hblkhd)
        106448 MiB available memory on the node where the printing process lives
------------------
     ethr =  6.66E-09,  avg # of iterations =  2.0

     negative rho (up, down):  4.105E-03 0.000E+00

     Adding external electric field

     Computed dipole along edir(1) : 
        Elec. dipole         -0.4335 Ry au,         -1.1019 Debye
        Ion. dipole          -0.4919 Ry au,         -1.2502 Debye
        Dipole              -70.4483 Ry au,       -179.0617 Debye
        Dipole field         -0.0583 Ry au, 

        Potential amp.        2.0749 Ry
        Total length         17.7855 bohr


     total cpu time spent up to now is     3451.3 secs

     total energy              =  -22143.83146210 Ry
     estimated scf accuracy    <       0.00002889 Ry

     iteration # 29     ecut=    40.00 Ry     beta= 0.40
     Davidson diagonalization with overlap

---- Real-time Memory Report at c_bands before calling an iterative solver
           523 MiB given to the printing process from OS
             0 MiB allocation reported by mallinfo(arena+hblkhd)
        106452 MiB available memory on the node where the printing process lives
------------------
     ethr =  3.01E-09,  avg # of iterations =  2.0

     negative rho (up, down):  4.099E-03 0.000E+00

     Adding external electric field

     Computed dipole along edir(1) : 
        Elec. dipole         -0.4335 Ry au,         -1.1019 Debye
        Ion. dipole          -0.4919 Ry au,         -1.2502 Debye
        Dipole              -70.4492 Ry au,       -179.0641 Debye
        Dipole field         -0.0583 Ry au, 

        Potential amp.        2.0750 Ry
        Total length         17.7855 bohr


     total cpu time spent up to now is     3522.0 secs

     total energy              =  -22143.83146305 Ry
     estimated scf accuracy    <       0.00003301 Ry

     iteration # 30     ecut=    40.00 Ry     beta= 0.40
     Davidson diagonalization with overlap

---- Real-time Memory Report at c_bands before calling an iterative solver
           523 MiB given to the printing process from OS
             0 MiB allocation reported by mallinfo(arena+hblkhd)
        106421 MiB available memory on the node where the printing process lives
------------------
     ethr =  3.01E-09,  avg # of iterations =  1.0

     negative rho (up, down):  4.126E-03 0.000E+00

     Adding external electric field

     Computed dipole along edir(1) : 
        Elec. dipole         -0.4335 Ry au,         -1.1019 Debye
        Ion. dipole          -0.4919 Ry au,         -1.2502 Debye
        Dipole              -70.4487 Ry au,       -179.0627 Debye
        Dipole field         -0.0583 Ry au, 

        Potential amp.        2.0749 Ry
        Total length         17.7855 bohr


     total cpu time spent up to now is     3580.0 secs

     total energy              =  -22143.83146573 Ry
     estimated scf accuracy    <       0.00000532 Ry

     iteration # 31     ecut=    40.00 Ry     beta= 0.40
     Davidson diagonalization with overlap

---- Real-time Memory Report at c_bands before calling an iterative solver
           523 MiB given to the printing process from OS
             0 MiB allocation reported by mallinfo(arena+hblkhd)
        106418 MiB available memory on the node where the printing process lives
------------------
     ethr =  5.54E-10,  avg # of iterations =  3.0

     negative rho (up, down):  4.122E-03 0.000E+00

     Adding external electric field

     Computed dipole along edir(1) : 
        Elec. dipole         -0.4335 Ry au,         -1.1019 Debye
        Ion. dipole          -0.4919 Ry au,         -1.2502 Debye
        Dipole              -70.4472 Ry au,       -179.0590 Debye
        Dipole field         -0.0583 Ry au, 

        Potential amp.        2.0749 Ry
        Total length         17.7855 bohr


     total cpu time spent up to now is     3652.0 secs

     total energy              =  -22143.83146624 Ry
     estimated scf accuracy    <       0.00000119 Ry

     iteration # 32     ecut=    40.00 Ry     beta= 0.40
     Davidson diagonalization with overlap

---- Real-time Memory Report at c_bands before calling an iterative solver
           523 MiB given to the printing process from OS
             0 MiB allocation reported by mallinfo(arena+hblkhd)
        106433 MiB available memory on the node where the printing process lives
------------------
     ethr =  1.24E-10,  avg # of iterations =  2.0

     negative rho (up, down):  4.107E-03 0.000E+00

     Adding external electric field

     Computed dipole along edir(1) : 
        Elec. dipole         -0.4335 Ry au,         -1.1019 Debye
        Ion. dipole          -0.4919 Ry au,         -1.2502 Debye
        Dipole              -70.4499 Ry au,       -179.0659 Debye
        Dipole field         -0.0583 Ry au, 

        Potential amp.        2.0750 Ry
        Total length         17.7855 bohr


     total cpu time spent up to now is     3723.4 secs

     End of self-consistent calculation

          k = 0.0000 0.0000 0.0000 ( 64855 PWs)   bands (ev):

  -129.5557-129.5547-129.5537-129.5528-129.3481-129.3455-129.3441-129.3429
  -129.3420-129.3420-129.3417-129.3411-127.7107-127.7091-127.7085-127.7069
  -127.6933-127.6923-127.6910-127.6908-127.6901-127.6901-127.6898-127.6892
  -127.5726-127.5712-127.5708-127.5694-127.4363-127.4359-127.4350-127.4350
  -127.4350-127.4348-127.4342-127.4335-126.8443-126.8441-126.8434-126.8434
  -126.8431-126.8429-126.8425-126.8419-125.9477-125.9468-125.9445-125.9436
   -83.8962 -83.8952 -83.8942 -83.8931 -83.8323 -83.8318 -83.8288 -83.8275
   -83.8273 -83.8255 -83.8245 -83.8245 -83.8241 -83.8235 -83.8185 -83.8180
   -83.8145 -83.8145 -83.8049 -83.8017 -83.6409 -83.6357 -83.6347 -83.6337
   -83.6327 -83.6281 -83.6280 -83.6153 -82.6280 -82.6265 -82.6254 -82.6253
   -82.6244 -82.6244 -82.6238 -82.6234 -81.8692 -81.8675 -81.8669 -81.8655
   -81.8652 -81.8593 -81.8575 -81.8570 -81.8555 -81.8530 -81.8529 -81.8514
   -81.8505 -81.8497 -81.8493 -81.8482 -81.8479 -81.8471 -81.8471 -81.8468
   -81.8461 -81.8441 -81.8432 -81.8421 -81.8417 -81.8411 -81.8411 -81.8408
   -81.8403 -81.8402 -81.8392 -81.8390 -81.8377 -81.8376 -81.8267 -81.8253
   -81.7336 -81.7244 -81.7229 -81.7226 -81.7213 -81.7212 -81.7211 -81.7198
   -81.7184 -81.7180 -81.7166 -81.7089 -81.6028 -81.6027 -81.5905 -81.5904
   -81.5903 -81.5903 -81.5876 -81.5872 -81.5863 -81.5863 -81.5862 -81.5860
   -81.5853 -81.5847 -81.5837 -81.5833 -81.5824 -81.5824 -81.5823 -81.5822
   -81.5814 -81.5809 -81.5781 -81.5780 -81.0442 -81.0439 -81.0318 -81.0318
   -81.0314 -81.0314 -81.0194 -81.0190 -80.9953 -80.9951 -80.9943 -80.9943
   -80.9940 -80.9938 -80.9934 -80.9927 -80.9765 -80.9763 -80.9756 -80.9755
   -80.9752 -80.9751 -80.9746 -80.9740 -80.1739 -80.1618 -80.1614 -80.1494
   -80.1310 -80.1300 -80.1278 -80.1268 -79.9025 -79.9015 -79.8990 -79.8980
   -11.9583 -11.4450 -11.4220 -11.1631 -11.1447 -11.0675 -11.0665 -11.0653
   -10.9982 -10.9737 -10.9737 -10.9097 -10.8981 -10.8980 -10.8628 -10.8628
   -10.8555 -10.7991 -10.7552 -10.7552 -10.6531 -10.6531 -10.6334 -10.6334
   -10.5883 -10.5635 -10.5600 -10.5599 -10.4844 -10.4786 -10.4602 -10.4601
   -10.4482 -10.3833 -10.3602 -10.3602 -10.2958 -10.2696 -10.1404 -10.1369
   -10.1269 -10.0923  -9.9053  -9.9053  -9.9019  -9.8946  -9.7688  -9.7005
    -9.7005  -9.6963  -9.6840  -9.6839  -9.6659  -9.6659  -9.5930  -9.5873
    -9.5832  -9.5762  -9.5754  -9.5749  -9.5026  -9.4265  -9.4265  -9.4102
    -9.4053  -9.3951  -9.2954  -9.2929  -9.2698  -9.2698  -9.2002  -9.1668
    -9.1605  -9.1561  -9.0916  -9.0480  -9.0480  -9.0342  -9.0342  -9.0280
    -9.0273  -9.0072  -9.0069  -9.0069  -8.9757  -8.9696  -8.9696  -8.9597
    -8.9289  -8.9249  -8.8720  -8.8720  -8.8590  -8.8514  -8.8457  -8.8457
    -8.8355  -8.8354  -8.8296  -8.8296  -8.8283  -8.8169  -8.8049  -8.7592
    -8.7576  -8.7575  -8.7266  -8.7172  -8.7172  -8.6927  -8.6927  -8.6812
    -8.6811  -8.6809  -8.6501  -8.6364  -8.6364  -8.6098  -8.6098  -8.5935
    -8.5935  -8.5721  -8.5619  -8.5568  -8.5460  -8.5460  -8.5404  -8.5069
    -8.5068  -8.5057  -8.5047  -8.4731  -8.4619  -8.4558  -8.4557  -8.4553
    -8.4322  -8.4279  -8.4239  -8.4238  -8.4236  -8.4168  -8.3961  -8.3762
    -8.3761  -8.3684  -8.3668  -8.3568  -8.3448  -8.3448  -8.3214  -8.3214
    -8.3024  -8.3024  -8.2967  -8.2964  -8.2964  -8.2948  -8.2935  -8.2921
    -8.2807  -8.2572  -8.2572  -8.2561  -8.2470  -8.2470  -8.2444  -8.2372
    -8.2292  -8.2173  -8.2072  -8.2071  -8.1857  -8.1857  -8.1720  -8.1633
    -8.1450  -8.1449  -8.1401  -8.0887  -8.0887  -8.0751  -8.0623  -8.0307
    -8.0240  -8.0193  -8.0102  -7.9855  -7.9620  -7.9570  -7.9494  -7.9094
    -7.8504  -7.8504  -7.8347  -7.8347  -7.7598  -7.7597  -7.7555  -7.7555
    -7.7262  -7.7262  -7.7182  -7.7147  -7.7120  -7.7083  -7.6955  -7.6955
    -7.6863  -7.6863  -7.6694  -7.6611  -7.6324  -7.6324  -7.6272  -7.6272
    -7.6240  -7.5820  -7.5813  -7.5813  -7.5661  -7.5332  -7.5181  -7.5058
    -7.5058  -7.4727  -7.4610  -7.4038  -7.4032  -7.3564  -7.3266  -7.2603
    -7.0160  -7.0160  -6.9922  -6.9682  -6.9596  -6.8931  -6.8931  -6.8204
    -6.8204  -6.6472  -6.6330  -6.6330  -6.5922  -6.5922  -6.5666  -6.5513
    -6.5425  -6.5311  -6.5029  -6.3623  -6.3623  -6.3533  -6.1368  -5.5575
    -5.5575  -5.2475  -5.0582  -5.0491  -5.0155  -5.0154  -4.1731  -4.1731
    -3.9581  -3.9151  -3.8694  -3.8693  -3.8010  -3.7400  -3.7041  -3.6332
    -3.6332  -3.5030  -3.4182  -2.6290  -2.3962  -2.3605  -2.3604  -2.3012
    -2.0426  -2.0426  -1.9209  -1.6081  -1.5296  -1.4795  -1.4795  -1.4155
    -1.3860  -1.3742  -1.1684  -0.7600  -0.4685  -0.3652  -0.3652  -0.3188
    -0.0816  -0.0816   0.0384   0.1446   0.2010   0.2011   0.2621   0.3155
     0.3640   0.9468   0.9595   0.9595   1.2127   1.3536   1.5155   1.5156
     1.8581   1.8654   1.8887   1.9301   2.0536   2.0750   2.0751   2.0924
     2.4087   2.4087   2.5537   2.5730   2.6079   2.6080   2.6959   2.6959
     2.7118   2.7118   3.1531   3.1531   3.2626   3.3494   3.3494   3.4618
     3.4673   3.4673   3.7050   3.7327   3.7390   3.7391   3.7840   3.8192
     3.8192   3.8692   3.9167   4.0199   4.0293   4.2208   4.3413   4.4446
     4.4447   4.5789   4.6217   4.6218   4.7353   4.7741   4.7742   4.9925
     5.0181   5.0182   5.1116   5.2574   5.2574   5.2933   5.2933   5.3940
     5.4545   5.4954   5.6147   5.6196   5.8172   5.8243   5.8244   6.0003
     6.0715   6.0715   6.0779   6.2177   6.2484   6.2485   6.2748   6.2882

     occupation numbers 
     1.0000   1.0000   1.0000   1.0000   1.0000   1.0000   1.0000   1.0000
     1.0000   1.0000   1.0000   1.0000   1.0000   1.0000   1.0000   1.0000
     1.0000   1.0000   1.0000   1.0000   1.0000   1.0000   1.0000   1.0000
     1.0000   1.0000   1.0000   1.0000   1.0000   1.0000   1.0000   1.0000
     1.0000   1.0000   1.0000   1.0000   1.0000   1.0000   1.0000   1.0000
     1.0000   1.0000   1.0000   1.0000   1.0000   1.0000   1.0000   1.0000
     1.0000   1.0000   1.0000   1.0000   1.0000   1.0000   1.0000   1.0000
     1.0000   1.0000   1.0000   1.0000   1.0000   1.0000   1.0000   1.0000
     1.0000   1.0000   1.0000   1.0000   1.0000   1.0000   1.0000   1.0000
     1.0000   1.0000   1.0000   1.0000   1.0000   1.0000   1.0000   1.0000
     1.0000   1.0000   1.0000   1.0000   1.0000   1.0000   1.0000   1.0000
     1.0000   1.0000   1.0000   1.0000   1.0000   1.0000   1.0000   1.0000
     1.0000   1.0000   1.0000   1.0000   1.0000   1.0000   1.0000   1.0000
     1.0000   1.0000   1.0000   1.0000   1.0000   1.0000   1.0000   1.0000
     1.0000   1.0000   1.0000   1.0000   1.0000   1.0000   1.0000   1.0000
     1.0000   1.0000   1.0000   1.0000   1.0000   1.0000   1.0000   1.0000
     1.0000   1.0000   1.0000   1.0000   1.0000   1.0000   1.0000   1.0000
     1.0000   1.0000   1.0000   1.0000   1.0000   1.0000   1.0000   1.0000
     1.0000   1.0000   1.0000   1.0000   1.0000   1.0000   1.0000   1.0000
     1.0000   1.0000   1.0000   1.0000   1.0000   1.0000   1.0000   1.0000
     1.0000   1.0000   1.0000   1.0000   1.0000   1.0000   1.0000   1.0000
     1.0000   1.0000   1.0000   1.0000   1.0000   1.0000   1.0000   1.0000
     1.0000   1.0000   1.0000   1.0000   1.0000   1.0000   1.0000   1.0000
     1.0000   1.0000   1.0000   1.0000   1.0000   1.0000   1.0000   1.0000
     1.0000   1.0000   1.0000   1.0000   1.0000   1.0000   1.0000   1.0000
     1.0000   1.0000   1.0000   1.0000   1.0000   1.0000   1.0000   1.0000
     1.0000   1.0000   1.0000   1.0000   1.0000   1.0000   1.0000   1.0000
     1.0000   1.0000   1.0000   1.0000   1.0000   1.0000   1.0000   1.0000
     1.0000   1.0000   1.0000   1.0000   1.0000   1.0000   1.0000   1.0000
     1.0000   1.0000   1.0000   1.0000   1.0000   1.0000   1.0000   1.0000
     1.0000   1.0000   1.0000   1.0000   1.0000   1.0000   1.0000   1.0000
     1.0000   1.0000   1.0000   1.0000   1.0000   1.0000   1.0000   1.0000
     1.0000   1.0000   1.0000   1.0000   1.0000   1.0000   1.0000   1.0000
     1.0000   1.0000   1.0000   1.0000   1.0000   1.0000   1.0000   1.0000
     1.0000   1.0000   1.0000   1.0000   1.0000   1.0000   1.0000   1.0000
     1.0000   1.0000   1.0000   1.0000   1.0000   1.0000   1.0000   1.0000
     1.0000   1.0000   1.0000   1.0000   1.0000   1.0000   1.0000   1.0000
     1.0000   1.0000   1.0000   1.0000   1.0000   1.0000   1.0000   1.0000
     1.0000   1.0000   1.0000   1.0000   1.0000   1.0000   1.0000   1.0000
     1.0000   1.0000   1.0000   1.0000   1.0000   1.0000   1.0000   1.0000
     1.0000   1.0000   1.0000   1.0000   1.0000   1.0000   1.0000   1.0000
     1.0000   1.0000   1.0000   1.0000   1.0000   1.0000   1.0000   1.0000
     1.0000   1.0000   1.0000   1.0000   1.0000   1.0000   1.0000   1.0000
     1.0000   1.0000   1.0000   1.0000   1.0000   1.0000   1.0000   1.0000
     1.0000   1.0000   1.0000   1.0000   1.0000   1.0000   1.0000   1.0000
     1.0000   1.0000   1.0000   1.0000   1.0000   1.0000   1.0000   1.0000
     1.0000   1.0000   1.0000   1.0000   1.0000   1.0000   1.0000   1.0000
     1.0000   1.0000   1.0000   1.0000   1.0000   1.0000   1.0000   1.0000
     1.0000   1.0000   1.0000   1.0000   1.0000   1.0000   1.0000   1.0000
     1.0000   1.0000   1.0000   1.0000   1.0000   1.0000   1.0000   1.0000
     1.0000   1.0000   1.0000   1.0000   1.0000   1.0000   1.0000   1.0000
     1.0000   1.0000   1.0000   1.0000   1.0000   1.0000   1.0000   1.0000
     1.0000   1.0000   1.0000   1.0000   1.0000   1.0000   1.0000   1.0000
     1.0000   1.0000   1.0000   1.0000   1.0000   1.0000   1.0000   1.0000
     1.0000   1.0000   1.0000   1.0000   1.0000   1.0000   1.0000   1.0000
     1.0000   1.0000   1.0000   1.0000   1.0000   1.0000   1.0000   1.0000
     1.0000   1.0000   1.0000   1.0000   1.0000   1.0000   1.0000   1.0000
     1.0000   1.0000   1.0000   1.0000   1.0000   1.0000   1.0000   1.0000
     1.0000   1.0000   1.0000   1.0000   1.0000   1.0000   1.0000   1.0000
     1.0001   1.0001   1.0010   1.0477   1.0735   1.0829   1.0829   1.0727
     1.0553   1.0456   0.6303   0.0147   0.0001   0.0000   0.0000   0.0000
     0.0000   0.0000   0.0000   0.0000   0.0000   0.0000   0.0000   0.0000
     0.0000   0.0000   0.0000   0.0000   0.0000   0.0000   0.0000   0.0000
     0.0000   0.0000   0.0000   0.0000   0.0000   0.0000   0.0000   0.0000
     0.0000   0.0000   0.0000   0.0000   0.0000   0.0000   0.0000   0.0000
     0.0000   0.0000   0.0000   0.0000   0.0000   0.0000   0.0000   0.0000
     0.0000   0.0000   0.0000   0.0000   0.0000   0.0000   0.0000   0.0000
     0.0000   0.0000   0.0000   0.0000   0.0000   0.0000   0.0000   0.0000
     0.0000   0.0000   0.0000   0.0000   0.0000   0.0000   0.0000   0.0000
     0.0000   0.0000   0.0000   0.0000   0.0000   0.0000   0.0000   0.0000
     0.0000   0.0000   0.0000   0.0000   0.0000   0.0000   0.0000   0.0000
     0.0000   0.0000   0.0000   0.0000   0.0000   0.0000   0.0000   0.0000

          k = 0.0000 0.3849 0.0000 ( 64840 PWs)   bands (ev):

  -129.5556-129.5548-129.5536-129.5528-129.3481-129.3455-129.3441-129.3428
  -129.3425-129.3417-129.3416-129.3412-127.7107-127.7091-127.7084-127.7069
  -127.6933-127.6923-127.6909-127.6908-127.6905-127.6898-127.6897-127.6893
  -127.5726-127.5713-127.5707-127.5694-127.4363-127.4358-127.4355-127.4351
  -127.4346-127.4346-127.4343-127.4335-126.8442-126.8441-126.8438-126.8433
  -126.8430-126.8427-126.8426-126.8419-125.9477-125.9468-125.9445-125.9436
   -83.8962 -83.8953 -83.8941 -83.8931 -83.8323 -83.8304 -83.8288 -83.8275
   -83.8256 -83.8254 -83.8250 -83.8242 -83.8241 -83.8240 -83.8236 -83.8209
   -83.8124 -83.8081 -83.8062 -83.8034 -83.6392 -83.6357 -83.6348 -83.6344
   -83.6336 -83.6327 -83.6218 -83.6169 -82.6280 -82.6266 -82.6252 -82.6252
   -82.6249 -82.6239 -82.6238 -82.6235 -81.8692 -81.8676 -81.8668 -81.8652
   -81.8639 -81.8592 -81.8590 -81.8577 -81.8569 -81.8554 -81.8504 -81.8499
   -81.8494 -81.8482 -81.8480 -81.8479 -81.8477 -81.8469 -81.8467 -81.8466
   -81.8462 -81.8451 -81.8442 -81.8438 -81.8432 -81.8422 -81.8417 -81.8415
   -81.8414 -81.8408 -81.8407 -81.8404 -81.8330 -81.8315 -81.8282 -81.8270
   -81.7320 -81.7273 -81.7244 -81.7231 -81.7224 -81.7212 -81.7198 -81.7185
   -81.7179 -81.7166 -81.7152 -81.7105 -81.6011 -81.6011 -81.5966 -81.5964
   -81.5876 -81.5871 -81.5867 -81.5864 -81.5858 -81.5858 -81.5854 -81.5847
   -81.5843 -81.5842 -81.5837 -81.5832 -81.5828 -81.5825 -81.5820 -81.5819
   -81.5815 -81.5809 -81.5798 -81.5796 -81.0426 -81.0422 -81.0380 -81.0376
   -81.0256 -81.0252 -81.0211 -81.0207 -80.9952 -80.9950 -80.9948 -80.9943
   -80.9939 -80.9935 -80.9935 -80.9928 -80.9764 -80.9763 -80.9760 -80.9755
   -80.9751 -80.9748 -80.9747 -80.9740 -80.1724 -80.1674 -80.1558 -80.1508
   -80.1310 -80.1301 -80.1278 -80.1268 -79.9025 -79.9015 -79.8990 -79.8980
   -11.8001 -11.3866 -11.3512 -11.3469 -11.1560 -11.1356 -11.1146 -11.1103
   -11.0765 -11.0407 -11.0283 -10.9703 -10.9674 -10.8918 -10.8498 -10.8444
   -10.8427 -10.7803 -10.7778 -10.6651 -10.6255 -10.6211 -10.6085 -10.5966
   -10.5940 -10.5877 -10.5718 -10.5192 -10.5166 -10.4914 -10.4823 -10.4766
   -10.4463 -10.4351 -10.3444 -10.3321 -10.2800 -10.2777 -10.0873 -10.0796
   -10.0064  -9.9998  -9.9533  -9.9202  -9.8741  -9.8724  -9.8191  -9.7458
    -9.7021  -9.6826  -9.6728  -9.6559  -9.6240  -9.6061  -9.6036  -9.5937
    -9.5841  -9.5817  -9.5792  -9.5683  -9.5370  -9.5115  -9.4364  -9.4361
    -9.4182  -9.3136  -9.2774  -9.2513  -9.2454  -9.2203  -9.1953  -9.1504
    -9.1494  -9.1468  -9.1454  -9.1339  -9.1096  -9.1042  -9.0887  -9.0795
    -9.0595  -9.0471  -9.0361  -9.0029  -8.9997  -8.9947  -8.9805  -8.9715
    -8.9654  -8.9391  -8.9322  -8.9143  -8.9135  -8.8864  -8.8791  -8.8742
    -8.8594  -8.8459  -8.8354  -8.8239  -8.8067  -8.7937  -8.7856  -8.7820
    -8.7594  -8.7512  -8.7446  -8.7425  -8.7233  -8.6983  -8.6858  -8.6848
    -8.6606  -8.6554  -8.6500  -8.6326  -8.6240  -8.6053  -8.5898  -8.5811
    -8.5686  -8.5668  -8.5631  -8.5555  -8.5504  -8.5492  -8.5362  -8.4993
    -8.4908  -8.4904  -8.4828  -8.4797  -8.4561  -8.4544  -8.4404  -8.4256
    -8.4250  -8.4222  -8.4195  -8.3971  -8.3929  -8.3895  -8.3892  -8.3822
    -8.3612  -8.3579  -8.3500  -8.3421  -8.3375  -8.3359  -8.3354  -8.3340
    -8.3261  -8.3151  -8.2946  -8.2944  -8.2934  -8.2790  -8.2763  -8.2750
    -8.2539  -8.2527  -8.2512  -8.2492  -8.2456  -8.2359  -8.2256  -8.2137
    -8.2102  -8.1855  -8.1778  -8.1617  -8.1572  -8.1547  -8.1510  -8.1224
    -8.1204  -8.1169  -8.1037  -8.0867  -8.0842  -8.0732  -8.0703  -8.0659
    -8.0483  -8.0354  -8.0296  -8.0180  -8.0018  -7.9879  -7.9630  -7.9430
    -7.9067  -7.8751  -7.8535  -7.8417  -7.8175  -7.7721  -7.7682  -7.7535
    -7.7507  -7.7183  -7.6975  -7.6654  -7.6603  -7.6587  -7.6575  -7.6450
    -7.6289  -7.6097  -7.6092  -7.6078  -7.6069  -7.5995  -7.5867  -7.5794
    -7.5747  -7.5572  -7.5433  -7.5399  -7.5398  -7.5209  -7.5111  -7.5058
    -7.4949  -7.4126  -7.4121  -7.3970  -7.3667  -7.2258  -7.1697  -7.1563
    -7.1138  -7.1068  -7.0312  -6.9733  -6.9258  -6.8819  -6.8774  -6.7856
    -6.7574  -6.7135  -6.6828  -6.6432  -6.6353  -6.6121  -6.5432  -6.5421
    -6.5276  -6.5126  -6.4579  -6.4140  -6.3464  -6.3009  -6.1977  -6.0263
    -5.7556  -5.4593  -5.4525  -5.3353  -4.9860  -4.7767  -4.7301  -4.6518
    -4.4418  -4.1684  -3.9385  -3.8658  -3.7745  -3.7454  -3.4559  -3.4091
    -3.1680  -3.1637  -3.0711  -2.9880  -2.5522  -2.4561  -2.3848  -2.2848
    -2.0136  -1.9875  -1.5077  -1.3958  -1.1992  -1.1626  -1.1460  -1.1355
    -1.1279  -1.0092  -0.6724  -0.6162  -0.4217  -0.3420  -0.2587  -0.1701
    -0.0731   0.1543   0.1959   0.2962   0.3799   0.4050   0.5561   0.6392
     0.7056   0.7502   0.7645   0.8448   0.8646   1.0435   1.1170   1.2142
     1.3525   1.3679   1.5075   1.6197   1.6906   1.8393   1.9447   1.9899
     2.0252   2.0844   2.2892   2.3123   2.3463   2.4441   2.5664   2.5752
     2.5987   2.7170   2.8395   2.9270   3.0346   3.2822   3.3144   3.4214
     3.4250   3.5871   3.6564   3.6749   3.6777   3.7527   3.7844   3.8051
     3.8484   3.9060   3.9749   4.0054   4.0440   4.1007   4.1291   4.1949
     4.3147   4.3220   4.4207   4.6075   4.7307   4.8038   4.8461   4.8598
     5.0216   5.0475   5.1071   5.2322   5.3125   5.3305   5.3612   5.5833
     5.6304   5.7205   5.7209   5.7281   5.8027   5.8488   6.0725   6.1614
     6.2107   6.2337   6.2674   6.2690   6.3167   6.3758   6.4347   6.5670

     occupation numbers 
     1.0000   1.0000   1.0000   1.0000   1.0000   1.0000   1.0000   1.0000
     1.0000   1.0000   1.0000   1.0000   1.0000   1.0000   1.0000   1.0000
     1.0000   1.0000   1.0000   1.0000   1.0000   1.0000   1.0000   1.0000
     1.0000   1.0000   1.0000   1.0000   1.0000   1.0000   1.0000   1.0000
     1.0000   1.0000   1.0000   1.0000   1.0000   1.0000   1.0000   1.0000
     1.0000   1.0000   1.0000   1.0000   1.0000   1.0000   1.0000   1.0000
     1.0000   1.0000   1.0000   1.0000   1.0000   1.0000   1.0000   1.0000
     1.0000   1.0000   1.0000   1.0000   1.0000   1.0000   1.0000   1.0000
     1.0000   1.0000   1.0000   1.0000   1.0000   1.0000   1.0000   1.0000
     1.0000   1.0000   1.0000   1.0000   1.0000   1.0000   1.0000   1.0000
     1.0000   1.0000   1.0000   1.0000   1.0000   1.0000   1.0000   1.0000
     1.0000   1.0000   1.0000   1.0000   1.0000   1.0000   1.0000   1.0000
     1.0000   1.0000   1.0000   1.0000   1.0000   1.0000   1.0000   1.0000
     1.0000   1.0000   1.0000   1.0000   1.0000   1.0000   1.0000   1.0000
     1.0000   1.0000   1.0000   1.0000   1.0000   1.0000   1.0000   1.0000
     1.0000   1.0000   1.0000   1.0000   1.0000   1.0000   1.0000   1.0000
     1.0000   1.0000   1.0000   1.0000   1.0000   1.0000   1.0000   1.0000
     1.0000   1.0000   1.0000   1.0000   1.0000   1.0000   1.0000   1.0000
     1.0000   1.0000   1.0000   1.0000   1.0000   1.0000   1.0000   1.0000
     1.0000   1.0000   1.0000   1.0000   1.0000   1.0000   1.0000   1.0000
     1.0000   1.0000   1.0000   1.0000   1.0000   1.0000   1.0000   1.0000
     1.0000   1.0000   1.0000   1.0000   1.0000   1.0000   1.0000   1.0000
     1.0000   1.0000   1.0000   1.0000   1.0000   1.0000   1.0000   1.0000
     1.0000   1.0000   1.0000   1.0000   1.0000   1.0000   1.0000   1.0000
     1.0000   1.0000   1.0000   1.0000   1.0000   1.0000   1.0000   1.0000
     1.0000   1.0000   1.0000   1.0000   1.0000   1.0000   1.0000   1.0000
     1.0000   1.0000   1.0000   1.0000   1.0000   1.0000   1.0000   1.0000
     1.0000   1.0000   1.0000   1.0000   1.0000   1.0000   1.0000   1.0000
     1.0000   1.0000   1.0000   1.0000   1.0000   1.0000   1.0000   1.0000
     1.0000   1.0000   1.0000   1.0000   1.0000   1.0000   1.0000   1.0000
     1.0000   1.0000   1.0000   1.0000   1.0000   1.0000   1.0000   1.0000
     1.0000   1.0000   1.0000   1.0000   1.0000   1.0000   1.0000   1.0000
     1.0000   1.0000   1.0000   1.0000   1.0000   1.0000   1.0000   1.0000
     1.0000   1.0000   1.0000   1.0000   1.0000   1.0000   1.0000   1.0000
     1.0000   1.0000   1.0000   1.0000   1.0000   1.0000   1.0000   1.0000
     1.0000   1.0000   1.0000   1.0000   1.0000   1.0000   1.0000   1.0000
     1.0000   1.0000   1.0000   1.0000   1.0000   1.0000   1.0000   1.0000
     1.0000   1.0000   1.0000   1.0000   1.0000   1.0000   1.0000   1.0000
     1.0000   1.0000   1.0000   1.0000   1.0000   1.0000   1.0000   1.0000
     1.0000   1.0000   1.0000   1.0000   1.0000   1.0000   1.0000   1.0000
     1.0000   1.0000   1.0000   1.0000   1.0000   1.0000   1.0000   1.0000
     1.0000   1.0000   1.0000   1.0000   1.0000   1.0000   1.0000   1.0000
     1.0000   1.0000   1.0000   1.0000   1.0000   1.0000   1.0000   1.0000
     1.0000   1.0000   1.0000   1.0000   1.0000   1.0000   1.0000   1.0000
     1.0000   1.0000   1.0000   1.0000   1.0000   1.0000   1.0000   1.0000
     1.0000   1.0000   1.0000   1.0000   1.0000   1.0000   1.0000   1.0000
     1.0000   1.0000   1.0000   1.0000   1.0000   1.0000   1.0000   1.0000
     1.0000   1.0000   1.0000   1.0000   1.0000   1.0000   1.0000   1.0000
     1.0000   1.0000   1.0000   1.0000   1.0000   1.0000   1.0000   1.0000
     1.0000   1.0000   1.0000   1.0000   1.0000   1.0000   1.0000   1.0000
     1.0000   1.0000   1.0000   1.0000   1.0000   1.0000   1.0000   1.0000
     1.0000   1.0000   1.0000   1.0000   1.0000   1.0000   1.0000   1.0000
     1.0000   1.0000   1.0000   1.0000   1.0000   1.0000   1.0000   1.0000
     1.0000   1.0000   1.0000   1.0000   1.0000   1.0000   1.0000   1.0000
     1.0000   1.0000   1.0000   1.0000   1.0000   1.0000   1.0000   1.0000
     1.0000   1.0000   1.0000   1.0000   1.0000   1.0000   1.0000   1.0000
     1.0000   1.0000   1.0000   1.0000   1.0000   1.0000   1.0000   1.0000
     1.0000   1.0000   1.0000   1.0000   1.0000   1.0000   1.0000   1.0000
     1.0000   1.0000   1.0000   1.0000   1.0000   1.0000   1.0000   1.0000
     1.0002   1.0003   1.0789   1.0621   0.7143   0.6141   0.5682   0.5393
     0.5184   0.2360   0.0038   0.0014   0.0000   0.0000   0.0000   0.0000
     0.0000   0.0000   0.0000   0.0000   0.0000   0.0000   0.0000   0.0000
     0.0000   0.0000   0.0000   0.0000   0.0000   0.0000   0.0000   0.0000
     0.0000   0.0000   0.0000   0.0000   0.0000   0.0000   0.0000   0.0000
     0.0000   0.0000   0.0000   0.0000   0.0000   0.0000   0.0000   0.0000
     0.0000   0.0000   0.0000   0.0000   0.0000   0.0000   0.0000   0.0000
     0.0000   0.0000   0.0000   0.0000   0.0000   0.0000   0.0000   0.0000
     0.0000   0.0000   0.0000   0.0000   0.0000   0.0000   0.0000   0.0000
     0.0000   0.0000   0.0000   0.0000   0.0000   0.0000   0.0000   0.0000
     0.0000   0.0000   0.0000   0.0000   0.0000   0.0000   0.0000   0.0000
     0.0000   0.0000   0.0000   0.0000   0.0000   0.0000   0.0000   0.0000
     0.0000   0.0000   0.0000   0.0000   0.0000   0.0000   0.0000   0.0000

          k = 0.3333 0.1925 0.0000 ( 64840 PWs)   bands (ev):

  -129.5557-129.5547-129.5537-129.5528-129.3481-129.3455-129.3441-129.3429
  -129.3420-129.3420-129.3417-129.3411-127.7107-127.7091-127.7085-127.7069
  -127.6933-127.6923-127.6910-127.6908-127.6901-127.6901-127.6898-127.6892
  -127.5726-127.5712-127.5708-127.5694-127.4363-127.4359-127.4350-127.4350
  -127.4350-127.4348-127.4342-127.4335-126.8443-126.8441-126.8434-126.8434
  -126.8431-126.8429-126.8425-126.8419-125.9477-125.9468-125.9445-125.9436
   -83.8962 -83.8952 -83.8942 -83.8931 -83.8323 -83.8318 -83.8288 -83.8275
   -83.8273 -83.8255 -83.8245 -83.8245 -83.8241 -83.8235 -83.8185 -83.8180
   -83.8145 -83.8145 -83.8049 -83.8017 -83.6409 -83.6357 -83.6347 -83.6337
   -83.6327 -83.6281 -83.6280 -83.6153 -82.6280 -82.6265 -82.6254 -82.6253
   -82.6244 -82.6244 -82.6238 -82.6234 -81.8692 -81.8675 -81.8669 -81.8655
   -81.8652 -81.8593 -81.8575 -81.8570 -81.8555 -81.8530 -81.8529 -81.8514
   -81.8505 -81.8497 -81.8493 -81.8482 -81.8479 -81.8471 -81.8471 -81.8468
   -81.8461 -81.8441 -81.8432 -81.8421 -81.8417 -81.8411 -81.8411 -81.8408
   -81.8403 -81.8402 -81.8392 -81.8390 -81.8377 -81.8376 -81.8267 -81.8253
   -81.7336 -81.7244 -81.7229 -81.7226 -81.7213 -81.7212 -81.7211 -81.7198
   -81.7184 -81.7180 -81.7166 -81.7089 -81.6028 -81.6027 -81.5905 -81.5904
   -81.5903 -81.5903 -81.5876 -81.5872 -81.5863 -81.5862 -81.5862 -81.5860
   -81.5853 -81.5847 -81.5837 -81.5833 -81.5824 -81.5824 -81.5823 -81.5822
   -81.5814 -81.5809 -81.5781 -81.5779 -81.0442 -81.0439 -81.0318 -81.0318
   -81.0314 -81.0314 -81.0194 -81.0190 -80.9953 -80.9951 -80.9943 -80.9943
   -80.9940 -80.9938 -80.9934 -80.9927 -80.9765 -80.9763 -80.9756 -80.9755
   -80.9752 -80.9751 -80.9746 -80.9740 -80.1739 -80.1618 -80.1614 -80.1494
   -80.1310 -80.1300 -80.1278 -80.1268 -79.9025 -79.9015 -79.8990 -79.8980
   -11.9288 -11.4414 -11.4210 -11.1624 -11.1447 -11.0693 -11.0690 -11.0659
   -10.9981 -10.9726 -10.9725 -10.8981 -10.8981 -10.8737 -10.8629 -10.8629
   -10.8557 -10.7889 -10.7540 -10.7539 -10.6524 -10.6524 -10.6335 -10.6335
   -10.5878 -10.5634 -10.5600 -10.5599 -10.4844 -10.4785 -10.4616 -10.4615
   -10.4483 -10.3832 -10.3749 -10.3749 -10.2957 -10.2679 -10.2644 -10.1230
   -10.1226 -10.0923  -9.9002  -9.8998  -9.8991  -9.8479  -9.8190  -9.6947
    -9.6945  -9.6928  -9.6897  -9.6860  -9.6859  -9.6642  -9.6642  -9.5792
    -9.5753  -9.5752  -9.5729  -9.5708  -9.5019  -9.4795  -9.4795  -9.4092
    -9.4043  -9.3844  -9.3145  -9.3102  -9.2067  -9.2055  -9.2043  -9.2040
    -9.1861  -9.1644  -9.1159  -9.0540  -9.0402  -9.0402  -9.0385  -9.0342
    -9.0322  -9.0322  -8.9964  -8.9963  -8.9935  -8.9885  -8.9649  -8.9649
    -8.9481  -8.9397  -8.9361  -8.9014  -8.9014  -8.8683  -8.8682  -8.8493
    -8.8391  -8.8391  -8.8303  -8.8303  -8.8282  -8.8080  -8.7993  -8.7943
    -8.7811  -8.7811  -8.7776  -8.7322  -8.7322  -8.6952  -8.6952  -8.6815
    -8.6815  -8.6807  -8.6492  -8.6343  -8.6343  -8.6114  -8.6114  -8.5878
    -8.5878  -8.5793  -8.5663  -8.5481  -8.5481  -8.5416  -8.5367  -8.5367
    -8.5281  -8.5088  -8.4815  -8.4772  -8.4772  -8.4744  -8.4675  -8.4564
    -8.4335  -8.4298  -8.4298  -8.4259  -8.4008  -8.3892  -8.3891  -8.3884
    -8.3728  -8.3661  -8.3570  -8.3242  -8.3242  -8.3167  -8.3167  -8.3094
    -8.3015  -8.3015  -8.3009  -8.3009  -8.2933  -8.2800  -8.2773  -8.2728
    -8.2629  -8.2629  -8.2593  -8.2437  -8.2317  -8.2317  -8.2288  -8.2254
    -8.2131  -8.2036  -8.2036  -8.1943  -8.1719  -8.1606  -8.1442  -8.1442
    -8.1410  -8.1410  -8.1224  -8.0718  -8.0500  -8.0257  -8.0247  -8.0247
    -8.0118  -8.0103  -8.0096  -7.9609  -7.9591  -7.9560  -7.9098  -7.8458
    -7.8422  -7.8422  -7.8296  -7.8296  -7.8176  -7.8078  -7.8078  -7.7652
    -7.7652  -7.7274  -7.7231  -7.7231  -7.7229  -7.6874  -7.6874  -7.6844
    -7.6624  -7.6386  -7.6386  -7.6360  -7.6179  -7.6179  -7.6082  -7.6082
    -7.5954  -7.5697  -7.5439  -7.5438  -7.4996  -7.4995  -7.4861  -7.4860
    -7.4731  -7.4613  -7.4084  -7.4077  -7.3806  -7.3792  -7.3408  -7.0744
    -6.9687  -6.9539  -6.9098  -6.8901  -6.8901  -6.8831  -6.8831  -6.7694
    -6.7693  -6.6537  -6.6392  -6.6391  -6.6341  -6.6341  -6.6320  -6.5513
    -6.5513  -6.5307  -6.5049  -6.3541  -6.1169  -6.1169  -6.0377  -6.0376
    -5.5405  -5.5405  -5.4545  -5.2785  -5.2407  -5.0016  -4.8753  -4.5602
    -4.5602  -3.9433  -3.9433  -3.9110  -3.9099  -3.8772  -3.8638  -3.6657
    -3.1953  -3.0336  -2.7029  -2.4829  -2.4829  -2.3033  -2.3033  -2.2571
    -2.2571  -2.1193  -1.9915  -1.8967  -1.8944  -1.2387  -1.1100  -1.0545
    -0.9541  -0.7112  -0.7111  -0.4192  -0.1273  -0.1273  -0.0451   0.0170
     0.0992   0.1177   0.1177   0.1561   0.2763   0.2764   0.6211   0.6769
     0.7552   0.9716   0.9717   1.0734   1.2256   1.3058   1.3333   1.4624
     1.4624   1.5212   1.5213   1.6916   1.6948   1.6948   1.8308   1.8563
     1.8619   1.8619   2.0053   2.0577   2.0578   2.5263   2.5963   2.5964
     2.6785   2.7137   2.7138   2.7534   2.7561   3.0486   3.2313   3.2792
     3.2793   3.4343   3.5060   3.5123   3.5124   3.6394   3.6394   3.6753
[...]
     atom   45 type  1   force =     0.11661315    0.03390323    0.00802812
     atom   46 type  1   force =    -2.01753002   -1.19819846    0.02528174
     atom   47 type  1   force =     0.05417117   -0.05389563   -0.02765283
     atom   48 type  1   force =    -1.95679291   -1.34205774    0.07175070
     The core correction contribution to forces
     atom    1 type  1   force =     0.00000000    0.00000000    0.00000000
     atom    2 type  1   force =     0.00000000    0.00000000    0.00000000
     atom    3 type  1   force =     0.00000000    0.00000000    0.00000000
     atom    4 type  1   force =     0.00000000    0.00000000    0.00000000
     atom    5 type  1   force =     0.00000000    0.00000000    0.00000000
     atom    6 type  1   force =     0.00000000    0.00000000    0.00000000
     atom    7 type  1   force =     0.00000000    0.00000000    0.00000000
     atom    8 type  1   force =     0.00000000    0.00000000    0.00000000
     atom    9 type  1   force =     0.00000000    0.00000000    0.00000000
     atom   10 type  1   force =     0.00000000    0.00000000    0.00000000
     atom   11 type  1   force =     0.00000000    0.00000000    0.00000000
     atom   12 type  1   force =     0.00000000    0.00000000    0.00000000
     atom   13 type  1   force =     0.00000000    0.00000000    0.00000000
     atom   14 type  1   force =     0.00000000    0.00000000    0.00000000
     atom   15 type  1   force =     0.00000000    0.00000000    0.00000000
     atom   16 type  1   force =     0.00000000    0.00000000    0.00000000
     atom   17 type  1   force =     0.00000000    0.00000000    0.00000000
     atom   18 type  1   force =     0.00000000    0.00000000    0.00000000
     atom   19 type  1   force =     0.00000000    0.00000000    0.00000000
     atom   20 type  1   force =     0.00000000    0.00000000    0.00000000
     atom   21 type  1   force =     0.00000000    0.00000000    0.00000000
     atom   22 type  1   force =     0.00000000    0.00000000    0.00000000
     atom   23 type  1   force =     0.00000000    0.00000000    0.00000000
     atom   24 type  1   force =     0.00000000    0.00000000    0.00000000
     atom   25 type  1   force =     0.00000000    0.00000000    0.00000000
     atom   26 type  1   force =     0.00000000    0.00000000    0.00000000
     atom   27 type  1   force =     0.00000000    0.00000000    0.00000000
     atom   28 type  1   force =     0.00000000    0.00000000    0.00000000
     atom   29 type  1   force =     0.00000000    0.00000000    0.00000000
     atom   30 type  1   force =     0.00000000    0.00000000    0.00000000
     atom   31 type  1   force =     0.00000000    0.00000000    0.00000000
     atom   32 type  1   force =     0.00000000    0.00000000    0.00000000
     atom   33 type  1   force =     0.00000000    0.00000000    0.00000000
     atom   34 type  1   force =     0.00000000    0.00000000    0.00000000
     atom   35 type  1   force =     0.00000000    0.00000000    0.00000000
     atom   36 type  1   force =     0.00000000    0.00000000    0.00000000
     atom   37 type  1   force =     0.00000000    0.00000000    0.00000000
     atom   38 type  1   force =     0.00000000    0.00000000    0.00000000
     atom   39 type  1   force =     0.00000000    0.00000000    0.00000000
     atom   40 type  1   force =     0.00000000    0.00000000    0.00000000
     atom   41 type  1   force =     0.00000000    0.00000000    0.00000000
     atom   42 type  1   force =     0.00000000    0.00000000    0.00000000
     atom   43 type  1   force =     0.00000000    0.00000000    0.00000000
     atom   44 type  1   force =     0.00000000    0.00000000    0.00000000
     atom   45 type  1   force =     0.00000000    0.00000000    0.00000000
     atom   46 type  1   force =     0.00000000    0.00000000    0.00000000
     atom   47 type  1   force =     0.00000000    0.00000000    0.00000000
     atom   48 type  1   force =     0.00000000    0.00000000    0.00000000
     The Hubbard contrib.    to forces
     atom    1 type  1   force =     0.00000000    0.00000000    0.00000000
     atom    2 type  1   force =     0.00000000    0.00000000    0.00000000
     atom    3 type  1   force =     0.00000000    0.00000000    0.00000000
     atom    4 type  1   force =     0.00000000    0.00000000    0.00000000
     atom    5 type  1   force =     0.00000000    0.00000000    0.00000000
     atom    6 type  1   force =     0.00000000    0.00000000    0.00000000
     atom    7 type  1   force =     0.00000000    0.00000000    0.00000000
     atom    8 type  1   force =     0.00000000    0.00000000    0.00000000
     atom    9 type  1   force =     0.00000000    0.00000000    0.00000000
     atom   10 type  1   force =     0.00000000    0.00000000    0.00000000
     atom   11 type  1   force =     0.00000000    0.00000000    0.00000000
     atom   12 type  1   force =     0.00000000    0.00000000    0.00000000
     atom   13 type  1   force =     0.00000000    0.00000000    0.00000000
     atom   14 type  1   force =     0.00000000    0.00000000    0.00000000
     atom   15 type  1   force =     0.00000000    0.00000000    0.00000000
     atom   16 type  1   force =     0.00000000    0.00000000    0.00000000
     atom   17 type  1   force =     0.00000000    0.00000000    0.00000000
     atom   18 type  1   force =     0.00000000    0.00000000    0.00000000
     atom   19 type  1   force =     0.00000000    0.00000000    0.00000000
     atom   20 type  1   force =     0.00000000    0.00000000    0.00000000
     atom   21 type  1   force =     0.00000000    0.00000000    0.00000000
     atom   22 type  1   force =     0.00000000    0.00000000    0.00000000
     atom   23 type  1   force =     0.00000000    0.00000000    0.00000000
     atom   24 type  1   force =     0.00000000    0.00000000    0.00000000
     atom   25 type  1   force =     0.00000000    0.00000000    0.00000000
     atom   26 type  1   force =     0.00000000    0.00000000    0.00000000
     atom   27 type  1   force =     0.00000000    0.00000000    0.00000000
     atom   28 type  1   force =     0.00000000    0.00000000    0.00000000
     atom   29 type  1   force =     0.00000000    0.00000000    0.00000000
     atom   30 type  1   force =     0.00000000    0.00000000    0.00000000
     atom   31 type  1   force =     0.00000000    0.00000000    0.00000000
     atom   32 type  1   force =     0.00000000    0.00000000    0.00000000
     atom   33 type  1   force =     0.00000000    0.00000000    0.00000000
     atom   34 type  1   force =     0.00000000    0.00000000    0.00000000
     atom   35 type  1   force =     0.00000000    0.00000000    0.00000000
     atom   36 type  1   force =     0.00000000    0.00000000    0.00000000
     atom   37 type  1   force =     0.00000000    0.00000000    0.00000000
     atom   38 type  1   force =     0.00000000    0.00000000    0.00000000
     atom   39 type  1   force =     0.00000000    0.00000000    0.00000000
     atom   40 type  1   force =     0.00000000    0.00000000    0.00000000
     atom   41 type  1   force =     0.00000000    0.00000000    0.00000000
     atom   42 type  1   force =     0.00000000    0.00000000    0.00000000
     atom   43 type  1   force =     0.00000000    0.00000000    0.00000000
     atom   44 type  1   force =     0.00000000    0.00000000    0.00000000
     atom   45 type  1   force =     0.00000000    0.00000000    0.00000000
     atom   46 type  1   force =     0.00000000    0.00000000    0.00000000
     atom   47 type  1   force =     0.00000000    0.00000000    0.00000000
     atom   48 type  1   force =     0.00000000    0.00000000    0.00000000
     The SCF correction term to forces
     atom    1 type  1   force =    -0.00000000   -0.00000000    0.00000000
     atom    2 type  1   force =     0.00000000    0.00000000    0.00000000
     atom    3 type  1   force =     0.00004879   -0.00037981   -0.00058253
     atom    4 type  1   force =     0.00016768    0.00047472   -0.00085684
     atom    5 type  1   force =    -0.00000000   -0.00000000    0.00000000
     atom    6 type  1   force =     0.00000000    0.00000000    0.00000000
     atom    7 type  1   force =    -0.00013920   -0.00043701   -0.00032074
     atom    8 type  1   force =     0.00038698    0.00020374   -0.00099383
     atom    9 type  1   force =    -0.00000000   -0.00000000    0.00000000
     atom   10 type  1   force =     0.00000000    0.00000000    0.00000000
     atom   11 type  1   force =    -0.00061439    0.00005564   -0.00034236
     atom   12 type  1   force =     0.00083727    0.00010681   -0.00087566
     atom   13 type  1   force =    -0.00000000   -0.00000000    0.00000000
     atom   14 type  1   force =     0.00000000    0.00000000    0.00000000
     atom   15 type  1   force =    -0.00041994    0.00011392   -0.00060162
     atom   16 type  1   force =     0.00061970    0.00037786   -0.00075360
     atom   17 type  1   force =     0.00000000    0.00000000    0.00000000
     atom   18 type  1   force =    -0.00000000   -0.00000000    0.00000000
     atom   19 type  1   force =    -0.00094874   -0.00039924   -0.00049911
     atom   20 type  1   force =     0.00073589    0.00025513   -0.00084253
     atom   21 type  1   force =     0.00000000   -0.00000000    0.00000000
     atom   22 type  1   force =    -0.00000000   -0.00000000    0.00000000
     atom   23 type  1   force =    -0.00047140   -0.00085612   -0.00036126
     atom   24 type  1   force =     0.00024341    0.00034178   -0.00083521
     atom   25 type  1   force =     0.00000000    0.00000000   -0.00000000
     atom   26 type  1   force =    -0.00000000   -0.00000000    0.00000000
     atom   27 type  1   force =    -0.00069709   -0.00056054   -0.00011836
     atom   28 type  1   force =     0.00044363    0.00042371   -0.00098579
     atom   29 type  1   force =    -0.00000000    0.00000000    0.00000000
     atom   30 type  1   force =    -0.00000000   -0.00000000    0.00000000
     atom   31 type  1   force =    -0.00117071   -0.00008601   -0.00026784
     atom   32 type  1   force =     0.00094566    0.00034139   -0.00100062
     atom   33 type  1   force =    -0.00074923   -0.00040922    0.00073532
     atom   34 type  1   force =     0.00041481    0.00036089   -0.00046159
     atom   35 type  1   force =    -0.00030837   -0.00094765    0.00074574
     atom   36 type  1   force =    -0.00000811    0.00034356   -0.00045433
     atom   37 type  1   force =    -0.00081161   -0.00049536    0.00072479
     atom   38 type  1   force =     0.00049842    0.00015578   -0.00048293
     atom   39 type  1   force =    -0.00126512    0.00004902    0.00074708
     atom   40 type  1   force =     0.00092573    0.00019618   -0.00050031
     atom   41 type  1   force =    -0.00032746    0.00041749    0.00013450
     atom   42 type  1   force =     0.00006095   -0.00042370    0.00014469
     atom   43 type  1   force =     0.00017110   -0.00014858    0.00011646
     atom   44 type  1   force =    -0.00050100   -0.00044605    0.00017113
     atom   45 type  1   force =     0.00063490   -0.00026115    0.00011060
     atom   46 type  1   force =    -0.00093357   -0.00007841    0.00015448
     atom   47 type  1   force =     0.00012603    0.00033175    0.00012180
     atom   48 type  1   force =    -0.00036776   -0.00005938    0.00013301

     DFT-D3 dispersion contribution to forces:
     atom    1 type  1   force =     0.00000071   -0.00000040    0.00268593
     atom    2 type  1   force =    -0.00000067   -0.00000109    0.00268009
     atom    3 type  1   force =    -0.00000065   -0.00000074   -0.00268389
     atom    4 type  1   force =     0.00000095    0.00000683   -0.00268239
     atom    5 type  1   force =     0.00000107    0.00000042    0.00268313
     atom    6 type  1   force =    -0.00000103    0.00000020    0.00268247
     atom    7 type  1   force =    -0.00000492    0.00000459   -0.00268704
     atom    8 type  1   force =     0.00000532    0.00000761   -0.00268673
     atom    9 type  1   force =     0.00000054    0.00000113    0.00268254
     atom   10 type  1   force =    -0.00000057    0.00000042    0.00267875
     atom   11 type  1   force =    -0.00000656   -0.00000351   -0.00268815
     atom   12 type  1   force =     0.00000616   -0.00000238   -0.00268508
     atom   13 type  1   force =     0.00000011    0.00000029    0.00268563
     atom   14 type  1   force =    -0.00000016   -0.00000097    0.00267668
     atom   15 type  1   force =    -0.00000231   -0.00000864   -0.00268429
     atom   16 type  1   force =     0.00000224   -0.00000368   -0.00268083
     atom   17 type  1   force =    -0.00000007   -0.00000024    0.00268555
     atom   18 type  1   force =     0.00000004   -0.00000131    0.00268044
     atom   19 type  1   force =    -0.00000057    0.00000123   -0.00268192
     atom   20 type  1   force =     0.00000031    0.00000468   -0.00268413
     atom   21 type  1   force =     0.00000041    0.00000061    0.00268355
     atom   22 type  1   force =    -0.00000041    0.00000002    0.00268189
     atom   23 type  1   force =     0.00000114    0.00000350   -0.00268485
     atom   24 type  1   force =    -0.00000149    0.00000860   -0.00268967
     atom   25 type  1   force =     0.00000087    0.00000077    0.00267924
     atom   26 type  1   force =    -0.00000085    0.00000088    0.00268223
     atom   27 type  1   force =    -0.00000252   -0.00000287   -0.00268375
     atom   28 type  1   force =     0.00000289   -0.00000318   -0.00268974
     atom   29 type  1   force =     0.00000050   -0.00000012    0.00268114
     atom   30 type  1   force =    -0.00000046   -0.00000069    0.00268091
     atom   31 type  1   force =    -0.00000445   -0.00000544   -0.00268124
     atom   32 type  1   force =     0.00000444   -0.00000671   -0.00268420
     atom   33 type  1   force =    -0.00000383   -0.00000423   -0.00000304
     atom   34 type  1   force =     0.00000394    0.00000896    0.00000234
     atom   35 type  1   force =    -0.00000882    0.00000568    0.00000036
     atom   36 type  1   force =     0.00000887    0.00001334    0.00000525
     atom   37 type  1   force =    -0.00001124   -0.00000455    0.00000517
     atom   38 type  1   force =     0.00001119   -0.00000048    0.00000709
     atom   39 type  1   force =    -0.00000591   -0.00001412    0.00000230
     atom   40 type  1   force =     0.00000606   -0.00000443    0.00000395
     atom   41 type  1   force =     0.00000583    0.00000415   -0.00000121
     atom   42 type  1   force =    -0.00000597    0.00000051    0.00000112
     atom   43 type  1   force =     0.00000864    0.00001027    0.00000016
     atom   44 type  1   force =    -0.00000876    0.00000893    0.00000539
     atom   45 type  1   force =     0.00000372    0.00000108    0.00000340
     atom   46 type  1   force =    -0.00000360   -0.00000602    0.00000938
     atom   47 type  1   force =     0.00000105   -0.00000459    0.00000177
     atom   48 type  1   force =    -0.00000117   -0.00001429    0.00000433

     Total force =    29.607723     Total SCF correction =     0.005332

     DFT-D3 dispersion Force =     0.015180

     Writing all to output data dir ./tmp/Zn002_3layer_relax.save/ :
     XML data file, charge density, pseudopotentials, collected wavefunctions

     init_run     :     23.26s CPU     23.74s WALL (       1 calls)
     electrons    :   3679.16s CPU   3699.66s WALL (       1 calls)
     forces       :     16.20s CPU     16.38s WALL (       1 calls)
     force_dftd3  :      0.07s CPU      0.07s WALL (       1 calls)

     Called by init_run:
     wfcinit      :     21.60s CPU     21.87s WALL (       1 calls)
     wfcinit:atom :      0.03s CPU      0.06s WALL (       5 calls)
     wfcinit:wfcr :     21.15s CPU     21.32s WALL (       5 calls)
     potinit      :      0.55s CPU      0.70s WALL (       1 calls)
     hinit0       :      0.37s CPU      0.38s WALL (       1 calls)

     Called by electrons:
     c_bands      :   3499.34s CPU   3516.79s WALL (      32 calls)
     sum_band     :    168.66s CPU    170.68s WALL (      32 calls)
     v_of_rho     :      2.61s CPU      2.87s WALL (      33 calls)
     v_h          :      0.14s CPU      0.25s WALL (      33 calls)
     v_xc         :      2.39s CPU      2.55s WALL (      33 calls)
     newd         :      8.36s CPU      9.20s WALL (      33 calls)
     mix_rho      :      0.44s CPU      0.46s WALL (      32 calls)
     energy_dftd3 :      0.03s CPU      0.03s WALL (       1 calls)

     Called by c_bands:
     init_us_2    :      6.45s CPU      6.52s WALL (     330 calls)
     cegterg      :   3486.20s CPU   3503.47s WALL (     165 calls)

     Called by sum_band:
     sum_band:wei :      0.03s CPU      0.04s WALL (      32 calls)
     sum_band:loo :    161.14s CPU    161.85s WALL (      32 calls)
     sum_band:buf :      1.65s CPU      1.67s WALL (     160 calls)
     sum_band:ini :      3.15s CPU      3.17s WALL (     160 calls)
     sum_band:cal :    116.87s CPU    117.19s WALL (     160 calls)
     sum_band:bec :      0.86s CPU      0.87s WALL (     160 calls)
     addusdens    :      7.25s CPU      8.50s WALL (      32 calls)
                                        0.00s GPU  (      32 calls)
     addusd:skk   :      0.39s CPU      0.42s WALL (      32 calls)
                                        0.00s GPU  (      32 calls)

     Called by *egterg:
     cdiaghg      :    466.57s CPU    468.17s WALL (    1261 calls)
     cegterg:over :    486.72s CPU    488.27s WALL (    1096 calls)
     cegterg:upda :    306.94s CPU    308.74s WALL (    1096 calls)
     cegterg:last :    862.24s CPU    864.63s WALL (     452 calls)
     cdiaghg:chol :     31.84s CPU     31.93s WALL (    1261 calls)
     cdiaghg:inve :      4.48s CPU      4.49s WALL (    1261 calls)
     cdiaghg:para :    116.45s CPU    117.15s WALL (    2522 calls)
     h_psi        :    927.01s CPU    933.06s WALL (    1266 calls)
     s_psi        :    346.20s CPU    347.19s WALL (    1266 calls)
     g_psi        :      2.58s CPU      2.60s WALL (    1096 calls)

     Called by h_psi:
     h_psi:calbec :    354.41s CPU    355.56s WALL (    1266 calls)
     vloc_psi     :    221.49s CPU    223.35s WALL (    1266 calls)
     add_vuspsi   :    346.78s CPU    347.79s WALL (    1266 calls)

     General routines
     calbec       :    485.84s CPU    487.38s WALL (    1446 calls)
     fft          :      2.16s CPU      2.49s WALL (     429 calls)
     ffts         :      0.47s CPU      0.51s WALL (      65 calls)
     fftw         :    212.18s CPU    213.83s WALL (  646978 calls)
     interpolate  :      0.56s CPU      0.61s WALL (      33 calls)

     Parallel routines

     PWSCF        :      1h 2m CPU      1h 2m WALL


   This run was terminated on:   6:12: 9   5Apr2025            

=------------------------------------------------------------------------------=
   JOB DONE.
=------------------------------------------------------------------------------=
Note: The following floating-point exceptions are signalling: IEEE_DENORMAL
Note: The following floating-point exceptions are signalling: IEEE_DENORMAL
Note: The following floating-point exceptions are signalling: IEEE_DENORMAL
Note: The following floating-point exceptions are signalling: IEEE_DENORMAL
Note: The following floating-point exceptions are signalling: IEEE_DENORMAL
Note: The following floating-point exceptions are signalling: IEEE_DENORMAL
Note: The following floating-point exceptions are signalling: IEEE_DENORMAL
Note: The following floating-point exceptions are signalling: IEEE_DENORMAL
Note: The following floating-point exceptions are signalling: IEEE_DENORMAL
Note: The following floating-point exceptions are signalling: IEEE_DENORMAL
Note: The following floating-point exceptions are signalling: IEEE_DENORMAL
Note: The following floating-point exceptions are signalling: IEEE_DENORMAL
