--------------------------------------------------------------------------
By default, for Open MPI 4.0 and later, infiniband ports on a device
are not used by default.  The intent is to use UCX for these devices.
You can override this policy by setting the btl_openib_allow_ib MCA parameter
to true.

  Local host:              psid02
  Local adapter:           mlx5_0
  Local port:              1

--------------------------------------------------------------------------
--------------------------------------------------------------------------
WARNING: There was an error initializing an OpenFabrics device.

  Local host:   psid02
  Local device: mlx5_0
--------------------------------------------------------------------------

     Program PWSCF v.7.3.1 starts on 23Mar2025 at  0: 4:39 

     This program is part of the open-source Quantum ESPRESSO suite
     for quantum simulation of materials; please cite
         "P. Giannozzi et al., J. Phys.:Condens. Matter 21 395502 (2009);
         "P. Giannozzi et al., J. Phys.:Condens. Matter 29 465901 (2017);
         "P. Giannozzi et al., J. Chem. Phys. 152 154105 (2020);
          URL http://www.quantum-espresso.org", 
     in publications or presentations arising from this work. More details at
     http://www.quantum-espresso.org/quote

     Parallel version (MPI), running on    34 processors

     MPI processes distributed on     1 nodes
     62478 MiB available memory on the printing compute node when the environment starts

     Waiting for input...
     Reading input from standard input
Warning: card &CELL ignored
Warning: card   CELL_DOFREE = 'ALL' ignored
Warning: card / ignored

     Current dimensions of program PWSCF are:
     Max number of different atomic species (ntypx) = 10
     Max number of k-points (npk) =  40000
     Max angular momentum in pseudopotentials (lmaxx) =  4
     file C.pbe-n-kjpaw_psl.1.0.0.UPF: wavefunction(s)  2S 2P renormalized

     R & G space division:  proc/nbgrp/npool/nimage =      34
     Subspace diagonalization in iterative solution of the eigenvalue problem:
     one sub-group per band group will be used
     custom distributed-memory algorithm (size of sub-group:  5*  5 procs)


     Parallelization info
     --------------------
     sticks:   dense  smooth     PW     G-vecs:    dense   smooth      PW
     Min         102     102     27                10351    10351    1472
     Max         103     103     28                10357    10357    1486
     Sum        3477    3477    945               351985   351985   50287

     Using Slab Decomposition



     bravais-lattice index     =            0
     lattice parameter (alat)  =      18.4179  a.u.
     unit-cell volume          =   15858.2170 (a.u.)^3
     number of atoms/cell      =           79
     number of atomic types    =            4
     number of electrons       =      1324.00
     number of Kohn-Sham states=          794
     kinetic-energy cutoff     =      30.0000  Ry
     charge density cutoff     =     120.0000  Ry
     scf convergence threshold =      7.3E-07
     mixing beta               =       0.7000
     number of iterations used =            8  plain     mixing
     energy convergence thresh.=      1.0E-05
     force convergence thresh. =      5.0E-04
     Exchange-correlation= PBE
                           (   1   4   3   4   0   0   0)
     nstep                     =          100


     celldm(1)=  18.417879  celldm(2)=   0.000000  celldm(3)=   0.000000
     celldm(4)=   0.000000  celldm(5)=   0.000000  celldm(6)=   0.000000

     crystal axes: (cart. coord. in units of alat)
               a(1) = (   1.000000   0.000000   0.000000 )  
               a(2) = (   0.000000   1.072963   0.000000 )  
               a(3) = (   0.000000  -1.365810   2.365652 )  

     reciprocal axes: (cart. coord. in units 2 pi/alat)
               b(1) = (  1.000000  0.000000 -0.000000 )  
               b(2) = ( -0.000000  0.931999  0.538090 )  
               b(3) = (  0.000000  0.000000  0.422716 )  


     PseudoPot. # 1 for Zn read from file:
     /home/ys/qepseudo/SSSP_1.3.0_PBE_efficiency/Zn_pbe_v1.uspp.F.UPF
     MD5 check sum: df62231357ef9e81f77b2b3087fa5675
     Pseudo is Ultrasoft, Zval = 20.0
     Generated by new atomic code, or converted to UPF format
     Using radial grid of  943 points,  6 beta functions with: 
                l(1) =   0
                l(2) =   0
                l(3) =   1
                l(4) =   1
                l(5) =   2
                l(6) =   2
     Q(r) pseudized with  8 coefficients,  rinner =    1.100   1.100   1.100
                                                       1.100   1.100

     PseudoPot. # 2 for C  read from file:
     /home/ys/qepseudo/SSSP_1.3.0_PBE_efficiency/C.pbe-n-kjpaw_psl.1.0.0.UPF
     MD5 check sum: 5d2aebdfa2cae82b50a7e79e9516da0f
     Pseudo is Projector augmented-wave + core cor, Zval =  4.0
     Generated using "atomic" code by A. Dal Corso  v.5.1
     Shape of augmentation charge: PSQ
     Using radial grid of 1073 points,  4 beta functions with: 
                l(1) =   0
                l(2) =   0
                l(3) =   1
                l(4) =   1
     Q(r) pseudized with 0 coefficients 


     PseudoPot. # 3 for N  read from file:
     /home/ys/qepseudo/SSSP_1.3.0_PBE_efficiency/N.pbe-n-radius_5.UPF
     MD5 check sum: 16739722b17309cd8fe442a2ace49922
     Pseudo is Ultrasoft + core correction, Zval =  5.0
     Generated using "atomic" code by A. Dal Corso  v.5.1
     Using radial grid of 1085 points,  4 beta functions with: 
                l(1) =   0
                l(2) =   0
                l(3) =   1
                l(4) =   1
     Q(r) pseudized with 0 coefficients 


     PseudoPot. # 4 for H  read from file:
     /home/ys/qepseudo/SSSP_1.3.0_PBE_efficiency/H.pbe-rrkjus_psl.1.0.0.UPF
     MD5 check sum: f52b6d4d1c606e5624b1dc7b2218f220
     Pseudo is Ultrasoft, Zval =  1.0
     Generated using "atomic" code by A. Dal Corso  v.5.1
     Using radial grid of  929 points,  2 beta functions with: 
                l(1) =   0
                l(2) =   0
     Q(r) pseudized with 0 coefficients 


     atomic species   valence    mass     pseudopotential
     Zn               20.00    65.38000     Zn( 1.00)
     C                 4.00    12.01070     C ( 1.00)
     N                 5.00    14.00670     N ( 1.00)
     H                 1.00     1.00800     H ( 1.00)

     No symmetry found


                                    s                        frac. trans.

      isym =  1     identity                                     

 cryst.   s( 1) = (     1          0          0      )
                  (     0          1          0      )
                  (     0          0          1      )

 cart.    s( 1) = (  1.0000000  0.0000000  0.0000000 )
                  (  0.0000000  1.0000000 -0.0000000 )
                  (  0.0000000  0.0000000  1.0000000 )


   Cartesian axes

     site n.     atom                  positions (alat units)
         1        Zn     tau(   1) = (   0.1250000   0.1341203   0.0774344  )
         2        Zn     tau(   2) = (   0.1250000   0.6706017   0.0774344  )
         3        Zn     tau(   3) = (   0.1250000   0.0000000   0.3097376  )
         4        Zn     tau(   4) = (   0.1250000   0.5364813   0.3097376  )
         5        Zn     tau(   5) = (   0.1250290  -0.1341417   0.5820584  )
         6        Zn     tau(   6) = (   0.1250405   0.4023616   0.5819647  )
         7        Zn     tau(   7) = (   0.1250408  -0.2682706   0.8528810  )
         8        Zn     tau(   8) = (   0.1250466   0.2682807   0.8528293  )
         9        Zn     tau(   9) = (   0.1250000   0.4023610   0.0774344  )
        10        Zn     tau(  10) = (   0.1250000   0.9388423   0.0774344  )
        11        Zn     tau(  11) = (   0.1250000   0.2682407   0.3097376  )
        12        Zn     tau(  12) = (   0.1250000   0.8047220   0.3097376  )
        13        Zn     tau(  13) = (   0.1250408   0.1341312   0.5819983  )
        14        Zn     tau(  14) = (   0.1250279   0.6705889   0.5820360  )
        15        Zn     tau(  15) = (   0.1250442  -0.0000368   0.8528823  )
        16        Zn     tau(  16) = (   0.1250426   0.5365266   0.8528201  )
        17        Zn     tau(  17) = (   0.6250000   0.1341203   0.0774344  )
        18        Zn     tau(  18) = (   0.6250000   0.6706017   0.0774344  )
        19        Zn     tau(  19) = (   0.6250000   0.0000000   0.3097376  )
        20        Zn     tau(  20) = (   0.6250000   0.5364813   0.3097376  )
        21        Zn     tau(  21) = (   0.6249675  -0.1341249   0.5822560  )
        22        Zn     tau(  22) = (   0.6249625   0.4023466   0.5821830  )
        23        Zn     tau(  23) = (   0.6249647  -0.2682775   0.8528614  )
        24        Zn     tau(  24) = (   0.6249499   0.2682885   0.8528196  )
        25        Zn     tau(  25) = (   0.6250000   0.4023610   0.0774344  )
        26        Zn     tau(  26) = (   0.6250000   0.9388423   0.0774344  )
        27        Zn     tau(  27) = (   0.6250000   0.2682407   0.3097376  )
        28        Zn     tau(  28) = (   0.6250000   0.8047220   0.3097376  )
        29        Zn     tau(  29) = (   0.6249643   0.1341641   0.5822135  )
        30        Zn     tau(  30) = (   0.6249672   0.6705553   0.5822335  )
        31        Zn     tau(  31) = (   0.6249591  -0.0000159   0.8528717  )
        32        Zn     tau(  32) = (   0.6249573   0.5365055   0.8528056  )
        33        Zn     tau(  33) = (   0.3750000  -0.0000000   0.1548688  )
        34        Zn     tau(  34) = (   0.3750000   0.5364813   0.1548688  )
        35        Zn     tau(  35) = (   0.3750000  -0.1341203   0.3871721  )
        36        Zn     tau(  36) = (   0.3750000   0.4023610   0.3871721  )
        37        Zn     tau(  37) = (   0.3749795  -0.2682828   0.6236034  )
        38        Zn     tau(  38) = (   0.3749869   0.2682730   0.6235323  )
        39        Zn     tau(  39) = (   0.3751136  -0.4023763   0.8687437  )
        40        Zn     tau(  40) = (   0.3751189   0.1341221   0.8687719  )
        41        Zn     tau(  41) = (   0.3750000   0.2682407   0.1548688  )
        42        Zn     tau(  42) = (   0.3750000   0.8047220   0.1548688  )
        43        Zn     tau(  43) = (   0.3750000   0.1341203   0.3871721  )
        44        Zn     tau(  44) = (   0.3750000   0.6706017   0.3871721  )
        45        Zn     tau(  45) = (   0.3749870   0.0000171   0.6235532  )
        46        Zn     tau(  46) = (   0.3749914   0.5364504   0.6235764  )
        47        Zn     tau(  47) = (   0.3751105  -0.1341730   0.8687759  )
        48        Zn     tau(  48) = (   0.3751210   0.4023978   0.8687386  )
        49        Zn     tau(  49) = (   0.8750000  -0.0000000   0.1548688  )
        50        Zn     tau(  50) = (   0.8750000   0.5364813   0.1548688  )
        51        Zn     tau(  51) = (   0.8750000  -0.1341203   0.3871721  )
        52        Zn     tau(  52) = (   0.8750000   0.4023610   0.3871721  )
        53        Zn     tau(  53) = (   0.8750137  -0.2682816   0.6236127  )
        54        Zn     tau(  54) = (   0.8750145   0.2682702   0.6235379  )
        55        Zn     tau(  55) = (   0.8748930  -0.4023645   0.8688529  )
        56        Zn     tau(  56) = (   0.8748831   0.1341076   0.8688814  )
        57        Zn     tau(  57) = (   0.8750000   0.2682407   0.1548688  )
        58        Zn     tau(  58) = (   0.8750000   0.8047220   0.1548688  )
        59        Zn     tau(  59) = (   0.8750000   0.1341203   0.3871721  )
        60        Zn     tau(  60) = (   0.8750000   0.6706017   0.3871721  )
        61        Zn     tau(  61) = (   0.8750191  -0.0000014   0.6235616  )
        62        Zn     tau(  62) = (   0.8750146   0.5364705   0.6235843  )
        63        Zn     tau(  63) = (   0.8748974  -0.1341803   0.8688835  )
        64        Zn     tau(  64) = (   0.8748800   0.4024084   0.8688483  )
        65        C      tau(  65) = (   0.3973671   0.1079821   1.8063116  )
        66        C      tau(  66) = (   0.3930173   0.1136738   1.6597029  )
        67        C      tau(  67) = (   0.5147257   0.1249094   1.5825264  )
        68        C      tau(  68) = (   0.2669191   0.1081586   1.5892458  )
        69        C      tau(  69) = (   0.2624981   0.1136625   1.4471313  )
        70        C      tau(  70) = (   0.5107038   0.1304403   1.4404011  )
        71        C      tau(  71) = (   0.3843814   0.1249367   1.3692937  )
        72        N      tau(  72) = (   0.4009095   0.1033659   1.9254454  )
        73        N      tau(  73) = (   0.3802255   0.1303943   1.2292549  )
        74        H      tau(  74) = (   0.2900649   0.1263332   1.1784846  )
        75        H      tau(  75) = (   0.4672421   0.1383097   1.1736803  )
        76        H      tau(  76) = (   0.6132795   0.1293015   1.6355870  )
        77        H      tau(  77) = (   0.1716767   0.0994513   1.6475510  )
        78        H      tau(  78) = (   0.1636247   0.1092379   1.3943461  )
        79        H      tau(  79) = (   0.6062815   0.1391594   1.3823535  )

   Crystallographic axes

     site n.     atom                  positions (cryst. coord.)
         1        Zn     tau(   1) = (  0.1250000  0.1666667  0.0327328  )
         2        Zn     tau(   2) = (  0.1250000  0.6666667  0.0327328  )
         3        Zn     tau(   3) = (  0.1250000  0.1666667  0.1309312  )
         4        Zn     tau(   4) = (  0.1250000  0.6666667  0.1309312  )
         5        Zn     tau(   5) = (  0.1250290  0.1881798  0.2460456  )
         6        Zn     tau(   6) = (  0.1250405  0.6881498  0.2460060  )
         7        Zn     tau(   7) = (  0.1250408  0.2088987  0.3605268  )
         8        Zn     tau(   8) = (  0.1250466  0.7089361  0.3605049  )
         9        Zn     tau(   9) = (  0.1250000  0.4166667  0.0327328  )
        10        Zn     tau(  10) = (  0.1250000  0.9166667  0.0327328  )
        11        Zn     tau(  11) = (  0.1250000  0.4166667  0.1309312  )
        12        Zn     tau(  12) = (  0.1250000  0.9166667  0.1309312  )
        13        Zn     tau(  13) = (  0.1250408  0.4381774  0.2460202  )
        14        Zn     tau(  14) = (  0.1250279  0.9381757  0.2460362  )
        15        Zn     tau(  15) = (  0.1250442  0.4588930  0.3605273  )
        16        Zn     tau(  16) = (  0.1250426  0.9589360  0.3605011  )
        17        Zn     tau(  17) = (  0.6250000  0.1666667  0.0327328  )
        18        Zn     tau(  18) = (  0.6250000  0.6666667  0.0327328  )
        19        Zn     tau(  19) = (  0.6250000  0.1666667  0.1309312  )
        20        Zn     tau(  20) = (  0.6250000  0.6666667  0.1309312  )
        21        Zn     tau(  21) = (  0.6249675  0.1883018  0.2461292  )
        22        Zn     tau(  22) = (  0.6249625  0.6882533  0.2460983  )
        23        Zn     tau(  23) = (  0.6249647  0.2088817  0.3605185  )
        24        Zn     tau(  24) = (  0.6249499  0.7089381  0.3605008  )
        25        Zn     tau(  25) = (  0.6250000  0.4166667  0.0327328  )
        26        Zn     tau(  26) = (  0.6250000  0.9166667  0.0327328  )
        27        Zn     tau(  27) = (  0.6250000  0.4166667  0.1309312  )
        28        Zn     tau(  28) = (  0.6250000  0.9166667  0.1309312  )
        29        Zn     tau(  29) = (  0.6249643  0.4383239  0.2461112  )
        30        Zn     tau(  30) = (  0.6249672  0.9382507  0.2461196  )
        31        Zn     tau(  31) = (  0.6249591  0.4589067  0.3605228  )
        32        Zn     tau(  32) = (  0.6249573  0.9589085  0.3604949  )
        33        Zn     tau(  33) = (  0.3750000  0.0833333  0.0654656  )
        34        Zn     tau(  34) = (  0.3750000  0.5833333  0.0654656  )
        35        Zn     tau(  35) = (  0.3750000  0.0833333  0.1636640  )
        36        Zn     tau(  36) = (  0.3750000  0.5833333  0.1636640  )
        37        Zn     tau(  37) = (  0.3749795  0.0855154  0.2636074  )
        38        Zn     tau(  38) = (  0.3749869  0.5855465  0.2635773  )
        39        Zn     tau(  39) = (  0.3751136  0.0924479  0.3672322  )
        40        Zn     tau(  40) = (  0.3751189  0.5924790  0.3672441  )
        41        Zn     tau(  41) = (  0.3750000  0.3333333  0.0654656  )
        42        Zn     tau(  42) = (  0.3750000  0.8333333  0.0654656  )
        43        Zn     tau(  43) = (  0.3750000  0.3333333  0.1636640  )
        44        Zn     tau(  44) = (  0.3750000  0.8333333  0.1636640  )
        45        Zn     tau(  45) = (  0.3749870  0.3355436  0.2635862  )
        46        Zn     tau(  46) = (  0.3749914  0.8355113  0.2635959  )
        47        Zn     tau(  47) = (  0.3751105  0.3424304  0.3672458  )
        48        Zn     tau(  48) = (  0.3751210  0.8424936  0.3672300  )
        49        Zn     tau(  49) = (  0.8750000  0.0833333  0.0654656  )
        50        Zn     tau(  50) = (  0.8750000  0.5833333  0.0654656  )
        51        Zn     tau(  51) = (  0.8750000  0.0833333  0.1636640  )
        52        Zn     tau(  52) = (  0.8750000  0.5833333  0.1636640  )
        53        Zn     tau(  53) = (  0.8750137  0.0855215  0.2636113  )
        54        Zn     tau(  54) = (  0.8750145  0.5855469  0.2635797  )
        55        Zn     tau(  55) = (  0.8748930  0.0925177  0.3672784  )
        56        Zn     tau(  56) = (  0.8748831  0.5925243  0.3672904  )
        57        Zn     tau(  57) = (  0.8750000  0.3333333  0.0654656  )
        58        Zn     tau(  58) = (  0.8750000  0.8333333  0.0654656  )
        59        Zn     tau(  59) = (  0.8750000  0.3333333  0.1636640  )
        60        Zn     tau(  60) = (  0.8750000  0.8333333  0.1636640  )
        61        Zn     tau(  61) = (  0.8750191  0.3355308  0.2635897  )
        62        Zn     tau(  62) = (  0.8750146  0.8355343  0.2635993  )
        63        Zn     tau(  63) = (  0.8748974  0.3424815  0.3672913  )
        64        Zn     tau(  64) = (  0.8748800  0.8425626  0.3672764  )
        65        C      tau(  65) = (  0.3973671  1.0725970  0.7635575  )
        66        C      tau(  66) = (  0.3930173  0.9990130  0.7015836  )
        67        C      tau(  67) = (  0.5147257  0.9679567  0.6689599  )
        68        C      tau(  68) = (  0.2669191  0.9559606  0.6718003  )
        69        C      tau(  69) = (  0.2624981  0.8846200  0.6117261  )
        70        C      tau(  70) = (  0.5107038  0.8966354  0.6088812  )
        71        C      tau(  71) = (  0.3843814  0.8532438  0.5788229  )
        72        N      tau(  72) = (  0.4009095  1.1323994  0.8139173  )
        73        N      tau(  73) = (  0.3802255  0.7829769  0.5196262  )
        74        H      tau(  74) = (  0.2900649  0.7518729  0.4981648  )
        75        H      tau(  75) = (  0.4672421  0.7604499  0.4961339  )
        76        H      tau(  76) = (  0.6132795  1.0006015  0.6913894  )
        77        H      tau(  77) = (  0.1716767  0.9792188  0.6964468  )
        78        H      tau(  78) = (  0.1636247  0.8520930  0.5894130  )
        79        H      tau(  79) = (  0.6062815  0.8735268  0.5843435  )

     number of k points=     4  Marzari-Vanderbilt smearing, width (Ry)=  0.0200
                       cart. coord. in units 2pi/alat
        k(    1) = (   0.0000000   0.0000000   0.0000000), wk =   0.5000000
        k(    2) = (   0.0000000  -0.4659994  -0.2690449), wk =   0.5000000
        k(    3) = (  -0.5000000   0.0000000   0.0000000), wk =   0.5000000
        k(    4) = (  -0.5000000  -0.4659994  -0.2690449), wk =   0.5000000

                       cryst. coord.
        k(    1) = (   0.0000000   0.0000000   0.0000000), wk =   0.5000000
        k(    2) = (   0.0000000  -0.5000000   0.0000000), wk =   0.5000000
        k(    3) = (  -0.5000000   0.0000000   0.0000000), wk =   0.5000000
        k(    4) = (  -0.5000000  -0.5000000   0.0000000), wk =   0.5000000

     Dense  grid:   351985 G-vectors     FFT dimensions: (  72,  72, 180)

     Dynamical RAM for                 wfc:      15.68 MB

     Dynamical RAM for     wfc (w. buffer):      78.39 MB

     Dynamical RAM for           str. fact:       0.63 MB

     Dynamical RAM for           local pot:       0.00 MB

     Dynamical RAM for          nlocal pot:      24.40 MB

     Dynamical RAM for                qrad:       3.52 MB

     Dynamical RAM for          rho,v,vnew:       1.19 MB

     Dynamical RAM for               rhoin:       0.40 MB

     Dynamical RAM for            rho*nmix:       2.53 MB

     Dynamical RAM for           G-vectors:       0.67 MB

     Dynamical RAM for          h,s,v(r/c):       4.60 MB

     Dynamical RAM for          <psi|beta>:      14.97 MB

     Dynamical RAM for                 psi:      31.35 MB

     Dynamical RAM for                hpsi:      31.35 MB

     Dynamical RAM for                spsi:      31.35 MB

     Dynamical RAM for      wfcinit/wfcrot:      52.00 MB

     Dynamical RAM for           addusdens:      39.50 MB

     Dynamical RAM for          addusforce:      59.73 MB

     Dynamical RAM for         addusstress:      31.76 MB

     Estimated static dynamical RAM per process >     111.17 MB

     Estimated max dynamical RAM per process >     227.34 MB

     Estimated total dynamical RAM >       7.55 GB

     Check: negative core charge=   -0.000054

     Initial potential from superposition of free atoms

     starting charge    1323.9906, renormalised to    1324.0000

     negative rho (up, down):  7.109E-03 0.000E+00
     Starting wfcs are  874 randomized atomic wfcs
[psid02:95520] 33 more processes have sent help message help-mpi-btl-openib.txt / ib port not selected
[psid02:95520] Set MCA parameter "orte_base_help_aggregate" to 0 to see all help / error messages
[psid02:95520] 33 more processes have sent help message help-mpi-btl-openib.txt / error in device init
     Checking if some PAW data can be deallocated... 
       PAW data deallocated on   30 nodes for type:  2

     total cpu time spent up to now is       59.6 secs

     Self-consistent Calculation

     iteration #  1     ecut=    30.00 Ry     beta= 0.70
     Davidson diagonalization with overlap

---- Real-time Memory Report at c_bands before calling an iterative solver
           198 MiB given to the printing process from OS
             0 MiB allocation reported by mallinfo(arena+hblkhd)
         58263 MiB available memory on the node where the printing process lives
------------------
     ethr =  1.00E-02,  avg # of iterations =  7.2

     Threshold (ethr) on eigenvalues was too large:
     Diagonalizing with lowered threshold

     Davidson diagonalization with overlap

---- Real-time Memory Report at c_bands before calling an iterative solver
           273 MiB given to the printing process from OS
             0 MiB allocation reported by mallinfo(arena+hblkhd)
         56668 MiB available memory on the node where the printing process lives
------------------
     ethr =  8.84E-04,  avg # of iterations =  1.8

     negative rho (up, down):  3.740E-02 0.000E+00

     total cpu time spent up to now is      495.6 secs

     total energy              =  -29703.25438395 Ry
     estimated scf accuracy    <      11.94659796 Ry

     iteration #  2     ecut=    30.00 Ry     beta= 0.70
     Davidson diagonalization with overlap

---- Real-time Memory Report at c_bands before calling an iterative solver
           282 MiB given to the printing process from OS
             0 MiB allocation reported by mallinfo(arena+hblkhd)
         56407 MiB available memory on the node where the printing process lives
------------------
     ethr =  9.02E-04,  avg # of iterations = 10.0

     negative rho (up, down):  3.487E-02 0.000E+00

     total cpu time spent up to now is      849.6 secs

     total energy              =  -29668.45353338 Ry
     estimated scf accuracy    <     739.42719655 Ry

     iteration #  3     ecut=    30.00 Ry     beta= 0.70
     Davidson diagonalization with overlap

---- Real-time Memory Report at c_bands before calling an iterative solver
           284 MiB given to the printing process from OS
             0 MiB allocation reported by mallinfo(arena+hblkhd)
         56193 MiB available memory on the node where the printing process lives
------------------
     ethr =  9.02E-04,  avg # of iterations = 10.2

     negative rho (up, down):  2.704E-02 0.000E+00

     total cpu time spent up to now is     1359.5 secs

     total energy              =  -29704.18912330 Ry
     estimated scf accuracy    <      80.47387369 Ry

     iteration #  4     ecut=    30.00 Ry     beta= 0.70
     Davidson diagonalization with overlap

---- Real-time Memory Report at c_bands before calling an iterative solver
           285 MiB given to the printing process from OS
             0 MiB allocation reported by mallinfo(arena+hblkhd)
         56175 MiB available memory on the node where the printing process lives
------------------
     ethr =  9.02E-04,  avg # of iterations =  8.0

     negative rho (up, down):  2.245E-02 0.000E+00

     total cpu time spent up to now is     1603.5 secs

     total energy              =  -29705.94523958 Ry
     estimated scf accuracy    <     119.29773968 Ry

     iteration #  5     ecut=    30.00 Ry     beta= 0.70
     Davidson diagonalization with overlap

---- Real-time Memory Report at c_bands before calling an iterative solver
           286 MiB given to the printing process from OS
             0 MiB allocation reported by mallinfo(arena+hblkhd)
         56162 MiB available memory on the node where the printing process lives
------------------
     ethr =  9.02E-04,  avg # of iterations =  7.0

     negative rho (up, down):  2.278E-02 0.000E+00

     total cpu time spent up to now is     1828.9 secs

     total energy              =  -29711.06086836 Ry
     estimated scf accuracy    <       5.75052024 Ry

     iteration #  6     ecut=    30.00 Ry     beta= 0.70
     Davidson diagonalization with overlap

---- Real-time Memory Report at c_bands before calling an iterative solver
           286 MiB given to the printing process from OS
             0 MiB allocation reported by mallinfo(arena+hblkhd)
         56146 MiB available memory on the node where the printing process lives
------------------
     ethr =  4.34E-04,  avg # of iterations =  3.2

     negative rho (up, down):  2.721E-02 0.000E+00

     total cpu time spent up to now is     2027.9 secs

     total energy              =  -29711.54674848 Ry
     estimated scf accuracy    <       0.29451358 Ry

     iteration #  7     ecut=    30.00 Ry     beta= 0.70
     Davidson diagonalization with overlap

---- Real-time Memory Report at c_bands before calling an iterative solver
           287 MiB given to the printing process from OS
             0 MiB allocation reported by mallinfo(arena+hblkhd)
         56133 MiB available memory on the node where the printing process lives
------------------
     ethr =  2.22E-05,  avg # of iterations = 12.2

     negative rho (up, down):  3.120E-02 0.000E+00

     total cpu time spent up to now is     2270.9 secs

     total energy              =  -29711.55473817 Ry
     estimated scf accuracy    <       0.11728726 Ry

     iteration #  8     ecut=    30.00 Ry     beta= 0.70
     Davidson diagonalization with overlap

---- Real-time Memory Report at c_bands before calling an iterative solver
           287 MiB given to the printing process from OS
             0 MiB allocation reported by mallinfo(arena+hblkhd)
         56117 MiB available memory on the node where the printing process lives
------------------
     ethr =  8.86E-06,  avg # of iterations =  9.0

     negative rho (up, down):  3.353E-02 0.000E+00

     total cpu time spent up to now is     2500.8 secs

     total energy              =  -29711.54071266 Ry
     estimated scf accuracy    <       0.22657654 Ry

     iteration #  9     ecut=    30.00 Ry     beta= 0.70
     Davidson diagonalization with overlap

---- Real-time Memory Report at c_bands before calling an iterative solver
           288 MiB given to the printing process from OS
             0 MiB allocation reported by mallinfo(arena+hblkhd)
         56102 MiB available memory on the node where the printing process lives
------------------
     ethr =  8.86E-06,  avg # of iterations =  5.8

     negative rho (up, down):  3.500E-02 0.000E+00

     total cpu time spent up to now is     2713.3 secs

     total energy              =  -29711.56094460 Ry
     estimated scf accuracy    <       0.09890122 Ry

     iteration # 10     ecut=    30.00 Ry     beta= 0.70
     Davidson diagonalization with overlap

---- Real-time Memory Report at c_bands before calling an iterative solver
           288 MiB given to the printing process from OS
             0 MiB allocation reported by mallinfo(arena+hblkhd)
         56089 MiB available memory on the node where the printing process lives
------------------
     ethr =  7.47E-06,  avg # of iterations =  3.0

     negative rho (up, down):  3.508E-02 0.000E+00

     total cpu time spent up to now is     2913.2 secs

     total energy              =  -29711.56797101 Ry
     estimated scf accuracy    <       0.03471273 Ry

     iteration # 11     ecut=    30.00 Ry     beta= 0.70
     Davidson diagonalization with overlap

---- Real-time Memory Report at c_bands before calling an iterative solver
           289 MiB given to the printing process from OS
             0 MiB allocation reported by mallinfo(arena+hblkhd)
         56075 MiB available memory on the node where the printing process lives
------------------
     c_bands:  1 eigenvalues not converged
     c_bands:  1 eigenvalues not converged
     c_bands:  1 eigenvalues not converged
     ethr =  2.62E-06,  avg # of iterations = 16.8

     negative rho (up, down):  3.785E-02 0.000E+00

     total cpu time spent up to now is     3141.9 secs

     total energy              =  -29711.56030070 Ry
     estimated scf accuracy    <       0.01770856 Ry

     iteration # 12     ecut=    30.00 Ry     beta= 0.70
     Davidson diagonalization with overlap

---- Real-time Memory Report at c_bands before calling an iterative solver
           289 MiB given to the printing process from OS
             0 MiB allocation reported by mallinfo(arena+hblkhd)
         56073 MiB available memory on the node where the printing process lives
------------------
     c_bands:  1 eigenvalues not converged
     c_bands:  2 eigenvalues not converged
     ethr =  1.34E-06,  avg # of iterations = 18.0

     negative rho (up, down):  3.659E-02 0.000E+00

     total cpu time spent up to now is     3423.8 secs

     total energy              =  -29711.55870173 Ry
     estimated scf accuracy    <       0.05086431 Ry

     iteration # 13     ecut=    30.00 Ry     beta= 0.70
     Davidson diagonalization with overlap

---- Real-time Memory Report at c_bands before calling an iterative solver
           289 MiB given to the printing process from OS
             0 MiB allocation reported by mallinfo(arena+hblkhd)
         56069 MiB available memory on the node where the printing process lives
------------------
     ethr =  1.34E-06,  avg # of iterations =  3.0

     negative rho (up, down):  3.573E-02 0.000E+00

     total cpu time spent up to now is     3630.2 secs

     total energy              =  -29711.55515437 Ry
     estimated scf accuracy    <       0.02427861 Ry

     iteration # 14     ecut=    30.00 Ry     beta= 0.70
     Davidson diagonalization with overlap

---- Real-time Memory Report at c_bands before calling an iterative solver
           289 MiB given to the printing process from OS
             0 MiB allocation reported by mallinfo(arena+hblkhd)
         56069 MiB available memory on the node where the printing process lives
------------------
     ethr =  1.34E-06,  avg # of iterations = 14.0

     negative rho (up, down):  3.578E-02 0.000E+00

     total cpu time spent up to now is     3895.9 secs

     total energy              =  -29711.54669178 Ry
     estimated scf accuracy    <       0.40126801 Ry

     iteration # 15     ecut=    30.00 Ry     beta= 0.70
     Davidson diagonalization with overlap

---- Real-time Memory Report at c_bands before calling an iterative solver
           289 MiB given to the printing process from OS
             0 MiB allocation reported by mallinfo(arena+hblkhd)
         56067 MiB available memory on the node where the printing process lives
------------------
     ethr =  1.34E-06,  avg # of iterations = 10.5

     negative rho (up, down):  3.599E-02 0.000E+00

     total cpu time spent up to now is     4133.1 secs

     total energy              =  -29711.56148803 Ry
     estimated scf accuracy    <       0.00468502 Ry

     iteration # 16     ecut=    30.00 Ry     beta= 0.70
     Davidson diagonalization with overlap

---- Real-time Memory Report at c_bands before calling an iterative solver
           289 MiB given to the printing process from OS
             0 MiB allocation reported by mallinfo(arena+hblkhd)
         56067 MiB available memory on the node where the printing process lives
------------------
     ethr =  3.54E-07,  avg # of iterations =  2.5

     negative rho (up, down):  3.567E-02 0.000E+00

     total cpu time spent up to now is     4331.6 secs

     total energy              =  -29711.56165515 Ry
     estimated scf accuracy    <       0.01002880 Ry

     iteration # 17     ecut=    30.00 Ry     beta= 0.70
     Davidson diagonalization with overlap

---- Real-time Memory Report at c_bands before calling an iterative solver
           289 MiB given to the printing process from OS
             0 MiB allocation reported by mallinfo(arena+hblkhd)
         56067 MiB available memory on the node where the printing process lives
------------------
     ethr =  3.54E-07,  avg # of iterations =  2.0

     negative rho (up, down):  3.558E-02 0.000E+00

     total cpu time spent up to now is     4520.8 secs

     total energy              =  -29711.56247029 Ry
     estimated scf accuracy    <       0.00021797 Ry

     iteration # 18     ecut=    30.00 Ry     beta= 0.70
     Davidson diagonalization with overlap

---- Real-time Memory Report at c_bands before calling an iterative solver
           289 MiB given to the printing process from OS
             0 MiB allocation reported by mallinfo(arena+hblkhd)
         56067 MiB available memory on the node where the printing process lives
------------------
     ethr =  1.65E-08,  avg # of iterations =  2.2

     negative rho (up, down):  3.551E-02 0.000E+00

     total cpu time spent up to now is     4721.6 secs

     total energy              =  -29711.56249949 Ry
     estimated scf accuracy    <       0.00006407 Ry

     iteration # 19     ecut=    30.00 Ry     beta= 0.70
     Davidson diagonalization with overlap

---- Real-time Memory Report at c_bands before calling an iterative solver
           289 MiB given to the printing process from OS
             0 MiB allocation reported by mallinfo(arena+hblkhd)
         56066 MiB available memory on the node where the printing process lives
------------------
     ethr =  4.84E-09,  avg # of iterations =  2.0

     negative rho (up, down):  3.548E-02 0.000E+00

     total cpu time spent up to now is     4914.3 secs

     total energy              =  -29711.56250409 Ry
     estimated scf accuracy    <       0.00006211 Ry

     iteration # 20     ecut=    30.00 Ry     beta= 0.70
     Davidson diagonalization with overlap

---- Real-time Memory Report at c_bands before calling an iterative solver
           289 MiB given to the printing process from OS
             0 MiB allocation reported by mallinfo(arena+hblkhd)
         56064 MiB available memory on the node where the printing process lives
------------------
     ethr =  4.69E-09,  avg # of iterations =  2.0

     negative rho (up, down):  3.547E-02 0.000E+00

     total cpu time spent up to now is     5103.8 secs

     total energy              =  -29711.56251068 Ry
     estimated scf accuracy    <       0.00001499 Ry

     iteration # 21     ecut=    30.00 Ry     beta= 0.70
     Davidson diagonalization with overlap

---- Real-time Memory Report at c_bands before calling an iterative solver
           289 MiB given to the printing process from OS
             0 MiB allocation reported by mallinfo(arena+hblkhd)
         56062 MiB available memory on the node where the printing process lives
------------------
     ethr =  1.13E-09,  avg # of iterations =  2.0

     negative rho (up, down):  3.546E-02 0.000E+00

     total cpu time spent up to now is     5294.3 secs

     total energy              =  -29711.56251215 Ry
     estimated scf accuracy    <       0.00000272 Ry

     iteration # 22     ecut=    30.00 Ry     beta= 0.70
     Davidson diagonalization with overlap

---- Real-time Memory Report at c_bands before calling an iterative solver
           289 MiB given to the printing process from OS
             0 MiB allocation reported by mallinfo(arena+hblkhd)
         56061 MiB available memory on the node where the printing process lives
------------------
     ethr =  2.05E-10,  avg # of iterations =  2.0

     negative rho (up, down):  3.545E-02 0.000E+00

     total cpu time spent up to now is     5487.7 secs

     total energy              =  -29711.56251213 Ry
     estimated scf accuracy    <       0.00000549 Ry

     iteration # 23     ecut=    30.00 Ry     beta= 0.70
     Davidson diagonalization with overlap

---- Real-time Memory Report at c_bands before calling an iterative solver
           289 MiB given to the printing process from OS
             0 MiB allocation reported by mallinfo(arena+hblkhd)
         56062 MiB available memory on the node where the printing process lives
------------------
     ethr =  2.05E-10,  avg # of iterations =  2.0

     negative rho (up, down):  3.544E-02 0.000E+00

     total cpu time spent up to now is     5677.9 secs

     total energy              =  -29711.56251270 Ry
     estimated scf accuracy    <       0.00000093 Ry

     iteration # 24     ecut=    30.00 Ry     beta= 0.70
     Davidson diagonalization with overlap

---- Real-time Memory Report at c_bands before calling an iterative solver
           289 MiB given to the printing process from OS
             0 MiB allocation reported by mallinfo(arena+hblkhd)
         56061 MiB available memory on the node where the printing process lives
------------------
     ethr =  7.04E-11,  avg # of iterations =  2.0

     negative rho (up, down):  3.544E-02 0.000E+00

     total cpu time spent up to now is     5868.9 secs

     End of self-consistent calculation

          k = 0.0000 0.0000 0.0000 ( 44003 PWs)   bands (ev):

  -123.3219-123.3204-123.3198-123.3190-123.3187-123.3185-123.3179-123.3177
  -123.2750-123.2737-123.2735-123.2732-123.2729-123.2728-123.2714-123.2708
  -123.2426-123.2412-123.2411-123.2405-123.2404-123.2402-123.2399-123.2398
  -123.1242-123.1232-123.1231-123.1225-123.1214-123.1208-123.1200-123.1195
  -123.1188-123.1187-123.1182-123.1180-123.1174-123.1173-123.1172-123.1168
  -123.0622-123.0614-123.0606-123.0605-123.0602-123.0595-123.0592-123.0586
  -123.0578-123.0441-123.0434-123.0417-123.0408-123.0406-123.0401-123.0397
  -122.9612-122.9596-122.9576-122.9562-122.9526-122.9517-122.9498-122.9493
   -77.4215 -77.4187 -77.4184 -77.4171 -77.4165 -77.4161 -77.4157 -77.4152
   -77.4148 -77.4140 -77.4114 -77.4053 -77.4052 -77.4012 -77.4010 -77.3995
   -77.3986 -77.3982 -77.3980 -77.3976 -77.3973 -77.3967 -77.3894 -77.3824
   -77.3799 -77.3774 -77.3629 -77.3628 -77.3613 -77.3611 -77.3609 -77.3606
   -77.3598 -77.3596 -77.3594 -77.3590 -77.3589 -77.3589 -77.3582 -77.3580
   -77.3574 -77.3528 -77.3523 -77.3513 -77.3510 -77.3501 -77.3499 -77.3436
   -77.3412 -77.3388 -77.3384 -77.3374 -77.3372 -77.3371 -77.3367 -77.3367
   -77.3362 -77.3356 -77.3348 -77.3323 -77.3322 -77.3263 -77.3254 -77.3254
   -77.3244 -77.3236 -77.3205 -77.3205 -77.3182 -77.3182 -77.3097 -77.2996
   -77.2304 -77.2270 -77.2221 -77.2204 -77.2197 -77.2183 -77.2175 -77.2170
   -77.2152 -77.2151 -77.2119 -77.2113 -77.2104 -77.2103 -77.2102 -77.2100
   -77.2099 -77.2093 -77.2089 -77.2086 -77.2085 -77.2077 -77.2076 -77.2074
   -77.2071 -77.2069 -77.2068 -77.2064 -77.2059 -77.2057 -77.2053 -77.2048
   -77.2045 -77.2039 -77.2034 -77.2031 -77.2025 -77.2022 -77.2019 -77.2004
   -77.2001 -77.1996 -77.1995 -77.1980 -77.1976 -77.1928 -77.1898 -77.1805
   -77.1731 -77.1718 -77.1716 -77.1715 -77.1710 -77.1698 -77.1696 -77.1684
   -77.1607 -77.1551 -77.1531 -77.1525 -77.1483 -77.1435 -77.1435 -77.1432
   -77.1419 -77.1411 -77.1408 -77.1396 -77.1390 -77.1387 -77.1381 -77.1369
   -77.1367 -77.1360 -77.1359 -77.1354 -77.1347 -77.1345 -77.1342 -77.1328
   -77.1322 -77.1320 -77.1286 -77.1268 -77.1261 -77.1242 -77.1233 -77.1230
   -77.1219 -77.1189 -77.1180 -77.1175 -77.1168 -77.1166 -77.1149 -77.1084
   -77.0578 -77.0560 -77.0546 -77.0540 -77.0529 -77.0511 -77.0510 -77.0493
   -77.0474 -77.0457 -77.0447 -77.0446 -77.0443 -77.0432 -77.0423 -77.0415
   -77.0378 -77.0376 -77.0372 -77.0357 -77.0340 -77.0325 -77.0245 -77.0147
   -15.9244 -14.5840 -13.6689 -11.2540 -11.1791  -8.2707  -7.9925  -6.4736
    -6.0649  -5.6564  -5.5795  -5.5315  -5.4168  -5.2029  -5.2026  -5.1154
    -4.9743  -4.9235  -4.9125  -4.8539  -4.8266  -4.8249  -4.8219  -4.8096
    -4.8035  -4.7924  -4.7867  -4.7579  -4.7440  -4.7369  -4.7366  -4.6741
    -4.6740  -4.6740  -4.6608  -4.6529  -4.6429  -4.6391  -4.6390  -4.6339
    -4.6230  -4.6120  -4.6109  -4.6107  -4.6009  -4.5989  -4.5979  -4.5974
    -4.5973  -4.5849  -4.5740  -4.5740  -4.5638  -4.5551  -4.5532  -4.5530
    -4.5264  -4.5264  -4.5189  -4.4981  -4.4926  -4.4899  -4.4799  -4.4772
    -4.4770  -4.4720  -4.4673  -4.4672  -4.4502  -4.4388  -4.4387  -4.4227
    -4.4227  -4.3958  -4.3957  -4.3898  -4.3897  -4.3893  -4.3892  -4.3875
    -4.3846  -4.3818  -4.3752  -4.3694  -4.3670  -4.3668  -4.3548  -4.3527
    -4.3526  -4.3524  -4.3520  -4.3437  -4.3433  -4.3391  -4.3391  -4.3213
    -4.3035  -4.2954  -4.2948  -4.2772  -4.2756  -4.2748  -4.2745  -4.2662
    -4.2614  -4.2382  -4.2311  -4.2307  -4.2212  -4.2100  -4.2061  -4.2045
    -4.2033  -4.2012  -4.1950  -4.1950  -4.1948  -4.1934  -4.1883  -4.1868
    -4.1685  -4.1685  -4.1622  -4.1525  -4.1360  -4.1359  -4.1312  -4.1308
    -4.1237  -4.1234  -4.1225  -4.1225  -4.1198  -4.1189  -4.1189  -4.1162
    -4.1120  -4.1027  -4.1023  -4.0972  -4.0967  -4.0944  -4.0935  -4.0925
    -4.0744  -4.0743  -4.0694  -4.0579  -4.0578  -4.0575  -4.0556  -4.0461
    -4.0458  -4.0451  -4.0444  -4.0265  -4.0263  -4.0135  -4.0120  -4.0115
    -4.0027  -4.0014  -4.0010  -3.9996  -3.9961  -3.9823  -3.9822  -3.9815
    -3.9804  -3.9775  -3.9775  -3.9622  -3.9505  -3.9472  -3.9470  -3.9465
    -3.9462  -3.9459  -3.9338  -3.9333  -3.9331  -3.9266  -3.9215  -3.9155
    -3.9136  -3.9119  -3.9060  -3.9059  -3.9045  -3.9039  -3.8977  -3.8913
    -3.8909  -3.8882  -3.8878  -3.8830  -3.8829  -3.8506  -3.8506  -3.8495
    -3.8493  -3.8435  -3.8428  -3.8387  -3.8362  -3.8360  -3.8288  -3.8274
    -3.8255  -3.8254  -3.8191  -3.8191  -3.8178  -3.8096  -3.7995  -3.7977
    -3.7966  -3.7847  -3.7828  -3.7800  -3.7796  -3.7766  -3.7763  -3.7759
    -3.7753  -3.7742  -3.7669  -3.7655  -3.7637  -3.7568  -3.7567  -3.7492
    -3.7490  -3.7437  -3.7414  -3.7405  -3.7378  -3.7371  -3.7360  -3.7341
    -3.7331  -3.7261  -3.7199  -3.7188  -3.7140  -3.7137  -3.7117  -3.7113
    -3.7087  -3.7084  -3.7056  -3.6961  -3.6826  -3.6825  -3.6737  -3.6737
    -3.6619  -3.6551  -3.6542  -3.6541  -3.6534  -3.6523  -3.6517  -3.6509
    -3.6494  -3.6492  -3.6449  -3.6413  -3.6403  -3.6398  -3.6295  -3.6286
    -3.6235  -3.6166  -3.6136  -3.6108  -3.6057  -3.5966  -3.5964  -3.5925
    -3.5903  -3.5872  -3.5746  -3.5745  -3.5724  -3.5663  -3.5646  -3.5637
    -3.5632  -3.5609  -3.5608  -3.5507  -3.5500  -3.5498  -3.5482  -3.5477
    -3.5445  -3.5401  -3.5397  -3.5383  -3.5379  -3.5293  -3.5293  -3.5278
    -3.5240  -3.5063  -3.4945  -3.4840  -3.4817  -3.4802  -3.4771  -3.4769
    -3.4758  -3.4750  -3.4643  -3.4620  -3.4595  -3.4591  -3.4577  -3.4573
    -3.4549  -3.4543  -3.4453  -3.4340  -3.4260  -3.4248  -3.4171  -3.4100
    -3.4086  -3.3936  -3.3883  -3.3835  -3.3532  -3.3487  -3.3440  -3.2460
    -3.2403  -3.2251  -3.2244  -3.1991  -3.1454  -3.1035  -3.0381  -2.9095
    -2.7694  -2.7693  -2.5927  -2.5927  -2.4003  -2.1667  -1.9017  -1.9013
    -1.8019  -1.8002  -1.7943  -1.7939  -1.7165  -1.6172  -1.2734  -1.0563
    -0.9264  -0.4467  -0.2904  -0.2887  -0.2283  -0.2246  -0.1099  -0.1049
    -0.1048   0.1665   0.2894   0.2965   0.4712   0.5220   0.6094   0.6810
     0.9180   0.9580   1.0578   1.0932   1.1770   1.2485   1.4337   1.5291
     1.6380   1.7454   1.7497   1.8199   1.9789   1.9795   1.9836   2.0180
     2.0182   2.0188   2.1201   2.1337   2.3535   2.3606   2.4243   2.4243
     2.5385   2.8105   2.8172   2.9415   2.9709   2.9797   3.0235   3.2433
     3.2448   3.4351   3.4374   4.0346   4.0759   4.3980   4.4344   4.4530
     4.4568   4.4728   4.5221   4.6102   4.6155   4.6265   4.6283   4.6376
     4.9604   4.9666   5.1142   5.4020   5.4672   5.4844   5.5299   5.8204
     5.9192   5.9325   6.0283   6.0660   6.0908   6.1379   6.2793   6.3371
     6.3644   6.5407   6.5448   6.5505   6.6906   6.7375   6.7634   6.7677
     6.8791   6.9079   6.9684   6.9861   7.0712   7.2018   7.2058   7.2178
     7.3203   7.3261   7.3701   7.3993   7.4828   7.5657   7.5719   7.5863
     7.6307   7.7148   7.7791   7.9206   8.0764   8.0765   8.2510   8.2704
     8.3131   8.4083   8.4441   8.4741   8.4785   8.5694   8.5710   8.5737
     8.6524   8.6912   8.7448   8.7674   8.8035   8.8117   8.8130   8.8258
     8.8385   8.8527   8.8623   8.9543   8.9899   9.0207   9.0448   9.0500
     9.1274   9.1597   9.2712   9.3118   9.3467   9.3944   9.4703   9.5266
     9.5471   9.6272   9.6446   9.6604   9.6962   9.7058   9.7114   9.7218
     9.7488   9.7693   9.8104   9.8292   9.8404   9.9927  10.0569  10.0808
    10.1659  10.2128  10.2170  10.2198  10.2615  10.2934  10.3362  10.3432
    10.4399  10.5064  10.5695  10.6034  10.7369  10.7508  10.7956  10.8477
    10.8640  10.9257

     occupation numbers 
     1.0000   1.0000   1.0000   1.0000   1.0000   1.0000   1.0000   1.0000
     1.0000   1.0000   1.0000   1.0000   1.0000   1.0000   1.0000   1.0000
     1.0000   1.0000   1.0000   1.0000   1.0000   1.0000   1.0000   1.0000
     1.0000   1.0000   1.0000   1.0000   1.0000   1.0000   1.0000   1.0000
     1.0000   1.0000   1.0000   1.0000   1.0000   1.0000   1.0000   1.0000
     1.0000   1.0000   1.0000   1.0000   1.0000   1.0000   1.0000   1.0000
     1.0000   1.0000   1.0000   1.0000   1.0000   1.0000   1.0000   1.0000
     1.0000   1.0000   1.0000   1.0000   1.0000   1.0000   1.0000   1.0000
     1.0000   1.0000   1.0000   1.0000   1.0000   1.0000   1.0000   1.0000
     1.0000   1.0000   1.0000   1.0000   1.0000   1.0000   1.0000   1.0000
     1.0000   1.0000   1.0000   1.0000   1.0000   1.0000   1.0000   1.0000
     1.0000   1.0000   1.0000   1.0000   1.0000   1.0000   1.0000   1.0000
     1.0000   1.0000   1.0000   1.0000   1.0000   1.0000   1.0000   1.0000
     1.0000   1.0000   1.0000   1.0000   1.0000   1.0000   1.0000   1.0000
     1.0000   1.0000   1.0000   1.0000   1.0000   1.0000   1.0000   1.0000
     1.0000   1.0000   1.0000   1.0000   1.0000   1.0000   1.0000   1.0000
     1.0000   1.0000   1.0000   1.0000   1.0000   1.0000   1.0000   1.0000
     1.0000   1.0000   1.0000   1.0000   1.0000   1.0000   1.0000   1.0000
     1.0000   1.0000   1.0000   1.0000   1.0000   1.0000   1.0000   1.0000
     1.0000   1.0000   1.0000   1.0000   1.0000   1.0000   1.0000   1.0000
     1.0000   1.0000   1.0000   1.0000   1.0000   1.0000   1.0000   1.0000
     1.0000   1.0000   1.0000   1.0000   1.0000   1.0000   1.0000   1.0000
     1.0000   1.0000   1.0000   1.0000   1.0000   1.0000   1.0000   1.0000
     1.0000   1.0000   1.0000   1.0000   1.0000   1.0000   1.0000   1.0000
     1.0000   1.0000   1.0000   1.0000   1.0000   1.0000   1.0000   1.0000
     1.0000   1.0000   1.0000   1.0000   1.0000   1.0000   1.0000   1.0000
     1.0000   1.0000   1.0000   1.0000   1.0000   1.0000   1.0000   1.0000
     1.0000   1.0000   1.0000   1.0000   1.0000   1.0000   1.0000   1.0000
     1.0000   1.0000   1.0000   1.0000   1.0000   1.0000   1.0000   1.0000
     1.0000   1.0000   1.0000   1.0000   1.0000   1.0000   1.0000   1.0000
     1.0000   1.0000   1.0000   1.0000   1.0000   1.0000   1.0000   1.0000
     1.0000   1.0000   1.0000   1.0000   1.0000   1.0000   1.0000   1.0000
     1.0000   1.0000   1.0000   1.0000   1.0000   1.0000   1.0000   1.0000
     1.0000   1.0000   1.0000   1.0000   1.0000   1.0000   1.0000   1.0000
     1.0000   1.0000   1.0000   1.0000   1.0000   1.0000   1.0000   1.0000
     1.0000   1.0000   1.0000   1.0000   1.0000   1.0000   1.0000   1.0000
     1.0000   1.0000   1.0000   1.0000   1.0000   1.0000   1.0000   1.0000
     1.0000   1.0000   1.0000   1.0000   1.0000   1.0000   1.0000   1.0000
     1.0000   1.0000   1.0000   1.0000   1.0000   1.0000   1.0000   1.0000
     1.0000   1.0000   1.0000   1.0000   1.0000   1.0000   1.0000   1.0000
     1.0000   1.0000   1.0000   1.0000   1.0000   1.0000   1.0000   1.0000
     1.0000   1.0000   1.0000   1.0000   1.0000   1.0000   1.0000   1.0000
     1.0000   1.0000   1.0000   1.0000   1.0000   1.0000   1.0000   1.0000
     1.0000   1.0000   1.0000   1.0000   1.0000   1.0000   1.0000   1.0000
     1.0000   1.0000   1.0000   1.0000   1.0000   1.0000   1.0000   1.0000
     1.0000   1.0000   1.0000   1.0000   1.0000   1.0000   1.0000   1.0000
     1.0000   1.0000   1.0000   1.0000   1.0000   1.0000   1.0000   1.0000
     1.0000   1.0000   1.0000   1.0000   1.0000   1.0000   1.0000   1.0000
     1.0000   1.0000   1.0000   1.0000   1.0000   1.0000   1.0000   1.0000
     1.0000   1.0000   1.0000   1.0000   1.0000   1.0000   1.0000   1.0000
     1.0000   1.0000   1.0000   1.0000   1.0000   1.0000   1.0000   1.0000
     1.0000   1.0000   1.0000   1.0000   1.0000   1.0000   1.0000   1.0000
     1.0000   1.0000   1.0000   1.0000   1.0000   1.0000   1.0000   1.0000
     1.0000   1.0000   1.0000   1.0000   1.0000   1.0000   1.0000   1.0000
     1.0000   1.0000   1.0000   1.0000   1.0000   1.0000   1.0000   1.0000
     1.0000   1.0000   1.0000   1.0000   1.0000   1.0000   1.0000   1.0000
     1.0000   1.0000   1.0000   1.0000   1.0000   1.0000   1.0000   1.0000
     1.0000   1.0000   1.0000   1.0000   1.0000   1.0000   1.0000   1.0000
     1.0000   1.0000   1.0000   1.0000   1.0000   1.0000   1.0000   1.0000
     1.0000   1.0000   1.0000   1.0000   1.0000   1.0000   1.0000   1.0000
     1.0000   1.0000   1.0000   1.0000   1.0000   1.0000   1.0000   1.0000
     1.0000   1.0000   1.0000   1.0000   1.0000   1.0000   1.0000   1.0000
     1.0000   1.0000   1.0000   1.0000   1.0000   1.0000   1.0000   1.0000
     1.0000   1.0000   1.0000   1.0000   1.0000   1.0000   1.0000   1.0000
     1.0000   1.0000   1.0000   1.0000   1.0000   1.0000   1.0000   1.0000
     1.0000   1.0000   1.0000   1.0000   1.0000   1.0000   1.0000   1.0000
     1.0000   1.0000   1.0000   1.0000   1.0000   1.0000   1.0000   1.0000
     1.0000   1.0000   1.0000   1.0000   1.0000   1.0000   1.0000   1.0000
     1.0000   1.0000   1.0000   1.0000   1.0000   1.0000   1.0000   1.0000
     1.0000   1.0000   1.0000   1.0000   1.0000   1.0000   1.0000   1.0000
     1.0000   1.0000   1.0000   1.0000   1.0000   1.0000   1.0000   1.0000
     1.0000   1.0000   1.0000   1.0000   1.0000   1.0000   1.0000   1.0000
     1.0000   1.0000   1.0000   1.0000   1.0000   1.0000   1.0000   1.0000
     1.0000   1.0000   1.0000   1.0000   1.0000   1.0000   1.0000   1.0000
     1.0000   1.0000   1.0000   1.0000   1.0000   1.0000   1.0000   1.0000
     1.0000   1.0000   1.0000   1.0000   1.0000   1.0000   1.0000   1.0000
     1.0000   1.0000   1.0000   1.0000   1.0000   1.0000   1.0000   1.0000
     1.0000   1.0000   1.0000   1.0000   1.0000   1.0000   1.0000   1.0000
     1.0000   1.0000   1.0000   1.0000   1.0000   1.0000   1.0000   1.0000
     1.0000   1.0000   1.0000   1.0000   1.0000   1.0000   1.0000   1.0000
     1.0000   1.0000   1.0000   1.0000   1.0000   1.0000   1.0000   1.0000
     1.0000   1.0000   1.0000   1.0000   1.0000   1.0000   1.0001   1.0001
     1.0007   1.0281   1.0299   1.0703   1.0781   1.0799   1.0830   0.8165
     0.8128   0.3149   0.3097   0.0000   0.0000   0.0000   0.0000   0.0000
     0.0000   0.0000   0.0000   0.0000   0.0000   0.0000   0.0000   0.0000
     0.0000   0.0000   0.0000   0.0000   0.0000   0.0000   0.0000   0.0000
     0.0000   0.0000   0.0000   0.0000   0.0000   0.0000   0.0000   0.0000
     0.0000   0.0000   0.0000   0.0000   0.0000   0.0000   0.0000   0.0000
     0.0000   0.0000   0.0000   0.0000   0.0000   0.0000   0.0000   0.0000
     0.0000   0.0000   0.0000   0.0000   0.0000   0.0000   0.0000   0.0000
     0.0000   0.0000   0.0000   0.0000   0.0000   0.0000   0.0000   0.0000
     0.0000   0.0000   0.0000   0.0000   0.0000   0.0000   0.0000   0.0000
     0.0000   0.0000   0.0000   0.0000   0.0000   0.0000   0.0000   0.0000
     0.0000   0.0000   0.0000   0.0000   0.0000   0.0000   0.0000   0.0000
     0.0000   0.0000   0.0000   0.0000   0.0000   0.0000   0.0000   0.0000
     0.0000   0.0000   0.0000   0.0000   0.0000   0.0000   0.0000   0.0000
     0.0000   0.0000   0.0000   0.0000   0.0000   0.0000   0.0000   0.0000
     0.0000   0.0000   0.0000   0.0000   0.0000   0.0000   0.0000   0.0000
     0.0000   0.0000   0.0000   0.0000   0.0000   0.0000   0.0000   0.0000
     0.0000   0.0000

          k = 0.0000-0.4660-0.2690 ( 43920 PWs)   bands (ev):

  -123.3213-123.3199-123.3194-123.3191-123.3186-123.3182-123.3177-123.3175
  -123.2741-123.2737-123.2733-123.2729-123.2728-123.2727-123.2713-123.2706
  -123.2416-123.2412-123.2407-123.2404-123.2403-123.2400-123.2399-123.2397
  -123.1236-123.1232-123.1226-123.1222-123.1213-123.1207-123.1193-123.1192
  -123.1186-123.1185-123.1181-123.1177-123.1174-123.1172-123.1170-123.1168
  -123.0615-123.0612-123.0607-123.0603-123.0597-123.0595-123.0593-123.0582
  -123.0578-123.0436-123.0432-123.0413-123.0408-123.0406-123.0399-123.0394
  -122.9609-122.9593-122.9575-122.9560-122.9522-122.9514-122.9498-122.9490
   -77.4190 -77.4177 -77.4167 -77.4159 -77.4153 -77.4151 -77.4139 -77.4135
   -77.4131 -77.4121 -77.4105 -77.4103 -77.4076 -77.4069 -77.4013 -77.4004
   -77.3965 -77.3962 -77.3953 -77.3947 -77.3911 -77.3902 -77.3885 -77.3883
   -77.3718 -77.3713 -77.3699 -77.3687 -77.3622 -77.3615 -77.3613 -77.3606
   -77.3603 -77.3597 -77.3595 -77.3593 -77.3579 -77.3566 -77.3546 -77.3541
   -77.3509 -77.3505 -77.3502 -77.3496 -77.3494 -77.3489 -77.3483 -77.3483
   -77.3389 -77.3385 -77.3374 -77.3370 -77.3367 -77.3363 -77.3349 -77.3346
   -77.3339 -77.3335 -77.3323 -77.3319 -77.3306 -77.3302 -77.3281 -77.3278
   -77.3237 -77.3234 -77.3220 -77.3216 -77.3101 -77.3097 -77.3088 -77.3084
   -77.2225 -77.2223 -77.2196 -77.2187 -77.2185 -77.2181 -77.2166 -77.2163
   -77.2126 -77.2121 -77.2119 -77.2117 -77.2114 -77.2109 -77.2099 -77.2095
   -77.2093 -77.2089 -77.2087 -77.2082 -77.2082 -77.2077 -77.2069 -77.2066
   -77.2062 -77.2060 -77.2058 -77.2051 -77.2045 -77.2040 -77.2039 -77.2037
   -77.2035 -77.2033 -77.2030 -77.2029 -77.2028 -77.2022 -77.2013 -77.2009
   -77.2006 -77.2004 -77.1981 -77.1969 -77.1902 -77.1897 -77.1887 -77.1882
   -77.1732 -77.1720 -77.1719 -77.1717 -77.1706 -77.1699 -77.1695 -77.1679
   -77.1605 -77.1491 -77.1470 -77.1455 -77.1452 -77.1451 -77.1439 -77.1438
   -77.1420 -77.1410 -77.1398 -77.1395 -77.1394 -77.1389 -77.1384 -77.1381
   -77.1377 -77.1370 -77.1362 -77.1353 -77.1351 -77.1347 -77.1341 -77.1329
   -77.1316 -77.1275 -77.1254 -77.1249 -77.1239 -77.1236 -77.1222 -77.1222
   -77.1212 -77.1176 -77.1166 -77.1160 -77.1158 -77.1154 -77.1140 -77.1134
   -77.0547 -77.0534 -77.0528 -77.0514 -77.0510 -77.0502 -77.0490 -77.0479
   -77.0460 -77.0457 -77.0452 -77.0445 -77.0433 -77.0430 -77.0429 -77.0423
   -77.0415 -77.0415 -77.0360 -77.0349 -77.0290 -77.0258 -77.0234 -77.0206
   -15.9243 -14.5839 -13.6688 -11.2539 -11.1789  -8.2705  -7.9919  -6.1202
    -6.1195  -6.0644  -5.6557  -5.5429  -5.2414  -5.2401  -5.1420  -5.1410
    -4.8669  -4.8664  -4.8253  -4.8248  -4.8035  -4.8035  -4.7777  -4.7771
    -4.7658  -4.7652  -4.7649  -4.7647  -4.7635  -4.7630  -4.7533  -4.7528
    -4.7073  -4.7072  -4.6938  -4.6937  -4.6734  -4.6728  -4.6601  -4.6595
    -4.6399  -4.6392  -4.6269  -4.6263  -4.6100  -4.6099  -4.5926  -4.5922
    -4.5867  -4.5859  -4.5766  -4.5761  -4.5745  -4.5742  -4.5584  -4.5580
    -4.5421  -4.5419  -4.5348  -4.5344  -4.5286  -4.5282  -4.5055  -4.5052
    -4.4776  -4.4766  -4.4593  -4.4592  -4.4527  -4.4523  -4.4420  -4.4403
    -4.4399  -4.4393  -4.4390  -4.4370  -4.4220  -4.4216  -4.3986  -4.3978
    -4.3937  -4.3933  -4.3845  -4.3817  -4.3763  -4.3756  -4.3663  -4.3651
    -4.3448  -4.3440  -4.3351  -4.3345  -4.3333  -4.3331  -4.3249  -4.3245
    -4.3118  -4.3117  -4.3002  -4.2992  -4.2986  -4.2975  -4.2868  -4.2865
    -4.2809  -4.2803  -4.2763  -4.2756  -4.2402  -4.2396  -4.2395  -4.2389
    -4.2150  -4.2147  -4.2100  -4.2098  -4.1773  -4.1771  -4.1597  -4.1593
    -4.1588  -4.1568  -4.1520  -4.1513  -4.1442  -4.1428  -4.1416  -4.1415
    -4.1413  -4.1406  -4.1250  -4.1242  -4.1239  -4.1221  -4.1216  -4.1213
    -4.1106  -4.1098  -4.1058  -4.1056  -4.0921  -4.0914  -4.0852  -4.0851
    -4.0648  -4.0640  -4.0613  -4.0611  -4.0528  -4.0513  -4.0510  -4.0508
    -4.0392  -4.0373  -4.0342  -4.0337  -4.0315  -4.0312  -4.0252  -4.0246
    -4.0228  -4.0218  -4.0039  -4.0034  -3.9971  -3.9954  -3.9953  -3.9944
    -3.9777  -3.9763  -3.9751  -3.9750  -3.9719  -3.9711  -3.9705  -3.9700
    -3.9613  -3.9592  -3.9512  -3.9511  -3.9509  -3.9491  -3.9444  -3.9408
    -3.9284  -3.9284  -3.9036  -3.9036  -3.9004  -3.8998  -3.8838  -3.8830
    -3.8807  -3.8798  -3.8736  -3.8726  -3.8569  -3.8566  -3.8564  -3.8553
    -3.8434  -3.8428  -3.8424  -3.8422  -3.8397  -3.8395  -3.8224  -3.8216
    -3.8186  -3.8184  -3.8136  -3.8134  -3.8113  -3.8109  -3.8060  -3.8042
    -3.7953  -3.7951  -3.7946  -3.7942  -3.7940  -3.7926  -3.7702  -3.7693
    -3.7691  -3.7688  -3.7679  -3.7632  -3.7468  -3.7467  -3.7436  -3.7413
    -3.7242  -3.7239  -3.7212  -3.7208  -3.7143  -3.7133  -3.7107  -3.7104
    -3.6840  -3.6833  -3.6814  -3.6807  -3.6801  -3.6783  -3.6778  -3.6777
    -3.6757  -3.6730  -3.6580  -3.6573  -3.6396  -3.6384  -3.6379  -3.6374
    -3.6363  -3.6347  -3.6320  -3.6316  -3.6173  -3.6162  -3.6150  -3.6144
    -3.6084  -3.6055  -3.5998  -3.5994  -3.5963  -3.5948  -3.5871  -3.5863
    -3.5862  -3.5846  -3.5731  -3.5725  -3.5724  -3.5721  -3.5700  -3.5691
    -3.5678  -3.5669  -3.5624  -3.5618  -3.5602  -3.5594  -3.5485  -3.5482
    -3.5473  -3.5464  -3.5462  -3.5444  -3.5420  -3.5413  -3.5402  -3.5368
    -3.5269  -3.5267  -3.5248  -3.5245  -3.5241  -3.5228  -3.5219  -3.5213
    -3.5105  -3.5096  -3.5081  -3.5063  -3.4977  -3.4971  -3.4898  -3.4889
    -3.4858  -3.4851  -3.4847  -3.4842  -3.4841  -3.4820  -3.4798  -3.4795
    -3.4784  -3.4782  -3.4718  -3.4507  -3.4497  -3.4475  -3.4467  -3.4402
    -3.4373  -3.3852  -3.3811  -3.3467  -3.3437  -3.3430  -3.3417  -3.3408
    -3.3128  -3.3084  -3.3080  -3.3076  -2.9091  -2.8028  -2.8018  -2.7428
    -2.7406  -2.6925  -2.6860  -2.5559  -2.5558  -2.3989  -2.1633  -1.7248
    -1.7242  -1.3348  -1.3321  -1.2719  -1.2571  -1.2477  -1.2453  -1.2450
    -1.0542  -0.9701  -0.9700  -0.6275  -0.6191  -0.4467  -0.2540  -0.2530
    -0.1373  -0.1364  -0.1103  -0.1089  -0.1030   0.1719   0.7883   0.7993
     0.9588   0.9636   0.9706   1.0474   1.0479   1.2826   1.2832   1.3590
     1.3595   1.4322   1.4344   1.6682   1.6857   1.8910   1.8926   2.0809
     2.0837   2.1205   2.1243   2.3519   3.0981   3.0985   3.2043   3.2062
     3.3487   3.3532   3.3761   3.3959   3.4206   3.4212   3.4288   3.4474
     3.5494   3.5557   3.6938   3.7033   3.9954   3.9984   4.2864   4.2878
     4.3836   4.4192   4.4194   4.4195   4.8430   4.8460   5.0356   5.0400
     5.1469   5.1488   5.3811   5.3825   5.5411   5.5461   5.7214   5.7263
     5.8432   5.8646   5.8684   5.8862   5.9110   5.9220   5.9322   5.9612
     5.9636   6.0905   6.2003   6.2247   6.2289   6.4367   6.4763   6.4782
     6.5365   6.5626   6.5818   6.6239   6.6728   6.7439   6.8577   6.8617
     7.2070   7.2397   7.3932   7.4010   7.4107   7.4183   7.4301   7.4425
     7.6907   7.7195   7.7276   7.7556   7.7912   7.8700   7.9301   7.9684
     8.0626   8.2723   8.2924   8.3160   8.3399   8.3469   8.3574   8.3705
     8.5097   8.6178   8.6302   8.6375   8.6857   8.7140   8.9463   9.0795
     9.1004   9.1448   9.1802   9.1832   9.1923   9.2020   9.2142   9.2185
     9.2675   9.2870   9.3004   9.3097   9.3909   9.4283   9.4816   9.4889
     9.5334   9.5844   9.6891   9.7083   9.7751   9.7843   9.8736  10.0232
    10.0472  10.0496  10.0589  10.0791  10.0874  10.1161  10.1437  10.1524
    10.1680  10.2400  10.2511  10.3044  10.3841  10.4355  10.4666  10.4690
    10.4922  10.5837  10.6554  10.7490  10.7950  10.8611  10.8868  10.9577
    11.0212  11.0449

     occupation numbers 
     1.0000   1.0000   1.0000   1.0000   1.0000   1.0000   1.0000   1.0000
     1.0000   1.0000   1.0000   1.0000   1.0000   1.0000   1.0000   1.0000
     1.0000   1.0000   1.0000   1.0000   1.0000   1.0000   1.0000   1.0000
     1.0000   1.0000   1.0000   1.0000   1.0000   1.0000   1.0000   1.0000
     1.0000   1.0000   1.0000   1.0000   1.0000   1.0000   1.0000   1.0000
     1.0000   1.0000   1.0000   1.0000   1.0000   1.0000   1.0000   1.0000
     1.0000   1.0000   1.0000   1.0000   1.0000   1.0000   1.0000   1.0000
     1.0000   1.0000   1.0000   1.0000   1.0000   1.0000   1.0000   1.0000
     1.0000   1.0000   1.0000   1.0000   1.0000   1.0000   1.0000   1.0000
     1.0000   1.0000   1.0000   1.0000   1.0000   1.0000   1.0000   1.0000
     1.0000   1.0000   1.0000   1.0000   1.0000   1.0000   1.0000   1.0000
     1.0000   1.0000   1.0000   1.0000   1.0000   1.0000   1.0000   1.0000
     1.0000   1.0000   1.0000   1.0000   1.0000   1.0000   1.0000   1.0000
     1.0000   1.0000   1.0000   1.0000   1.0000   1.0000   1.0000   1.0000
     1.0000   1.0000   1.0000   1.0000   1.0000   1.0000   1.0000   1.0000
     1.0000   1.0000   1.0000   1.0000   1.0000   1.0000   1.0000   1.0000
     1.0000   1.0000   1.0000   1.0000   1.0000   1.0000   1.0000   1.0000
     1.0000   1.0000   1.0000   1.0000   1.0000   1.0000   1.0000   1.0000
     1.0000   1.0000   1.0000   1.0000   1.0000   1.0000   1.0000   1.0000
     1.0000   1.0000   1.0000   1.0000   1.0000   1.0000   1.0000   1.0000
     1.0000   1.0000   1.0000   1.0000   1.0000   1.0000   1.0000   1.0000
     1.0000   1.0000   1.0000   1.0000   1.0000   1.0000   1.0000   1.0000
     1.0000   1.0000   1.0000   1.0000   1.0000   1.0000   1.0000   1.0000
     1.0000   1.0000   1.0000   1.0000   1.0000   1.0000   1.0000   1.0000
     1.0000   1.0000   1.0000   1.0000   1.0000   1.0000   1.0000   1.0000
     1.0000   1.0000   1.0000   1.0000   1.0000   1.0000   1.0000   1.0000
     1.0000   1.0000   1.0000   1.0000   1.0000   1.0000   1.0000   1.0000
     1.0000   1.0000   1.0000   1.0000   1.0000   1.0000   1.0000   1.0000
     1.0000   1.0000   1.0000   1.0000   1.0000   1.0000   1.0000   1.0000
     1.0000   1.0000   1.0000   1.0000   1.0000   1.0000   1.0000   1.0000
     1.0000   1.0000   1.0000   1.0000   1.0000   1.0000   1.0000   1.0000
     1.0000   1.0000   1.0000   1.0000   1.0000   1.0000   1.0000   1.0000
     1.0000   1.0000   1.0000   1.0000   1.0000   1.0000   1.0000   1.0000
     1.0000   1.0000   1.0000   1.0000   1.0000   1.0000   1.0000   1.0000
     1.0000   1.0000   1.0000   1.0000   1.0000   1.0000   1.0000   1.0000
     1.0000   1.0000   1.0000   1.0000   1.0000   1.0000   1.0000   1.0000
     1.0000   1.0000   1.0000   1.0000   1.0000   1.0000   1.0000   1.0000
     1.0000   1.0000   1.0000   1.0000   1.0000   1.0000   1.0000   1.0000
     1.0000   1.0000   1.0000   1.0000   1.0000   1.0000   1.0000   1.0000
     1.0000   1.0000   1.0000   1.0000   1.0000   1.0000   1.0000   1.0000
     1.0000   1.0000   1.0000   1.0000   1.0000   1.0000   1.0000   1.0000
     1.0000   1.0000   1.0000   1.0000   1.0000   1.0000   1.0000   1.0000
     1.0000   1.0000   1.0000   1.0000   1.0000   1.0000   1.0000   1.0000
     1.0000   1.0000   1.0000   1.0000   1.0000   1.0000   1.0000   1.0000
     1.0000   1.0000   1.0000   1.0000   1.0000   1.0000   1.0000   1.0000
     1.0000   1.0000   1.0000   1.0000   1.0000   1.0000   1.0000   1.0000
     1.0000   1.0000   1.0000   1.0000   1.0000   1.0000   1.0000   1.0000
     1.0000   1.0000   1.0000   1.0000   1.0000   1.0000   1.0000   1.0000
     1.0000   1.0000   1.0000   1.0000   1.0000   1.0000   1.0000   1.0000
     1.0000   1.0000   1.0000   1.0000   1.0000   1.0000   1.0000   1.0000
     1.0000   1.0000   1.0000   1.0000   1.0000   1.0000   1.0000   1.0000
     1.0000   1.0000   1.0000   1.0000   1.0000   1.0000   1.0000   1.0000
     1.0000   1.0000   1.0000   1.0000   1.0000   1.0000   1.0000   1.0000
     1.0000   1.0000   1.0000   1.0000   1.0000   1.0000   1.0000   1.0000
     1.0000   1.0000   1.0000   1.0000   1.0000   1.0000   1.0000   1.0000
     1.0000   1.0000   1.0000   1.0000   1.0000   1.0000   1.0000   1.0000
     1.0000   1.0000   1.0000   1.0000   1.0000   1.0000   1.0000   1.0000
     1.0000   1.0000   1.0000   1.0000   1.0000   1.0000   1.0000   1.0000
     1.0000   1.0000   1.0000   1.0000   1.0000   1.0000   1.0000   1.0000
     1.0000   1.0000   1.0000   1.0000   1.0000   1.0000   1.0000   1.0000
     1.0000   1.0000   1.0000   1.0000   1.0000   1.0000   1.0000   1.0000
     1.0000   1.0000   1.0000   1.0000   1.0000   1.0000   1.0000   1.0000
     1.0000   1.0000   1.0000   1.0000   1.0000   1.0000   1.0000   1.0000
     1.0000   1.0000   1.0000   1.0000   1.0000   1.0000   1.0000   1.0000
     1.0000   1.0000   1.0000   1.0000   1.0000   1.0000   1.0000   1.0000
     1.0000   1.0000   1.0000   1.0000   1.0000   1.0000   1.0000   1.0000
     1.0000   1.0000   1.0000   1.0000   1.0000   1.0000   1.0000   1.0000
     1.0000   1.0000   1.0000   1.0000   1.0000   1.0000   1.0000   1.0000
     1.0000   1.0000   1.0000   1.0000   1.0000   1.0000   1.0000   1.0000
     1.0000   1.0000   1.0000   1.0000   1.0000   1.0000   1.0000   1.0000
     1.0000   1.0000   1.0000   1.0000   1.0000   1.0000   1.0000   1.0000
     1.0000   1.0000   1.0000   1.0000   1.0000   1.0000   1.0000   1.0000
     1.0000   1.0000   1.0000   1.0000   1.0000   1.0000   1.0000   1.0000
     1.0000   1.0000   1.0000   1.0000   1.0000   1.0000   1.0000   1.0000
     1.0000   1.0000   1.0000   1.0000   1.0000   1.0000   1.0000   1.0000
     1.0000   1.0000   1.0000   1.0000   1.0000   1.0000   1.0000   1.0000
     1.0000   1.0000   1.0000   1.0000   1.0000   1.0000   1.0000   1.0000
     1.0000   1.0000   1.0000   1.0000   1.0000   1.0000   1.0000   1.0000
     1.0000   1.0000   1.0000   1.0000   1.0000   1.0000   1.0000   1.0000
     1.0000   1.0000   1.0000   1.0000   1.0000   1.0000   1.0000   1.0000
     1.0000   1.0000   1.0000   1.0000   1.0000   1.0000   1.0000   1.0000
     1.0000   1.0000   1.0000   1.0000   1.0540   1.0537   0.9040   0.9000
     0.5342   0.5218   0.4602   0.4090   0.3483   0.3469   0.3293   0.2881
     0.1192   0.1120   0.0219   0.0192   0.0001   0.0001   0.0000   0.0000
     0.0000   0.0000   0.0000   0.0000   0.0000   0.0000   0.0000   0.0000
     0.0000   0.0000   0.0000   0.0000   0.0000   0.0000   0.0000   0.0000
     0.0000   0.0000   0.0000   0.0000   0.0000   0.0000   0.0000   0.0000
     0.0000   0.0000   0.0000   0.0000   0.0000   0.0000   0.0000   0.0000
     0.0000   0.0000   0.0000   0.0000   0.0000   0.0000   0.0000   0.0000
     0.0000   0.0000   0.0000   0.0000   0.0000   0.0000   0.0000   0.0000
     0.0000   0.0000   0.0000   0.0000   0.0000   0.0000   0.0000   0.0000
     0.0000   0.0000   0.0000   0.0000   0.0000   0.0000   0.0000   0.0000
     0.0000   0.0000   0.0000   0.0000   0.0000   0.0000   0.0000   0.0000
     0.0000   0.0000   0.0000   0.0000   0.0000   0.0000   0.0000   0.0000
     0.0000   0.0000   0.0000   0.0000   0.0000   0.0000   0.0000   0.0000
     0.0000   0.0000   0.0000   0.0000   0.0000   0.0000   0.0000   0.0000
     0.0000   0.0000   0.0000   0.0000   0.0000   0.0000   0.0000   0.0000
     0.0000   0.0000   0.0000   0.0000   0.0000   0.0000   0.0000   0.0000
     0.0000   0.0000   0.0000   0.0000   0.0000   0.0000   0.0000   0.0000
     0.0000   0.0000

          k =-0.5000 0.0000 0.0000 ( 44032 PWs)   bands (ev):

  -123.3215-123.3201-123.3196-123.3192-123.3190-123.3188-123.3182-123.3180
  -123.2740-123.2739-123.2735-123.2734-123.2733-123.2733-123.2716-123.2711
  -123.2414-123.2411-123.2411-123.2408-123.2408-123.2405-123.2404-123.2403
  -123.1237-123.1233-123.1230-123.1227-123.1216-123.1211-123.1196-123.1192
  -123.1191-123.1185-123.1184-123.1180-123.1179-123.1178-123.1175-123.1174
  -123.0616-123.0614-123.0612-123.0604-123.0601-123.0598-123.0598-123.0585
  -123.0583-123.0439-123.0434-123.0413-123.0413-123.0409-123.0402-123.0400
  -122.9611-122.9596-122.9579-122.9563-122.9524-122.9519-122.9501-122.9495
   -77.4205 -77.4196 -77.4187 -77.4172 -77.4169 -77.4162 -77.4159 -77.4159
   -77.4144 -77.4140 -77.4045 -77.4031 -77.4028 -77.4025 -77.4021 -77.4020
   -77.4013 -77.4012 -77.3989 -77.3984 -77.3983 -77.3976 -77.3867 -77.3860
   -77.3794 -77.3784 -77.3618 -77.3618 -77.3616 -77.3613 -77.3609 -77.3598
   -77.3597 -77.3592 -77.3591 -77.3589 -77.3588 -77.3576 -77.3564 -77.3561
   -77.3560 -77.3556 -77.3555 -77.3554 -77.3543 -77.3538 -77.3479 -77.3468
   -77.3400 -77.3397 -77.3382 -77.3382 -77.3379 -77.3378 -77.3367 -77.3363
   -77.3355 -77.3351 -77.3298 -77.3296 -77.3293 -77.3291 -77.3290 -77.3288
   -77.3285 -77.3282 -77.3189 -77.3188 -77.3186 -77.3186 -77.3059 -77.3056
   -77.2302 -77.2276 -77.2194 -77.2191 -77.2156 -77.2152 -77.2152 -77.2149
   -77.2144 -77.2143 -77.2137 -77.2134 -77.2133 -77.2129 -77.2125 -77.2121
   -77.2117 -77.2114 -77.2103 -77.2097 -77.2090 -77.2088 -77.2085 -77.2083
   -77.2080 -77.2070 -77.2069 -77.2067 -77.2065 -77.2064 -77.2058 -77.2044
   -77.2039 -77.2037 -77.2036 -77.2031 -77.2030 -77.2022 -77.2021 -77.2016
   -77.1991 -77.1988 -77.1986 -77.1984 -77.1983 -77.1958 -77.1859 -77.1856
   -77.1729 -77.1727 -77.1723 -77.1722 -77.1706 -77.1704 -77.1694 -77.1691
   -77.1607 -77.1552 -77.1543 -77.1523 -77.1437 -77.1425 -77.1423 -77.1419
   -77.1412 -77.1412 -77.1405 -77.1403 -77.1400 -77.1397 -77.1395 -77.1391
   -77.1386 -77.1383 -77.1382 -77.1374 -77.1361 -77.1339 -77.1334 -77.1331
   -77.1331 -77.1315 -77.1262 -77.1248 -77.1239 -77.1232 -77.1220 -77.1213
   -77.1212 -77.1211 -77.1209 -77.1206 -77.1206 -77.1204 -77.1150 -77.1109
   -77.0575 -77.0547 -77.0546 -77.0532 -77.0518 -77.0512 -77.0503 -77.0496
   -77.0485 -77.0471 -77.0457 -77.0447 -77.0440 -77.0433 -77.0431 -77.0424
   -77.0415 -77.0407 -77.0368 -77.0349 -77.0340 -77.0324 -77.0221 -77.0195
   -15.9243 -14.5841 -13.6689 -11.2540 -11.1791  -8.2706  -7.9928  -6.1061
    -6.1056  -6.0642  -5.6570  -5.5427  -5.2689  -5.2675  -4.9917  -4.9915
    -4.9913  -4.9911  -4.9647  -4.9641  -4.8710  -4.8704  -4.8512  -4.8508
    -4.8254  -4.8252  -4.8002  -4.8000  -4.7390  -4.7363  -4.7345  -4.7342
    -4.6991  -4.6988  -4.6750  -4.6746  -4.6594  -4.6592  -4.6589  -4.6588
    -4.5983  -4.5972  -4.5816  -4.5815  -4.5814  -4.5813  -4.5740  -4.5736
    -4.5734  -4.5733  -4.5731  -4.5728  -4.5672  -4.5670  -4.5385  -4.5384
    -4.5303  -4.5275  -4.5101  -4.5101  -4.5097  -4.5096  -4.4740  -4.4732
    -4.4616  -4.4614  -4.4614  -4.4613  -4.4188  -4.4162  -4.4029  -4.4027
    -4.4027  -4.4026  -4.3877  -4.3876  -4.3855  -4.3855  -4.3854  -4.3853
    -4.3618  -4.3610  -4.3605  -4.3597  -4.3582  -4.3576  -4.3487  -4.3486
    -4.3484  -4.3483  -4.3315  -4.3300  -4.3184  -4.3164  -4.3141  -4.3123
    -4.3122  -4.3120  -4.3119  -4.3105  -4.2995  -4.2990  -4.2937  -4.2936
    -4.2936  -4.2934  -4.2616  -4.2609  -4.2609  -4.2608  -4.2604  -4.2602
    -4.2511  -4.2495  -4.2488  -4.2485  -4.2403  -4.2395  -4.2255  -4.2252
    -4.1988  -4.1986  -4.1981  -4.1981  -4.1778  -4.1773  -4.1382  -4.1378
    -4.1376  -4.1375  -4.1269  -4.1240  -4.1123  -4.1120  -4.1083  -4.1071
    -4.1059  -4.1058  -4.1056  -4.1046  -4.1046  -4.1044  -4.1043  -4.1041
    -4.0803  -4.0791  -4.0412  -4.0405  -4.0376  -4.0371  -4.0200  -4.0179
    -4.0164  -4.0162  -4.0151  -4.0150  -4.0032  -4.0030  -4.0029  -4.0027
    -3.9919  -3.9910  -3.9804  -3.9802  -3.9800  -3.9799  -3.9676  -3.9674
    -3.9669  -3.9668  -3.9654  -3.9652  -3.9539  -3.9534  -3.9416  -3.9413
    -3.9407  -3.9405  -3.9358  -3.9357  -3.9165  -3.9157  -3.9153  -3.9153
    -3.9105  -3.9084  -3.8944  -3.8942  -3.8873  -3.8868  -3.8621  -3.8606
    -3.8603  -3.8599  -3.8410  -3.8409  -3.8397  -3.8393  -3.8299  -3.8289
    -3.8231  -3.8225  -3.8218  -3.8216  -3.8148  -3.8139  -3.8114  -3.8113
    -3.8112  -3.8111  -3.8030  -3.8023  -3.7971  -3.7966  -3.7946  -3.7940
    -3.7934  -3.7934  -3.7744  -3.7742  -3.7741  -3.7740  -3.7736  -3.7726
    -3.7640  -3.7638  -3.7548  -3.7541  -3.7517  -3.7517  -3.7512  -3.7511
    -3.7377  -3.7374  -3.7373  -3.7371  -3.7304  -3.7295  -3.7276  -3.7260
    -3.7140  -3.7128  -3.7091  -3.7047  -3.7021  -3.7020  -3.7018  -3.7017
    -3.6884  -3.6856  -3.6844  -3.6842  -3.6841  -3.6840  -3.6818  -3.6811
    -3.6730  -3.6728  -3.6726  -3.6724  -3.6639  -3.6628  -3.6554  -3.6552
    -3.6550  -3.6548  -3.6428  -3.6422  -3.6377  -3.6372  -3.6302  -3.6301
    -3.6293  -3.6292  -3.6272  -3.6256  -3.6005  -3.5996  -3.5994  -3.5990
    -3.5938  -3.5916  -3.5864  -3.5861  -3.5836  -3.5832  -3.5787  -3.5786
    -3.5783  -3.5780  -3.5735  -3.5734  -3.5723  -3.5723  -3.5653  -3.5636
    -3.5630  -3.5627  -3.5460  -3.5447  -3.5348  -3.5335  -3.5326  -3.5318
    -3.5200  -3.5198  -3.5155  -3.5132  -3.5098  -3.5095  -3.5093  -3.5093
    -3.4903  -3.4899  -3.4741  -3.4724  -3.4713  -3.4479  -3.4467  -3.4416
    -3.4411  -3.4347  -3.4342  -3.4327  -3.4309  -3.4305  -3.4299  -3.4133
    -3.4120  -3.3961  -3.3945  -3.3895  -3.3889  -3.3503  -3.3452  -3.3415
    -3.3223  -3.3202  -3.3001  -3.2982  -2.9997  -2.9987  -2.9974  -2.9967
    -2.9129  -2.7797  -2.7774  -2.4000  -2.1638  -2.0648  -2.0633  -1.4810
    -1.4808  -1.4793  -1.4776  -1.2721  -1.2329  -1.2310  -1.0568  -0.6472
    -0.6472  -0.6465  -0.6464  -0.5464  -0.5451  -0.4446  -0.1057   0.1668
     0.1784   0.1801   0.1809   0.1823   0.2258   0.2261   0.2456   0.2459
     0.3739   0.3775   0.7358   0.7380   0.7388   0.7417   0.9572   1.0168
     1.0189   1.1905   1.1946   1.7777   1.7783   1.8049   1.8093   1.8102
     1.8125   2.2564   2.2727   2.3587   2.4377   2.4401   2.7146   2.7191
     3.2107   3.2118   3.3485   3.3615   3.3642   3.3691   3.4057   3.4078
     3.9203   3.9278   3.9290   3.9343   4.1395   4.1443   4.5169   4.5187
     4.7102   4.7112   4.8965   4.8990   5.1681   5.1690   5.1964   5.2039
     5.3368   5.3564   5.4100   5.4122   5.6774   5.6895   5.6983   5.7029
     5.8796   5.8821   5.8824   5.8837   5.9708   6.0730   6.2060   6.2068
     6.2135   6.2181   6.2523   6.4835   6.7641   6.7785   6.7993   6.8025
     6.8029   6.8089   6.8296   6.8410   7.0137   7.0430   7.0549   7.1152
     7.2065   7.3391   7.3751   7.3968   7.4911   7.4916   7.4920   7.4922
     7.6237   7.6297   7.7184   7.7647   7.8042   7.8604   7.8675   7.8856
     8.0491   8.1314   8.1562   8.1975   8.2217   8.2334   8.2910   8.4122
     8.4232   8.4252   8.4266   8.4876   8.4917   8.4942   8.4945   8.5417
     8.5503   8.6780   8.8134   8.8337   8.8793   8.9780   9.0427   9.1106
     9.1584   9.2530   9.2643   9.2880   9.3033   9.3205   9.3286   9.3653
     9.4680   9.5577   9.5692   9.6017   9.8555   9.8640   9.8653   9.9002
     9.9469   9.9969  10.0370  10.0434  10.0520  10.0531  10.0753  10.0834
    10.1046  10.1236  10.1457  10.2852  10.3550  10.4668  10.4674  10.4802
    10.4869  10.5369  10.6015  10.6555  10.7082  10.7093  10.7124  10.7138
    10.7395  10.7763

     occupation numbers 
     1.0000   1.0000   1.0000   1.0000   1.0000   1.0000   1.0000   1.0000
     1.0000   1.0000   1.0000   1.0000   1.0000   1.0000   1.0000   1.0000
     1.0000   1.0000   1.0000   1.0000   1.0000   1.0000   1.0000   1.0000
     1.0000   1.0000   1.0000   1.0000   1.0000   1.0000   1.0000   1.0000
     1.0000   1.0000   1.0000   1.0000   1.0000   1.0000   1.0000   1.0000
     1.0000   1.0000   1.0000   1.0000   1.0000   1.0000   1.0000   1.0000
     1.0000   1.0000   1.0000   1.0000   1.0000   1.0000   1.0000   1.0000
     1.0000   1.0000   1.0000   1.0000   1.0000   1.0000   1.0000   1.0000
     1.0000   1.0000   1.0000   1.0000   1.0000   1.0000   1.0000   1.0000
     1.0000   1.0000   1.0000   1.0000   1.0000   1.0000   1.0000   1.0000
     1.0000   1.0000   1.0000   1.0000   1.0000   1.0000   1.0000   1.0000
     1.0000   1.0000   1.0000   1.0000   1.0000   1.0000   1.0000   1.0000
     1.0000   1.0000   1.0000   1.0000   1.0000   1.0000   1.0000   1.0000
     1.0000   1.0000   1.0000   1.0000   1.0000   1.0000   1.0000   1.0000
     1.0000   1.0000   1.0000   1.0000   1.0000   1.0000   1.0000   1.0000
     1.0000   1.0000   1.0000   1.0000   1.0000   1.0000   1.0000   1.0000
     1.0000   1.0000   1.0000   1.0000   1.0000   1.0000   1.0000   1.0000
     1.0000   1.0000   1.0000   1.0000   1.0000   1.0000   1.0000   1.0000
     1.0000   1.0000   1.0000   1.0000   1.0000   1.0000   1.0000   1.0000
     1.0000   1.0000   1.0000   1.0000   1.0000   1.0000   1.0000   1.0000
     1.0000   1.0000   1.0000   1.0000   1.0000   1.0000   1.0000   1.0000
     1.0000   1.0000   1.0000   1.0000   1.0000   1.0000   1.0000   1.0000
     1.0000   1.0000   1.0000   1.0000   1.0000   1.0000   1.0000   1.0000
     1.0000   1.0000   1.0000   1.0000   1.0000   1.0000   1.0000   1.0000
     1.0000   1.0000   1.0000   1.0000   1.0000   1.0000   1.0000   1.0000
     1.0000   1.0000   1.0000   1.0000   1.0000   1.0000   1.0000   1.0000
     1.0000   1.0000   1.0000   1.0000   1.0000   1.0000   1.0000   1.0000
     1.0000   1.0000   1.0000   1.0000   1.0000   1.0000   1.0000   1.0000
     1.0000   1.0000   1.0000   1.0000   1.0000   1.0000   1.0000   1.0000
     1.0000   1.0000   1.0000   1.0000   1.0000   1.0000   1.0000   1.0000
     1.0000   1.0000   1.0000   1.0000   1.0000   1.0000   1.0000   1.0000
     1.0000   1.0000   1.0000   1.0000   1.0000   1.0000   1.0000   1.0000
     1.0000   1.0000   1.0000   1.0000   1.0000   1.0000   1.0000   1.0000
     1.0000   1.0000   1.0000   1.0000   1.0000   1.0000   1.0000   1.0000
     1.0000   1.0000   1.0000   1.0000   1.0000   1.0000   1.0000   1.0000
     1.0000   1.0000   1.0000   1.0000   1.0000   1.0000   1.0000   1.0000
     1.0000   1.0000   1.0000   1.0000   1.0000   1.0000   1.0000   1.0000
     1.0000   1.0000   1.0000   1.0000   1.0000   1.0000   1.0000   1.0000
     1.0000   1.0000   1.0000   1.0000   1.0000   1.0000   1.0000   1.0000
     1.0000   1.0000   1.0000   1.0000   1.0000   1.0000   1.0000   1.0000
     1.0000   1.0000   1.0000   1.0000   1.0000   1.0000   1.0000   1.0000
     1.0000   1.0000   1.0000   1.0000   1.0000   1.0000   1.0000   1.0000
     1.0000   1.0000   1.0000   1.0000   1.0000   1.0000   1.0000   1.0000
     1.0000   1.0000   1.0000   1.0000   1.0000   1.0000   1.0000   1.0000
     1.0000   1.0000   1.0000   1.0000   1.0000   1.0000   1.0000   1.0000
     1.0000   1.0000   1.0000   1.0000   1.0000   1.0000   1.0000   1.0000
     1.0000   1.0000   1.0000   1.0000   1.0000   1.0000   1.0000   1.0000
     1.0000   1.0000   1.0000   1.0000   1.0000   1.0000   1.0000   1.0000
     1.0000   1.0000   1.0000   1.0000   1.0000   1.0000   1.0000   1.0000
     1.0000   1.0000   1.0000   1.0000   1.0000   1.0000   1.0000   1.0000
[...]
     atom   28 type  1   force =     0.00000000    0.00000000    0.00000000
     atom   29 type  1   force =     0.00000000    0.00000000    0.00000000
     atom   30 type  1   force =     0.00000000    0.00000000    0.00000000
     atom   31 type  1   force =     0.00000000    0.00000000    0.00000000
     atom   32 type  1   force =     0.00000000    0.00000000    0.00000000
     atom   33 type  1   force =     0.00000000    0.00000000    0.00000000
     atom   34 type  1   force =     0.00000000    0.00000000    0.00000000
     atom   35 type  1   force =     0.00000000    0.00000000    0.00000000
     atom   36 type  1   force =     0.00000000    0.00000000    0.00000000
     atom   37 type  1   force =     0.00000000    0.00000000    0.00000000
     atom   38 type  1   force =     0.00000000    0.00000000    0.00000000
     atom   39 type  1   force =     0.00000000    0.00000000    0.00000000
     atom   40 type  1   force =     0.00000000    0.00000000    0.00000000
     atom   41 type  1   force =     0.00000000    0.00000000    0.00000000
     atom   42 type  1   force =     0.00000000    0.00000000    0.00000000
     atom   43 type  1   force =     0.00000000    0.00000000    0.00000000
     atom   44 type  1   force =     0.00000000    0.00000000    0.00000000
     atom   45 type  1   force =     0.00000000    0.00000000    0.00000000
     atom   46 type  1   force =     0.00000000    0.00000000    0.00000000
     atom   47 type  1   force =     0.00000000    0.00000000    0.00000000
     atom   48 type  1   force =     0.00000000    0.00000000    0.00000000
     atom   49 type  1   force =     0.00000000    0.00000000    0.00000000
     atom   50 type  1   force =     0.00000000    0.00000000    0.00000000
     atom   51 type  1   force =     0.00000000    0.00000000    0.00000000
     atom   52 type  1   force =     0.00000000    0.00000000    0.00000000
     atom   53 type  1   force =     0.00000000    0.00000000    0.00000000
     atom   54 type  1   force =     0.00000000    0.00000000    0.00000000
     atom   55 type  1   force =     0.00000000    0.00000000    0.00000000
     atom   56 type  1   force =     0.00000000    0.00000000    0.00000000
     atom   57 type  1   force =     0.00000000    0.00000000    0.00000000
     atom   58 type  1   force =     0.00000000    0.00000000    0.00000000
     atom   59 type  1   force =     0.00000000    0.00000000    0.00000000
     atom   60 type  1   force =     0.00000000    0.00000000    0.00000000
     atom   61 type  1   force =     0.00000000    0.00000000    0.00000000
     atom   62 type  1   force =     0.00000000    0.00000000    0.00000000
     atom   63 type  1   force =     0.00000000    0.00000000    0.00000000
     atom   64 type  1   force =     0.00000000    0.00000000    0.00000000
     atom   65 type  2   force =     0.00251576   -0.00033184    0.00802596
     atom   66 type  2   force =    -0.00078080    0.00114424   -0.00154869
     atom   67 type  2   force =     0.00142658   -0.00026229   -0.00274447
     atom   68 type  2   force =    -0.00347115    0.00202450   -0.00320146
     atom   69 type  2   force =    -0.00090521    0.00220492    0.00178500
     atom   70 type  2   force =     0.00317762    0.00006443    0.00290145
     atom   71 type  2   force =     0.00115687   -0.00139760   -0.00168079
     atom   72 type  3   force =     0.00039740   -0.00059023    0.01391133
     atom   73 type  3   force =    -0.00003863    0.00007149   -0.00039990
     atom   74 type  4   force =     0.00000000    0.00000000    0.00000000
     atom   75 type  4   force =     0.00000000    0.00000000    0.00000000
     atom   76 type  4   force =     0.00000000    0.00000000    0.00000000
     atom   77 type  4   force =     0.00000000    0.00000000    0.00000000
     atom   78 type  4   force =     0.00000000    0.00000000    0.00000000
     atom   79 type  4   force =     0.00000000    0.00000000    0.00000000
     The Hubbard contrib.    to forces
     atom    1 type  1   force =     0.00000000    0.00000000    0.00000000
     atom    2 type  1   force =     0.00000000    0.00000000    0.00000000
     atom    3 type  1   force =     0.00000000    0.00000000    0.00000000
     atom    4 type  1   force =     0.00000000    0.00000000    0.00000000
     atom    5 type  1   force =     0.00000000    0.00000000    0.00000000
     atom    6 type  1   force =     0.00000000    0.00000000    0.00000000
     atom    7 type  1   force =     0.00000000    0.00000000    0.00000000
     atom    8 type  1   force =     0.00000000    0.00000000    0.00000000
     atom    9 type  1   force =     0.00000000    0.00000000    0.00000000
     atom   10 type  1   force =     0.00000000    0.00000000    0.00000000
     atom   11 type  1   force =     0.00000000    0.00000000    0.00000000
     atom   12 type  1   force =     0.00000000    0.00000000    0.00000000
     atom   13 type  1   force =     0.00000000    0.00000000    0.00000000
     atom   14 type  1   force =     0.00000000    0.00000000    0.00000000
     atom   15 type  1   force =     0.00000000    0.00000000    0.00000000
     atom   16 type  1   force =     0.00000000    0.00000000    0.00000000
     atom   17 type  1   force =     0.00000000    0.00000000    0.00000000
     atom   18 type  1   force =     0.00000000    0.00000000    0.00000000
     atom   19 type  1   force =     0.00000000    0.00000000    0.00000000
     atom   20 type  1   force =     0.00000000    0.00000000    0.00000000
     atom   21 type  1   force =     0.00000000    0.00000000    0.00000000
     atom   22 type  1   force =     0.00000000    0.00000000    0.00000000
     atom   23 type  1   force =     0.00000000    0.00000000    0.00000000
     atom   24 type  1   force =     0.00000000    0.00000000    0.00000000
     atom   25 type  1   force =     0.00000000    0.00000000    0.00000000
     atom   26 type  1   force =     0.00000000    0.00000000    0.00000000
     atom   27 type  1   force =     0.00000000    0.00000000    0.00000000
     atom   28 type  1   force =     0.00000000    0.00000000    0.00000000
     atom   29 type  1   force =     0.00000000    0.00000000    0.00000000
     atom   30 type  1   force =     0.00000000    0.00000000    0.00000000
     atom   31 type  1   force =     0.00000000    0.00000000    0.00000000
     atom   32 type  1   force =     0.00000000    0.00000000    0.00000000
     atom   33 type  1   force =     0.00000000    0.00000000    0.00000000
     atom   34 type  1   force =     0.00000000    0.00000000    0.00000000
     atom   35 type  1   force =     0.00000000    0.00000000    0.00000000
     atom   36 type  1   force =     0.00000000    0.00000000    0.00000000
     atom   37 type  1   force =     0.00000000    0.00000000    0.00000000
     atom   38 type  1   force =     0.00000000    0.00000000    0.00000000
     atom   39 type  1   force =     0.00000000    0.00000000    0.00000000
     atom   40 type  1   force =     0.00000000    0.00000000    0.00000000
     atom   41 type  1   force =     0.00000000    0.00000000    0.00000000
     atom   42 type  1   force =     0.00000000    0.00000000    0.00000000
     atom   43 type  1   force =     0.00000000    0.00000000    0.00000000
     atom   44 type  1   force =     0.00000000    0.00000000    0.00000000
     atom   45 type  1   force =     0.00000000    0.00000000    0.00000000
     atom   46 type  1   force =     0.00000000    0.00000000    0.00000000
     atom   47 type  1   force =     0.00000000    0.00000000    0.00000000
     atom   48 type  1   force =     0.00000000    0.00000000    0.00000000
     atom   49 type  1   force =     0.00000000    0.00000000    0.00000000
     atom   50 type  1   force =     0.00000000    0.00000000    0.00000000
     atom   51 type  1   force =     0.00000000    0.00000000    0.00000000
     atom   52 type  1   force =     0.00000000    0.00000000    0.00000000
     atom   53 type  1   force =     0.00000000    0.00000000    0.00000000
     atom   54 type  1   force =     0.00000000    0.00000000    0.00000000
     atom   55 type  1   force =     0.00000000    0.00000000    0.00000000
     atom   56 type  1   force =     0.00000000    0.00000000    0.00000000
     atom   57 type  1   force =     0.00000000    0.00000000    0.00000000
     atom   58 type  1   force =     0.00000000    0.00000000    0.00000000
     atom   59 type  1   force =     0.00000000    0.00000000    0.00000000
     atom   60 type  1   force =     0.00000000    0.00000000    0.00000000
     atom   61 type  1   force =     0.00000000    0.00000000    0.00000000
     atom   62 type  1   force =     0.00000000    0.00000000    0.00000000
     atom   63 type  1   force =     0.00000000    0.00000000    0.00000000
     atom   64 type  1   force =     0.00000000    0.00000000    0.00000000
     atom   65 type  2   force =     0.00000000    0.00000000    0.00000000
     atom   66 type  2   force =     0.00000000    0.00000000    0.00000000
     atom   67 type  2   force =     0.00000000    0.00000000    0.00000000
     atom   68 type  2   force =     0.00000000    0.00000000    0.00000000
     atom   69 type  2   force =     0.00000000    0.00000000    0.00000000
     atom   70 type  2   force =     0.00000000    0.00000000    0.00000000
     atom   71 type  2   force =     0.00000000    0.00000000    0.00000000
     atom   72 type  3   force =     0.00000000    0.00000000    0.00000000
     atom   73 type  3   force =     0.00000000    0.00000000    0.00000000
     atom   74 type  4   force =     0.00000000    0.00000000    0.00000000
     atom   75 type  4   force =     0.00000000    0.00000000    0.00000000
     atom   76 type  4   force =     0.00000000    0.00000000    0.00000000
     atom   77 type  4   force =     0.00000000    0.00000000    0.00000000
     atom   78 type  4   force =     0.00000000    0.00000000    0.00000000
     atom   79 type  4   force =     0.00000000    0.00000000    0.00000000
     The SCF correction term to forces
     atom    1 type  1   force =    -0.00000000   -0.00000000   -0.00000000
     atom    2 type  1   force =    -0.00000000    0.00000000   -0.00000000
     atom    3 type  1   force =    -0.00000000    0.00000000   -0.00000000
     atom    4 type  1   force =    -0.00000000   -0.00000000    0.00000000
     atom    5 type  1   force =    -0.00055014    0.00005549   -0.00044763
     atom    6 type  1   force =    -0.00054654   -0.00004344    0.00046523
     atom    7 type  1   force =    -0.00033325   -0.00131703   -0.00033711
     atom    8 type  1   force =    -0.00035677    0.00132851   -0.00069406
     atom    9 type  1   force =    -0.00000000   -0.00000000   -0.00000000
     atom   10 type  1   force =    -0.00000000    0.00000000   -0.00000000
     atom   11 type  1   force =    -0.00000000   -0.00000000   -0.00000000
     atom   12 type  1   force =    -0.00000000    0.00000000   -0.00000000
     atom   13 type  1   force =    -0.00054967    0.00084863   -0.00063554
     atom   14 type  1   force =    -0.00055785   -0.00085074    0.00064675
     atom   15 type  1   force =    -0.00034631    0.00042149   -0.00048670
     atom   16 type  1   force =    -0.00032958   -0.00043276   -0.00055290
     atom   17 type  1   force =     0.00000000   -0.00000000   -0.00000000
     atom   18 type  1   force =     0.00000000    0.00000000   -0.00000000
     atom   19 type  1   force =     0.00000000    0.00000000   -0.00000000
     atom   20 type  1   force =     0.00000000   -0.00000000    0.00000000
     atom   21 type  1   force =     0.00055732    0.00006031   -0.00048221
     atom   22 type  1   force =     0.00054925   -0.00004274    0.00042893
     atom   23 type  1   force =     0.00033106   -0.00131762   -0.00050186
     atom   24 type  1   force =     0.00035488    0.00132469   -0.00086181
     atom   25 type  1   force =     0.00000000   -0.00000000   -0.00000000
     atom   26 type  1   force =     0.00000000    0.00000000   -0.00000000
     atom   27 type  1   force =     0.00000000   -0.00000000   -0.00000000
     atom   28 type  1   force =     0.00000000    0.00000000    0.00000000
     atom   29 type  1   force =     0.00056956    0.00086222   -0.00067296
     atom   30 type  1   force =     0.00057187   -0.00087124    0.00061966
     atom   31 type  1   force =     0.00034561    0.00041732   -0.00065265
     atom   32 type  1   force =     0.00032655   -0.00042985   -0.00071543
     atom   33 type  1   force =     0.00000000    0.00000000   -0.00000000
     atom   34 type  1   force =     0.00000000   -0.00000000   -0.00000000
     atom   35 type  1   force =     0.00000000    0.00000000   -0.00000000
     atom   36 type  1   force =     0.00000000   -0.00000000    0.00000000
     atom   37 type  1   force =     0.00026849   -0.00081849    0.00007156
     atom   38 type  1   force =     0.00027552    0.00082408   -0.00018785
     atom   39 type  1   force =     0.00019319   -0.00126796   -0.00037601
     atom   40 type  1   force =     0.00018901    0.00126650   -0.00053306
     atom   41 type  1   force =     0.00000000   -0.00000000   -0.00000000
     atom   42 type  1   force =     0.00000000    0.00000000   -0.00000000
     atom   43 type  1   force =     0.00000000    0.00000000   -0.00000000
     atom   44 type  1   force =     0.00000000   -0.00000000    0.00000000
     atom   45 type  1   force =     0.00027159    0.00060849   -0.00082520
     atom   46 type  1   force =     0.00027770   -0.00062036    0.00073103
     atom   47 type  1   force =     0.00018917   -0.00069104   -0.00024728
     atom   48 type  1   force =     0.00018527    0.00069292   -0.00062748
     atom   49 type  1   force =    -0.00000000    0.00000000   -0.00000000
     atom   50 type  1   force =    -0.00000000   -0.00000000   -0.00000000
     atom   51 type  1   force =    -0.00000000    0.00000000   -0.00000000
     atom   52 type  1   force =    -0.00000000   -0.00000000    0.00000000
     atom   53 type  1   force =    -0.00027759   -0.00082363   -0.00012771
     atom   54 type  1   force =    -0.00029109    0.00082298   -0.00029680
     atom   55 type  1   force =    -0.00018605   -0.00125113   -0.00071825
     atom   56 type  1   force =    -0.00018716    0.00127477   -0.00079019
     atom   57 type  1   force =    -0.00000000   -0.00000000   -0.00000000
     atom   58 type  1   force =    -0.00000000    0.00000000   -0.00000000
     atom   59 type  1   force =    -0.00000000    0.00000000   -0.00000000
     atom   60 type  1   force =    -0.00000000   -0.00000000    0.00000000
     atom   61 type  1   force =    -0.00028692    0.00062756   -0.00098560
     atom   62 type  1   force =    -0.00028754   -0.00061132    0.00056348
     atom   63 type  1   force =    -0.00018892   -0.00068335   -0.00055556
     atom   64 type  1   force =    -0.00018499    0.00064983   -0.00092540
     atom   65 type  2   force =     0.00000667   -0.00001588    0.00024085
     atom   66 type  2   force =     0.00000277   -0.00000228    0.00012219
     atom   67 type  2   force =     0.00011852    0.00000996    0.00012344
     atom   68 type  2   force =    -0.00011304   -0.00000607    0.00013098
     atom   69 type  2   force =    -0.00011526    0.00000585    0.00009469
     atom   70 type  2   force =     0.00011920    0.00002293    0.00008415
     atom   71 type  2   force =    -0.00000018    0.00002955   -0.00003695
     atom   72 type  3   force =     0.00000579   -0.00002909    0.00014563
     atom   73 type  3   force =     0.00000492    0.00007481   -0.00001364
     atom   74 type  4   force =     0.00000085    0.00001767    0.00001519
     atom   75 type  4   force =     0.00000232    0.00001862    0.00001227
     atom   76 type  4   force =     0.00000539    0.00000061    0.00001667
     atom   77 type  4   force =    -0.00000502   -0.00000021    0.00001729
     atom   78 type  4   force =    -0.00002595    0.00000311    0.00001236
     atom   79 type  4   force =     0.00002591    0.00000739    0.00000887

     Total force =     0.273879     Total SCF correction =     0.006251


     Computing stress (Cartesian axis) and pressure


     negative rho (up, down):  3.508E-02 0.000E+00
          total   stress  (Ry/bohr**3)                   (kbar)     P=     -303.49
  -0.00215660  -0.00000000  -0.00000051         -317.25       -0.00       -0.07
  -0.00000000  -0.00206809  -0.00000209           -0.00     -304.23       -0.31
  -0.00000051  -0.00000209  -0.00196446           -0.07       -0.31     -288.98

     kinetic stress (kbar)  16500.01     -4.26     -0.77
                               -4.26  16523.94      3.41
                               -0.77      3.41  16509.09

     local   stress (kbar)**********   -104.19    -52.34
                             -104.19**********    131.69
                              -52.34    131.691230746.66

     nonloc. stress (kbar)  -1853.75      0.26      0.12
                                0.26  -1820.31     -0.62
                                0.12     -0.62  -1862.96

     hartree stress (kbar) 645315.68     38.23     21.74
                               38.23 651724.07    -52.19
                               21.74    -52.19-571828.86

     exc-cor stress (kbar)  -8053.83      0.20      0.04
                                0.20  -8052.49     -0.17
                                0.04     -0.17  -8055.88

     corecor stress (kbar)    -77.95     -0.08     -0.01
                               -0.08    -76.52      0.07
                               -0.01      0.07    -78.22

     ewald   stress (kbar) 566288.48     69.84     31.14
                               69.84 574596.37    -82.50
                               31.14    -82.50-665718.81

     hubbard stress (kbar)      0.00      0.00      0.00
                                0.00      0.00      0.00
                                0.00      0.00      0.00

     DFT-D   stress (kbar)      0.00      0.00      0.00
                                0.00      0.00      0.00
                                0.00      0.00      0.00

     XDM     stress (kbar)      0.00      0.00      0.00
                                0.00      0.00      0.00
                                0.00      0.00      0.00

     dft-nl  stress (kbar)      0.00      0.00      0.00
                                0.00      0.00      0.00
                                0.00      0.00      0.00

     TS-vdW  stress (kbar)      0.00      0.00      0.00
                                0.00      0.00      0.00
                                0.00      0.00      0.00

     MDB     stress (kbar)      0.00      0.00      0.00
                                0.00      0.00      0.00
                                0.00      0.00      0.00

     3D-RISM stress (kbar)      0.00      0.00      0.00
                                0.00      0.00      0.00
                                0.00      0.00      0.00

     Energy error            =      8.8E-03 Ry
     Gradient error          =      2.1E-01 Ry/Bohr

     number of scf cycles    =   3
     number of bfgs steps    =   2

     energy             old  =  -29711.5629108390 Ry
     energy             new  =  -29711.5540695384 Ry

     CASE: energy            _new > energy            _old


 %%%%%%%%%%%%%%%%%%%%%%%%%%%%%%%%%%%%%%%%%%%%%%%%%%%%%%%%%%%%%%%%%%%%%%%%%%%%%%
     Error in routine bfgs (1):
     dE0s is positive which should never happen
 %%%%%%%%%%%%%%%%%%%%%%%%%%%%%%%%%%%%%%%%%%%%%%%%%%%%%%%%%%%%%%%%%%%%%%%%%%%%%%

     stopping ...
--------------------------------------------------------------------------
MPI_ABORT was invoked on rank 0 in communicator MPI_COMM_WORLD
with errorcode 1.

NOTE: invoking MPI_ABORT causes Open MPI to kill all MPI processes.
You may or may not see output from other processes, depending on
exactly when Open MPI kills them.
--------------------------------------------------------------------------
