--------------------------------------------------------------------------
By default, for Open MPI 4.0 and later, infiniband ports on a device
are not used by default.  The intent is to use UCX for these devices.
You can override this policy by setting the btl_openib_allow_ib MCA parameter
to true.

  Local host:              psid03
  Local adapter:           mlx5_0
  Local port:              1

--------------------------------------------------------------------------
--------------------------------------------------------------------------
WARNING: There was an error initializing an OpenFabrics device.

  Local host:   psid03
  Local device: mlx5_0
--------------------------------------------------------------------------

     Program PWSCF v.7.3.1 starts on 25Mar2025 at 20: 6:12 

     This program is part of the open-source Quantum ESPRESSO suite
     for quantum simulation of materials; please cite
         "P. Giannozzi et al., J. Phys.:Condens. Matter 21 395502 (2009);
         "P. Giannozzi et al., J. Phys.:Condens. Matter 29 465901 (2017);
         "P. Giannozzi et al., J. Chem. Phys. 152 154105 (2020);
          URL http://www.quantum-espresso.org", 
     in publications or presentations arising from this work. More details at
     http://www.quantum-espresso.org/quote

     Parallel version (MPI), running on    33 processors

     MPI processes distributed on     1 nodes
     84353 MiB available memory on the printing compute node when the environment starts

     Waiting for input...
     Reading input from standard input

     Current dimensions of program PWSCF are:
     Max number of different atomic species (ntypx) = 10
     Max number of k-points (npk) =  40000
     Max angular momentum in pseudopotentials (lmaxx) =  4
     Found identity + ( -0.5000  0.0000  0.0000) symmetry
     This is a supercell, fractional translations are disabled

     R & G space division:  proc/nbgrp/npool/nimage =      33
     Subspace diagonalization in iterative solution of the eigenvalue problem:
     one sub-group per band group will be used
     custom distributed-memory algorithm (size of sub-group:  5*  5 procs)


     Parallelization info
     --------------------
     sticks:   dense  smooth     PW     G-vecs:    dense   smooth      PW
     Min         325     163     44                62125    21965    3126
     Max         326     165     45                62134    21971    3135
     Sum       10747    5389   1483              2050275   724931  103347

     Using Slab Decomposition



     bravais-lattice index     =            0
     lattice parameter (alat)  =      19.7617  a.u.
     unit-cell volume          =   15176.5939 (a.u.)^3
     number of atoms/cell      =           48
     number of atomic types    =            1
     number of electrons       =       960.00
     number of Kohn-Sham states=          576
     kinetic-energy cutoff     =      50.0000  Ry
     charge density cutoff     =     400.0000  Ry
     scf convergence threshold =      1.0E-06
     mixing beta               =       0.4000
     number of iterations used =            8  plain     mixing
     Exchange-correlation= SLA  PW   PBE  PBE
                           (   1   4   3   4   0   0   0)

     celldm(1)=  19.761696  celldm(2)=   0.000000  celldm(3)=   0.000000
     celldm(4)=   0.000000  celldm(5)=   0.000000  celldm(6)=   0.000000

     crystal axes: (cart. coord. in units of alat)
               a(1) = (   1.000000   0.000000   0.000000 )  
               a(2) = (  -0.500000   0.866025   0.000000 )  
               a(3) = (   0.000000   0.000000   2.270759 )  

     reciprocal axes: (cart. coord. in units 2 pi/alat)
               b(1) = (  1.000000  0.577350 -0.000000 )  
               b(2) = (  0.000000  1.154701  0.000000 )  
               b(3) = (  0.000000 -0.000000  0.440381 )  


     PseudoPot. # 1 for Zn read from file:
     /home/ys/qepseudo/SSSP_1.3.0_PBE_efficiency/Zn_pbe_v1.uspp.F.UPF
     MD5 check sum: df62231357ef9e81f77b2b3087fa5675
     Pseudo is Ultrasoft, Zval = 20.0
     Generated by new atomic code, or converted to UPF format
     Using radial grid of  943 points,  6 beta functions with: 
                l(1) =   0
                l(2) =   0
                l(3) =   1
                l(4) =   1
                l(5) =   2
                l(6) =   2
     Q(r) pseudized with  8 coefficients,  rinner =    1.100   1.100   1.100
                                                       1.100   1.100

     atomic species   valence    mass     pseudopotential
     Zn               20.00    65.38000     Zn( 1.00)

     No symmetry found


                                    s                        frac. trans.

      isym =  1     identity                                     

 cryst.   s( 1) = (     1          0          0      )
                  (     0          1          0      )
                  (     0          0          1      )

 cart.    s( 1) = (  1.0000000  0.0000000  0.0000000 )
                  (  0.0000000  1.0000000  0.0000000 )
                  (  0.0000000  0.0000000  1.0000000 )


   Cartesian axes

     site n.     atom                  positions (alat units)
         1        Zn     tau(   1) = (   0.0000000   0.1443375   0.1164998  )
         2        Zn     tau(   2) = (   0.5000000   0.1443375   0.1164998  )
         3        Zn     tau(   3) = (   0.0000000   0.1443375   0.5824993  )
         4        Zn     tau(   4) = (   0.5000000   0.1443375   0.5824993  )
         5        Zn     tau(   5) = (  -0.1250000   0.3608439   0.1164998  )
         6        Zn     tau(   6) = (   0.3750000   0.3608439   0.1164998  )
         7        Zn     tau(   7) = (  -0.1250000   0.3608439   0.5824993  )
         8        Zn     tau(   8) = (   0.3750000   0.3608439   0.5824993  )
         9        Zn     tau(   9) = (  -0.2500000   0.5773502   0.1164998  )
        10        Zn     tau(  10) = (   0.2500000   0.5773502   0.1164998  )
        11        Zn     tau(  11) = (  -0.2500000   0.5773502   0.5824993  )
        12        Zn     tau(  12) = (   0.2500000   0.5773502   0.5824993  )
        13        Zn     tau(  13) = (  -0.3750000   0.7938567   0.1164998  )
        14        Zn     tau(  14) = (   0.1250000   0.7938567   0.1164998  )
        15        Zn     tau(  15) = (  -0.3750000   0.7938567   0.5824993  )
        16        Zn     tau(  16) = (   0.1250000   0.7938567   0.5824993  )
        17        Zn     tau(  17) = (   0.2500000   0.1443375   0.1164998  )
        18        Zn     tau(  18) = (   0.7500000   0.1443375   0.1164998  )
        19        Zn     tau(  19) = (   0.2500000   0.1443375   0.5824993  )
        20        Zn     tau(  20) = (   0.7500000   0.1443375   0.5824993  )
        21        Zn     tau(  21) = (   0.1250000   0.3608439   0.1164998  )
        22        Zn     tau(  22) = (   0.6250000   0.3608439   0.1164998  )
        23        Zn     tau(  23) = (   0.1250000   0.3608439   0.5824993  )
        24        Zn     tau(  24) = (   0.6250000   0.3608439   0.5824993  )
        25        Zn     tau(  25) = (   0.0000000   0.5773502   0.1164998  )
        26        Zn     tau(  26) = (   0.5000000   0.5773502   0.1164998  )
        27        Zn     tau(  27) = (   0.0000000   0.5773502   0.5824993  )
        28        Zn     tau(  28) = (   0.5000000   0.5773502   0.5824993  )
        29        Zn     tau(  29) = (  -0.1250000   0.7938567   0.1164998  )
        30        Zn     tau(  30) = (   0.3750000   0.7938567   0.1164998  )
        31        Zn     tau(  31) = (  -0.1250000   0.7938567   0.5824993  )
        32        Zn     tau(  32) = (   0.3750000   0.7938567   0.5824993  )
        33        Zn     tau(  33) = (   0.1250000   0.0721688   0.3494996  )
        34        Zn     tau(  34) = (   0.6250000   0.0721688   0.3494996  )
        35        Zn     tau(  35) = (   0.0000000   0.2886752   0.3494996  )
        36        Zn     tau(  36) = (   0.5000000   0.2886752   0.3494996  )
        37        Zn     tau(  37) = (  -0.1250000   0.5051815   0.3494996  )
        38        Zn     tau(  38) = (   0.3750000   0.5051815   0.3494996  )
        39        Zn     tau(  39) = (  -0.2500000   0.7216879   0.3494996  )
        40        Zn     tau(  40) = (   0.2500000   0.7216879   0.3494996  )
        41        Zn     tau(  41) = (   0.3750000   0.0721688   0.3494996  )
        42        Zn     tau(  42) = (   0.8750000   0.0721688   0.3494996  )
        43        Zn     tau(  43) = (   0.2500000   0.2886752   0.3494996  )
        44        Zn     tau(  44) = (   0.7500000   0.2886752   0.3494996  )
        45        Zn     tau(  45) = (   0.1250000   0.5051815   0.3494996  )
        46        Zn     tau(  46) = (   0.6250000   0.5051815   0.3494996  )
        47        Zn     tau(  47) = (   0.0000000   0.7216879   0.3494996  )
        48        Zn     tau(  48) = (   0.5000000   0.7216879   0.3494996  )

   Crystallographic axes

     site n.     atom                  positions (cryst. coord.)
         1        Zn     tau(   1) = (  0.0833333  0.1666666  0.0513044  )
         2        Zn     tau(   2) = (  0.5833333  0.1666666  0.0513044  )
         3        Zn     tau(   3) = (  0.0833333  0.1666666  0.2565219  )
         4        Zn     tau(   4) = (  0.5833333  0.1666666  0.2565219  )
         5        Zn     tau(   5) = (  0.0833333  0.4166666  0.0513044  )
         6        Zn     tau(   6) = (  0.5833333  0.4166666  0.0513044  )
         7        Zn     tau(   7) = (  0.0833333  0.4166666  0.2565219  )
         8        Zn     tau(   8) = (  0.5833333  0.4166666  0.2565219  )
         9        Zn     tau(   9) = (  0.0833333  0.6666666  0.0513044  )
        10        Zn     tau(  10) = (  0.5833333  0.6666666  0.0513044  )
        11        Zn     tau(  11) = (  0.0833333  0.6666666  0.2565219  )
        12        Zn     tau(  12) = (  0.5833333  0.6666666  0.2565219  )
        13        Zn     tau(  13) = (  0.0833333  0.9166667  0.0513044  )
        14        Zn     tau(  14) = (  0.5833334  0.9166667  0.0513044  )
        15        Zn     tau(  15) = (  0.0833333  0.9166667  0.2565219  )
        16        Zn     tau(  16) = (  0.5833334  0.9166667  0.2565219  )
        17        Zn     tau(  17) = (  0.3333333  0.1666666  0.0513044  )
        18        Zn     tau(  18) = (  0.8333334  0.1666666  0.0513044  )
        19        Zn     tau(  19) = (  0.3333333  0.1666666  0.2565219  )
        20        Zn     tau(  20) = (  0.8333334  0.1666666  0.2565219  )
        21        Zn     tau(  21) = (  0.3333333  0.4166666  0.0513044  )
        22        Zn     tau(  22) = (  0.8333333  0.4166666  0.0513044  )
        23        Zn     tau(  23) = (  0.3333333  0.4166666  0.2565219  )
        24        Zn     tau(  24) = (  0.8333333  0.4166666  0.2565219  )
        25        Zn     tau(  25) = (  0.3333333  0.6666666  0.0513044  )
        26        Zn     tau(  26) = (  0.8333333  0.6666666  0.0513044  )
        27        Zn     tau(  27) = (  0.3333333  0.6666666  0.2565219  )
        28        Zn     tau(  28) = (  0.8333333  0.6666666  0.2565219  )
        29        Zn     tau(  29) = (  0.3333334  0.9166667  0.0513044  )
        30        Zn     tau(  30) = (  0.8333334  0.9166667  0.0513044  )
        31        Zn     tau(  31) = (  0.3333334  0.9166667  0.2565219  )
        32        Zn     tau(  32) = (  0.8333334  0.9166667  0.2565219  )
        33        Zn     tau(  33) = (  0.1666667  0.0833334  0.1539131  )
        34        Zn     tau(  34) = (  0.6666667  0.0833334  0.1539131  )
        35        Zn     tau(  35) = (  0.1666667  0.3333334  0.1539131  )
        36        Zn     tau(  36) = (  0.6666667  0.3333334  0.1539131  )
        37        Zn     tau(  37) = (  0.1666667  0.5833334  0.1539131  )
        38        Zn     tau(  38) = (  0.6666667  0.5833334  0.1539131  )
        39        Zn     tau(  39) = (  0.1666667  0.8333334  0.1539131  )
        40        Zn     tau(  40) = (  0.6666667  0.8333334  0.1539131  )
        41        Zn     tau(  41) = (  0.4166667  0.0833334  0.1539131  )
        42        Zn     tau(  42) = (  0.9166667  0.0833334  0.1539131  )
        43        Zn     tau(  43) = (  0.4166667  0.3333334  0.1539131  )
        44        Zn     tau(  44) = (  0.9166667  0.3333334  0.1539131  )
        45        Zn     tau(  45) = (  0.4166667  0.5833334  0.1539131  )
        46        Zn     tau(  46) = (  0.9166667  0.5833334  0.1539131  )
        47        Zn     tau(  47) = (  0.4166667  0.8333334  0.1539131  )
        48        Zn     tau(  48) = (  0.9166667  0.8333334  0.1539131  )

     number of k points=    10  Marzari-Vanderbilt smearing, width (Ry)=  0.0200
                       cart. coord. in units 2pi/alat
        k(    1) = (   0.0000000   0.0000000   0.0000000), wk =   0.1250000
        k(    2) = (   0.0000000   0.2886751   0.0000000), wk =   0.2500000
        k(    3) = (   0.0000000  -0.5773503   0.0000000), wk =   0.1250000
        k(    4) = (   0.2500000   0.1443376   0.0000000), wk =   0.2500000
        k(    5) = (   0.2500000   0.4330127   0.0000000), wk =   0.2500000
        k(    6) = (   0.2500000  -0.4330127   0.0000000), wk =   0.2500000
        k(    7) = (   0.2500000  -0.1443376   0.0000000), wk =   0.2500000
        k(    8) = (  -0.5000000  -0.2886751   0.0000000), wk =   0.1250000
        k(    9) = (  -0.5000000   0.0000000   0.0000000), wk =   0.2500000
        k(   10) = (  -0.5000000  -0.8660254   0.0000000), wk =   0.1250000

                       cryst. coord.
        k(    1) = (   0.0000000   0.0000000   0.0000000), wk =   0.1250000
        k(    2) = (   0.0000000   0.2500000   0.0000000), wk =   0.2500000
        k(    3) = (   0.0000000  -0.5000000   0.0000000), wk =   0.1250000
        k(    4) = (   0.2500000   0.0000000   0.0000000), wk =   0.2500000
        k(    5) = (   0.2500000   0.2500000   0.0000000), wk =   0.2500000
        k(    6) = (   0.2500000  -0.5000000   0.0000000), wk =   0.2500000
        k(    7) = (   0.2500000  -0.2500000   0.0000000), wk =   0.2500000
        k(    8) = (  -0.5000000   0.0000000   0.0000000), wk =   0.1250000
        k(    9) = (  -0.5000000   0.2500000   0.0000000), wk =   0.2500000
        k(   10) = (  -0.5000000  -0.5000000   0.0000000), wk =   0.1250000

     Dense  grid:  2050275 G-vectors     FFT dimensions: ( 125, 125, 288)

     Smooth grid:   724931 G-vectors     FFT dimensions: (  90,  90, 216)

     Dynamical RAM for                 wfc:      24.13 MB

     Dynamical RAM for     wfc (w. buffer):     265.39 MB

     Dynamical RAM for           str. fact:       0.95 MB

     Dynamical RAM for           local pot:       0.00 MB

     Dynamical RAM for          nlocal pot:      36.19 MB

     Dynamical RAM for                qrad:       1.61 MB

     Dynamical RAM for          rho,v,vnew:       6.06 MB

     Dynamical RAM for               rhoin:       2.02 MB

     Dynamical RAM for            rho*nmix:      15.17 MB

     Dynamical RAM for           G-vectors:       3.72 MB

     Dynamical RAM for          h,s,v(r/c):       2.42 MB

     Dynamical RAM for          <psi|beta>:       7.59 MB

     Dynamical RAM for                 psi:      48.25 MB

     Dynamical RAM for                hpsi:      48.25 MB

     Dynamical RAM for                spsi:      48.25 MB

     Dynamical RAM for      wfcinit/wfcrot:      61.19 MB

     Dynamical RAM for           addusdens:     221.85 MB

     Estimated static dynamical RAM per process >     323.20 MB

     Estimated max dynamical RAM per process >     560.22 MB

     Estimated total dynamical RAM >      18.05 GB

     Initial potential from superposition of free atoms

     starting charge     959.9932, renormalised to     960.0000

     negative rho (up, down):  1.884E-03 0.000E+00
     Starting wfcs are  624 randomized atomic wfcs
[psid03:73142] 32 more processes have sent help message help-mpi-btl-openib.txt / ib port not selected
[psid03:73142] Set MCA parameter "orte_base_help_aggregate" to 0 to see all help / error messages
[psid03:73142] 32 more processes have sent help message help-mpi-btl-openib.txt / error in device init

     total cpu time spent up to now is      167.1 secs

     Self-consistent Calculation

     iteration #  1     ecut=    50.00 Ry     beta= 0.40
     Davidson diagonalization with overlap

---- Real-time Memory Report at c_bands before calling an iterative solver
           399 MiB given to the printing process from OS
             0 MiB allocation reported by mallinfo(arena+hblkhd)
         73270 MiB available memory on the node where the printing process lives
------------------
     ethr =  1.00E-02,  avg # of iterations = 10.0

     Threshold (ethr) on eigenvalues was too large:
     Diagonalizing with lowered threshold

     Davidson diagonalization with overlap

---- Real-time Memory Report at c_bands before calling an iterative solver
           578 MiB given to the printing process from OS
             0 MiB allocation reported by mallinfo(arena+hblkhd)
         72738 MiB available memory on the node where the printing process lives
------------------
     ethr =  1.63E-04,  avg # of iterations = 11.2

     negative rho (up, down):  3.279E-04 0.000E+00

     total cpu time spent up to now is     1411.5 secs

     total energy              =  -22153.91489828 Ry
     estimated scf accuracy    <       1.58825400 Ry

     iteration #  2     ecut=    50.00 Ry     beta= 0.40
     Davidson diagonalization with overlap

---- Real-time Memory Report at c_bands before calling an iterative solver
           583 MiB given to the printing process from OS
             0 MiB allocation reported by mallinfo(arena+hblkhd)
         72584 MiB available memory on the node where the printing process lives
------------------
     ethr =  1.65E-04,  avg # of iterations =  2.0

     negative rho (up, down):  8.126E-04 0.000E+00

     total cpu time spent up to now is     2022.0 secs

     total energy              =  -22154.30189250 Ry
     estimated scf accuracy    <       0.27787005 Ry

     iteration #  3     ecut=    50.00 Ry     beta= 0.40
     Davidson diagonalization with overlap

---- Real-time Memory Report at c_bands before calling an iterative solver
           584 MiB given to the printing process from OS
             0 MiB allocation reported by mallinfo(arena+hblkhd)
         72556 MiB available memory on the node where the printing process lives
------------------
     c_bands:  2 eigenvalues not converged
     ethr =  2.89E-05,  avg # of iterations =  5.9

     negative rho (up, down):  1.383E-03 0.000E+00

     total cpu time spent up to now is     2568.2 secs

     total energy              =  -22154.32000220 Ry
     estimated scf accuracy    <       0.04655145 Ry

     iteration #  4     ecut=    50.00 Ry     beta= 0.40
     Davidson diagonalization with overlap

---- Real-time Memory Report at c_bands before calling an iterative solver
           585 MiB given to the printing process from OS
             0 MiB allocation reported by mallinfo(arena+hblkhd)
         72529 MiB available memory on the node where the printing process lives
------------------
     c_bands:  1 eigenvalues not converged
     ethr =  4.85E-06,  avg # of iterations = 13.9

     negative rho (up, down):  1.748E-03 0.000E+00

     total cpu time spent up to now is     3167.8 secs

     total energy              =  -22154.32139784 Ry
     estimated scf accuracy    <       0.01530396 Ry

     iteration #  5     ecut=    50.00 Ry     beta= 0.40
     Davidson diagonalization with overlap

---- Real-time Memory Report at c_bands before calling an iterative solver
           586 MiB given to the printing process from OS
             0 MiB allocation reported by mallinfo(arena+hblkhd)
         72502 MiB available memory on the node where the printing process lives
------------------
     ethr =  1.59E-06,  avg # of iterations =  7.8

     negative rho (up, down):  1.975E-03 0.000E+00

     total cpu time spent up to now is     3729.3 secs

     total energy              =  -22154.32249276 Ry
     estimated scf accuracy    <       0.00227131 Ry

     iteration #  6     ecut=    50.00 Ry     beta= 0.40
     Davidson diagonalization with overlap

---- Real-time Memory Report at c_bands before calling an iterative solver
           586 MiB given to the printing process from OS
             0 MiB allocation reported by mallinfo(arena+hblkhd)
         72481 MiB available memory on the node where the printing process lives
------------------
     ethr =  2.37E-07,  avg # of iterations =  2.0

     negative rho (up, down):  2.116E-03 0.000E+00

     total cpu time spent up to now is     4324.5 secs

     total energy              =  -22154.32280580 Ry
     estimated scf accuracy    <       0.00073838 Ry

     iteration #  7     ecut=    50.00 Ry     beta= 0.40
     Davidson diagonalization with overlap

---- Real-time Memory Report at c_bands before calling an iterative solver
           587 MiB given to the printing process from OS
             0 MiB allocation reported by mallinfo(arena+hblkhd)
         72454 MiB available memory on the node where the printing process lives
------------------
     ethr =  7.69E-08,  avg # of iterations =  1.1

     negative rho (up, down):  2.199E-03 0.000E+00

     total cpu time spent up to now is     4756.1 secs

     total energy              =  -22154.32289888 Ry
     estimated scf accuracy    <       0.00070708 Ry

     iteration #  8     ecut=    50.00 Ry     beta= 0.40
     Davidson diagonalization with overlap

---- Real-time Memory Report at c_bands before calling an iterative solver
           588 MiB given to the printing process from OS
             0 MiB allocation reported by mallinfo(arena+hblkhd)
         72433 MiB available memory on the node where the printing process lives
------------------
     ethr =  7.37E-08,  avg # of iterations =  1.0

     negative rho (up, down):  2.249E-03 0.000E+00

     total cpu time spent up to now is     5178.3 secs

     total energy              =  -22154.32291273 Ry
     estimated scf accuracy    <       0.00005053 Ry

     iteration #  9     ecut=    50.00 Ry     beta= 0.40
     Davidson diagonalization with overlap

---- Real-time Memory Report at c_bands before calling an iterative solver
           588 MiB given to the printing process from OS
             0 MiB allocation reported by mallinfo(arena+hblkhd)
         72412 MiB available memory on the node where the printing process lives
------------------
     ethr =  5.26E-09,  avg # of iterations =  2.0

     negative rho (up, down):  2.279E-03 0.000E+00

     total cpu time spent up to now is     5822.4 secs

     total energy              =  -22154.32292777 Ry
     estimated scf accuracy    <       0.00001321 Ry

     iteration # 10     ecut=    50.00 Ry     beta= 0.40
     Davidson diagonalization with overlap

---- Real-time Memory Report at c_bands before calling an iterative solver
           589 MiB given to the printing process from OS
             0 MiB allocation reported by mallinfo(arena+hblkhd)
         72387 MiB available memory on the node where the printing process lives
------------------
     ethr =  1.38E-09,  avg # of iterations =  2.0

     negative rho (up, down):  2.326E-03 0.000E+00

     total cpu time spent up to now is     6435.3 secs

     End of self-consistent calculation

          k = 0.0000 0.0000 0.0000 ( 90569 PWs)   bands (ev):

  -125.0715-125.0700-125.0699-125.0697-125.0695-125.0693-125.0693-125.0683
  -125.0682-125.0680-125.0679-125.0677-125.0676-125.0674-125.0673-125.0672
  -124.8675-124.8672-124.8659-124.8659-124.8657-124.8657-124.8656-124.8656
  -124.8654-124.8654-124.8654-124.8654-124.8652-124.8651-124.8643-124.8641
  -124.8641-124.8640-124.8639-124.8639-124.8638-124.8638-124.8637-124.8637
  -124.8637-124.8636-124.8635-124.8635-124.8634-124.8634-124.8633-124.8630
   -79.2370 -79.2370 -79.2370 -79.2306 -79.2306 -79.2304 -79.2304 -79.2303
   -79.2303 -79.2199 -79.2194 -79.2194 -79.2192 -79.2192 -79.2191 -79.2191
   -79.2182 -79.2181 -79.2179 -79.2178 -79.2175 -79.2175 -79.2175 -79.2175
   -79.2173 -79.2173 -79.2171 -79.2171 -79.2163 -79.2162 -79.2161 -79.2159
   -79.2158 -79.2157 -79.2154 -79.2153 -79.2152 -79.2106 -79.2106 -79.2106
   -79.2062 -79.2062 -79.2061 -79.2060 -79.2059 -79.2058 -79.2015 -79.2014
   -79.0296 -79.0296 -79.0296 -79.0293 -79.0293 -79.0293 -79.0245 -79.0242
   -79.0232 -79.0232 -79.0231 -79.0230 -79.0229 -79.0229 -79.0229 -79.0229
   -79.0228 -79.0228 -79.0228 -79.0227 -79.0227 -79.0227 -79.0226 -79.0225
   -79.0225 -79.0225 -79.0223 -79.0223 -79.0223 -79.0222 -79.0221 -79.0220
   -79.0210 -79.0208 -79.0208 -79.0208 -79.0206 -79.0206 -79.0205 -79.0205
   -79.0205 -79.0204 -79.0204 -79.0204 -79.0203 -79.0202 -79.0201 -79.0201
   -79.0201 -79.0198 -79.0120 -79.0120 -79.0119 -79.0119 -79.0118 -79.0117
   -79.0117 -79.0117 -79.0116 -79.0116 -79.0115 -79.0115 -79.0101 -79.0101
   -79.0100 -79.0100 -79.0098 -79.0098 -79.0098 -79.0098 -79.0097 -79.0097
   -79.0096 -79.0096 -79.0033 -79.0033 -79.0033 -79.0030 -79.0030 -79.0030
   -78.9988 -78.9988 -78.9987 -78.9987 -78.9986 -78.9986 -78.9986 -78.9986
   -78.9985 -78.9984 -78.9983 -78.9983 -78.9941 -78.9941 -78.9939 -78.9939
    -8.6216  -7.4000  -7.0925  -7.0682  -7.0682  -7.0680  -7.0680  -7.0679
    -7.0679  -6.9147  -6.9147  -6.9147  -6.7257  -6.7257  -6.7257  -6.6782
    -6.6782  -6.6782  -6.5896  -6.5896  -6.5895  -6.5895  -6.5894  -6.5894
    -6.5402  -6.5402  -6.5402  -6.5402  -6.5401  -6.5401  -6.5369  -6.5369
    -6.5369  -6.4795  -6.4795  -6.4793  -6.4793  -6.4792  -6.4792  -6.4328
    -6.4328  -6.4326  -6.4326  -6.4325  -6.4325  -6.3355  -6.3355  -6.3353
    -6.3353  -6.3351  -6.3351  -6.3339  -6.3339  -6.3339  -6.2742  -6.2742
    -6.2741  -6.2741  -6.2739  -6.2739  -6.2711  -6.2122  -6.2122  -6.2121
    -6.2121  -6.2120  -6.2120  -6.1721  -6.1721  -6.1720  -6.1720  -6.1720
    -6.1720  -6.1465  -6.1465  -6.1465  -6.1465  -6.1464  -6.1464  -6.1230
    -6.1230  -6.1229  -6.1229  -6.1229  -6.1229  -6.1229  -6.1229  -6.0981
    -6.0981  -6.0981  -6.0973  -6.0973  -6.0973  -6.0973  -6.0972  -6.0972
    -5.9951  -5.9951  -5.9950  -5.9950  -5.9949  -5.9949  -5.9172  -5.9172
    -5.8985  -5.8985  -5.8664  -5.8664  -5.8664  -5.8664  -5.8664  -5.8664
    -5.8643  -5.8643  -5.8642  -5.8642  -5.8641  -5.8640  -5.8328  -5.8328
    -5.8328  -5.7837  -5.7837  -5.7837  -5.7837  -5.7837  -5.7837  -5.7774
    -5.7774  -5.7774  -5.7774  -5.7774  -5.7774  -5.7772  -5.7772  -5.7771
    -5.7771  -5.7771  -5.7771  -5.7553  -5.7553  -5.7552  -5.7552  -5.7552
    -5.7552  -5.7459  -5.7459  -5.7458  -5.7458  -5.7457  -5.7457  -5.7290
    -5.7290  -5.7289  -5.7289  -5.7287  -5.7287  -5.7166  -5.7101  -5.7101
    -5.7100  -5.7100  -5.7098  -5.7098  -5.6983  -5.6983  -5.6983  -5.6115
    -5.6115  -5.5765  -5.5765  -5.5763  -5.5763  -5.5761  -5.5761  -5.5701
    -5.5701  -5.5700  -5.5700  -5.5699  -5.5699  -5.5464  -5.5464  -5.5463
    -5.5463  -5.5462  -5.5462  -5.5302  -5.5302  -5.5302  -5.5034  -5.5034
    -5.5033  -5.5033  -5.5032  -5.5032  -5.4948  -5.4948  -5.4947  -5.4947
    -5.4946  -5.4946  -5.4468  -5.4468  -5.4467  -5.4467  -5.4466  -5.4466
    -5.4351  -5.4351  -5.4351  -5.4343  -5.4343  -5.4343  -5.3988  -5.3988
    -5.3988  -5.3921  -5.3921  -5.3921  -5.3920  -5.3920  -5.3920  -5.3844
    -5.3844  -5.3632  -5.3632  -5.3210  -5.3210  -5.3209  -5.3209  -5.3208
    -5.3208  -5.2913  -5.2913  -5.2913  -5.2913  -5.2912  -5.2912  -5.2818
    -5.2818  -5.2818  -5.0722  -5.0722  -5.0722  -5.0720  -5.0720  -5.0720
    -4.3977  -4.3977  -4.3976  -4.3976  -4.3974  -4.3974  -3.4503  -2.1036
    -2.1036  -2.1036  -2.1036  -2.1036  -2.1036  -2.0201  -2.0201  -2.0199
    -2.0199  -2.0197  -2.0197  -0.8425  -0.8425  -0.8425  -0.7121  -0.6400
    -0.6400  -0.6400  -0.6400  -0.6400  -0.6400  -0.0845  -0.0845  -0.0845
     0.2450   0.2450   0.2450   1.5364   1.5364   1.5364   1.5364   1.5364
     1.5364   1.5804   1.5804   1.5806   1.5806   1.5808   1.5808   2.3094
     2.3094   2.3094   3.1102   3.3015   3.3015   3.3015   4.1421   4.1421
     4.1421   4.8857   4.8857   4.8858   4.8858   4.8860   4.8860   5.1213
     5.3972   5.4269   5.4269   5.4270   5.4270   5.4270   5.4270   5.4351
     5.4351   5.4352   5.4352   5.4353   5.4353   5.6048   5.6049   5.6050
     5.6050   5.6051   5.6051   6.2841   6.5031   6.5623   6.5623   6.5623
     6.9166   6.9167   6.9167   6.9167   6.9168   6.9168   7.0110   7.0110
     7.0111   7.0111   7.0112   7.0112   7.1885   7.1885   7.1886   7.1886
     7.1887   7.1887   7.2335   7.2336   7.2336   7.2337   7.2337   7.2338
     8.1221   8.1222   8.1223   8.1223   8.1224   8.1224   8.1460   8.1460
     8.1461   8.1461   8.1461   8.1461   8.2905   8.2906   8.2907   8.2908
     8.2908   8.2909   8.3056   8.3754   8.3754   8.3754   8.4384   9.2867

     occupation numbers 
     1.0000   1.0000   1.0000   1.0000   1.0000   1.0000   1.0000   1.0000
     1.0000   1.0000   1.0000   1.0000   1.0000   1.0000   1.0000   1.0000
     1.0000   1.0000   1.0000   1.0000   1.0000   1.0000   1.0000   1.0000
     1.0000   1.0000   1.0000   1.0000   1.0000   1.0000   1.0000   1.0000
     1.0000   1.0000   1.0000   1.0000   1.0000   1.0000   1.0000   1.0000
     1.0000   1.0000   1.0000   1.0000   1.0000   1.0000   1.0000   1.0000
     1.0000   1.0000   1.0000   1.0000   1.0000   1.0000   1.0000   1.0000
     1.0000   1.0000   1.0000   1.0000   1.0000   1.0000   1.0000   1.0000
     1.0000   1.0000   1.0000   1.0000   1.0000   1.0000   1.0000   1.0000
     1.0000   1.0000   1.0000   1.0000   1.0000   1.0000   1.0000   1.0000
     1.0000   1.0000   1.0000   1.0000   1.0000   1.0000   1.0000   1.0000
     1.0000   1.0000   1.0000   1.0000   1.0000   1.0000   1.0000   1.0000
     1.0000   1.0000   1.0000   1.0000   1.0000   1.0000   1.0000   1.0000
     1.0000   1.0000   1.0000   1.0000   1.0000   1.0000   1.0000   1.0000
     1.0000   1.0000   1.0000   1.0000   1.0000   1.0000   1.0000   1.0000
     1.0000   1.0000   1.0000   1.0000   1.0000   1.0000   1.0000   1.0000
     1.0000   1.0000   1.0000   1.0000   1.0000   1.0000   1.0000   1.0000
     1.0000   1.0000   1.0000   1.0000   1.0000   1.0000   1.0000   1.0000
     1.0000   1.0000   1.0000   1.0000   1.0000   1.0000   1.0000   1.0000
     1.0000   1.0000   1.0000   1.0000   1.0000   1.0000   1.0000   1.0000
     1.0000   1.0000   1.0000   1.0000   1.0000   1.0000   1.0000   1.0000
     1.0000   1.0000   1.0000   1.0000   1.0000   1.0000   1.0000   1.0000
     1.0000   1.0000   1.0000   1.0000   1.0000   1.0000   1.0000   1.0000
     1.0000   1.0000   1.0000   1.0000   1.0000   1.0000   1.0000   1.0000
     1.0000   1.0000   1.0000   1.0000   1.0000   1.0000   1.0000   1.0000
     1.0000   1.0000   1.0000   1.0000   1.0000   1.0000   1.0000   1.0000
     1.0000   1.0000   1.0000   1.0000   1.0000   1.0000   1.0000   1.0000
     1.0000   1.0000   1.0000   1.0000   1.0000   1.0000   1.0000   1.0000
     1.0000   1.0000   1.0000   1.0000   1.0000   1.0000   1.0000   1.0000
     1.0000   1.0000   1.0000   1.0000   1.0000   1.0000   1.0000   1.0000
     1.0000   1.0000   1.0000   1.0000   1.0000   1.0000   1.0000   1.0000
     1.0000   1.0000   1.0000   1.0000   1.0000   1.0000   1.0000   1.0000
     1.0000   1.0000   1.0000   1.0000   1.0000   1.0000   1.0000   1.0000
     1.0000   1.0000   1.0000   1.0000   1.0000   1.0000   1.0000   1.0000
     1.0000   1.0000   1.0000   1.0000   1.0000   1.0000   1.0000   1.0000
     1.0000   1.0000   1.0000   1.0000   1.0000   1.0000   1.0000   1.0000
     1.0000   1.0000   1.0000   1.0000   1.0000   1.0000   1.0000   1.0000
     1.0000   1.0000   1.0000   1.0000   1.0000   1.0000   1.0000   1.0000
     1.0000   1.0000   1.0000   1.0000   1.0000   1.0000   1.0000   1.0000
     1.0000   1.0000   1.0000   1.0000   1.0000   1.0000   1.0000   1.0000
     1.0000   1.0000   1.0000   1.0000   1.0000   1.0000   1.0000   1.0000
     1.0000   1.0000   1.0000   1.0000   1.0000   1.0000   1.0000   1.0000
     1.0000   1.0000   1.0000   1.0000   1.0000   1.0000   1.0000   1.0000
     1.0000   1.0000   1.0000   1.0000   1.0000   1.0000   1.0000   1.0000
     1.0000   1.0000   1.0000   1.0000   1.0000   1.0000   1.0000   1.0000
     1.0000   1.0000   1.0000   1.0000   1.0000   1.0000   1.0000   1.0000
     1.0000   1.0000   1.0000   1.0000   1.0000   1.0000   1.0000   1.0000
     1.0000   1.0000   1.0000   1.0000   1.0000   1.0000   1.0000   1.0000
     1.0000   1.0000   1.0000   1.0000   1.0000   1.0000   1.0000   1.0000
     1.0000   1.0000   1.0000   1.0000   1.0000   1.0000   1.0000   1.0000
     1.0000   1.0000   1.0000   1.0000   1.0000   1.0000   1.0000   1.0000
     1.0000   1.0000   1.0000   1.0000   1.0000   1.0000   1.0000   1.0000
     1.0000   1.0000   1.0000   1.0000   1.0000   1.0000   1.0000   1.0000
     1.0000   1.0000   1.0000   1.0000   1.0000   1.0000   1.0000   1.0000
     1.0000   1.0000   1.0000   1.0000   1.0000   1.0000   1.0000   1.0000
     1.0000   1.0000   1.0000   1.0000   1.0000   1.0000   1.0000   1.0000
     1.0000   1.0000   1.0000   1.0000   1.0000   1.0000   1.0000   1.0000
     1.0000   1.0000   1.0000   1.0000   1.0000   1.0000   1.0000   1.0000
     1.0000   1.0000   1.0000   1.0000   1.0000   1.0000   1.0000   1.0000
     1.0000   1.0000   1.0000   0.1845   0.1845   0.1845   0.1845   0.1845
     0.1845   0.1226   0.1226   0.1224   0.1224   0.1222   0.1222   0.0000
     0.0000   0.0000   0.0000   0.0000   0.0000   0.0000   0.0000   0.0000
     0.0000   0.0000   0.0000   0.0000   0.0000   0.0000   0.0000   0.0000
     0.0000   0.0000   0.0000   0.0000   0.0000   0.0000   0.0000   0.0000
     0.0000   0.0000   0.0000   0.0000   0.0000   0.0000   0.0000   0.0000
     0.0000   0.0000   0.0000   0.0000   0.0000   0.0000   0.0000   0.0000
     0.0000   0.0000   0.0000   0.0000   0.0000   0.0000   0.0000   0.0000
     0.0000   0.0000   0.0000   0.0000   0.0000   0.0000   0.0000   0.0000
     0.0000   0.0000   0.0000   0.0000   0.0000   0.0000   0.0000   0.0000
     0.0000   0.0000   0.0000   0.0000   0.0000   0.0000   0.0000   0.0000
     0.0000   0.0000   0.0000   0.0000   0.0000   0.0000   0.0000   0.0000
     0.0000   0.0000   0.0000   0.0000   0.0000   0.0000   0.0000   0.0000

          k = 0.0000 0.2887 0.0000 ( 90617 PWs)   bands (ev):

  -125.0714-125.0704-125.0699-125.0698-125.0694-125.0691-125.0688-125.0684
  -125.0684-125.0681-125.0679-125.0678-125.0676-125.0674-125.0672-125.0671
  -124.8673-124.8671-124.8664-124.8662-124.8659-124.8659-124.8657-124.8656
  -124.8653-124.8652-124.8651-124.8650-124.8649-124.8646-124.8644-124.8643
  -124.8642-124.8641-124.8641-124.8640-124.8639-124.8638-124.8638-124.8637
  -124.8636-124.8636-124.8635-124.8634-124.8634-124.8633-124.8632-124.8630
   -79.2363 -79.2363 -79.2357 -79.2318 -79.2318 -79.2309 -79.2308 -79.2289
   -79.2289 -79.2261 -79.2229 -79.2229 -79.2203 -79.2203 -79.2198 -79.2187
   -79.2182 -79.2181 -79.2175 -79.2173 -79.2170 -79.2165 -79.2164 -79.2163
   -79.2162 -79.2161 -79.2160 -79.2160 -79.2159 -79.2158 -79.2157 -79.2155
   -79.2152 -79.2151 -79.2137 -79.2137 -79.2124 -79.2114 -79.2113 -79.2103
   -79.2078 -79.2075 -79.2074 -79.2056 -79.2056 -79.2043 -79.2028 -79.2018
   -79.0289 -79.0289 -79.0286 -79.0286 -79.0283 -79.0280 -79.0244 -79.0244
   -79.0243 -79.0241 -79.0241 -79.0241 -79.0235 -79.0235 -79.0233 -79.0232
   -79.0232 -79.0231 -79.0228 -79.0227 -79.0226 -79.0225 -79.0221 -79.0220
   -79.0220 -79.0218 -79.0217 -79.0216 -79.0216 -79.0215 -79.0213 -79.0213
   -79.0212 -79.0211 -79.0210 -79.0209 -79.0208 -79.0207 -79.0206 -79.0206
   -79.0205 -79.0205 -79.0204 -79.0204 -79.0203 -79.0202 -79.0201 -79.0201
   -79.0200 -79.0198 -79.0187 -79.0184 -79.0155 -79.0155 -79.0153 -79.0153
   -79.0130 -79.0130 -79.0127 -79.0127 -79.0089 -79.0089 -79.0087 -79.0086
   -79.0086 -79.0086 -79.0084 -79.0083 -79.0063 -79.0063 -79.0061 -79.0061
   -79.0051 -79.0048 -79.0040 -79.0040 -79.0038 -79.0037 -79.0029 -79.0027
   -79.0005 -79.0002 -79.0002 -79.0001 -78.9999 -78.9999 -78.9983 -78.9983
   -78.9980 -78.9980 -78.9970 -78.9967 -78.9955 -78.9952 -78.9945 -78.9942
    -8.5028  -7.6194  -7.3002  -7.2475  -7.2475  -7.0300  -6.8985  -6.8723
    -6.8723  -6.8494  -6.8458  -6.8458  -6.7069  -6.6920  -6.6920  -6.6908
    -6.6758  -6.6630  -6.6385  -6.6385  -6.5903  -6.5807  -6.5778  -6.5778
    -6.5681  -6.5681  -6.5487  -6.5487  -6.5286  -6.5286  -6.5189  -6.5189
    -6.5174  -6.5125  -6.5125  -6.5097  -6.5097  -6.5027  -6.5027  -6.4869
    -6.4869  -6.4612  -6.4612  -6.4236  -6.4236  -6.3956  -6.3956  -6.3806
    -6.3806  -6.3765  -6.3226  -6.3178  -6.3178  -6.3161  -6.3161  -6.3159
    -6.3159  -6.2695  -6.2695  -6.2602  -6.2525  -6.2302  -6.2302  -6.2240
    -6.2240  -6.2224  -6.2224  -6.2224  -6.2090  -6.2090  -6.2052  -6.2052
    -6.1962  -6.1962  -6.1846  -6.1846  -6.1806  -6.1790  -6.1790  -6.1550
    -6.1387  -6.1241  -6.1241  -6.1149  -6.1148  -6.1012  -6.1012  -6.0938
    -6.0912  -6.0912  -6.0788  -6.0642  -6.0642  -6.0506  -6.0506  -6.0494
    -6.0494  -5.9598  -5.9598  -5.9597  -5.9597  -5.9444  -5.9418  -5.9379
    -5.9379  -5.9356  -5.9356  -5.9250  -5.9250  -5.9136  -5.9120  -5.9120
    -5.8938  -5.8938  -5.8900  -5.8865  -5.8822  -5.8748  -5.8748  -5.8694
    -5.8468  -5.8468  -5.8400  -5.8400  -5.8258  -5.8121  -5.7963  -5.7963
    -5.7962  -5.7962  -5.7874  -5.7874  -5.7775  -5.7775  -5.7766  -5.7737
    -5.7737  -5.7561  -5.7561  -5.7485  -5.7485  -5.7408  -5.7312  -5.7312
    -5.7154  -5.7140  -5.7140  -5.7059  -5.7059  -5.6983  -5.6983  -5.6958
    -5.6958  -5.6930  -5.6930  -5.6800  -5.6687  -5.6687  -5.6578  -5.6451
    -5.6401  -5.6401  -5.6344  -5.6344  -5.6193  -5.6193  -5.6179  -5.6171
    -5.6171  -5.6133  -5.6125  -5.6062  -5.6062  -5.5804  -5.5648  -5.5616
    -5.5616  -5.5573  -5.5573  -5.5487  -5.5487  -5.5463  -5.5463  -5.5449
    -5.5449  -5.5417  -5.5274  -5.5274  -5.5267  -5.5222  -5.5222  -5.5132
    -5.5132  -5.4921  -5.4921  -5.4637  -5.4611  -5.4589  -5.4589  -5.4549
    -5.4549  -5.4527  -5.4527  -5.4406  -5.4406  -5.4315  -5.4267  -5.4267
    -5.4244  -5.4210  -5.4152  -5.4150  -5.4038  -5.4038  -5.4004  -5.4004
    -5.3894  -5.3877  -5.3877  -5.3814  -5.3697  -5.3697  -5.3653  -5.3601
    -5.3466  -5.3466  -5.3420  -5.3331  -5.3208  -5.3208  -5.3145  -5.3125
    -5.3124  -5.3027  -5.3027  -5.2940  -5.2940  -5.2835  -5.2835  -5.1442
    -5.1442  -5.1301  -5.1301  -5.1246  -5.1246  -5.1063  -5.1056  -4.9477
    -4.9344  -4.6385  -4.6385  -3.8809  -3.8809  -3.4797  -3.3939  -3.3939
    -3.3654  -2.6735  -2.3016  -2.3016  -2.2219  -2.0211  -2.0211  -1.9712
    -1.9712  -1.5145  -1.5145  -1.2921  -1.2921  -1.1166  -0.7948  -0.5729
    -0.5729  -0.5608  -0.5608  -0.5520   0.0239   0.0239   0.2693   0.2693
     0.5600   0.5600   0.6334   0.8765   0.8983   0.8983   1.1835   1.1835
     1.5566   1.5566   2.2262   2.2262   2.6478   2.6963   2.6963   2.7209
     2.7829   2.7829   2.9505   2.9505   3.2221   3.5468   3.6912   3.6912
     3.9090   3.9090   4.1145   4.1849   4.1849   4.5586   4.5586   4.8022
     4.8022   4.8433   4.8433   5.1519   5.1519   5.1605   5.1605   5.2341
     5.4283   5.4283   5.5123   5.5683   5.6431   5.7935   5.7935   5.8086
     6.0942   6.0942   6.1346   6.3130   6.3130   6.4002   6.4317   6.5835
     6.5836   6.5947   6.5947   6.6156   6.7110   6.8905   6.8906   7.0105
     7.0105   7.0868   7.0868   7.1741   7.1741   7.3088   7.3088   7.3248
     7.4479   7.4479   7.4651   7.4651   7.5141   7.6570   7.6570   7.7665
     7.7842   7.7842   7.7937   7.7938   7.9464   7.9464   7.9613   7.9614
     8.0323   8.0323   8.2658   8.3379   8.4211   8.5501   8.6985   8.7187
     8.7189   8.8078   8.8082   8.8082   8.8283   8.8283   8.8361   8.8361

     occupation numbers 
     1.0000   1.0000   1.0000   1.0000   1.0000   1.0000   1.0000   1.0000
     1.0000   1.0000   1.0000   1.0000   1.0000   1.0000   1.0000   1.0000
     1.0000   1.0000   1.0000   1.0000   1.0000   1.0000   1.0000   1.0000
     1.0000   1.0000   1.0000   1.0000   1.0000   1.0000   1.0000   1.0000
     1.0000   1.0000   1.0000   1.0000   1.0000   1.0000   1.0000   1.0000
     1.0000   1.0000   1.0000   1.0000   1.0000   1.0000   1.0000   1.0000
     1.0000   1.0000   1.0000   1.0000   1.0000   1.0000   1.0000   1.0000
     1.0000   1.0000   1.0000   1.0000   1.0000   1.0000   1.0000   1.0000
     1.0000   1.0000   1.0000   1.0000   1.0000   1.0000   1.0000   1.0000
     1.0000   1.0000   1.0000   1.0000   1.0000   1.0000   1.0000   1.0000
     1.0000   1.0000   1.0000   1.0000   1.0000   1.0000   1.0000   1.0000
     1.0000   1.0000   1.0000   1.0000   1.0000   1.0000   1.0000   1.0000
     1.0000   1.0000   1.0000   1.0000   1.0000   1.0000   1.0000   1.0000
     1.0000   1.0000   1.0000   1.0000   1.0000   1.0000   1.0000   1.0000
     1.0000   1.0000   1.0000   1.0000   1.0000   1.0000   1.0000   1.0000
     1.0000   1.0000   1.0000   1.0000   1.0000   1.0000   1.0000   1.0000
     1.0000   1.0000   1.0000   1.0000   1.0000   1.0000   1.0000   1.0000
     1.0000   1.0000   1.0000   1.0000   1.0000   1.0000   1.0000   1.0000
     1.0000   1.0000   1.0000   1.0000   1.0000   1.0000   1.0000   1.0000
     1.0000   1.0000   1.0000   1.0000   1.0000   1.0000   1.0000   1.0000
     1.0000   1.0000   1.0000   1.0000   1.0000   1.0000   1.0000   1.0000
     1.0000   1.0000   1.0000   1.0000   1.0000   1.0000   1.0000   1.0000
     1.0000   1.0000   1.0000   1.0000   1.0000   1.0000   1.0000   1.0000
     1.0000   1.0000   1.0000   1.0000   1.0000   1.0000   1.0000   1.0000
     1.0000   1.0000   1.0000   1.0000   1.0000   1.0000   1.0000   1.0000
     1.0000   1.0000   1.0000   1.0000   1.0000   1.0000   1.0000   1.0000
     1.0000   1.0000   1.0000   1.0000   1.0000   1.0000   1.0000   1.0000
     1.0000   1.0000   1.0000   1.0000   1.0000   1.0000   1.0000   1.0000
     1.0000   1.0000   1.0000   1.0000   1.0000   1.0000   1.0000   1.0000
     1.0000   1.0000   1.0000   1.0000   1.0000   1.0000   1.0000   1.0000
     1.0000   1.0000   1.0000   1.0000   1.0000   1.0000   1.0000   1.0000
     1.0000   1.0000   1.0000   1.0000   1.0000   1.0000   1.0000   1.0000
     1.0000   1.0000   1.0000   1.0000   1.0000   1.0000   1.0000   1.0000
     1.0000   1.0000   1.0000   1.0000   1.0000   1.0000   1.0000   1.0000
     1.0000   1.0000   1.0000   1.0000   1.0000   1.0000   1.0000   1.0000
     1.0000   1.0000   1.0000   1.0000   1.0000   1.0000   1.0000   1.0000
     1.0000   1.0000   1.0000   1.0000   1.0000   1.0000   1.0000   1.0000
     1.0000   1.0000   1.0000   1.0000   1.0000   1.0000   1.0000   1.0000
     1.0000   1.0000   1.0000   1.0000   1.0000   1.0000   1.0000   1.0000
     1.0000   1.0000   1.0000   1.0000   1.0000   1.0000   1.0000   1.0000
     1.0000   1.0000   1.0000   1.0000   1.0000   1.0000   1.0000   1.0000
     1.0000   1.0000   1.0000   1.0000   1.0000   1.0000   1.0000   1.0000
     1.0000   1.0000   1.0000   1.0000   1.0000   1.0000   1.0000   1.0000
     1.0000   1.0000   1.0000   1.0000   1.0000   1.0000   1.0000   1.0000
     1.0000   1.0000   1.0000   1.0000   1.0000   1.0000   1.0000   1.0000
     1.0000   1.0000   1.0000   1.0000   1.0000   1.0000   1.0000   1.0000
     1.0000   1.0000   1.0000   1.0000   1.0000   1.0000   1.0000   1.0000
     1.0000   1.0000   1.0000   1.0000   1.0000   1.0000   1.0000   1.0000
     1.0000   1.0000   1.0000   1.0000   1.0000   1.0000   1.0000   1.0000
     1.0000   1.0000   1.0000   1.0000   1.0000   1.0000   1.0000   1.0000
     1.0000   1.0000   1.0000   1.0000   1.0000   1.0000   1.0000   1.0000
     1.0000   1.0000   1.0000   1.0000   1.0000   1.0000   1.0000   1.0000
     1.0000   1.0000   1.0000   1.0000   1.0000   1.0000   1.0000   1.0000
     1.0000   1.0000   1.0000   1.0000   1.0000   1.0000   1.0000   1.0000
     1.0000   1.0000   1.0000   1.0000   1.0000   1.0000   1.0000   1.0000
     1.0000   1.0000   1.0000   1.0000   1.0000   1.0000   1.0000   1.0000
     1.0000   1.0000   1.0000   1.0000   1.0000   1.0000   1.0000   1.0000
     1.0000   1.0000   1.0000   1.0000   1.0000   1.0000   1.0000   1.0000
     1.0000   1.0000   1.0000   1.0000   1.0000   1.0000   1.0000   1.0000
     1.0006   1.0006   1.0019   1.0374   1.0444   1.0444   0.9985   0.9985
     0.1540   0.1540   0.0000   0.0000   0.0000   0.0000   0.0000   0.0000
     0.0000   0.0000   0.0000   0.0000   0.0000   0.0000   0.0000   0.0000
     0.0000   0.0000   0.0000   0.0000   0.0000   0.0000   0.0000   0.0000
     0.0000   0.0000   0.0000   0.0000   0.0000   0.0000   0.0000   0.0000
     0.0000   0.0000   0.0000   0.0000   0.0000   0.0000   0.0000   0.0000
     0.0000   0.0000   0.0000   0.0000   0.0000   0.0000   0.0000   0.0000
     0.0000   0.0000   0.0000   0.0000   0.0000   0.0000   0.0000   0.0000
     0.0000   0.0000   0.0000   0.0000   0.0000   0.0000   0.0000   0.0000
     0.0000   0.0000   0.0000   0.0000   0.0000   0.0000   0.0000   0.0000
     0.0000   0.0000   0.0000   0.0000   0.0000   0.0000   0.0000   0.0000
     0.0000   0.0000   0.0000   0.0000   0.0000   0.0000   0.0000   0.0000
     0.0000   0.0000   0.0000   0.0000   0.0000   0.0000   0.0000   0.0000

          k = 0.0000-0.5774 0.0000 ( 90628 PWs)   bands (ev):

  -125.0711-125.0708-125.0700-125.0699-125.0690-125.0689-125.0687-125.0687
  -125.0683-125.0682-125.0679-125.0679-125.0676-125.0674-125.0672-125.0671
  -124.8671-124.8668-124.8668-124.8666-124.8660-124.8660-124.8658-124.8657
  -124.8649-124.8648-124.8648-124.8647-124.8647-124.8646-124.8645-124.8645
  -124.8644-124.8642-124.8641-124.8641-124.8640-124.8639-124.8638-124.8638
  -124.8636-124.8636-124.8636-124.8634-124.8634-124.8633-124.8631-124.8630
   -79.2345 -79.2345 -79.2341 -79.2341 -79.2321 -79.2317 -79.2308 -79.2308
   -79.2263 -79.2263 -79.2263 -79.2263 -79.2216 -79.2216 -79.2195 -79.2191
   -79.2182 -79.2182 -79.2171 -79.2170 -79.2168 -79.2168 -79.2164 -79.2163
   -79.2160 -79.2159 -79.2157 -79.2155 -79.2152 -79.2151 -79.2150 -79.2150
   -79.2136 -79.2136 -79.2132 -79.2132 -79.2102 -79.2102 -79.2102 -79.2102
   -79.2094 -79.2090 -79.2069 -79.2066 -79.2056 -79.2056 -79.2030 -79.2026
   -79.0271 -79.0270 -79.0268 -79.0268 -79.0267 -79.0267 -79.0266 -79.0264
   -79.0246 -79.0243 -79.0243 -79.0241 -79.0241 -79.0238 -79.0238 -79.0235
   -79.0235 -79.0235 -79.0232 -79.0232 -79.0229 -79.0228 -79.0227 -79.0226
   -79.0217 -79.0216 -79.0216 -79.0215 -79.0215 -79.0214 -79.0214 -79.0213
   -79.0212 -79.0210 -79.0209 -79.0208 -79.0208 -79.0206 -79.0206 -79.0205
   -79.0204 -79.0204 -79.0203 -79.0202 -79.0201 -79.0200 -79.0199 -79.0197
   -79.0190 -79.0190 -79.0189 -79.0189 -79.0187 -79.0187 -79.0187 -79.0187
   -79.0142 -79.0142 -79.0140 -79.0139 -79.0076 -79.0076 -79.0074 -79.0073
   -79.0063 -79.0061 -79.0060 -79.0060 -79.0059 -79.0058 -79.0058 -79.0056
   -79.0029 -79.0029 -79.0029 -79.0028 -79.0026 -79.0026 -79.0026 -79.0026
   -79.0020 -79.0017 -79.0017 -79.0015 -78.9995 -78.9992 -78.9992 -78.9990
   -78.9983 -78.9983 -78.9981 -78.9980 -78.9956 -78.9953 -78.9953 -78.9951
    -8.1551  -8.1548  -7.3162  -7.3162  -7.0259  -7.0257  -6.8648  -6.8645
    -6.8601  -6.8597  -6.7501  -6.7501  -6.7498  -6.7498  -6.6541  -6.6538
    -6.6472  -6.6472  -6.6472  -6.6472  -6.6251  -6.6248  -6.6075  -6.6074
    -6.6072  -6.6071  -6.5543  -6.5543  -6.5293  -6.5293  -6.5291  -6.5290
    -6.5063  -6.5063  -6.4878  -6.4878  -6.4878  -6.4878  -6.4635  -6.4635
    -6.4635  -6.4635  -6.4614  -6.4611  -6.4501  -6.4501  -6.4266  -6.4266
    -6.4225  -6.4224  -6.4222  -6.4222  -6.3107  -6.3107  -6.3020  -6.3020
    -6.2936  -6.2936  -6.2936  -6.2936  -6.2923  -6.2921  -6.2715  -6.2714
    -6.2712  -6.2711  -6.2373  -6.2371  -6.2217  -6.2217  -6.2217  -6.2217
    -6.2066  -6.2066  -6.2018  -6.2018  -6.1710  -6.1707  -6.1429  -6.1429
    -6.1123  -6.1123  -6.1039  -6.1039  -6.0833  -6.0833  -6.0831  -6.0831
    -6.0625  -6.0625  -6.0625  -6.0625  -6.0426  -6.0426  -6.0330  -6.0330
    -6.0267  -6.0265  -6.0231  -6.0228  -6.0101  -6.0097  -5.9907  -5.9907
    -5.9907  -5.9907  -5.9475  -5.9475  -5.9466  -5.9463  -5.9161  -5.9159
    -5.9061  -5.9061  -5.8728  -5.8727  -5.8725  -5.8724  -5.8158  -5.8156
    -5.8100  -5.8100  -5.8095  -5.8095  -5.8095  -5.8095  -5.8060  -5.8057
    -5.7880  -5.7880  -5.7858  -5.7855  -5.7769  -5.7769  -5.7767  -5.7767
    -5.7692  -5.7689  -5.7684  -5.7684  -5.7684  -5.7684  -5.7565  -5.7565
    -5.7547  -5.7547  -5.7546  -5.7546  -5.6760  -5.6760  -5.6747  -5.6747
    -5.6679  -5.6679  -5.6463  -5.6463  -5.6463  -5.6463  -5.6320  -5.6317
    -5.6247  -5.6247  -5.6056  -5.6055  -5.6054  -5.6053  -5.5952  -5.5952
    -5.5712  -5.5710  -5.5448  -5.5445  -5.5300  -5.5300  -5.5298  -5.5298
    -5.5273  -5.5273  -5.5273  -5.5273  -5.5240  -5.5240  -5.5219  -5.5217
    -5.5002  -5.5000  -5.5000  -5.4998  -5.4900  -5.4899  -5.4898  -5.4897
    -5.4880  -5.4880  -5.4798  -5.4798  -5.4650  -5.4650  -5.4650  -5.4650
    -5.4528  -5.4526  -5.4526  -5.4524  -5.4408  -5.4408  -5.4239  -5.4236
    -5.4166  -5.4166  -5.4165  -5.4164  -5.4135  -5.4135  -5.4129  -5.4129
    -5.4067  -5.4067  -5.4037  -5.4035  -5.4010  -5.4007  -5.3717  -5.3714
    -5.3636  -5.3636  -5.3636  -5.3636  -5.3252  -5.3252  -5.3252  -5.3252
    -5.2552  -5.2551  -5.2550  -5.2548  -5.2360  -5.2360  -5.2353  -5.2351
    -5.2351  -5.2349  -5.2023  -5.2020  -5.1996  -5.1993  -4.7023  -4.7023
    -4.4186  -4.4186  -4.4186  -4.4186  -3.7282  -3.7281  -3.1106  -3.1104
    -3.0614  -3.0614  -3.0614  -3.0614  -2.3912  -2.3912  -2.2395  -2.2394
    -1.7579  -1.7579  -1.7576  -1.7576  -0.7549  -0.7549  -0.7549  -0.7549
    -0.3254  -0.3254  -0.3252  -0.3251  -0.0903  -0.0901   0.0134   0.0135
     1.0212   1.0212   1.0492   1.0492   1.3383   1.3383   1.3699   1.3699
     1.3700   1.3700   2.2234   2.2234   2.9006   2.9007   2.9007   2.9008
     3.1016   3.1016   3.1016   3.1016   3.3228   3.3228   3.5574   3.5576
     3.8669   3.8669   3.8670   3.8670   3.9983   3.9983   4.2583   4.2583
     4.4495   4.4495   4.7460   4.7460   4.8577   4.8577   5.4839   5.4839
     5.5720   5.5721   5.8013   5.8013   5.8572   5.8574   5.9295   5.9296
     5.9297   5.9298   5.9836   5.9836   5.9836   5.9836   6.1559   6.1559
     6.1559   6.1559   6.4722   6.4722   6.5601   6.5601   6.7477   6.7479
     6.7760   6.7761   6.8681   6.8681   6.9529   6.9531   7.0146   7.0146
     7.0146   7.0146   7.6703   7.6703   7.8507   7.8508   8.0646   8.0646
     8.1145   8.1145   8.1145   8.1146   8.2814   8.2815   8.6089   8.6090
     8.6090   8.6090   8.6527   8.6527   8.6527   8.6527   8.7370   8.7370
     8.7667   8.7669   8.8844   8.8845   9.0016   9.0016   9.0018   9.0018

     occupation numbers 
     1.0000   1.0000   1.0000   1.0000   1.0000   1.0000   1.0000   1.0000
     1.0000   1.0000   1.0000   1.0000   1.0000   1.0000   1.0000   1.0000
     1.0000   1.0000   1.0000   1.0000   1.0000   1.0000   1.0000   1.0000
     1.0000   1.0000   1.0000   1.0000   1.0000   1.0000   1.0000   1.0000
     1.0000   1.0000   1.0000   1.0000   1.0000   1.0000   1.0000   1.0000
     1.0000   1.0000   1.0000   1.0000   1.0000   1.0000   1.0000   1.0000
     1.0000   1.0000   1.0000   1.0000   1.0000   1.0000   1.0000   1.0000
     1.0000   1.0000   1.0000   1.0000   1.0000   1.0000   1.0000   1.0000
     1.0000   1.0000   1.0000   1.0000   1.0000   1.0000   1.0000   1.0000
     1.0000   1.0000   1.0000   1.0000   1.0000   1.0000   1.0000   1.0000
     1.0000   1.0000   1.0000   1.0000   1.0000   1.0000   1.0000   1.0000
     1.0000   1.0000   1.0000   1.0000   1.0000   1.0000   1.0000   1.0000
     1.0000   1.0000   1.0000   1.0000   1.0000   1.0000   1.0000   1.0000
     1.0000   1.0000   1.0000   1.0000   1.0000   1.0000   1.0000   1.0000
     1.0000   1.0000   1.0000   1.0000   1.0000   1.0000   1.0000   1.0000
     1.0000   1.0000   1.0000   1.0000   1.0000   1.0000   1.0000   1.0000
     1.0000   1.0000   1.0000   1.0000   1.0000   1.0000   1.0000   1.0000
     1.0000   1.0000   1.0000   1.0000   1.0000   1.0000   1.0000   1.0000
     1.0000   1.0000   1.0000   1.0000   1.0000   1.0000   1.0000   1.0000
     1.0000   1.0000   1.0000   1.0000   1.0000   1.0000   1.0000   1.0000
     1.0000   1.0000   1.0000   1.0000   1.0000   1.0000   1.0000   1.0000
     1.0000   1.0000   1.0000   1.0000   1.0000   1.0000   1.0000   1.0000
     1.0000   1.0000   1.0000   1.0000   1.0000   1.0000   1.0000   1.0000
     1.0000   1.0000   1.0000   1.0000   1.0000   1.0000   1.0000   1.0000
     1.0000   1.0000   1.0000   1.0000   1.0000   1.0000   1.0000   1.0000
     1.0000   1.0000   1.0000   1.0000   1.0000   1.0000   1.0000   1.0000
     1.0000   1.0000   1.0000   1.0000   1.0000   1.0000   1.0000   1.0000
     1.0000   1.0000   1.0000   1.0000   1.0000   1.0000   1.0000   1.0000
     1.0000   1.0000   1.0000   1.0000   1.0000   1.0000   1.0000   1.0000
     1.0000   1.0000   1.0000   1.0000   1.0000   1.0000   1.0000   1.0000
     1.0000   1.0000   1.0000   1.0000   1.0000   1.0000   1.0000   1.0000
     1.0000   1.0000   1.0000   1.0000   1.0000   1.0000   1.0000   1.0000
     1.0000   1.0000   1.0000   1.0000   1.0000   1.0000   1.0000   1.0000
     1.0000   1.0000   1.0000   1.0000   1.0000   1.0000   1.0000   1.0000
     1.0000   1.0000   1.0000   1.0000   1.0000   1.0000   1.0000   1.0000
     1.0000   1.0000   1.0000   1.0000   1.0000   1.0000   1.0000   1.0000
     1.0000   1.0000   1.0000   1.0000   1.0000   1.0000   1.0000   1.0000
     1.0000   1.0000   1.0000   1.0000   1.0000   1.0000   1.0000   1.0000
     1.0000   1.0000   1.0000   1.0000   1.0000   1.0000   1.0000   1.0000
     1.0000   1.0000   1.0000   1.0000   1.0000   1.0000   1.0000   1.0000
     1.0000   1.0000   1.0000   1.0000   1.0000   1.0000   1.0000   1.0000
     1.0000   1.0000   1.0000   1.0000   1.0000   1.0000   1.0000   1.0000
     1.0000   1.0000   1.0000   1.0000   1.0000   1.0000   1.0000   1.0000
     1.0000   1.0000   1.0000   1.0000   1.0000   1.0000   1.0000   1.0000
     1.0000   1.0000   1.0000   1.0000   1.0000   1.0000   1.0000   1.0000
     1.0000   1.0000   1.0000   1.0000   1.0000   1.0000   1.0000   1.0000
     1.0000   1.0000   1.0000   1.0000   1.0000   1.0000   1.0000   1.0000
     1.0000   1.0000   1.0000   1.0000   1.0000   1.0000   1.0000   1.0000
     1.0000   1.0000   1.0000   1.0000   1.0000   1.0000   1.0000   1.0000
     1.0000   1.0000   1.0000   1.0000   1.0000   1.0000   1.0000   1.0000
     1.0000   1.0000   1.0000   1.0000   1.0000   1.0000   1.0000   1.0000
     1.0000   1.0000   1.0000   1.0000   1.0000   1.0000   1.0000   1.0000
     1.0000   1.0000   1.0000   1.0000   1.0000   1.0000   1.0000   1.0000
     1.0000   1.0000   1.0000   1.0000   1.0000   1.0000   1.0000   1.0000
     1.0000   1.0000   1.0000   1.0000   1.0000   1.0000   1.0000   1.0000
     1.0000   1.0000   1.0000   1.0000   1.0000   1.0000   1.0000   1.0000
     1.0000   1.0000   1.0000   1.0000   1.0000   1.0000   1.0000   1.0000
     1.0000   1.0000   1.0000   1.0000   1.0000   1.0000   1.0000   1.0000
     1.0000   1.0000   1.0000   1.0000   1.0000   1.0000   1.0000   1.0000
     1.0812   1.0812   1.0833   1.0833   0.6567   0.6567   0.5693   0.5693
     0.5689   0.5689   0.0000   0.0000   0.0000   0.0000   0.0000   0.0000
     0.0000   0.0000   0.0000   0.0000   0.0000   0.0000   0.0000   0.0000
     0.0000   0.0000   0.0000   0.0000   0.0000   0.0000   0.0000   0.0000
     0.0000   0.0000   0.0000   0.0000   0.0000   0.0000   0.0000   0.0000
     0.0000   0.0000   0.0000   0.0000   0.0000   0.0000   0.0000   0.0000
     0.0000   0.0000   0.0000   0.0000   0.0000   0.0000   0.0000   0.0000
     0.0000   0.0000   0.0000   0.0000   0.0000   0.0000   0.0000   0.0000
     0.0000   0.0000   0.0000   0.0000   0.0000   0.0000   0.0000   0.0000
     0.0000   0.0000   0.0000   0.0000   0.0000   0.0000   0.0000   0.0000
     0.0000   0.0000   0.0000   0.0000   0.0000   0.0000   0.0000   0.0000
     0.0000   0.0000   0.0000   0.0000   0.0000   0.0000   0.0000   0.0000
     0.0000   0.0000   0.0000   0.0000   0.0000   0.0000   0.0000   0.0000

          k = 0.2500 0.1443 0.0000 ( 90617 PWs)   bands (ev):

  -125.0714-125.0705-125.0699-125.0697-125.0694-125.0692-125.0688-125.0685
  -125.0684-125.0681-125.0678-125.0677-125.0677-125.0675-125.0672-125.0671
  -124.8673-124.8671-124.8664-124.8662-124.8659-124.8658-124.8657-124.8655
  -124.8654-124.8653-124.8651-124.8650-124.8648-124.8646-124.8645-124.8644
  -124.8642-124.8641-124.8640-124.8640-124.8639-124.8638-124.8638-124.8637
  -124.8637-124.8636-124.8635-124.8634-124.8634-124.8633-124.8632-124.8630
   -79.2363 -79.2363 -79.2357 -79.2318 -79.2318 -79.2309 -79.2308 -79.2289
   -79.2289 -79.2261 -79.2229 -79.2229 -79.2204 -79.2203 -79.2198 -79.2188
   -79.2181 -79.2179 -79.2176 -79.2174 -79.2169 -79.2166 -79.2164 -79.2163
   -79.2163 -79.2161 -79.2160 -79.2159 -79.2159 -79.2158 -79.2157 -79.2155
   -79.2152 -79.2151 -79.2137 -79.2137 -79.2124 -79.2114 -79.2113 -79.2102
   -79.2079 -79.2075 -79.2074 -79.2056 -79.2056 -79.2043 -79.2028 -79.2018
   -79.0289 -79.0289 -79.0286 -79.0286 -79.0283 -79.0280 -79.0244 -79.0244
   -79.0243 -79.0241 -79.0241 -79.0241 -79.0235 -79.0235 -79.0233 -79.0232
   -79.0232 -79.0231 -79.0228 -79.0227 -79.0226 -79.0224 -79.0222 -79.0221
   -79.0220 -79.0219 -79.0216 -79.0216 -79.0216 -79.0214 -79.0213 -79.0213
   -79.0212 -79.0211 -79.0211 -79.0209 -79.0207 -79.0207 -79.0206 -79.0205
   -79.0205 -79.0205 -79.0205 -79.0204 -79.0203 -79.0202 -79.0201 -79.0200
   -79.0199 -79.0198 -79.0187 -79.0184 -79.0155 -79.0155 -79.0153 -79.0152
   -79.0130 -79.0130 -79.0127 -79.0127 -79.0089 -79.0089 -79.0087 -79.0086
   -79.0086 -79.0086 -79.0084 -79.0083 -79.0063 -79.0063 -79.0061 -79.0061
   -79.0051 -79.0048 -79.0040 -79.0040 -79.0038 -79.0037 -79.0029 -79.0027
   -79.0005 -79.0003 -79.0002 -79.0001 -78.9999 -78.9999 -78.9983 -78.9983
   -78.9981 -78.9980 -78.9970 -78.9967 -78.9955 -78.9952 -78.9945 -78.9942
    -8.5028  -7.6194  -7.3002  -7.2475  -7.2475  -7.0300  -6.8985  -6.8723
    -6.8723  -6.8494  -6.8458  -6.8458  -6.7069  -6.6920  -6.6920  -6.6908
    -6.6758  -6.6630  -6.6385  -6.6385  -6.5903  -6.5807  -6.5778  -6.5778
    -6.5681  -6.5681  -6.5487  -6.5487  -6.5286  -6.5286  -6.5189  -6.5189
    -6.5174  -6.5125  -6.5125  -6.5097  -6.5097  -6.5027  -6.5027  -6.4869
    -6.4869  -6.4612  -6.4612  -6.4236  -6.4236  -6.3956  -6.3956  -6.3806
    -6.3806  -6.3765  -6.3226  -6.3178  -6.3178  -6.3161  -6.3161  -6.3159
    -6.3159  -6.2695  -6.2695  -6.2602  -6.2525  -6.2302  -6.2302  -6.2240
    -6.2240  -6.2224  -6.2224  -6.2224  -6.2090  -6.2090  -6.2052  -6.2052
    -6.1962  -6.1962  -6.1846  -6.1846  -6.1806  -6.1790  -6.1790  -6.1550
    -6.1387  -6.1241  -6.1241  -6.1149  -6.1148  -6.1012  -6.1012  -6.0938
    -6.0912  -6.0912  -6.0788  -6.0642  -6.0642  -6.0506  -6.0506  -6.0494
    -6.0494  -5.9598  -5.9598  -5.9597  -5.9597  -5.9444  -5.9418  -5.9379
    -5.9379  -5.9356  -5.9356  -5.9250  -5.9250  -5.9136  -5.9120  -5.9120
    -5.8938  -5.8938  -5.8900  -5.8865  -5.8822  -5.8748  -5.8748  -5.8694
    -5.8468  -5.8468  -5.8400  -5.8400  -5.8258  -5.8121  -5.7963  -5.7963
    -5.7962  -5.7962  -5.7874  -5.7874  -5.7775  -5.7775  -5.7766  -5.7737
    -5.7737  -5.7561  -5.7561  -5.7485  -5.7485  -5.7408  -5.7312  -5.7312
    -5.7154  -5.7140  -5.7140  -5.7059  -5.7059  -5.6983  -5.6983  -5.6958
    -5.6958  -5.6930  -5.6930  -5.6800  -5.6687  -5.6687  -5.6578  -5.6451
    -5.6401  -5.6401  -5.6344  -5.6344  -5.6193  -5.6193  -5.6179  -5.6171
    -5.6171  -5.6133  -5.6125  -5.6062  -5.6062  -5.5804  -5.5648  -5.5616
    -5.5616  -5.5573  -5.5573  -5.5487  -5.5487  -5.5463  -5.5463  -5.5449
    -5.5449  -5.5417  -5.5274  -5.5274  -5.5267  -5.5222  -5.5222  -5.5132
    -5.5132  -5.4921  -5.4921  -5.4637  -5.4611  -5.4589  -5.4589  -5.4549
    -5.4549  -5.4527  -5.4527  -5.4406  -5.4406  -5.4315  -5.4267  -5.4267
    -5.4244  -5.4210  -5.4152  -5.4150  -5.4038  -5.4038  -5.4004  -5.4004
    -5.3894  -5.3877  -5.3877  -5.3814  -5.3697  -5.3697  -5.3653  -5.3601
    -5.3466  -5.3466  -5.3420  -5.3331  -5.3208  -5.3208  -5.3145  -5.3125
    -5.3124  -5.3027  -5.3027  -5.2940  -5.2940  -5.2835  -5.2835  -5.1442
    -5.1442  -5.1301  -5.1301  -5.1246  -5.1246  -5.1063  -5.1056  -4.9477
    -4.9344  -4.6385  -4.6385  -3.8809  -3.8809  -3.4797  -3.3939  -3.3939
    -3.3654  -2.6735  -2.3016  -2.3016  -2.2219  -2.0211  -2.0211  -1.9712
    -1.9712  -1.5145  -1.5145  -1.2921  -1.2921  -1.1166  -0.7948  -0.5729
    -0.5729  -0.5608  -0.5608  -0.5520   0.0239   0.0239   0.2693   0.2693
     0.5600   0.5600   0.6334   0.8765   0.8983   0.8983   1.1835   1.1835
     1.5566   1.5566   2.2262   2.2262   2.6478   2.6963   2.6963   2.7209
     2.7829   2.7829   2.9505   2.9505   3.2221   3.5468   3.6912   3.6912
     3.9090   3.9090   4.1145   4.1849   4.1849   4.5586   4.5586   4.8022
     4.8022   4.8433   4.8433   5.1519   5.1519   5.1605   5.1605   5.2341
     5.4283   5.4283   5.5123   5.5683   5.6431   5.7935   5.7935   5.8086
     6.0942   6.0942   6.1346   6.3130   6.3130   6.4002   6.4317   6.5835
     6.5836   6.5947   6.5947   6.6156   6.7110   6.8905   6.8906   7.0105
     7.0105   7.0868   7.0868   7.1741   7.1741   7.3088   7.3088   7.3248
     7.4479   7.4479   7.4651   7.4651   7.5141   7.6570   7.6570   7.7665
     7.7842   7.7842   7.7937   7.7938   7.9464   7.9464   7.9613   7.9614
     8.0323   8.0323   8.2658   8.3379   8.4211   8.5501   8.6985   8.7187
     8.7188   8.8078   8.8082   8.8082   8.8283   8.8283   8.8361   8.8361

     occupation numbers 
     1.0000   1.0000   1.0000   1.0000   1.0000   1.0000   1.0000   1.0000
     1.0000   1.0000   1.0000   1.0000   1.0000   1.0000   1.0000   1.0000
     1.0000   1.0000   1.0000   1.0000   1.0000   1.0000   1.0000   1.0000
     1.0000   1.0000   1.0000   1.0000   1.0000   1.0000   1.0000   1.0000
     1.0000   1.0000   1.0000   1.0000   1.0000   1.0000   1.0000   1.0000
     1.0000   1.0000   1.0000   1.0000   1.0000   1.0000   1.0000   1.0000
     1.0000   1.0000   1.0000   1.0000   1.0000   1.0000   1.0000   1.0000
     1.0000   1.0000   1.0000   1.0000   1.0000   1.0000   1.0000   1.0000
     1.0000   1.0000   1.0000   1.0000   1.0000   1.0000   1.0000   1.0000
     1.0000   1.0000   1.0000   1.0000   1.0000   1.0000   1.0000   1.0000
     1.0000   1.0000   1.0000   1.0000   1.0000   1.0000   1.0000   1.0000
     1.0000   1.0000   1.0000   1.0000   1.0000   1.0000   1.0000   1.0000
     1.0000   1.0000   1.0000   1.0000   1.0000   1.0000   1.0000   1.0000
     1.0000   1.0000   1.0000   1.0000   1.0000   1.0000   1.0000   1.0000
     1.0000   1.0000   1.0000   1.0000   1.0000   1.0000   1.0000   1.0000
     1.0000   1.0000   1.0000   1.0000   1.0000   1.0000   1.0000   1.0000
     1.0000   1.0000   1.0000   1.0000   1.0000   1.0000   1.0000   1.0000
     1.0000   1.0000   1.0000   1.0000   1.0000   1.0000   1.0000   1.0000
     1.0000   1.0000   1.0000   1.0000   1.0000   1.0000   1.0000   1.0000
     1.0000   1.0000   1.0000   1.0000   1.0000   1.0000   1.0000   1.0000
     1.0000   1.0000   1.0000   1.0000   1.0000   1.0000   1.0000   1.0000
     1.0000   1.0000   1.0000   1.0000   1.0000   1.0000   1.0000   1.0000
     1.0000   1.0000   1.0000   1.0000   1.0000   1.0000   1.0000   1.0000
     1.0000   1.0000   1.0000   1.0000   1.0000   1.0000   1.0000   1.0000
     1.0000   1.0000   1.0000   1.0000   1.0000   1.0000   1.0000   1.0000
     1.0000   1.0000   1.0000   1.0000   1.0000   1.0000   1.0000   1.0000
     1.0000   1.0000   1.0000   1.0000   1.0000   1.0000   1.0000   1.0000
     1.0000   1.0000   1.0000   1.0000   1.0000   1.0000   1.0000   1.0000
     1.0000   1.0000   1.0000   1.0000   1.0000   1.0000   1.0000   1.0000
     1.0000   1.0000   1.0000   1.0000   1.0000   1.0000   1.0000   1.0000
     1.0000   1.0000   1.0000   1.0000   1.0000   1.0000   1.0000   1.0000
     1.0000   1.0000   1.0000   1.0000   1.0000   1.0000   1.0000   1.0000
     1.0000   1.0000   1.0000   1.0000   1.0000   1.0000   1.0000   1.0000
     1.0000   1.0000   1.0000   1.0000   1.0000   1.0000   1.0000   1.0000
     1.0000   1.0000   1.0000   1.0000   1.0000   1.0000   1.0000   1.0000
     1.0000   1.0000   1.0000   1.0000   1.0000   1.0000   1.0000   1.0000
     1.0000   1.0000   1.0000   1.0000   1.0000   1.0000   1.0000   1.0000
     1.0000   1.0000   1.0000   1.0000   1.0000   1.0000   1.0000   1.0000
     1.0000   1.0000   1.0000   1.0000   1.0000   1.0000   1.0000   1.0000
     1.0000   1.0000   1.0000   1.0000   1.0000   1.0000   1.0000   1.0000
     1.0000   1.0000   1.0000   1.0000   1.0000   1.0000   1.0000   1.0000
     1.0000   1.0000   1.0000   1.0000   1.0000   1.0000   1.0000   1.0000
     1.0000   1.0000   1.0000   1.0000   1.0000   1.0000   1.0000   1.0000
     1.0000   1.0000   1.0000   1.0000   1.0000   1.0000   1.0000   1.0000
     1.0000   1.0000   1.0000   1.0000   1.0000   1.0000   1.0000   1.0000
     1.0000   1.0000   1.0000   1.0000   1.0000   1.0000   1.0000   1.0000
     1.0000   1.0000   1.0000   1.0000   1.0000   1.0000   1.0000   1.0000
     1.0000   1.0000   1.0000   1.0000   1.0000   1.0000   1.0000   1.0000
     1.0000   1.0000   1.0000   1.0000   1.0000   1.0000   1.0000   1.0000
     1.0000   1.0000   1.0000   1.0000   1.0000   1.0000   1.0000   1.0000
     1.0000   1.0000   1.0000   1.0000   1.0000   1.0000   1.0000   1.0000
     1.0000   1.0000   1.0000   1.0000   1.0000   1.0000   1.0000   1.0000
     1.0000   1.0000   1.0000   1.0000   1.0000   1.0000   1.0000   1.0000
     1.0000   1.0000   1.0000   1.0000   1.0000   1.0000   1.0000   1.0000
     1.0000   1.0000   1.0000   1.0000   1.0000   1.0000   1.0000   1.0000
     1.0000   1.0000   1.0000   1.0000   1.0000   1.0000   1.0000   1.0000
     1.0000   1.0000   1.0000   1.0000   1.0000   1.0000   1.0000   1.0000
     1.0000   1.0000   1.0000   1.0000   1.0000   1.0000   1.0000   1.0000
     1.0000   1.0000   1.0000   1.0000   1.0000   1.0000   1.0000   1.0000
     1.0006   1.0006   1.0019   1.0374   1.0444   1.0444   0.9985   0.9985
     0.1540   0.1540   0.0000   0.0000   0.0000   0.0000   0.0000   0.0000
     0.0000   0.0000   0.0000   0.0000   0.0000   0.0000   0.0000   0.0000
     0.0000   0.0000   0.0000   0.0000   0.0000   0.0000   0.0000   0.0000
     0.0000   0.0000   0.0000   0.0000   0.0000   0.0000   0.0000   0.0000
     0.0000   0.0000   0.0000   0.0000   0.0000   0.0000   0.0000   0.0000
     0.0000   0.0000   0.0000   0.0000   0.0000   0.0000   0.0000   0.0000
     0.0000   0.0000   0.0000   0.0000   0.0000   0.0000   0.0000   0.0000
     0.0000   0.0000   0.0000   0.0000   0.0000   0.0000   0.0000   0.0000
     0.0000   0.0000   0.0000   0.0000   0.0000   0.0000   0.0000   0.0000
     0.0000   0.0000   0.0000   0.0000   0.0000   0.0000   0.0000   0.0000
     0.0000   0.0000   0.0000   0.0000   0.0000   0.0000   0.0000   0.0000
     0.0000   0.0000   0.0000   0.0000   0.0000   0.0000   0.0000   0.0000

          k = 0.2500 0.4330 0.0000 ( 90598 PWs)   bands (ev):

  -125.0711-125.0707-125.0702-125.0694-125.0692-125.0690-125.0689-125.0685
  -125.0684-125.0681-125.0679-125.0678-125.0677-125.0675-125.0672-125.0671
  -124.8671-124.8669-124.8667-124.8665-124.8664-124.8661-124.8654-124.8654
  -124.8652-124.8651-124.8649-124.8648-124.8647-124.8646-124.8645-124.8644
  -124.8642-124.8642-124.8641-124.8641-124.8640-124.8639-124.8638-124.8638
  -124.8637-124.8636-124.8635-124.8634-124.8634-124.8633-124.8631-124.8630
   -79.2354 -79.2338 -79.2338 -79.2333 -79.2331 -79.2314 -79.2308 -79.2293
   -79.2289 -79.2286 -79.2251 -79.2244 -79.2207 -79.2206 -79.2195 -79.2191
   -79.2186 -79.2176 -79.2174 -79.2174 -79.2172 -79.2171 -79.2170 -79.2165
   -79.2165 -79.2162 -79.2160 -79.2159 -79.2157 -79.2155 -79.2152 -79.2151
   -79.2139 -79.2124 -79.2119 -79.2110 -79.2106 -79.2104 -79.2101 -79.2100
   -79.2094 -79.2091 -79.2079 -79.2079 -79.2053 -79.2039 -79.2038 -79.2025
   -79.0280 -79.0277 -79.0264 -79.0264 -79.0261 -79.0261 -79.0259 -79.0258
   -79.0257 -79.0255 -79.0241 -79.0239 -79.0238 -79.0237 -79.0236 -79.0235
   -79.0235 -79.0233 -79.0232 -79.0231 -79.0222 -79.0222 -79.0220 -79.0220
   -79.0218 -79.0217 -79.0216 -79.0216 -79.0216 -79.0215 -79.0214 -79.0213
   -79.0212 -79.0212 -79.0212 -79.0210 -79.0210 -79.0210 -79.0209 -79.0208
   -79.0208 -79.0207 -79.0206 -79.0205 -79.0205 -79.0203 -79.0203 -79.0201
   -79.0201 -79.0200 -79.0199 -79.0197 -79.0177 -79.0174 -79.0171 -79.0168
   -79.0133 -79.0133 -79.0130 -79.0130 -79.0100 -79.0099 -79.0097 -79.0096
   -79.0065 -79.0062 -79.0050 -79.0047 -79.0046 -79.0043 -79.0036 -79.0034
   -79.0033 -79.0031 -79.0030 -79.0028 -79.0028 -79.0027 -79.0025 -79.0025
   -79.0021 -79.0018 -79.0018 -79.0015 -79.0006 -79.0006 -79.0003 -79.0003
   -78.9980 -78.9977 -78.9966 -78.9965 -78.9963 -78.9962 -78.9952 -78.9949
    -8.2691  -7.8225  -7.8221  -7.1117  -6.9150  -6.8402  -6.8402  -6.8032
    -6.8032  -6.7973  -6.7972  -6.7932  -6.7928  -6.7690  -6.7287  -6.7283
    -6.6989  -6.6984  -6.6554  -6.6554  -6.6236  -6.6095  -6.6095  -6.6049
    -6.6047  -6.5884  -6.5882  -6.5683  -6.5682  -6.5604  -6.5600  -6.5442
    -6.5347  -6.5345  -6.4924  -6.4920  -6.4725  -6.4725  -6.4691  -6.4625
    -6.4625  -6.4406  -6.4404  -6.4179  -6.4126  -6.4126  -6.4125  -6.4122
    -6.4037  -6.4035  -6.3928  -6.3706  -6.3702  -6.3132  -6.3025  -6.3025
    -6.2978  -6.2978  -6.2926  -6.2926  -6.2920  -6.2791  -6.2677  -6.2639
    -6.2637  -6.2553  -6.2498  -6.2494  -6.2445  -6.2444  -6.2430  -6.2232
    -6.2232  -6.2026  -6.2025  -6.1787  -6.1785  -6.1665  -6.1478  -6.1460
    -6.1422  -6.1422  -6.1187  -6.1185  -6.1089  -6.1088  -6.0952  -6.0896
    -6.0568  -6.0568  -6.0474  -6.0470  -6.0431  -6.0337  -6.0208  -6.0208
    -5.9980  -5.9925  -5.9923  -5.9895  -5.9808  -5.9808  -5.9735  -5.9735
    -5.9708  -5.9708  -5.9583  -5.9496  -5.9427  -5.9163  -5.9161  -5.9083
    -5.9081  -5.9071  -5.8996  -5.8918  -5.8918  -5.8868  -5.8867  -5.8785
    -5.8783  -5.8545  -5.8544  -5.8473  -5.8471  -5.8345  -5.8341  -5.8338
    -5.8331  -5.8294  -5.8294  -5.8092  -5.7976  -5.7974  -5.7943  -5.7732
    -5.7638  -5.7637  -5.7564  -5.7534  -5.7534  -5.7508  -5.7138  -5.7138
    -5.6949  -5.6948  -5.6924  -5.6921  -5.6583  -5.6550  -5.6550  -5.6541
    -5.6539  -5.6476  -5.6333  -5.6319  -5.6316  -5.6250  -5.6248  -5.5936
    -5.5934  -5.5933  -5.5932  -5.5932  -5.5837  -5.5835  -5.5820  -5.5819
    -5.5800  -5.5798  -5.5753  -5.5751  -5.5673  -5.5673  -5.5502  -5.5500
    -5.5496  -5.5496  -5.5457  -5.5410  -5.5373  -5.5373  -5.5160  -5.5160
    -5.5132  -5.5106  -5.5104  -5.5086  -5.5039  -5.4849  -5.4845  -5.4830
    -5.4804  -5.4801  -5.4671  -5.4628  -5.4628  -5.4608  -5.4605  -5.4591
    -5.4587  -5.4566  -5.4566  -5.4441  -5.4441  -5.4416  -5.4416  -5.4346
    -5.4344  -5.4322  -5.4189  -5.4189  -5.4114  -5.4107  -5.4107  -5.3997
    -5.3967  -5.3875  -5.3874  -5.3756  -5.3753  -5.3753  -5.3700  -5.3686
    -5.3662  -5.3660  -5.3363  -5.3288  -5.3287  -5.3092  -5.3089  -5.2827
    -5.2769  -5.2766  -5.2737  -5.2736  -5.2729  -5.2728  -5.2576  -5.2293
    -5.1878  -5.1878  -5.1838  -5.1838  -5.1446  -5.1446  -5.0654  -5.0652
    -4.4565  -4.2333  -4.2329  -4.0438  -4.0438  -3.2450  -3.2450  -3.1956
    -3.1447  -2.8772  -2.8772  -2.8498  -2.8494  -2.7804  -2.7800  -1.7958
    -1.7957  -1.7012  -1.7012  -1.4131  -1.4131  -0.8447  -0.4756  -0.4753
    -0.4122  -0.4122  -0.3232  -0.2413   0.2947   0.3499   0.3502   0.4237
     0.4237   0.6999   0.6999   0.7890   0.9701   0.9702   1.0866   1.4155
     1.4158   1.9757   1.9757   2.5308   2.5524   2.8205   2.9854   3.0905
     3.3263   3.3263   3.3642   3.3645   3.4458   3.4463   3.4466   3.5752
     3.5752   3.6675   3.8924   3.8926   4.3745   4.3746   4.3913   4.4254
     4.4435   4.4435   4.5669   4.5670   4.8796   4.9332   5.1390   5.1390
     5.2225   5.2225   5.4444   5.4447   5.4522   5.4522   5.4595   5.7424
     5.9099   5.9099   6.0925   6.1239   6.1240   6.2020   6.2021   6.5440
     6.5443   6.6320   6.6439   6.6460   6.6460   6.8406   6.9520   6.9992
     6.9993   7.0024   7.0437   7.0437   7.0945   7.0946   7.1637   7.1637
     7.2233   7.2233   7.2546   7.2546   7.2900   7.2901   7.5778   7.5778
     8.1315   8.2171   8.2171   8.3618   8.4670   8.4671   8.4769   8.5399
     8.5846   8.5847   8.6276   8.6276   8.6517   8.6576   8.6677   8.6677
     8.6783   8.6784   8.7543   8.7732   8.9302   8.9303   9.1112   9.1113

     occupation numbers 
     1.0000   1.0000   1.0000   1.0000   1.0000   1.0000   1.0000   1.0000
     1.0000   1.0000   1.0000   1.0000   1.0000   1.0000   1.0000   1.0000
     1.0000   1.0000   1.0000   1.0000   1.0000   1.0000   1.0000   1.0000
     1.0000   1.0000   1.0000   1.0000   1.0000   1.0000   1.0000   1.0000
     1.0000   1.0000   1.0000   1.0000   1.0000   1.0000   1.0000   1.0000
     1.0000   1.0000   1.0000   1.0000   1.0000   1.0000   1.0000   1.0000
     1.0000   1.0000   1.0000   1.0000   1.0000   1.0000   1.0000   1.0000
     1.0000   1.0000   1.0000   1.0000   1.0000   1.0000   1.0000   1.0000
     1.0000   1.0000   1.0000   1.0000   1.0000   1.0000   1.0000   1.0000
     1.0000   1.0000   1.0000   1.0000   1.0000   1.0000   1.0000   1.0000
     1.0000   1.0000   1.0000   1.0000   1.0000   1.0000   1.0000   1.0000
     1.0000   1.0000   1.0000   1.0000   1.0000   1.0000   1.0000   1.0000
     1.0000   1.0000   1.0000   1.0000   1.0000   1.0000   1.0000   1.0000
     1.0000   1.0000   1.0000   1.0000   1.0000   1.0000   1.0000   1.0000
     1.0000   1.0000   1.0000   1.0000   1.0000   1.0000   1.0000   1.0000
     1.0000   1.0000   1.0000   1.0000   1.0000   1.0000   1.0000   1.0000
     1.0000   1.0000   1.0000   1.0000   1.0000   1.0000   1.0000   1.0000
     1.0000   1.0000   1.0000   1.0000   1.0000   1.0000   1.0000   1.0000
     1.0000   1.0000   1.0000   1.0000   1.0000   1.0000   1.0000   1.0000
     1.0000   1.0000   1.0000   1.0000   1.0000   1.0000   1.0000   1.0000
     1.0000   1.0000   1.0000   1.0000   1.0000   1.0000   1.0000   1.0000
     1.0000   1.0000   1.0000   1.0000   1.0000   1.0000   1.0000   1.0000
     1.0000   1.0000   1.0000   1.0000   1.0000   1.0000   1.0000   1.0000
     1.0000   1.0000   1.0000   1.0000   1.0000   1.0000   1.0000   1.0000
     1.0000   1.0000   1.0000   1.0000   1.0000   1.0000   1.0000   1.0000
     1.0000   1.0000   1.0000   1.0000   1.0000   1.0000   1.0000   1.0000
     1.0000   1.0000   1.0000   1.0000   1.0000   1.0000   1.0000   1.0000
     1.0000   1.0000   1.0000   1.0000   1.0000   1.0000   1.0000   1.0000
     1.0000   1.0000   1.0000   1.0000   1.0000   1.0000   1.0000   1.0000
     1.0000   1.0000   1.0000   1.0000   1.0000   1.0000   1.0000   1.0000
     1.0000   1.0000   1.0000   1.0000   1.0000   1.0000   1.0000   1.0000
     1.0000   1.0000   1.0000   1.0000   1.0000   1.0000   1.0000   1.0000
     1.0000   1.0000   1.0000   1.0000   1.0000   1.0000   1.0000   1.0000
     1.0000   1.0000   1.0000   1.0000   1.0000   1.0000   1.0000   1.0000
     1.0000   1.0000   1.0000   1.0000   1.0000   1.0000   1.0000   1.0000
     1.0000   1.0000   1.0000   1.0000   1.0000   1.0000   1.0000   1.0000
     1.0000   1.0000   1.0000   1.0000   1.0000   1.0000   1.0000   1.0000
     1.0000   1.0000   1.0000   1.0000   1.0000   1.0000   1.0000   1.0000
     1.0000   1.0000   1.0000   1.0000   1.0000   1.0000   1.0000   1.0000
     1.0000   1.0000   1.0000   1.0000   1.0000   1.0000   1.0000   1.0000
     1.0000   1.0000   1.0000   1.0000   1.0000   1.0000   1.0000   1.0000
     1.0000   1.0000   1.0000   1.0000   1.0000   1.0000   1.0000   1.0000
     1.0000   1.0000   1.0000   1.0000   1.0000   1.0000   1.0000   1.0000
     1.0000   1.0000   1.0000   1.0000   1.0000   1.0000   1.0000   1.0000
     1.0000   1.0000   1.0000   1.0000   1.0000   1.0000   1.0000   1.0000
     1.0000   1.0000   1.0000   1.0000   1.0000   1.0000   1.0000   1.0000
     1.0000   1.0000   1.0000   1.0000   1.0000   1.0000   1.0000   1.0000
     1.0000   1.0000   1.0000   1.0000   1.0000   1.0000   1.0000   1.0000
     1.0000   1.0000   1.0000   1.0000   1.0000   1.0000   1.0000   1.0000
     1.0000   1.0000   1.0000   1.0000   1.0000   1.0000   1.0000   1.0000
     1.0000   1.0000   1.0000   1.0000   1.0000   1.0000   1.0000   1.0000
     1.0000   1.0000   1.0000   1.0000   1.0000   1.0000   1.0000   1.0000
     1.0000   1.0000   1.0000   1.0000   1.0000   1.0000   1.0000   1.0000
     1.0000   1.0000   1.0000   1.0000   1.0000   1.0000   1.0000   1.0000
     1.0000   1.0000   1.0000   1.0000   1.0000   1.0000   1.0000   1.0000
     1.0000   1.0000   1.0000   1.0000   1.0000   1.0000   1.0000   1.0000
     1.0000   1.0000   1.0000   1.0000   1.0000   1.0000   1.0000   1.0000
     1.0000   1.0000   1.0000   1.0000   1.0000   1.0000   1.0000   1.0000
     1.0000   1.0000   1.0000   1.0000   1.0000   1.0000   1.0000   1.0000
     1.0000   1.0052   1.0052   1.0159   1.0686   1.0686   1.0779   0.4458
     0.4449   0.0003   0.0003   0.0000   0.0000   0.0000   0.0000   0.0000
     0.0000   0.0000   0.0000   0.0000   0.0000   0.0000   0.0000   0.0000
     0.0000   0.0000   0.0000   0.0000   0.0000   0.0000   0.0000   0.0000
     0.0000   0.0000   0.0000   0.0000   0.0000   0.0000   0.0000   0.0000
     0.0000   0.0000   0.0000   0.0000   0.0000   0.0000   0.0000   0.0000
     0.0000   0.0000   0.0000   0.0000   0.0000   0.0000   0.0000   0.0000
     0.0000   0.0000   0.0000   0.0000   0.0000   0.0000   0.0000   0.0000
     0.0000   0.0000   0.0000   0.0000   0.0000   0.0000   0.0000   0.0000
     0.0000   0.0000   0.0000   0.0000   0.0000   0.0000   0.0000   0.0000
     0.0000   0.0000   0.0000   0.0000   0.0000   0.0000   0.0000   0.0000
     0.0000   0.0000   0.0000   0.0000   0.0000   0.0000   0.0000   0.0000
     0.0000   0.0000   0.0000   0.0000   0.0000   0.0000   0.0000   0.0000

          k = 0.2500-0.4330 0.0000 ( 90598 PWs)   bands (ev):

  -125.0712-125.0706-125.0704-125.0694-125.0694-125.0688-125.0687-125.0686
  -125.0683-125.0682-125.0681-125.0679-125.0676-125.0674-125.0672-125.0671
  -124.8671-124.8669-124.8666-124.8665-124.8663-124.8662-124.8654-124.8654
  -124.8652-124.8651-124.8648-124.8647-124.8646-124.8646-124.8644-124.8644
  -124.8643-124.8643-124.8642-124.8640-124.8640-124.8640-124.8638-124.8638
  -124.8637-124.8635-124.8635-124.8634-124.8633-124.8633-124.8631-124.8630
   -79.2354 -79.2339 -79.2338 -79.2332 -79.2331 -79.2311 -79.2311 -79.2292
   -79.2290 -79.2285 -79.2251 -79.2244 -79.2207 -79.2206 -79.2196 -79.2189
   -79.2188 -79.2176 -79.2176 -79.2173 -79.2173 -79.2169 -79.2168 -79.2167
   -79.2164 -79.2163 -79.2161 -79.2159 -79.2156 -79.2154 -79.2152 -79.2151
   -79.2139 -79.2121 -79.2121 -79.2109 -79.2107 -79.2106 -79.2101 -79.2100
   -79.2093 -79.2092 -79.2079 -79.2078 -79.2054 -79.2039 -79.2038 -79.2025
   -79.0280 -79.0277 -79.0264 -79.0264 -79.0262 -79.0261 -79.0258 -79.0258
   -79.0256 -79.0255 -79.0241 -79.0239 -79.0237 -79.0237 -79.0235 -79.0235
   -79.0234 -79.0234 -79.0233 -79.0232 -79.0223 -79.0222 -79.0221 -79.0220
   -79.0218 -79.0217 -79.0216 -79.0215 -79.0214 -79.0214 -79.0214 -79.0214
   -79.0212 -79.0212 -79.0212 -79.0212 -79.0210 -79.0210 -79.0209 -79.0208
   -79.0208 -79.0207 -79.0206 -79.0206 -79.0205 -79.0203 -79.0203 -79.0201
   -79.0201 -79.0200 -79.0199 -79.0198 -79.0177 -79.0175 -79.0171 -79.0168
   -79.0133 -79.0133 -79.0130 -79.0130 -79.0099 -79.0099 -79.0097 -79.0097
   -79.0065 -79.0062 -79.0048 -79.0047 -79.0045 -79.0045 -79.0035 -79.0033
   -79.0033 -79.0032 -79.0031 -79.0030 -79.0028 -79.0027 -79.0025 -79.0025
   -79.0020 -79.0019 -79.0017 -79.0017 -79.0006 -79.0005 -79.0003 -79.0003
   -78.9980 -78.9978 -78.9966 -78.9965 -78.9963 -78.9963 -78.9952 -78.9949
    -8.2691  -7.8223  -7.8223  -7.1117  -6.9150  -6.8402  -6.8402  -6.8032
    -6.8032  -6.7972  -6.7972  -6.7930  -6.7930  -6.7690  -6.7285  -6.7285
    -6.6987  -6.6986  -6.6554  -6.6554  -6.6236  -6.6095  -6.6095  -6.6048
[...]
     1.0000   1.0000   1.0000   1.0000   1.0000   1.0000   1.0000   1.0000
     1.0000   1.0000   1.0000   1.0000   1.0000   1.0000   1.0000   1.0000
     1.0000   1.0000   1.0000   1.0000   1.0000   1.0000   1.0000   1.0000
     1.0000   1.0000   1.0000   1.0000   1.0000   1.0000   1.0000   1.0000
     1.0000   1.0000   1.0000   1.0000   1.0000   1.0000   1.0000   1.0000
     1.0000   1.0000   1.0000   1.0000   1.0000   1.0000   1.0000   1.0000
     1.0000   1.0000   1.0000   1.0000   1.0000   1.0000   1.0000   1.0000
     1.0000   1.0000   1.0000   1.0000   1.0000   1.0000   1.0000   1.0000
     1.0000   1.0000   1.0000   1.0000   1.0000   1.0000   1.0000   1.0000
     1.0000   1.0000   1.0000   1.0000   1.0000   1.0000   1.0000   1.0000
     1.0000   1.0000   1.0000   1.0000   1.0000   1.0000   1.0000   1.0000
     1.0000   1.0000   1.0000   1.0000   1.0000   1.0000   1.0000   1.0000
     1.0000   1.0000   1.0000   1.0000   1.0000   1.0000   1.0000   1.0000
     1.0000   1.0000   1.0000   1.0000   1.0000   1.0000   1.0000   1.0000
     1.0000   1.0000   1.0000   1.0000   1.0000   1.0000   1.0000   1.0000
     1.0000   1.0000   1.0000   1.0000   1.0000   1.0000   1.0000   1.0000
     1.0000   1.0000   1.0000   1.0000   1.0000   1.0000   1.0000   1.0000
     1.0000   1.0000   1.0000   1.0000   1.0000   1.0000   1.0000   1.0000
     1.0000   1.0000   1.0000   1.0000   1.0000   1.0000   1.0000   1.0000
     1.0000   1.0000   1.0000   1.0000   1.0000   1.0000   1.0000   1.0000
     1.0000   1.0000   1.0000   1.0000   1.0000   1.0000   1.0000   1.0000
     1.0000   1.0000   1.0000   1.0000   1.0000   1.0000   1.0000   1.0000
     1.0000   1.0000   1.0000   1.0000   1.0000   1.0000   1.0000   1.0000
     1.0000   1.0000   1.0000   1.0000   1.0000   1.0000   1.0000   1.0000
     1.0000   1.0000   1.0000   1.0000   1.0000   1.0000   1.0000   1.0000
     1.0000   1.0000   1.0000   1.0000   1.0000   1.0000   1.0000   1.0000
     1.0000   1.0000   1.0000   1.0000   1.0000   1.0000   1.0000   1.0000
     1.0000   1.0000   1.0000   1.0000   1.0000   1.0000   1.0000   1.0000
     1.0000   1.0000   1.0000   1.0000   1.0000   1.0000   1.0000   1.0000
     1.0000   1.0000   1.0000   1.0000   1.0000   1.0000   1.0000   1.0000
     1.0000   1.0000   1.0000   1.0000   1.0000   1.0000   1.0000   1.0000
     1.0000   1.0000   1.0000   1.0000   1.0000   1.0000   1.0000   1.0000
     1.0000   1.0000   1.0000   1.0000   1.0000   1.0000   1.0000   1.0000
     1.0000   1.0000   1.0000   1.0000   1.0000   1.0000   1.0000   1.0000
     1.0000   1.0000   1.0000   1.0000   1.0000   1.0000   1.0000   1.0000
     1.0000   1.0000   1.0000   1.0000   1.0000   1.0000   1.0000   1.0000
     1.0000   1.0000   1.0000   1.0000   1.0000   1.0000   1.0000   1.0000
     1.0000   1.0000   1.0000   1.0000   1.0000   1.0000   1.0000   1.0000
     1.0000   1.0000   1.0000   1.0000   1.0000   1.0000   1.0000   1.0000
     1.0000   1.0000   1.0000   1.0000   1.0000   1.0000   1.0000   1.0000
     1.0000   1.0000   1.0000   1.0000   1.0000   1.0000   1.0000   1.0000
     1.0000   1.0000   1.0000   1.0000   1.0000   1.0000   1.0000   1.0000
     1.0000   1.0052   1.0052   1.0159   1.0686   1.0686   1.0779   0.4457
     0.4450   0.0003   0.0003   0.0000   0.0000   0.0000   0.0000   0.0000
     0.0000   0.0000   0.0000   0.0000   0.0000   0.0000   0.0000   0.0000
     0.0000   0.0000   0.0000   0.0000   0.0000   0.0000   0.0000   0.0000
     0.0000   0.0000   0.0000   0.0000   0.0000   0.0000   0.0000   0.0000
     0.0000   0.0000   0.0000   0.0000   0.0000   0.0000   0.0000   0.0000
     0.0000   0.0000   0.0000   0.0000   0.0000   0.0000   0.0000   0.0000
     0.0000   0.0000   0.0000   0.0000   0.0000   0.0000   0.0000   0.0000
     0.0000   0.0000   0.0000   0.0000   0.0000   0.0000   0.0000   0.0000
     0.0000   0.0000   0.0000   0.0000   0.0000   0.0000   0.0000   0.0000
     0.0000   0.0000   0.0000   0.0000   0.0000   0.0000   0.0000   0.0000
     0.0000   0.0000   0.0000   0.0000   0.0000   0.0000   0.0000   0.0000
     0.0000   0.0000   0.0000   0.0000   0.0000   0.0000   0.0000   0.0000

          k =-0.5000-0.8660 0.0000 ( 90628 PWs)   bands (ev):

  -125.0712-125.0706-125.0700-125.0700-125.0689-125.0689-125.0687-125.0686
  -125.0684-125.0682-125.0681-125.0680-125.0675-125.0674-125.0672-125.0671
  -124.8671-124.8669-124.8667-124.8665-124.8660-124.8660-124.8658-124.8658
  -124.8649-124.8648-124.8647-124.8647-124.8646-124.8645-124.8645-124.8645
  -124.8645-124.8642-124.8642-124.8642-124.8640-124.8639-124.8639-124.8638
  -124.8637-124.8635-124.8635-124.8634-124.8633-124.8633-124.8631-124.8630
   -79.2346 -79.2346 -79.2339 -79.2339 -79.2322 -79.2316 -79.2309 -79.2309
   -79.2263 -79.2263 -79.2263 -79.2263 -79.2216 -79.2216 -79.2196 -79.2190
   -79.2183 -79.2183 -79.2170 -79.2170 -79.2168 -79.2167 -79.2165 -79.2162
   -79.2162 -79.2160 -79.2155 -79.2154 -79.2152 -79.2151 -79.2150 -79.2150
   -79.2137 -79.2137 -79.2131 -79.2131 -79.2102 -79.2102 -79.2102 -79.2102
   -79.2095 -79.2089 -79.2070 -79.2064 -79.2056 -79.2056 -79.2031 -79.2025
   -79.0272 -79.0270 -79.0270 -79.0268 -79.0268 -79.0266 -79.0265 -79.0263
   -79.0247 -79.0244 -79.0243 -79.0241 -79.0240 -79.0238 -79.0237 -79.0235
   -79.0235 -79.0234 -79.0233 -79.0232 -79.0229 -79.0229 -79.0227 -79.0227
   -79.0216 -79.0216 -79.0215 -79.0215 -79.0214 -79.0214 -79.0213 -79.0213
   -79.0212 -79.0211 -79.0209 -79.0209 -79.0208 -79.0207 -79.0207 -79.0205
   -79.0205 -79.0203 -79.0203 -79.0201 -79.0200 -79.0200 -79.0199 -79.0198
   -79.0190 -79.0190 -79.0189 -79.0189 -79.0187 -79.0187 -79.0187 -79.0187
   -79.0142 -79.0142 -79.0140 -79.0139 -79.0076 -79.0076 -79.0074 -79.0073
   -79.0064 -79.0062 -79.0061 -79.0060 -79.0059 -79.0058 -79.0057 -79.0055
   -79.0029 -79.0029 -79.0028 -79.0028 -79.0026 -79.0026 -79.0026 -79.0026
   -79.0021 -79.0019 -79.0017 -79.0014 -78.9995 -78.9993 -78.9992 -78.9989
   -78.9983 -78.9983 -78.9981 -78.9981 -78.9957 -78.9954 -78.9953 -78.9950
    -8.1551  -8.1547  -7.3162  -7.3162  -7.0259  -7.0256  -6.8649  -6.8644
    -6.8601  -6.8597  -6.7502  -6.7502  -6.7497  -6.7497  -6.6541  -6.6537
    -6.6472  -6.6472  -6.6472  -6.6472  -6.6251  -6.6248  -6.6076  -6.6075
    -6.6071  -6.6070  -6.5543  -6.5543  -6.5294  -6.5293  -6.5290  -6.5289
    -6.5063  -6.5063  -6.4878  -6.4878  -6.4878  -6.4878  -6.4635  -6.4635
    -6.4635  -6.4635  -6.4615  -6.4611  -6.4501  -6.4501  -6.4266  -6.4266
    -6.4226  -6.4225  -6.4222  -6.4221  -6.3107  -6.3107  -6.3020  -6.3020
    -6.2936  -6.2936  -6.2936  -6.2936  -6.2924  -6.2920  -6.2716  -6.2715
    -6.2711  -6.2710  -6.2374  -6.2371  -6.2217  -6.2217  -6.2217  -6.2217
    -6.2066  -6.2066  -6.2018  -6.2018  -6.1710  -6.1707  -6.1429  -6.1429
    -6.1123  -6.1123  -6.1039  -6.1039  -6.0834  -6.0833  -6.0831  -6.0830
    -6.0625  -6.0625  -6.0625  -6.0625  -6.0426  -6.0426  -6.0330  -6.0330
    -6.0267  -6.0265  -6.0231  -6.0227  -6.0102  -6.0096  -5.9907  -5.9907
    -5.9907  -5.9907  -5.9475  -5.9475  -5.9466  -5.9463  -5.9161  -5.9159
    -5.9061  -5.9061  -5.8729  -5.8727  -5.8725  -5.8723  -5.8159  -5.8155
    -5.8101  -5.8101  -5.8095  -5.8095  -5.8095  -5.8095  -5.8061  -5.8056
    -5.7880  -5.7880  -5.7858  -5.7854  -5.7770  -5.7769  -5.7767  -5.7767
    -5.7692  -5.7688  -5.7684  -5.7684  -5.7684  -5.7684  -5.7565  -5.7565
    -5.7547  -5.7547  -5.7546  -5.7546  -5.6760  -5.6760  -5.6747  -5.6747
    -5.6679  -5.6679  -5.6463  -5.6463  -5.6463  -5.6463  -5.6321  -5.6316
    -5.6247  -5.6247  -5.6057  -5.6055  -5.6054  -5.6052  -5.5952  -5.5952
    -5.5713  -5.5709  -5.5449  -5.5445  -5.5301  -5.5300  -5.5298  -5.5297
    -5.5273  -5.5273  -5.5273  -5.5273  -5.5240  -5.5240  -5.5220  -5.5216
    -5.5003  -5.5000  -5.4999  -5.4997  -5.4901  -5.4900  -5.4897  -5.4896
    -5.4880  -5.4880  -5.4798  -5.4798  -5.4650  -5.4650  -5.4650  -5.4650
    -5.4529  -5.4527  -5.4526  -5.4523  -5.4408  -5.4408  -5.4240  -5.4235
    -5.4167  -5.4166  -5.4164  -5.4164  -5.4135  -5.4134  -5.4129  -5.4129
    -5.4067  -5.4067  -5.4038  -5.4034  -5.4011  -5.4006  -5.3718  -5.3714
    -5.3636  -5.3636  -5.3636  -5.3636  -5.3252  -5.3252  -5.3252  -5.3252
    -5.2554  -5.2551  -5.2549  -5.2547  -5.2360  -5.2360  -5.2354  -5.2352
    -5.2350  -5.2348  -5.2024  -5.2020  -5.1996  -5.1993  -4.7023  -4.7023
    -4.4186  -4.4186  -4.4186  -4.4186  -3.7282  -3.7281  -3.1107  -3.1104
    -3.0614  -3.0614  -3.0614  -3.0614  -2.3912  -2.3912  -2.2395  -2.2394
    -1.7580  -1.7580  -1.7576  -1.7575  -0.7549  -0.7549  -0.7549  -0.7549
    -0.3255  -0.3254  -0.3251  -0.3251  -0.0903  -0.0900   0.0134   0.0135
     1.0212   1.0212   1.0492   1.0492   1.3383   1.3383   1.3698   1.3698
     1.3700   1.3701   2.2234   2.2234   2.9006   2.9007   2.9007   2.9008
     3.1016   3.1016   3.1016   3.1016   3.3228   3.3228   3.5574   3.5577
     3.8669   3.8669   3.8670   3.8670   3.9982   3.9983   4.2583   4.2583
     4.4495   4.4495   4.7460   4.7460   4.8577   4.8577   5.4839   5.4839
     5.5721   5.5721   5.8012   5.8013   5.8573   5.8574   5.9295   5.9296
     5.9298   5.9299   5.9836   5.9836   5.9837   5.9837   6.1559   6.1559
     6.1559   6.1559   6.4722   6.4722   6.5601   6.5601   6.7477   6.7478
     6.7760   6.7761   6.8681   6.8681   6.9530   6.9531   7.0146   7.0146
     7.0146   7.0146   7.6703   7.6703   7.8507   7.8508   8.0646   8.0646
     8.1145   8.1145   8.1145   8.1146   8.2814   8.2815   8.6089   8.6090
     8.6090   8.6090   8.6527   8.6527   8.6527   8.6527   8.7370   8.7370
     8.7667   8.7668   8.8844   8.8845   9.0016   9.0017   9.0018   9.0019

     occupation numbers 
     1.0000   1.0000   1.0000   1.0000   1.0000   1.0000   1.0000   1.0000
     1.0000   1.0000   1.0000   1.0000   1.0000   1.0000   1.0000   1.0000
     1.0000   1.0000   1.0000   1.0000   1.0000   1.0000   1.0000   1.0000
     1.0000   1.0000   1.0000   1.0000   1.0000   1.0000   1.0000   1.0000
     1.0000   1.0000   1.0000   1.0000   1.0000   1.0000   1.0000   1.0000
     1.0000   1.0000   1.0000   1.0000   1.0000   1.0000   1.0000   1.0000
     1.0000   1.0000   1.0000   1.0000   1.0000   1.0000   1.0000   1.0000
     1.0000   1.0000   1.0000   1.0000   1.0000   1.0000   1.0000   1.0000
     1.0000   1.0000   1.0000   1.0000   1.0000   1.0000   1.0000   1.0000
     1.0000   1.0000   1.0000   1.0000   1.0000   1.0000   1.0000   1.0000
     1.0000   1.0000   1.0000   1.0000   1.0000   1.0000   1.0000   1.0000
     1.0000   1.0000   1.0000   1.0000   1.0000   1.0000   1.0000   1.0000
     1.0000   1.0000   1.0000   1.0000   1.0000   1.0000   1.0000   1.0000
     1.0000   1.0000   1.0000   1.0000   1.0000   1.0000   1.0000   1.0000
     1.0000   1.0000   1.0000   1.0000   1.0000   1.0000   1.0000   1.0000
     1.0000   1.0000   1.0000   1.0000   1.0000   1.0000   1.0000   1.0000
     1.0000   1.0000   1.0000   1.0000   1.0000   1.0000   1.0000   1.0000
     1.0000   1.0000   1.0000   1.0000   1.0000   1.0000   1.0000   1.0000
     1.0000   1.0000   1.0000   1.0000   1.0000   1.0000   1.0000   1.0000
     1.0000   1.0000   1.0000   1.0000   1.0000   1.0000   1.0000   1.0000
     1.0000   1.0000   1.0000   1.0000   1.0000   1.0000   1.0000   1.0000
     1.0000   1.0000   1.0000   1.0000   1.0000   1.0000   1.0000   1.0000
     1.0000   1.0000   1.0000   1.0000   1.0000   1.0000   1.0000   1.0000
     1.0000   1.0000   1.0000   1.0000   1.0000   1.0000   1.0000   1.0000
     1.0000   1.0000   1.0000   1.0000   1.0000   1.0000   1.0000   1.0000
     1.0000   1.0000   1.0000   1.0000   1.0000   1.0000   1.0000   1.0000
     1.0000   1.0000   1.0000   1.0000   1.0000   1.0000   1.0000   1.0000
     1.0000   1.0000   1.0000   1.0000   1.0000   1.0000   1.0000   1.0000
     1.0000   1.0000   1.0000   1.0000   1.0000   1.0000   1.0000   1.0000
     1.0000   1.0000   1.0000   1.0000   1.0000   1.0000   1.0000   1.0000
     1.0000   1.0000   1.0000   1.0000   1.0000   1.0000   1.0000   1.0000
     1.0000   1.0000   1.0000   1.0000   1.0000   1.0000   1.0000   1.0000
     1.0000   1.0000   1.0000   1.0000   1.0000   1.0000   1.0000   1.0000
     1.0000   1.0000   1.0000   1.0000   1.0000   1.0000   1.0000   1.0000
     1.0000   1.0000   1.0000   1.0000   1.0000   1.0000   1.0000   1.0000
     1.0000   1.0000   1.0000   1.0000   1.0000   1.0000   1.0000   1.0000
     1.0000   1.0000   1.0000   1.0000   1.0000   1.0000   1.0000   1.0000
     1.0000   1.0000   1.0000   1.0000   1.0000   1.0000   1.0000   1.0000
     1.0000   1.0000   1.0000   1.0000   1.0000   1.0000   1.0000   1.0000
     1.0000   1.0000   1.0000   1.0000   1.0000   1.0000   1.0000   1.0000
     1.0000   1.0000   1.0000   1.0000   1.0000   1.0000   1.0000   1.0000
     1.0000   1.0000   1.0000   1.0000   1.0000   1.0000   1.0000   1.0000
     1.0000   1.0000   1.0000   1.0000   1.0000   1.0000   1.0000   1.0000
     1.0000   1.0000   1.0000   1.0000   1.0000   1.0000   1.0000   1.0000
     1.0000   1.0000   1.0000   1.0000   1.0000   1.0000   1.0000   1.0000
     1.0000   1.0000   1.0000   1.0000   1.0000   1.0000   1.0000   1.0000
     1.0000   1.0000   1.0000   1.0000   1.0000   1.0000   1.0000   1.0000
     1.0000   1.0000   1.0000   1.0000   1.0000   1.0000   1.0000   1.0000
     1.0000   1.0000   1.0000   1.0000   1.0000   1.0000   1.0000   1.0000
     1.0000   1.0000   1.0000   1.0000   1.0000   1.0000   1.0000   1.0000
     1.0000   1.0000   1.0000   1.0000   1.0000   1.0000   1.0000   1.0000
     1.0000   1.0000   1.0000   1.0000   1.0000   1.0000   1.0000   1.0000
     1.0000   1.0000   1.0000   1.0000   1.0000   1.0000   1.0000   1.0000
     1.0000   1.0000   1.0000   1.0000   1.0000   1.0000   1.0000   1.0000
     1.0000   1.0000   1.0000   1.0000   1.0000   1.0000   1.0000   1.0000
     1.0000   1.0000   1.0000   1.0000   1.0000   1.0000   1.0000   1.0000
     1.0000   1.0000   1.0000   1.0000   1.0000   1.0000   1.0000   1.0000
     1.0000   1.0000   1.0000   1.0000   1.0000   1.0000   1.0000   1.0000
     1.0000   1.0000   1.0000   1.0000   1.0000   1.0000   1.0000   1.0000
     1.0812   1.0812   1.0833   1.0833   0.6567   0.6567   0.5695   0.5694
     0.5688   0.5688   0.0000   0.0000   0.0000   0.0000   0.0000   0.0000
     0.0000   0.0000   0.0000   0.0000   0.0000   0.0000   0.0000   0.0000
     0.0000   0.0000   0.0000   0.0000   0.0000   0.0000   0.0000   0.0000
     0.0000   0.0000   0.0000   0.0000   0.0000   0.0000   0.0000   0.0000
     0.0000   0.0000   0.0000   0.0000   0.0000   0.0000   0.0000   0.0000
     0.0000   0.0000   0.0000   0.0000   0.0000   0.0000   0.0000   0.0000
     0.0000   0.0000   0.0000   0.0000   0.0000   0.0000   0.0000   0.0000
     0.0000   0.0000   0.0000   0.0000   0.0000   0.0000   0.0000   0.0000
     0.0000   0.0000   0.0000   0.0000   0.0000   0.0000   0.0000   0.0000
     0.0000   0.0000   0.0000   0.0000   0.0000   0.0000   0.0000   0.0000
     0.0000   0.0000   0.0000   0.0000   0.0000   0.0000   0.0000   0.0000
     0.0000   0.0000   0.0000   0.0000   0.0000   0.0000   0.0000   0.0000

     the Fermi energy is     1.4330 ev

!    total energy              =  -22154.32293049 Ry
     estimated scf accuracy    <       0.00000079 Ry
     smearing contrib. (-TS)   =       0.00134159 Ry
     internal energy E=F+TS    =  -22154.32427207 Ry

     The total energy is F=E-TS. E is the sum of the following terms:
     one-electron contribution = -144865.44284772 Ry
     hartree contribution      =   72366.00190121 Ry
     xc contribution           =   -2024.13126926 Ry
     ewald contribution        =   52369.24794369 Ry

     convergence has been achieved in  10 iterations

     Writing all to output data dir ./tmp/Zn002.save/ :
     XML data file, charge density, pseudopotentials, collected wavefunctions

     init_run     :    164.81s CPU    166.93s WALL (       1 calls)
     electrons    :   6197.35s CPU   6268.36s WALL (       1 calls)

     Called by init_run:
     wfcinit      :    162.47s CPU    164.51s WALL (       1 calls)
     wfcinit:atom :      0.13s CPU      0.20s WALL (      10 calls)
     wfcinit:wfcr :    160.84s CPU    162.71s WALL (      10 calls)
     potinit      :      0.14s CPU      0.15s WALL (       1 calls)
     hinit0       :      0.05s CPU      0.06s WALL (       1 calls)

     Called by electrons:
     c_bands      :   5754.15s CPU   5816.12s WALL (      11 calls)
     sum_band     :    426.40s CPU    434.71s WALL (      11 calls)
     v_of_rho     :      1.36s CPU      1.42s WALL (      11 calls)
     v_h          :      0.10s CPU      0.11s WALL (      11 calls)
     v_xc         :      1.26s CPU      1.31s WALL (      11 calls)
     newd         :     16.71s CPU     17.29s WALL (      11 calls)
     mix_rho      :      0.18s CPU      0.19s WALL (      11 calls)

     Called by c_bands:
     init_us_2    :      5.98s CPU      6.01s WALL (     230 calls)
     cegterg      :   5741.92s CPU   5803.77s WALL (     110 calls)

     Called by sum_band:
     sum_band:wei :      0.05s CPU      0.05s WALL (      11 calls)
     sum_band:loo :    409.72s CPU    417.44s WALL (      11 calls)
     sum_band:buf :      1.25s CPU      1.26s WALL (     110 calls)
     sum_band:ini :      2.85s CPU      2.86s WALL (     110 calls)
     sum_band:cal :    343.20s CPU    344.59s WALL (     110 calls)
     sum_band:bec :      2.23s CPU      2.24s WALL (     110 calls)
     addusdens    :     16.36s CPU     16.93s WALL (      11 calls)
                                        0.00s GPU  (      11 calls)
     addusd:skk   :      0.13s CPU      0.25s WALL (      11 calls)
                                        0.00s GPU  (      11 calls)

     Called by *egterg:
     cdiaghg      :    295.47s CPU    307.06s WALL (     689 calls)
     cegterg:over :    895.59s CPU    898.30s WALL (     589 calls)
     cegterg:upda :    455.60s CPU    457.87s WALL (     589 calls)
     cegterg:last :   1321.76s CPU   1327.99s WALL (     201 calls)
     cdiaghg:chol :     17.86s CPU     17.91s WALL (     689 calls)
     cdiaghg:inve :      2.93s CPU      2.94s WALL (     689 calls)
     cdiaghg:para :     74.70s CPU     76.16s WALL (    1378 calls)
     h_psi        :   1842.98s CPU   1878.86s WALL (     709 calls)
     s_psi        :    773.05s CPU    774.91s WALL (     709 calls)
     g_psi        :      0.81s CPU      0.81s WALL (     589 calls)

     Called by h_psi:
     h_psi:calbec :    812.87s CPU    816.16s WALL (     709 calls)
     vloc_psi     :    252.49s CPU    281.86s WALL (     709 calls)
     add_vuspsi   :    775.28s CPU    777.19s WALL (     709 calls)

     General routines
     calbec       :   1156.07s CPU   1160.75s WALL (     819 calls)
     fft          :      0.99s CPU      1.08s WALL (     141 calls)
     ffts         :      0.03s CPU      0.04s WALL (      22 calls)
     fftw         :    260.83s CPU    290.94s WALL (  362944 calls)
     interpolate  :      0.10s CPU      0.10s WALL (      11 calls)

     Parallel routines

     PWSCF        :      1h46m CPU      1h47m WALL


   This run was terminated on:  21:53:40  25Mar2025            

=------------------------------------------------------------------------------=
   JOB DONE.
=------------------------------------------------------------------------------=
Note: The following floating-point exceptions are signalling: IEEE_DENORMAL
Note: The following floating-point exceptions are signalling: IEEE_DENORMAL
Note: The following floating-point exceptions are signalling: IEEE_DENORMAL
Note: The following floating-point exceptions are signalling: IEEE_DENORMAL
Note: The following floating-point exceptions are signalling: IEEE_DENORMAL
Note: The following floating-point exceptions are signalling: IEEE_DENORMAL
Note: The following floating-point exceptions are signalling: IEEE_DENORMAL
Note: The following floating-point exceptions are signalling: IEEE_DENORMAL
Note: The following floating-point exceptions are signalling: IEEE_DENORMAL
Note: The following floating-point exceptions are signalling: IEEE_DENORMAL
