
     Program PWSCF v.7.3.1 starts on 10Mar2025 at  2: 7:31 

     This program is part of the open-source Quantum ESPRESSO suite
     for quantum simulation of materials; please cite
         "P. Giannozzi et al., J. Phys.:Condens. Matter 21 395502 (2009);
         "P. Giannozzi et al., J. Phys.:Condens. Matter 29 465901 (2017);
         "P. Giannozzi et al., J. Chem. Phys. 152 154105 (2020);
          URL http://www.quantum-espresso.org", 
     in publications or presentations arising from this work. More details at
     http://www.quantum-espresso.org/quote

     Parallel version (MPI), running on    28 processors

     MPI processes distributed on     1 nodes
     145220 MiB available memory on the printing compute node when the environment starts

     Waiting for input...
     Reading input from standard input
Warning: card &CELL ignored
Warning: card   CELL_DOFREE = 'ALL' ignored
Warning: card / ignored

     Current dimensions of program PWSCF are:
     Max number of different atomic species (ntypx) = 10
     Max number of k-points (npk) =  40000
     Max angular momentum in pseudopotentials (lmaxx) =  4
     Found identity + (  0.0000  0.3333  0.0000) symmetry
     This is a supercell, fractional translations are disabled
     Message from routine setup:
     using ibrav=0 with symmetry is DISCOURAGED, use correct ibrav instead

     K-points division:     npool     =       4
     R & G space division:  proc/nbgrp/npool/nimage =       7
     Subspace diagonalization in iterative solution of the eigenvalue problem:
     one sub-group per band group will be used
     custom distributed-memory algorithm (size of sub-group:  2*  2 procs)


     Parallelization info
     --------------------
     sticks:   dense  smooth     PW     G-vecs:    dense   smooth      PW
     Min         866     433    116               130947    46293    6436
     Max         867     434    117               130950    46300    6443
     Sum        6067    3037    817               916637   324089   45083

     Using Slab Decomposition



     bravais-lattice index     =            0
     lattice parameter (alat)  =      14.8213  a.u.
     unit-cell volume          =    6784.9262 (a.u.)^3
     number of atoms/cell      =           36
     number of atomic types    =            1
     number of electrons       =       720.00
     number of Kohn-Sham states=          432
     kinetic-energy cutoff     =      50.0000  Ry
     charge density cutoff     =     400.0000  Ry
     scf convergence threshold =      7.3E-07
     mixing beta               =       0.7000
     number of iterations used =            8  plain     mixing
     energy convergence thresh.=      1.0E-05
     force convergence thresh. =      5.0E-04
     Exchange-correlation= SLA  PW   PBE  PBE
                           (   1   4   3   4   0   0   0)
     nstep                     =          100


     celldm(1)=  14.821272  celldm(2)=   0.000000  celldm(3)=   0.000000
     celldm(4)=   0.000000  celldm(5)=   0.000000  celldm(6)=   0.000000

     crystal axes: (cart. coord. in units of alat)
               a(1) = (   1.000000   0.000000   0.000000 )  
               a(2) = (  -0.500000   0.866025   0.000000 )  
               a(3) = (   0.000000   0.000000   2.406346 )  

     reciprocal axes: (cart. coord. in units 2 pi/alat)
               b(1) = (  1.000000  0.577350 -0.000000 )  
               b(2) = (  0.000000  1.154701  0.000000 )  
               b(3) = (  0.000000 -0.000000  0.415568 )  


     PseudoPot. # 1 for Zn read from file:
     /home/ys/qepseudo/SSSP_1.3.0_PBE_efficiency/Zn_pbe_v1.uspp.F.UPF
     MD5 check sum: df62231357ef9e81f77b2b3087fa5675
     Pseudo is Ultrasoft, Zval = 20.0
     Generated by new atomic code, or converted to UPF format
     Using radial grid of  943 points,  6 beta functions with: 
                l(1) =   0
                l(2) =   0
                l(3) =   1
                l(4) =   1
                l(5) =   2
                l(6) =   2
     Q(r) pseudized with  8 coefficients,  rinner =    1.100   1.100   1.100
                                                       1.100   1.100

     atomic species   valence    mass     pseudopotential
     Zn               20.00    65.38000     Zn( 1.00)

     12 Sym. Ops. (no inversion) found


                                    s                        frac. trans.

      isym =  1     identity                                     

 cryst.   s( 1) = (     1          0          0      )
                  (     0          1          0      )
                  (     0          0          1      )

 cart.    s( 1) = (  1.0000000  0.0000000  0.0000000 )
                  (  0.0000000  1.0000000  0.0000000 )
                  (  0.0000000  0.0000000  1.0000000 )


      isym =  2     180 deg rotation - cart. axis [0,0,1]        

 cryst.   s( 2) = (    -1          0          0      )
                  (     0         -1          0      )
                  (     0          0          1      )

 cart.    s( 2) = ( -1.0000000  0.0000000  0.0000000 )
                  (  0.0000000 -1.0000000  0.0000000 )
                  (  0.0000000  0.0000000  1.0000000 )


      isym =  3      60 deg rotation - cryst. axis [0,0,1]       

 cryst.   s( 3) = (     1          1          0      )
                  (    -1          0          0      )
                  (     0          0          1      )

 cart.    s( 3) = (  0.5000000 -0.8660254  0.0000000 )
                  (  0.8660254  0.5000000  0.0000000 )
                  (  0.0000000  0.0000000  1.0000000 )


      isym =  4      60 deg rotation - cryst. axis [0,0,-1]      

 cryst.   s( 4) = (     0         -1          0      )
                  (     1          1          0      )
                  (     0          0          1      )

 cart.    s( 4) = (  0.5000000  0.8660254  0.0000000 )
                  ( -0.8660254  0.5000000  0.0000000 )
                  (  0.0000000  0.0000000  1.0000000 )


      isym =  5     120 deg rotation - cryst. axis [0,0,1]       

 cryst.   s( 5) = (     0          1          0      )
                  (    -1         -1          0      )
                  (     0          0          1      )

 cart.    s( 5) = ( -0.5000000 -0.8660254  0.0000000 )
                  (  0.8660254 -0.5000000  0.0000000 )
                  (  0.0000000  0.0000000  1.0000000 )


      isym =  6     120 deg rotation - cryst. axis [0,0,-1]      

 cryst.   s( 6) = (    -1         -1          0      )
                  (     1          0          0      )
                  (     0          0          1      )

 cart.    s( 6) = ( -0.5000000  0.8660254  0.0000000 )
                  ( -0.8660254 -0.5000000  0.0000000 )
                  (  0.0000000  0.0000000  1.0000000 )


      isym =  7     inv. 180 deg rotation - cart. axis [0,1,0]   

 cryst.   s( 7) = (     1          0          0      )
                  (    -1         -1          0      )
                  (     0          0          1      )

 cart.    s( 7) = (  1.0000000  0.0000000  0.0000000 )
                  (  0.0000000 -1.0000000  0.0000000 )
                  (  0.0000000  0.0000000  1.0000000 )


      isym =  8     inv. 180 deg rotation - cart. axis [1,0,0]   

 cryst.   s( 8) = (    -1          0          0      )
                  (     1          1          0      )
                  (     0          0          1      )

 cart.    s( 8) = ( -1.0000000  0.0000000  0.0000000 )
                  (  0.0000000  1.0000000  0.0000000 )
                  (  0.0000000  0.0000000  1.0000000 )


      isym =  9     inv. 180 deg rotation - cryst. axis [1,-1,0] 

 cryst.   s( 9) = (     0          1          0      )
                  (     1          0          0      )
                  (     0          0          1      )

 cart.    s( 9) = ( -0.5000000  0.8660254  0.0000000 )
                  (  0.8660254  0.5000000  0.0000000 )
                  (  0.0000000  0.0000000  1.0000000 )


      isym = 10     inv. 180 deg rotation - cryst. axis [2,1,0]  

 cryst.   s(10) = (    -1         -1          0      )
                  (     0          1          0      )
                  (     0          0          1      )

 cart.    s(10) = ( -0.5000000 -0.8660254  0.0000000 )
                  ( -0.8660254  0.5000000  0.0000000 )
                  (  0.0000000  0.0000000  1.0000000 )


      isym = 11     inv. 180 deg rotation - cryst. axis [0,1,0]  

 cryst.   s(11) = (     1          1          0      )
                  (     0         -1          0      )
                  (     0          0          1      )

 cart.    s(11) = (  0.5000000  0.8660254  0.0000000 )
                  (  0.8660254 -0.5000000  0.0000000 )
                  (  0.0000000  0.0000000  1.0000000 )


      isym = 12     inv. 180 deg rotation - cryst. axis [1,1,0]  

 cryst.   s(12) = (     0         -1          0      )
                  (    -1          0          0      )
                  (     0          0          1      )

 cart.    s(12) = (  0.5000000 -0.8660254  0.0000000 )
                  ( -0.8660254 -0.5000000  0.0000000 )
                  (  0.0000000  0.0000000  1.0000000 )


   Cartesian axes

     site n.     atom                  positions (alat units)
         1        Zn     tau(   1) = (  -0.0000000   0.1924501   0.1553331  )
         2        Zn     tau(   2) = (  -0.0000000   0.1924501   0.4659994  )
         3        Zn     tau(   3) = (  -0.1666667   0.4811252   0.1553331  )
         4        Zn     tau(   4) = (  -0.1666667   0.4811252   0.4659994  )
         5        Zn     tau(   5) = (  -0.3333333   0.7698004   0.1553331  )
         6        Zn     tau(   6) = (  -0.3333333   0.7698004   0.4659994  )
         7        Zn     tau(   7) = (   0.3333333   0.1924501   0.1553331  )
         8        Zn     tau(   8) = (   0.3333333   0.1924501   0.4659994  )
         9        Zn     tau(   9) = (   0.1666667   0.4811252   0.1553331  )
        10        Zn     tau(  10) = (   0.1666667   0.4811252   0.4659994  )
        11        Zn     tau(  11) = (  -0.0000000   0.7698004   0.1553331  )
        12        Zn     tau(  12) = (  -0.0000000   0.7698004   0.4659994  )
        13        Zn     tau(  13) = (   0.6666667   0.1924501   0.1553331  )
        14        Zn     tau(  14) = (   0.6666667   0.1924501   0.4659994  )
        15        Zn     tau(  15) = (   0.5000000   0.4811252   0.1553331  )
        16        Zn     tau(  16) = (   0.5000000   0.4811252   0.4659994  )
        17        Zn     tau(  17) = (   0.3333333   0.7698004   0.1553331  )
        18        Zn     tau(  18) = (   0.3333333   0.7698004   0.4659994  )
        19        Zn     tau(  19) = (   0.1666667   0.0962250   0.1553331  )
        20        Zn     tau(  20) = (   0.1666667   0.0962250   0.4659994  )
        21        Zn     tau(  21) = (   0.0000000   0.3849002   0.1553331  )
        22        Zn     tau(  22) = (   0.0000000   0.3849002   0.4659994  )
        23        Zn     tau(  23) = (  -0.1666667   0.6735753   0.1553331  )
        24        Zn     tau(  24) = (  -0.1666667   0.6735753   0.4659994  )
        25        Zn     tau(  25) = (   0.5000000   0.0962250   0.1553331  )
        26        Zn     tau(  26) = (   0.5000000   0.0962250   0.4659994  )
        27        Zn     tau(  27) = (   0.3333333   0.3849002   0.1553331  )
        28        Zn     tau(  28) = (   0.3333333   0.3849002   0.4659994  )
        29        Zn     tau(  29) = (   0.1666667   0.6735753   0.1553331  )
        30        Zn     tau(  30) = (   0.1666667   0.6735753   0.4659994  )
        31        Zn     tau(  31) = (   0.8333333   0.0962250   0.1553331  )
        32        Zn     tau(  32) = (   0.8333333   0.0962250   0.4659994  )
        33        Zn     tau(  33) = (   0.6666667   0.3849002   0.1553331  )
        34        Zn     tau(  34) = (   0.6666667   0.3849002   0.4659994  )
        35        Zn     tau(  35) = (   0.5000000   0.6735753   0.1553331  )
        36        Zn     tau(  36) = (   0.5000000   0.6735753   0.4659994  )

   Crystallographic axes

     site n.     atom                  positions (cryst. coord.)
         1        Zn     tau(   1) = (  0.1111111  0.2222222  0.0645515  )
         2        Zn     tau(   2) = (  0.1111111  0.2222222  0.1936544  )
         3        Zn     tau(   3) = (  0.1111111  0.5555556  0.0645515  )
         4        Zn     tau(   4) = (  0.1111111  0.5555556  0.1936544  )
         5        Zn     tau(   5) = (  0.1111111  0.8888889  0.0645515  )
         6        Zn     tau(   6) = (  0.1111111  0.8888889  0.1936544  )
         7        Zn     tau(   7) = (  0.4444444  0.2222222  0.0645515  )
         8        Zn     tau(   8) = (  0.4444444  0.2222222  0.1936544  )
         9        Zn     tau(   9) = (  0.4444444  0.5555556  0.0645515  )
        10        Zn     tau(  10) = (  0.4444444  0.5555556  0.1936544  )
        11        Zn     tau(  11) = (  0.4444444  0.8888889  0.0645515  )
        12        Zn     tau(  12) = (  0.4444444  0.8888889  0.1936544  )
        13        Zn     tau(  13) = (  0.7777778  0.2222222  0.0645515  )
        14        Zn     tau(  14) = (  0.7777778  0.2222222  0.1936544  )
        15        Zn     tau(  15) = (  0.7777778  0.5555556  0.0645515  )
        16        Zn     tau(  16) = (  0.7777778  0.5555556  0.1936544  )
        17        Zn     tau(  17) = (  0.7777778  0.8888889  0.0645515  )
        18        Zn     tau(  18) = (  0.7777778  0.8888889  0.1936544  )
        19        Zn     tau(  19) = (  0.2222222  0.1111111  0.0645515  )
        20        Zn     tau(  20) = (  0.2222222  0.1111111  0.1936544  )
        21        Zn     tau(  21) = (  0.2222222  0.4444444  0.0645515  )
        22        Zn     tau(  22) = (  0.2222222  0.4444444  0.1936544  )
        23        Zn     tau(  23) = (  0.2222222  0.7777778  0.0645515  )
        24        Zn     tau(  24) = (  0.2222222  0.7777778  0.1936544  )
        25        Zn     tau(  25) = (  0.5555556  0.1111111  0.0645515  )
        26        Zn     tau(  26) = (  0.5555556  0.1111111  0.1936544  )
        27        Zn     tau(  27) = (  0.5555556  0.4444444  0.0645515  )
        28        Zn     tau(  28) = (  0.5555556  0.4444444  0.1936544  )
        29        Zn     tau(  29) = (  0.5555556  0.7777778  0.0645515  )
        30        Zn     tau(  30) = (  0.5555556  0.7777778  0.1936544  )
        31        Zn     tau(  31) = (  0.8888889  0.1111111  0.0645515  )
        32        Zn     tau(  32) = (  0.8888889  0.1111111  0.1936544  )
        33        Zn     tau(  33) = (  0.8888889  0.4444444  0.0645515  )
        34        Zn     tau(  34) = (  0.8888889  0.4444444  0.1936544  )
        35        Zn     tau(  35) = (  0.8888889  0.7777778  0.0645515  )
        36        Zn     tau(  36) = (  0.8888889  0.7777778  0.1936544  )

     number of k points=    12  Marzari-Vanderbilt smearing, width (Ry)=  0.0200
                       cart. coord. in units 2pi/alat
        k(    1) = (   0.0000000   0.0000000   0.0000000), wk =   0.0312500
        k(    2) = (   0.0000000   0.0000000   0.1038920), wk =   0.0625000
        k(    3) = (   0.0000000   0.0000000  -0.2077839), wk =   0.0312500
        k(    4) = (   0.0000000   0.2886751   0.0000000), wk =   0.1875000
        k(    5) = (   0.0000000   0.2886751   0.1038920), wk =   0.3750000
        k(    6) = (   0.0000000   0.2886751  -0.2077839), wk =   0.1875000
        k(    7) = (   0.0000000  -0.5773503   0.0000000), wk =   0.0937500
        k(    8) = (   0.0000000  -0.5773503   0.1038920), wk =   0.1875000
        k(    9) = (   0.0000000  -0.5773503  -0.2077839), wk =   0.0937500
        k(   10) = (   0.2500000   0.4330127   0.0000000), wk =   0.1875000
        k(   11) = (   0.2500000   0.4330127   0.1038920), wk =   0.3750000
        k(   12) = (   0.2500000   0.4330127  -0.2077839), wk =   0.1875000

                       cryst. coord.
        k(    1) = (   0.0000000   0.0000000   0.0000000), wk =   0.0312500
        k(    2) = (   0.0000000   0.0000000   0.2500000), wk =   0.0625000
        k(    3) = (   0.0000000   0.0000000  -0.5000000), wk =   0.0312500
        k(    4) = (   0.0000000   0.2500000   0.0000000), wk =   0.1875000
        k(    5) = (   0.0000000   0.2500000   0.2500000), wk =   0.3750000
        k(    6) = (   0.0000000   0.2500000  -0.5000000), wk =   0.1875000
        k(    7) = (   0.0000000  -0.5000000   0.0000000), wk =   0.0937500
        k(    8) = (   0.0000000  -0.5000000   0.2500000), wk =   0.1875000
        k(    9) = (   0.0000000  -0.5000000  -0.5000000), wk =   0.0937500
        k(   10) = (   0.2500000   0.2500000   0.0000000), wk =   0.1875000
        k(   11) = (   0.2500000   0.2500000   0.2500000), wk =   0.3750000
        k(   12) = (   0.2500000   0.2500000  -0.5000000), wk =   0.1875000

     Dense  grid:   916637 G-vectors     FFT dimensions: (  96,  96, 240)

     Smooth grid:   324089 G-vectors     FFT dimensions: (  72,  72, 162)

     Dynamical RAM for                 wfc:      38.15 MB

     Dynamical RAM for     wfc (w. buffer):     152.59 MB

     Dynamical RAM for           str. fact:       2.00 MB

     Dynamical RAM for           local pot:       0.00 MB

     Dynamical RAM for          nlocal pot:      57.22 MB

     Dynamical RAM for                qrad:       1.61 MB

     Dynamical RAM for          rho,v,vnew:      13.38 MB

     Dynamical RAM for               rhoin:       4.46 MB

     Dynamical RAM for            rho*nmix:      31.97 MB

     Dynamical RAM for           G-vectors:       7.85 MB

     Dynamical RAM for          h,s,v(r/c):       8.54 MB

     Dynamical RAM for          <psi|beta>:       4.27 MB

     Dynamical RAM for                 psi:      76.29 MB

     Dynamical RAM for                hpsi:      76.29 MB

     Dynamical RAM for                spsi:      76.29 MB

     Dynamical RAM for      wfcinit/wfcrot:      87.67 MB

     Dynamical RAM for           addusdens:     112.39 MB

     Dynamical RAM for          addusforce:     147.00 MB

     Dynamical RAM for         addusstress:     101.15 MB

     Estimated static dynamical RAM per process >     255.39 MB

     Estimated max dynamical RAM per process >     529.06 MB

     Estimated total dynamical RAM >      13.81 GB

     Initial potential from superposition of free atoms

     starting charge     719.9949, renormalised to     720.0000

     negative rho (up, down):  1.032E-03 0.000E+00
     Starting wfcs are  468 randomized atomic wfcs

     total cpu time spent up to now is       57.2 secs

     Self-consistent Calculation

     iteration #  1     ecut=    50.00 Ry     beta= 0.70
     Davidson diagonalization with overlap

---- Real-time Memory Report at c_bands before calling an iterative solver
           344 MiB given to the printing process from OS
             0 MiB allocation reported by mallinfo(arena+hblkhd)
        137317 MiB available memory on the node where the printing process lives
------------------
     ethr =  1.00E-02,  avg # of iterations =  7.1

     Threshold (ethr) on eigenvalues was too large:
     Diagonalizing with lowered threshold

     Davidson diagonalization with overlap

---- Real-time Memory Report at c_bands before calling an iterative solver
           555 MiB given to the printing process from OS
             0 MiB allocation reported by mallinfo(arena+hblkhd)
        136741 MiB available memory on the node where the printing process lives
------------------
     ethr =  6.23E-05,  avg # of iterations =  6.6

     negative rho (up, down):  4.724E-04 0.000E+00

     total cpu time spent up to now is      571.9 secs

     total energy              =  -16570.70765543 Ry
     estimated scf accuracy    <       0.44363511 Ry

     iteration #  2     ecut=    50.00 Ry     beta= 0.70
     Davidson diagonalization with overlap

---- Real-time Memory Report at c_bands before calling an iterative solver
           555 MiB given to the printing process from OS
             0 MiB allocation reported by mallinfo(arena+hblkhd)
        136186 MiB available memory on the node where the printing process lives
------------------
     ethr =  6.16E-05,  avg # of iterations =  2.8

     negative rho (up, down):  7.784E-04 0.000E+00

     total cpu time spent up to now is      784.0 secs

     total energy              =  -16570.69225054 Ry
     estimated scf accuracy    <       0.13550956 Ry

     iteration #  3     ecut=    50.00 Ry     beta= 0.70
     Davidson diagonalization with overlap

---- Real-time Memory Report at c_bands before calling an iterative solver
           571 MiB given to the printing process from OS
             0 MiB allocation reported by mallinfo(arena+hblkhd)
        136180 MiB available memory on the node where the printing process lives
------------------
     ethr =  1.88E-05,  avg # of iterations =  5.1

     negative rho (up, down):  9.376E-04 0.000E+00

     total cpu time spent up to now is     1040.9 secs

     total energy              =  -16570.71106447 Ry
     estimated scf accuracy    <       0.20282777 Ry

     iteration #  4     ecut=    50.00 Ry     beta= 0.70
     Davidson diagonalization with overlap

---- Real-time Memory Report at c_bands before calling an iterative solver
           571 MiB given to the printing process from OS
             0 MiB allocation reported by mallinfo(arena+hblkhd)
        136171 MiB available memory on the node where the printing process lives
------------------
     ethr =  1.88E-05,  avg # of iterations =  6.9

     negative rho (up, down):  9.434E-04 0.000E+00

     total cpu time spent up to now is     1250.1 secs

     total energy              =  -16570.74570559 Ry
     estimated scf accuracy    <       0.01654576 Ry

     iteration #  5     ecut=    50.00 Ry     beta= 0.70
     Davidson diagonalization with overlap

---- Real-time Memory Report at c_bands before calling an iterative solver
           572 MiB given to the printing process from OS
             0 MiB allocation reported by mallinfo(arena+hblkhd)
        136157 MiB available memory on the node where the printing process lives
------------------
     ethr =  2.30E-06,  avg # of iterations =  5.7

     negative rho (up, down):  9.438E-04 0.000E+00

     total cpu time spent up to now is     1493.7 secs

     total energy              =  -16570.74905533 Ry
     estimated scf accuracy    <       0.00011468 Ry

     iteration #  6     ecut=    50.00 Ry     beta= 0.70
     Davidson diagonalization with overlap

---- Real-time Memory Report at c_bands before calling an iterative solver
           574 MiB given to the printing process from OS
             0 MiB allocation reported by mallinfo(arena+hblkhd)
        136150 MiB available memory on the node where the printing process lives
------------------
     ethr =  1.59E-08,  avg # of iterations =  2.8

     negative rho (up, down):  9.455E-04 0.000E+00

     total cpu time spent up to now is     1702.0 secs

     total energy              =  -16570.74889091 Ry
     estimated scf accuracy    <       0.00297395 Ry

     iteration #  7     ecut=    50.00 Ry     beta= 0.70
     Davidson diagonalization with overlap

---- Real-time Memory Report at c_bands before calling an iterative solver
           575 MiB given to the printing process from OS
             0 MiB allocation reported by mallinfo(arena+hblkhd)
        136141 MiB available memory on the node where the printing process lives
------------------
     ethr =  1.59E-08,  avg # of iterations =  2.8

     negative rho (up, down):  9.445E-04 0.000E+00

     total cpu time spent up to now is     1890.5 secs

     total energy              =  -16570.74908111 Ry
     estimated scf accuracy    <       0.00000638 Ry

     iteration #  8     ecut=    50.00 Ry     beta= 0.70
     Davidson diagonalization with overlap

---- Real-time Memory Report at c_bands before calling an iterative solver
           577 MiB given to the printing process from OS
             0 MiB allocation reported by mallinfo(arena+hblkhd)
        136134 MiB available memory on the node where the printing process lives
------------------
     ethr =  8.86E-10,  avg # of iterations =  2.0

     negative rho (up, down):  9.435E-04 0.000E+00

     total cpu time spent up to now is     2090.5 secs

     End of self-consistent calculation

          k = 0.0000 0.0000 0.0000 ( 40605 PWs)   bands (ev):

  -127.1690-127.1657-126.7420-126.7420-126.7420-126.7420-126.7420-126.7420
  -126.7391-126.7391-126.7391-126.7391-126.7391-126.7391-126.1494-126.1494
  -126.1494-126.1494-126.1469-126.1469-126.1469-126.1469-125.5447-125.5447
  -125.5447-125.5447-125.5447-125.5447-125.5425-125.5425-125.5425-125.5425
  -125.5425-125.5425-125.0932-125.0912 -83.2003 -83.2003 -83.1964 -83.1964
   -82.9272 -82.9272 -82.9272 -82.9272 -82.9272 -82.9272 -82.9234 -82.9234
   -82.9234 -82.9234 -82.9234 -82.9234 -82.6546 -82.6546 -82.6511 -82.6511
   -82.0870 -82.0870 -82.0870 -82.0870 -82.0870 -82.0870 -82.0836 -82.0836
   -82.0836 -82.0836 -82.0836 -82.0836 -80.8530 -80.8530 -80.8530 -80.8530
   -80.8506 -80.8506 -80.8506 -80.8506 -80.2869 -80.2483 -80.0469 -80.0469
   -80.0469 -80.0469 -80.0469 -80.0469 -80.0119 -80.0119 -80.0119 -80.0119
   -80.0119 -80.0119 -79.7193 -79.7193 -79.7193 -79.7193 -79.6889 -79.6889
   -79.6889 -79.6889 -79.6216 -79.6216 -79.6216 -79.6216 -79.6216 -79.6216
   -79.6195 -79.6194 -79.6194 -79.6194 -79.6194 -79.6194 -79.3914 -79.3914
   -79.3914 -79.3914 -79.3914 -79.3914 -79.3658 -79.3658 -79.3658 -79.3658
   -79.3658 -79.3658 -79.1507 -79.1288 -79.0360 -79.0360 -79.0344 -79.0344
   -78.7478 -78.7478 -78.7478 -78.7478 -78.7478 -78.7478 -78.7464 -78.7464
   -78.7464 -78.7464 -78.7464 -78.7464 -78.4774 -78.4774 -78.4767 -78.4767
   -14.2849 -14.2849 -14.1588 -14.1588 -12.4398 -12.4398 -12.4398 -12.4398
   -12.4398 -12.4398 -12.3020 -12.3020 -12.3020 -12.3020 -12.3020 -12.3020
   -11.7194 -11.3879 -11.3674 -11.3674 -11.3168 -11.3168 -11.3168 -11.3168
   -11.3168 -11.3168 -11.2847 -11.2847 -11.2847 -11.2847 -11.2847 -11.2847
   -10.6671 -10.6671 -10.2828 -10.2828 -10.2828 -10.2828 -10.2828 -10.2828
   -10.0048  -9.8926  -9.8925  -9.8925  -9.8925  -9.8925  -9.8925  -9.8313
    -9.8313  -9.8313  -9.8313  -9.8313  -9.8313  -9.7912  -9.7912  -9.7912
    -9.7912  -9.7459  -9.7459  -9.7459  -9.7459  -9.6617  -9.6617  -9.6617
    -9.6617  -9.6617  -9.6617  -9.5834  -9.5834  -9.5180  -9.5180  -9.5180
    -9.5180  -9.5180  -9.5180  -9.2188  -9.2188  -9.1374  -9.1374  -9.1374
    -9.1374  -9.1374  -9.1374  -8.4868  -8.4868  -8.4665  -8.4665  -8.4359
    -8.4359  -8.3884  -8.3884  -8.1139  -8.1139  -8.1139  -8.1139  -7.7503
    -7.7503  -7.7503  -7.7503  -7.7503  -7.7503  -7.3923  -7.3923  -7.3923
    -7.3923  -5.9687  -5.9687  -5.9687  -5.9687  -5.9369  -5.9369  -5.9369
    -5.9369  -5.9369  -5.9369  -5.7340  -5.7340  -5.7340  -5.7339  -5.7339
    -5.7339  -5.6193  -5.6136  -5.6136  -5.6136  -5.6136  -5.6136  -5.6136
    -5.5909  -5.5909  -5.5909  -5.5909  -5.5909  -5.5909  -4.9483  -4.9483
    -4.9483  -4.9483  -4.6825  -4.6825  -4.4930  -4.4930  -4.3575  -4.3575
    -4.3575  -4.3575  -4.3575  -4.3575  -4.3000  -4.2999  -4.2999  -4.2999
    -4.2999  -4.2999  -4.2860  -4.2860  -4.2860  -4.2860  -4.2860  -4.2860
    -4.1972  -3.8864  -3.8864  -3.8864  -3.8864  -3.8864  -3.8864  -3.7872
    -3.7872  -3.7872  -3.7872  -3.7872  -3.7872  -3.6737  -3.6737  -3.6737
    -3.6737  -3.6737  -3.6737  -3.5529  -3.2770  -3.2770  -3.2203  -3.2203
    -2.6027  -2.6027  -2.6027  -2.6027  -2.6027  -2.6027  -1.7986  -1.1054
    -1.1054  -1.1024  -1.1024   0.0711   0.0711   1.1346   1.1346   1.1346
     1.1346   2.4773   2.4773   2.9772   2.9772   2.9772   2.9772   2.9772
     2.9772   4.6149   4.6149   4.6149   4.6149   4.7162   5.4267   5.4267
     5.4267   5.4267   5.4267   5.4267   7.7056   7.7056   7.7056   7.7056
     7.7056   7.7056   8.5973   9.1800   9.1800   9.1800   9.1800   9.2443
     9.3937   9.3937   9.3937   9.3937   9.3937   9.3937   9.7375  11.3319
    11.5046  11.5046  11.5508  11.5508  11.5508  11.5508  11.5508  11.5508
    11.8607  11.8607  11.8607  11.8607  11.8607  11.8607  12.0840  12.6827
    12.6827  12.6827  12.6827  12.6827  12.6827  12.9871  12.9871  12.9871
    12.9871  12.9871  12.9871  13.2887  13.2887  13.2887  13.2887  13.2887
    13.2887  14.5601  14.5744  14.5744  14.5744  14.5744  14.5744  14.5744
    14.7784  14.7784  14.7784  14.7784  14.7784  14.7784  15.1167  15.1167

     occupation numbers 
     1.0000   1.0000   1.0000   1.0000   1.0000   1.0000   1.0000   1.0000
     1.0000   1.0000   1.0000   1.0000   1.0000   1.0000   1.0000   1.0000
     1.0000   1.0000   1.0000   1.0000   1.0000   1.0000   1.0000   1.0000
     1.0000   1.0000   1.0000   1.0000   1.0000   1.0000   1.0000   1.0000
     1.0000   1.0000   1.0000   1.0000   1.0000   1.0000   1.0000   1.0000
     1.0000   1.0000   1.0000   1.0000   1.0000   1.0000   1.0000   1.0000
     1.0000   1.0000   1.0000   1.0000   1.0000   1.0000   1.0000   1.0000
     1.0000   1.0000   1.0000   1.0000   1.0000   1.0000   1.0000   1.0000
     1.0000   1.0000   1.0000   1.0000   1.0000   1.0000   1.0000   1.0000
     1.0000   1.0000   1.0000   1.0000   1.0000   1.0000   1.0000   1.0000
     1.0000   1.0000   1.0000   1.0000   1.0000   1.0000   1.0000   1.0000
     1.0000   1.0000   1.0000   1.0000   1.0000   1.0000   1.0000   1.0000
     1.0000   1.0000   1.0000   1.0000   1.0000   1.0000   1.0000   1.0000
     1.0000   1.0000   1.0000   1.0000   1.0000   1.0000   1.0000   1.0000
     1.0000   1.0000   1.0000   1.0000   1.0000   1.0000   1.0000   1.0000
     1.0000   1.0000   1.0000   1.0000   1.0000   1.0000   1.0000   1.0000
     1.0000   1.0000   1.0000   1.0000   1.0000   1.0000   1.0000   1.0000
     1.0000   1.0000   1.0000   1.0000   1.0000   1.0000   1.0000   1.0000
     1.0000   1.0000   1.0000   1.0000   1.0000   1.0000   1.0000   1.0000
     1.0000   1.0000   1.0000   1.0000   1.0000   1.0000   1.0000   1.0000
     1.0000   1.0000   1.0000   1.0000   1.0000   1.0000   1.0000   1.0000
     1.0000   1.0000   1.0000   1.0000   1.0000   1.0000   1.0000   1.0000
     1.0000   1.0000   1.0000   1.0000   1.0000   1.0000   1.0000   1.0000
     1.0000   1.0000   1.0000   1.0000   1.0000   1.0000   1.0000   1.0000
     1.0000   1.0000   1.0000   1.0000   1.0000   1.0000   1.0000   1.0000
     1.0000   1.0000   1.0000   1.0000   1.0000   1.0000   1.0000   1.0000
     1.0000   1.0000   1.0000   1.0000   1.0000   1.0000   1.0000   1.0000
     1.0000   1.0000   1.0000   1.0000   1.0000   1.0000   1.0000   1.0000
     1.0000   1.0000   1.0000   1.0000   1.0000   1.0000   1.0000   1.0000
     1.0000   1.0000   1.0000   1.0000   1.0000   1.0000   1.0000   1.0000
     1.0000   1.0000   1.0000   1.0000   1.0000   1.0000   1.0000   1.0000
     1.0000   1.0000   1.0000   1.0000   1.0000   1.0000   1.0000   1.0000
     1.0000   1.0000   1.0000   1.0000   1.0000   1.0000   1.0000   1.0000
     1.0000   1.0000   1.0000   1.0000   1.0000   1.0000   1.0000   1.0000
     1.0000   1.0000   1.0000   1.0000   1.0000   1.0000   1.0000   1.0000
     1.0000   1.0000   1.0000   1.0000   1.0000   1.0000   1.0000   1.0000
     1.0000   1.0000   1.0000   1.0000   1.0000   1.0000   1.0000   1.0000
     1.0000   1.0000   1.0000   1.0000   1.0000   1.0000   1.0000   1.0000
     1.0000   1.0000   1.0000   1.0000   1.0000   1.0000   1.0000   1.0000
     1.0000   1.0000   1.0000   1.0000   1.0000   1.0000   1.0000   1.0000
     1.0000   1.0000   1.0000   1.0000   1.0000   1.0000   1.0000   1.0000
     1.0000   1.0000   1.0000   1.0000   1.0000   1.0000   1.0000   1.0000
     1.0000   1.0000   1.0000   1.0000   1.0000   1.0000   1.0000   1.0000
     1.0000   1.0000   1.0000   1.0000   1.0000   1.0000   1.0000   1.0000
     1.0000   1.0000   1.0000   1.0000   1.0000   1.0000   1.0802   1.0802
     1.0802   1.0802   1.0802   1.0802   0.0000   0.0000   0.0000   0.0000
     0.0000   0.0000   0.0000   0.0000   0.0000   0.0000   0.0000   0.0000
     0.0000   0.0000   0.0000   0.0000   0.0000   0.0000   0.0000   0.0000
     0.0000   0.0000   0.0000   0.0000   0.0000   0.0000   0.0000   0.0000
     0.0000   0.0000   0.0000   0.0000   0.0000   0.0000   0.0000   0.0000
     0.0000   0.0000   0.0000   0.0000   0.0000   0.0000   0.0000   0.0000
     0.0000   0.0000   0.0000   0.0000   0.0000   0.0000   0.0000   0.0000
     0.0000   0.0000   0.0000   0.0000   0.0000   0.0000   0.0000   0.0000
     0.0000   0.0000   0.0000   0.0000   0.0000   0.0000   0.0000   0.0000

          k = 0.0000 0.0000 0.1039 ( 40532 PWs)   bands (ev):

  -127.1690-127.1657-126.7420-126.7420-126.7420-126.7420-126.7420-126.7420
  -126.7391-126.7391-126.7391-126.7391-126.7391-126.7391-126.1494-126.1494
  -126.1494-126.1494-126.1469-126.1469-126.1469-126.1469-125.5447-125.5447
  -125.5447-125.5447-125.5447-125.5447-125.5425-125.5425-125.5425-125.5425
  -125.5425-125.5425-125.0932-125.0912 -83.2003 -83.2003 -83.1964 -83.1964
   -82.9272 -82.9272 -82.9272 -82.9272 -82.9272 -82.9272 -82.9235 -82.9235
   -82.9235 -82.9235 -82.9235 -82.9235 -82.6545 -82.6545 -82.6511 -82.6511
   -82.0870 -82.0870 -82.0870 -82.0870 -82.0870 -82.0870 -82.0836 -82.0836
   -82.0836 -82.0836 -82.0836 -82.0836 -80.8530 -80.8530 -80.8530 -80.8530
   -80.8506 -80.8506 -80.8506 -80.8506 -80.2870 -80.2483 -80.0469 -80.0469
   -80.0469 -80.0469 -80.0469 -80.0469 -80.0119 -80.0119 -80.0119 -80.0119
   -80.0119 -80.0119 -79.7192 -79.7192 -79.7192 -79.7192 -79.6889 -79.6889
   -79.6889 -79.6889 -79.6216 -79.6216 -79.6216 -79.6216 -79.6216 -79.6216
   -79.6195 -79.6195 -79.6195 -79.6195 -79.6195 -79.6195 -79.3914 -79.3914
   -79.3914 -79.3914 -79.3914 -79.3914 -79.3657 -79.3657 -79.3657 -79.3657
   -79.3657 -79.3657 -79.1507 -79.1288 -79.0360 -79.0360 -79.0344 -79.0344
   -78.7478 -78.7478 -78.7478 -78.7478 -78.7478 -78.7478 -78.7465 -78.7465
   -78.7465 -78.7465 -78.7465 -78.7465 -78.4774 -78.4774 -78.4767 -78.4767
   -14.2849 -14.2849 -14.1588 -14.1588 -12.4398 -12.4398 -12.4398 -12.4398
   -12.4398 -12.4398 -12.3021 -12.3021 -12.3021 -12.3021 -12.3021 -12.3021
   -11.7194 -11.3879 -11.3674 -11.3674 -11.3168 -11.3168 -11.3168 -11.3168
   -11.3168 -11.3167 -11.2848 -11.2848 -11.2848 -11.2848 -11.2848 -11.2848
   -10.6671 -10.6671 -10.2828 -10.2828 -10.2828 -10.2828 -10.2828 -10.2828
   -10.0048  -9.8925  -9.8925  -9.8925  -9.8925  -9.8925  -9.8925  -9.8313
    -9.8313  -9.8313  -9.8313  -9.8313  -9.8313  -9.7912  -9.7912  -9.7912
    -9.7912  -9.7459  -9.7459  -9.7459  -9.7459  -9.6617  -9.6617  -9.6617
    -9.6617  -9.6617  -9.6617  -9.5833  -9.5833  -9.5180  -9.5180  -9.5180
    -9.5180  -9.5180  -9.5180  -9.2188  -9.2188  -9.1374  -9.1374  -9.1374
    -9.1374  -9.1374  -9.1374  -8.4868  -8.4868  -8.4664  -8.4664  -8.4359
    -8.4359  -8.3884  -8.3884  -8.1138  -8.1138  -8.1138  -8.1138  -7.7503
    -7.7503  -7.7503  -7.7503  -7.7503  -7.7503  -7.3923  -7.3923  -7.3923
    -7.3923  -5.9687  -5.9687  -5.9687  -5.9687  -5.9369  -5.9369  -5.9369
    -5.9369  -5.9369  -5.9369  -5.7339  -5.7339  -5.7339  -5.7339  -5.7339
    -5.7339  -5.6193  -5.6136  -5.6136  -5.6136  -5.6136  -5.6136  -5.6136
    -5.5909  -5.5909  -5.5909  -5.5909  -5.5909  -5.5909  -4.9483  -4.9483
    -4.9483  -4.9483  -4.6825  -4.6825  -4.4930  -4.4930  -4.3575  -4.3575
    -4.3575  -4.3575  -4.3575  -4.3575  -4.3000  -4.3000  -4.3000  -4.3000
    -4.3000  -4.3000  -4.2860  -4.2860  -4.2860  -4.2860  -4.2860  -4.2860
    -4.1972  -3.8864  -3.8864  -3.8864  -3.8864  -3.8864  -3.8864  -3.7872
    -3.7872  -3.7872  -3.7872  -3.7872  -3.7872  -3.6737  -3.6737  -3.6737
    -3.6737  -3.6737  -3.6737  -3.5529  -3.2770  -3.2770  -3.2203  -3.2203
    -2.6027  -2.6027  -2.6027  -2.6027  -2.6027  -2.6027  -1.7986  -1.1054
    -1.1054  -1.1024  -1.1024   0.0711   0.0711   1.1346   1.1346   1.1346
     1.1346   2.4773   2.4773   2.9772   2.9772   2.9772   2.9772   2.9772
     2.9772   4.6149   4.6149   4.6149   4.6149   4.7162   5.4267   5.4267
     5.4267   5.4267   5.4267   5.4267   7.7056   7.7056   7.7056   7.7056
     7.7056   7.7056   8.6207   9.1325   9.1800   9.1800   9.1800   9.1800
     9.3936   9.3936   9.3936   9.3936   9.3936   9.3936   9.9195  11.0388
    11.5046  11.5046  11.5508  11.5508  11.5508  11.5508  11.5508  11.5508
    11.8842  11.8842  11.8842  11.8842  11.8842  11.8842  12.4343  12.5131
    12.5131  12.5131  12.5131  12.5131  12.5131  13.2486  13.2486  13.2486
    13.2486  13.2486  13.2486  13.2904  13.2904  13.2904  13.2904  13.2904
    13.2904  14.1156  14.3605  14.3605  14.3605  14.3605  14.3605  14.3605
    14.5744  14.5744  14.5744  14.5744  14.5744  14.5744  15.1167  15.1167

     occupation numbers 
     1.0000   1.0000   1.0000   1.0000   1.0000   1.0000   1.0000   1.0000
     1.0000   1.0000   1.0000   1.0000   1.0000   1.0000   1.0000   1.0000
     1.0000   1.0000   1.0000   1.0000   1.0000   1.0000   1.0000   1.0000
     1.0000   1.0000   1.0000   1.0000   1.0000   1.0000   1.0000   1.0000
     1.0000   1.0000   1.0000   1.0000   1.0000   1.0000   1.0000   1.0000
     1.0000   1.0000   1.0000   1.0000   1.0000   1.0000   1.0000   1.0000
     1.0000   1.0000   1.0000   1.0000   1.0000   1.0000   1.0000   1.0000
     1.0000   1.0000   1.0000   1.0000   1.0000   1.0000   1.0000   1.0000
     1.0000   1.0000   1.0000   1.0000   1.0000   1.0000   1.0000   1.0000
     1.0000   1.0000   1.0000   1.0000   1.0000   1.0000   1.0000   1.0000
     1.0000   1.0000   1.0000   1.0000   1.0000   1.0000   1.0000   1.0000
     1.0000   1.0000   1.0000   1.0000   1.0000   1.0000   1.0000   1.0000
     1.0000   1.0000   1.0000   1.0000   1.0000   1.0000   1.0000   1.0000
     1.0000   1.0000   1.0000   1.0000   1.0000   1.0000   1.0000   1.0000
     1.0000   1.0000   1.0000   1.0000   1.0000   1.0000   1.0000   1.0000
     1.0000   1.0000   1.0000   1.0000   1.0000   1.0000   1.0000   1.0000
     1.0000   1.0000   1.0000   1.0000   1.0000   1.0000   1.0000   1.0000
     1.0000   1.0000   1.0000   1.0000   1.0000   1.0000   1.0000   1.0000
     1.0000   1.0000   1.0000   1.0000   1.0000   1.0000   1.0000   1.0000
     1.0000   1.0000   1.0000   1.0000   1.0000   1.0000   1.0000   1.0000
     1.0000   1.0000   1.0000   1.0000   1.0000   1.0000   1.0000   1.0000
     1.0000   1.0000   1.0000   1.0000   1.0000   1.0000   1.0000   1.0000
     1.0000   1.0000   1.0000   1.0000   1.0000   1.0000   1.0000   1.0000
     1.0000   1.0000   1.0000   1.0000   1.0000   1.0000   1.0000   1.0000
     1.0000   1.0000   1.0000   1.0000   1.0000   1.0000   1.0000   1.0000
     1.0000   1.0000   1.0000   1.0000   1.0000   1.0000   1.0000   1.0000
     1.0000   1.0000   1.0000   1.0000   1.0000   1.0000   1.0000   1.0000
     1.0000   1.0000   1.0000   1.0000   1.0000   1.0000   1.0000   1.0000
     1.0000   1.0000   1.0000   1.0000   1.0000   1.0000   1.0000   1.0000
     1.0000   1.0000   1.0000   1.0000   1.0000   1.0000   1.0000   1.0000
     1.0000   1.0000   1.0000   1.0000   1.0000   1.0000   1.0000   1.0000
     1.0000   1.0000   1.0000   1.0000   1.0000   1.0000   1.0000   1.0000
     1.0000   1.0000   1.0000   1.0000   1.0000   1.0000   1.0000   1.0000
     1.0000   1.0000   1.0000   1.0000   1.0000   1.0000   1.0000   1.0000
     1.0000   1.0000   1.0000   1.0000   1.0000   1.0000   1.0000   1.0000
     1.0000   1.0000   1.0000   1.0000   1.0000   1.0000   1.0000   1.0000
     1.0000   1.0000   1.0000   1.0000   1.0000   1.0000   1.0000   1.0000
     1.0000   1.0000   1.0000   1.0000   1.0000   1.0000   1.0000   1.0000
     1.0000   1.0000   1.0000   1.0000   1.0000   1.0000   1.0000   1.0000
     1.0000   1.0000   1.0000   1.0000   1.0000   1.0000   1.0000   1.0000
     1.0000   1.0000   1.0000   1.0000   1.0000   1.0000   1.0000   1.0000
     1.0000   1.0000   1.0000   1.0000   1.0000   1.0000   1.0000   1.0000
     1.0000   1.0000   1.0000   1.0000   1.0000   1.0000   1.0000   1.0000
     1.0000   1.0000   1.0000   1.0000   1.0000   1.0000   1.0000   1.0000
     1.0000   1.0000   1.0000   1.0000   1.0000   1.0000   1.0802   1.0802
     1.0802   1.0802   1.0802   1.0802   0.0000   0.0000   0.0000   0.0000
     0.0000   0.0000   0.0000   0.0000   0.0000   0.0000   0.0000   0.0000
     0.0000   0.0000   0.0000   0.0000   0.0000   0.0000   0.0000   0.0000
     0.0000   0.0000   0.0000   0.0000   0.0000   0.0000   0.0000   0.0000
     0.0000   0.0000   0.0000   0.0000   0.0000   0.0000   0.0000   0.0000
     0.0000   0.0000   0.0000   0.0000   0.0000   0.0000   0.0000   0.0000
     0.0000   0.0000   0.0000   0.0000   0.0000   0.0000   0.0000   0.0000
     0.0000   0.0000   0.0000   0.0000   0.0000   0.0000   0.0000   0.0000
     0.0000   0.0000   0.0000   0.0000   0.0000   0.0000   0.0000   0.0000

          k = 0.0000 0.0000-0.2078 ( 40496 PWs)   bands (ev):

  -127.1689-127.1657-126.7420-126.7420-126.7420-126.7420-126.7420-126.7420
  -126.7391-126.7391-126.7391-126.7391-126.7391-126.7391-126.1494-126.1494
  -126.1494-126.1494-126.1469-126.1469-126.1469-126.1469-125.5447-125.5447
  -125.5447-125.5447-125.5447-125.5447-125.5425-125.5425-125.5425-125.5425
  -125.5425-125.5425-125.0932-125.0912 -83.2004 -83.2004 -83.1963 -83.1963
   -82.9272 -82.9272 -82.9272 -82.9272 -82.9272 -82.9272 -82.9235 -82.9235
   -82.9235 -82.9235 -82.9235 -82.9235 -82.6545 -82.6545 -82.6512 -82.6512
   -82.0870 -82.0870 -82.0870 -82.0870 -82.0870 -82.0870 -82.0837 -82.0836
   -82.0836 -82.0836 -82.0836 -82.0836 -80.8530 -80.8530 -80.8530 -80.8530
   -80.8506 -80.8506 -80.8506 -80.8506 -80.2870 -80.2481 -80.0469 -80.0469
   -80.0469 -80.0469 -80.0469 -80.0469 -80.0118 -80.0118 -80.0118 -80.0118
   -80.0118 -80.0118 -79.7192 -79.7192 -79.7192 -79.7192 -79.6889 -79.6889
   -79.6889 -79.6889 -79.6216 -79.6216 -79.6216 -79.6216 -79.6216 -79.6216
   -79.6195 -79.6195 -79.6195 -79.6195 -79.6195 -79.6195 -79.3914 -79.3914
   -79.3914 -79.3914 -79.3914 -79.3914 -79.3658 -79.3658 -79.3658 -79.3658
   -79.3658 -79.3658 -79.1509 -79.1287 -79.0359 -79.0359 -79.0344 -79.0344
   -78.7478 -78.7478 -78.7478 -78.7478 -78.7478 -78.7478 -78.7465 -78.7465
   -78.7465 -78.7465 -78.7465 -78.7465 -78.4774 -78.4774 -78.4767 -78.4767
   -14.2849 -14.2849 -14.1588 -14.1588 -12.4398 -12.4398 -12.4398 -12.4398
   -12.4398 -12.4398 -12.3021 -12.3021 -12.3021 -12.3021 -12.3021 -12.3021
   -11.7194 -11.3879 -11.3673 -11.3673 -11.3168 -11.3168 -11.3168 -11.3168
   -11.3168 -11.3168 -11.2848 -11.2848 -11.2848 -11.2848 -11.2848 -11.2848
   -10.6671 -10.6671 -10.2828 -10.2828 -10.2828 -10.2828 -10.2828 -10.2828
   -10.0047  -9.8925  -9.8925  -9.8925  -9.8925  -9.8925  -9.8925  -9.8313
    -9.8313  -9.8313  -9.8313  -9.8313  -9.8313  -9.7912  -9.7912  -9.7912
    -9.7912  -9.7459  -9.7459  -9.7459  -9.7459  -9.6617  -9.6617  -9.6617
    -9.6617  -9.6617  -9.6617  -9.5834  -9.5834  -9.5180  -9.5180  -9.5180
    -9.5180  -9.5180  -9.5180  -9.2188  -9.2188  -9.1374  -9.1374  -9.1374
    -9.1374  -9.1374  -9.1374  -8.4868  -8.4868  -8.4664  -8.4664  -8.4359
    -8.4359  -8.3884  -8.3884  -8.1138  -8.1138  -8.1138  -8.1138  -7.7503
    -7.7503  -7.7503  -7.7503  -7.7503  -7.7503  -7.3923  -7.3923  -7.3923
    -7.3923  -5.9687  -5.9687  -5.9687  -5.9687  -5.9369  -5.9369  -5.9369
    -5.9369  -5.9369  -5.9369  -5.7339  -5.7339  -5.7339  -5.7339  -5.7339
    -5.7339  -5.6193  -5.6136  -5.6136  -5.6136  -5.6136  -5.6136  -5.6136
    -5.5909  -5.5909  -5.5909  -5.5909  -5.5909  -5.5909  -4.9483  -4.9483
    -4.9483  -4.9483  -4.6825  -4.6825  -4.4929  -4.4929  -4.3575  -4.3575
    -4.3575  -4.3575  -4.3575  -4.3575  -4.3000  -4.3000  -4.3000  -4.3000
    -4.3000  -4.3000  -4.2860  -4.2860  -4.2860  -4.2860  -4.2860  -4.2860
    -4.1972  -3.8864  -3.8864  -3.8864  -3.8864  -3.8864  -3.8864  -3.7872
    -3.7872  -3.7872  -3.7872  -3.7872  -3.7872  -3.6737  -3.6737  -3.6737
    -3.6737  -3.6737  -3.6737  -3.5530  -3.2770  -3.2770  -3.2203  -3.2203
    -2.6027  -2.6027  -2.6027  -2.6027  -2.6027  -2.6027  -1.7986  -1.1054
    -1.1054  -1.1023  -1.1023   0.0711   0.0711   1.1346   1.1346   1.1346
     1.1346   2.4773   2.4773   2.9773   2.9773   2.9773   2.9773   2.9773
     2.9773   4.6149   4.6149   4.6149   4.6149   4.7162   5.4267   5.4267
     5.4267   5.4267   5.4267   5.4267   7.7056   7.7056   7.7056   7.7056
     7.7056   7.7056   8.6498   9.0427   9.1800   9.1800   9.1800   9.1800
     9.3936   9.3936   9.3936   9.3936   9.3936   9.3936  10.1237  10.7706
    11.5046  11.5046  11.5508  11.5508  11.5508  11.5508  11.5508  11.5508
    11.9125  11.9125  11.9125  11.9125  11.9125  11.9125  12.4046  12.4046
    12.4046  12.4046  12.4046  12.4046  12.8023  13.2880  13.2880  13.2880
    13.2880  13.2880  13.2880  13.5479  13.5479  13.5479  13.5479  13.5479
    13.5479  13.6946  13.9917  13.9917  13.9917  13.9917  13.9917  13.9917
    14.5744  14.5744  14.5744  14.5744  14.5744  14.5744  15.1167  15.1167

     occupation numbers 
     1.0000   1.0000   1.0000   1.0000   1.0000   1.0000   1.0000   1.0000
     1.0000   1.0000   1.0000   1.0000   1.0000   1.0000   1.0000   1.0000
     1.0000   1.0000   1.0000   1.0000   1.0000   1.0000   1.0000   1.0000
     1.0000   1.0000   1.0000   1.0000   1.0000   1.0000   1.0000   1.0000
     1.0000   1.0000   1.0000   1.0000   1.0000   1.0000   1.0000   1.0000
     1.0000   1.0000   1.0000   1.0000   1.0000   1.0000   1.0000   1.0000
     1.0000   1.0000   1.0000   1.0000   1.0000   1.0000   1.0000   1.0000
     1.0000   1.0000   1.0000   1.0000   1.0000   1.0000   1.0000   1.0000
     1.0000   1.0000   1.0000   1.0000   1.0000   1.0000   1.0000   1.0000
     1.0000   1.0000   1.0000   1.0000   1.0000   1.0000   1.0000   1.0000
     1.0000   1.0000   1.0000   1.0000   1.0000   1.0000   1.0000   1.0000
     1.0000   1.0000   1.0000   1.0000   1.0000   1.0000   1.0000   1.0000
     1.0000   1.0000   1.0000   1.0000   1.0000   1.0000   1.0000   1.0000
     1.0000   1.0000   1.0000   1.0000   1.0000   1.0000   1.0000   1.0000
     1.0000   1.0000   1.0000   1.0000   1.0000   1.0000   1.0000   1.0000
     1.0000   1.0000   1.0000   1.0000   1.0000   1.0000   1.0000   1.0000
     1.0000   1.0000   1.0000   1.0000   1.0000   1.0000   1.0000   1.0000
     1.0000   1.0000   1.0000   1.0000   1.0000   1.0000   1.0000   1.0000
     1.0000   1.0000   1.0000   1.0000   1.0000   1.0000   1.0000   1.0000
     1.0000   1.0000   1.0000   1.0000   1.0000   1.0000   1.0000   1.0000
     1.0000   1.0000   1.0000   1.0000   1.0000   1.0000   1.0000   1.0000
     1.0000   1.0000   1.0000   1.0000   1.0000   1.0000   1.0000   1.0000
     1.0000   1.0000   1.0000   1.0000   1.0000   1.0000   1.0000   1.0000
     1.0000   1.0000   1.0000   1.0000   1.0000   1.0000   1.0000   1.0000
     1.0000   1.0000   1.0000   1.0000   1.0000   1.0000   1.0000   1.0000
     1.0000   1.0000   1.0000   1.0000   1.0000   1.0000   1.0000   1.0000
     1.0000   1.0000   1.0000   1.0000   1.0000   1.0000   1.0000   1.0000
     1.0000   1.0000   1.0000   1.0000   1.0000   1.0000   1.0000   1.0000
     1.0000   1.0000   1.0000   1.0000   1.0000   1.0000   1.0000   1.0000
     1.0000   1.0000   1.0000   1.0000   1.0000   1.0000   1.0000   1.0000
     1.0000   1.0000   1.0000   1.0000   1.0000   1.0000   1.0000   1.0000
     1.0000   1.0000   1.0000   1.0000   1.0000   1.0000   1.0000   1.0000
     1.0000   1.0000   1.0000   1.0000   1.0000   1.0000   1.0000   1.0000
     1.0000   1.0000   1.0000   1.0000   1.0000   1.0000   1.0000   1.0000
     1.0000   1.0000   1.0000   1.0000   1.0000   1.0000   1.0000   1.0000
     1.0000   1.0000   1.0000   1.0000   1.0000   1.0000   1.0000   1.0000
     1.0000   1.0000   1.0000   1.0000   1.0000   1.0000   1.0000   1.0000
     1.0000   1.0000   1.0000   1.0000   1.0000   1.0000   1.0000   1.0000
     1.0000   1.0000   1.0000   1.0000   1.0000   1.0000   1.0000   1.0000
     1.0000   1.0000   1.0000   1.0000   1.0000   1.0000   1.0000   1.0000
     1.0000   1.0000   1.0000   1.0000   1.0000   1.0000   1.0000   1.0000
     1.0000   1.0000   1.0000   1.0000   1.0000   1.0000   1.0000   1.0000
     1.0000   1.0000   1.0000   1.0000   1.0000   1.0000   1.0000   1.0000
     1.0000   1.0000   1.0000   1.0000   1.0000   1.0000   1.0000   1.0000
     1.0000   1.0000   1.0000   1.0000   1.0000   1.0000   1.0802   1.0802
     1.0802   1.0802   1.0802   1.0802   0.0000   0.0000   0.0000   0.0000
     0.0000   0.0000   0.0000   0.0000   0.0000   0.0000   0.0000   0.0000
     0.0000   0.0000   0.0000   0.0000   0.0000   0.0000   0.0000   0.0000
     0.0000   0.0000   0.0000   0.0000   0.0000   0.0000   0.0000   0.0000
     0.0000   0.0000   0.0000   0.0000   0.0000   0.0000   0.0000   0.0000
     0.0000   0.0000   0.0000   0.0000   0.0000   0.0000   0.0000   0.0000
     0.0000   0.0000   0.0000   0.0000   0.0000   0.0000   0.0000   0.0000
     0.0000   0.0000   0.0000   0.0000   0.0000   0.0000   0.0000   0.0000
     0.0000   0.0000   0.0000   0.0000   0.0000   0.0000   0.0000   0.0000

          k = 0.0000 0.2887 0.0000 ( 40527 PWs)   bands (ev):

  -127.1386-127.1354-126.9125-126.9094-126.8097-126.8097-126.8068-126.8068
  -126.6340-126.6340-126.6312-126.6312-126.5743-126.5715-126.3276-126.3276
  -126.3250-126.3250-125.9701-125.9701-125.9677-125.9677-125.7183-125.7160
  -125.6567-125.6567-125.6545-125.6545-125.4740-125.4740-125.4718-125.4718
  -125.3660-125.3639-125.1257-125.1237 -83.1709 -83.1709 -83.1670 -83.1670
   -82.9947 -82.9947 -82.9909 -82.9909 -82.9882 -82.9844 -82.9149 -82.9149
   -82.9112 -82.9112 -82.8406 -82.8370 -82.6806 -82.6772 -82.6112 -82.6079
   -82.3009 -82.2977 -82.1399 -82.1399 -82.1367 -82.1367 -81.9155 -81.9155
   -81.9123 -81.9123 -81.9030 -81.8997 -81.2578 -81.2578 -81.2551 -81.2551
   -80.4487 -80.4487 -80.4465 -80.4465 -80.2698 -80.2314 -80.1423 -80.1059
   -80.0847 -80.0847 -80.0491 -80.0491 -79.9868 -79.9868 -79.9536 -79.9526
   -79.9526 -79.9199 -79.8171 -79.8171 -79.8094 -79.8077 -79.7938 -79.7938
   -79.7918 -79.7918 -79.7853 -79.7853 -79.6213 -79.6213 -79.5924 -79.5924
   -79.5650 -79.5650 -79.5629 -79.5629 -79.4848 -79.4578 -79.4516 -79.4516
   -79.4251 -79.4251 -79.4016 -79.3998 -79.3535 -79.3535 -79.3284 -79.3284
   -79.2957 -79.2715 -79.1680 -79.1457 -79.0809 -79.0793 -79.0085 -79.0069
   -78.8395 -78.8382 -78.7634 -78.7634 -78.7622 -78.7622 -78.6829 -78.6817
   -78.6797 -78.6797 -78.6786 -78.6786 -78.5064 -78.5064 -78.5055 -78.5055
   -14.1261 -14.1261 -14.0003 -14.0003 -13.0134 -13.0134 -12.9355 -12.8851
   -12.8851 -12.8006 -12.3806 -12.3806 -12.2499 -12.2499 -11.6772 -11.6107
   -11.5825 -11.5399 -11.5138 -11.2761 -11.2761 -11.2305 -11.1762 -11.1762
   -11.1402 -11.1402 -10.8430 -10.8430 -10.8388 -10.8032 -10.8032 -10.8005
   -10.6200 -10.6200 -10.5875 -10.5875 -10.4288 -10.3917 -10.3917 -10.2391
   -10.2227 -10.2227 -10.1933 -10.1933 -10.0944 -10.0694 -10.0547 -10.0547
   -10.0309 -10.0114  -9.9599  -9.8942  -9.8942  -9.8644  -9.8644  -9.7717
    -9.7717  -9.7553  -9.6588  -9.6443  -9.6440  -9.6440  -9.5883  -9.5856
    -9.5856  -9.4985  -9.4985  -9.4587  -9.4587  -9.4339  -9.4139  -9.4139
    -9.3913  -9.3728  -9.3427  -9.2999  -9.2999  -9.2883  -9.2799  -9.2021
    -9.1586  -9.1368  -9.1006  -8.9958  -8.9958  -8.9459  -8.9459  -8.6962
    -8.6377  -8.6377  -8.1756  -8.1756  -7.9705  -7.9705  -7.6592  -7.6592
    -7.5459  -7.5019  -7.4622  -7.3878  -7.3657  -7.3657  -7.0473  -6.8229
    -6.8229  -6.1918  -6.0489  -6.0489  -6.0457  -5.9869  -5.9869  -5.9634
    -5.9396  -5.9396  -5.9206  -5.9206  -5.8483  -5.8483  -5.8361  -5.8089
    -5.8089  -5.7439  -5.7439  -5.7401  -5.7401  -5.6800  -5.5540  -5.5158
    -5.4850  -5.4850  -5.4492  -5.4492  -5.4302  -5.3208  -5.2923  -5.2473
    -5.0464  -5.0464  -5.0387  -5.0387  -4.9557  -4.8528  -4.8528  -4.7457
    -4.7457  -4.6023  -4.5342  -4.4448  -4.4225  -4.4105  -4.4105  -4.3075
    -4.3075  -4.2424  -4.1310  -4.0524  -4.0524  -4.0050  -3.9327  -3.9327
    -3.8711  -3.8296  -3.8296  -3.7361  -3.7266  -3.7266  -3.6366  -3.6366
    -3.6362  -3.6354  -3.6194  -3.6075  -3.5791  -3.5635  -3.5404  -3.5404
    -3.4937  -3.3414  -3.3414  -3.3393  -3.3393  -3.2782  -3.2782  -3.1493
    -3.1493  -3.1082  -3.1082  -1.8095  -1.8095  -1.7131  -1.7131  -1.4496
    -1.4496  -1.4096  -1.4096  -1.2958  -0.9113   1.1852   1.1852   1.3425
     1.4200   1.4200   2.2660   2.3432   2.3432   3.4171   3.4171   3.5082
     3.5082   4.5300   4.5300   4.5949   4.5949   4.9976   5.1347   5.1714
     6.6462   6.6462   6.7717   6.7717   6.9345   7.0357   7.0357   7.4407
     7.4407   7.7015   7.7015   8.6642   8.8011   9.4635   9.5189   9.5189
     9.8864   9.8864   9.9403  10.2170  10.2170  10.4553  10.4703  10.5052
    10.5052  10.5053  10.6584  10.7328  10.7328  11.1587  11.3160  11.3160
    11.5513  11.5803  11.9555  11.9555  12.0613  12.0613  12.2075  12.2784
    12.3987  12.3987  12.6933  12.6933  12.7393  12.7393  12.8901  12.8901
    13.0486  13.0486  13.1585  13.3005  13.4084  13.6635  13.7288  13.7288
    13.8949  14.0047  14.0047  14.0248  14.0248  14.1818  14.1818  14.5314
    14.7054  14.7054  14.7802  14.7897  14.9571  14.9571  15.3457  15.3457

     occupation numbers 
     1.0000   1.0000   1.0000   1.0000   1.0000   1.0000   1.0000   1.0000
     1.0000   1.0000   1.0000   1.0000   1.0000   1.0000   1.0000   1.0000
     1.0000   1.0000   1.0000   1.0000   1.0000   1.0000   1.0000   1.0000
     1.0000   1.0000   1.0000   1.0000   1.0000   1.0000   1.0000   1.0000
     1.0000   1.0000   1.0000   1.0000   1.0000   1.0000   1.0000   1.0000
     1.0000   1.0000   1.0000   1.0000   1.0000   1.0000   1.0000   1.0000
     1.0000   1.0000   1.0000   1.0000   1.0000   1.0000   1.0000   1.0000
     1.0000   1.0000   1.0000   1.0000   1.0000   1.0000   1.0000   1.0000
     1.0000   1.0000   1.0000   1.0000   1.0000   1.0000   1.0000   1.0000
     1.0000   1.0000   1.0000   1.0000   1.0000   1.0000   1.0000   1.0000
     1.0000   1.0000   1.0000   1.0000   1.0000   1.0000   1.0000   1.0000
     1.0000   1.0000   1.0000   1.0000   1.0000   1.0000   1.0000   1.0000
     1.0000   1.0000   1.0000   1.0000   1.0000   1.0000   1.0000   1.0000
     1.0000   1.0000   1.0000   1.0000   1.0000   1.0000   1.0000   1.0000
     1.0000   1.0000   1.0000   1.0000   1.0000   1.0000   1.0000   1.0000
     1.0000   1.0000   1.0000   1.0000   1.0000   1.0000   1.0000   1.0000
     1.0000   1.0000   1.0000   1.0000   1.0000   1.0000   1.0000   1.0000
     1.0000   1.0000   1.0000   1.0000   1.0000   1.0000   1.0000   1.0000
     1.0000   1.0000   1.0000   1.0000   1.0000   1.0000   1.0000   1.0000
     1.0000   1.0000   1.0000   1.0000   1.0000   1.0000   1.0000   1.0000
     1.0000   1.0000   1.0000   1.0000   1.0000   1.0000   1.0000   1.0000
     1.0000   1.0000   1.0000   1.0000   1.0000   1.0000   1.0000   1.0000
     1.0000   1.0000   1.0000   1.0000   1.0000   1.0000   1.0000   1.0000
     1.0000   1.0000   1.0000   1.0000   1.0000   1.0000   1.0000   1.0000
     1.0000   1.0000   1.0000   1.0000   1.0000   1.0000   1.0000   1.0000
     1.0000   1.0000   1.0000   1.0000   1.0000   1.0000   1.0000   1.0000
     1.0000   1.0000   1.0000   1.0000   1.0000   1.0000   1.0000   1.0000
     1.0000   1.0000   1.0000   1.0000   1.0000   1.0000   1.0000   1.0000
     1.0000   1.0000   1.0000   1.0000   1.0000   1.0000   1.0000   1.0000
     1.0000   1.0000   1.0000   1.0000   1.0000   1.0000   1.0000   1.0000
     1.0000   1.0000   1.0000   1.0000   1.0000   1.0000   1.0000   1.0000
     1.0000   1.0000   1.0000   1.0000   1.0000   1.0000   1.0000   1.0000
     1.0000   1.0000   1.0000   1.0000   1.0000   1.0000   1.0000   1.0000
     1.0000   1.0000   1.0000   1.0000   1.0000   1.0000   1.0000   1.0000
     1.0000   1.0000   1.0000   1.0000   1.0000   1.0000   1.0000   1.0000
     1.0000   1.0000   1.0000   1.0000   1.0000   1.0000   1.0000   1.0000
     1.0000   1.0000   1.0000   1.0000   1.0000   1.0000   1.0000   1.0000
     1.0000   1.0000   1.0000   1.0000   1.0000   1.0000   1.0000   1.0000
     1.0000   1.0000   1.0000   1.0000   1.0000   1.0000   1.0000   1.0000
     1.0000   1.0000   1.0000   1.0000   1.0000   1.0000   1.0000   1.0000
     1.0000   1.0000   1.0000   1.0000   1.0000   1.0000   1.0000   1.0000
     1.0000   1.0000   1.0000   1.0000   1.0000   1.0000   1.0000   1.0000
     1.0000   1.0000   1.0000   1.0000   1.0000   1.0000   1.0000   1.0000
     1.0000   1.0000   1.0000   1.0000   1.0000   1.0000   1.0000   1.0000
     1.0000   1.0000   1.0000   1.0000   1.0000   1.0009   1.0072   1.0114
     0.0000   0.0000   0.0000   0.0000   0.0000   0.0000   0.0000   0.0000
     0.0000   0.0000   0.0000   0.0000   0.0000   0.0000   0.0000   0.0000
     0.0000   0.0000   0.0000   0.0000   0.0000   0.0000   0.0000   0.0000
     0.0000   0.0000   0.0000   0.0000   0.0000   0.0000   0.0000   0.0000
     0.0000   0.0000   0.0000   0.0000   0.0000   0.0000   0.0000   0.0000
     0.0000   0.0000   0.0000   0.0000   0.0000   0.0000   0.0000   0.0000
     0.0000   0.0000   0.0000   0.0000   0.0000   0.0000   0.0000   0.0000
     0.0000   0.0000   0.0000   0.0000   0.0000   0.0000   0.0000   0.0000
     0.0000   0.0000   0.0000   0.0000   0.0000   0.0000   0.0000   0.0000

          k = 0.0000 0.2887 0.1039 ( 40532 PWs)   bands (ev):

  -127.1386-127.1354-126.9125-126.9094-126.8097-126.8097-126.8068-126.8068
  -126.6340-126.6340-126.6312-126.6312-126.5743-126.5715-126.3277-126.3277
  -126.3250-126.3250-125.9701-125.9701-125.9677-125.9677-125.7184-125.7161
  -125.6567-125.6567-125.6545-125.6545-125.4740-125.4740-125.4718-125.4718
  -125.3660-125.3639-125.1257-125.1237 -83.1709 -83.1709 -83.1670 -83.1670
   -82.9947 -82.9947 -82.9909 -82.9909 -82.9883 -82.9845 -82.9148 -82.9148
   -82.9112 -82.9112 -82.8406 -82.8370 -82.6806 -82.6772 -82.6112 -82.6079
   -82.3009 -82.2977 -82.1399 -82.1399 -82.1367 -82.1367 -81.9155 -81.9155
   -81.9122 -81.9122 -81.9030 -81.8997 -81.2578 -81.2578 -81.2551 -81.2551
   -80.4487 -80.4487 -80.4464 -80.4464 -80.2698 -80.2313 -80.1423 -80.1058
   -80.0847 -80.0847 -80.0491 -80.0491 -79.9867 -79.9867 -79.9536 -79.9526
   -79.9526 -79.9199 -79.8172 -79.8172 -79.8095 -79.8077 -79.7938 -79.7938
   -79.7918 -79.7918 -79.7854 -79.7854 -79.6214 -79.6214 -79.5924 -79.5924
   -79.5650 -79.5650 -79.5629 -79.5629 -79.4848 -79.4578 -79.4516 -79.4516
   -79.4251 -79.4251 -79.4017 -79.3998 -79.3535 -79.3535 -79.3284 -79.3284
   -79.2957 -79.2716 -79.1680 -79.1457 -79.0810 -79.0793 -79.0085 -79.0070
   -78.8395 -78.8382 -78.7634 -78.7634 -78.7622 -78.7622 -78.6829 -78.6817
   -78.6797 -78.6797 -78.6785 -78.6785 -78.5064 -78.5064 -78.5055 -78.5055
   -14.1261 -14.1261 -14.0003 -14.0003 -13.0134 -13.0134 -12.9355 -12.8851
   -12.8851 -12.8006 -12.3806 -12.3806 -12.2499 -12.2499 -11.6772 -11.6107
   -11.5825 -11.5399 -11.5138 -11.2761 -11.2761 -11.2305 -11.1762 -11.1762
   -11.1402 -11.1402 -10.8430 -10.8430 -10.8388 -10.8032 -10.8032 -10.8005
   -10.6200 -10.6200 -10.5875 -10.5875 -10.4289 -10.3917 -10.3917 -10.2391
   -10.2227 -10.2227 -10.1933 -10.1933 -10.0944 -10.0694 -10.0547 -10.0547
   -10.0309 -10.0114  -9.9599  -9.8941  -9.8941  -9.8644  -9.8644  -9.7717
    -9.7717  -9.7553  -9.6588  -9.6443  -9.6439  -9.6439  -9.5883  -9.5856
    -9.5856  -9.4986  -9.4986  -9.4587  -9.4587  -9.4339  -9.4139  -9.4139
    -9.3913  -9.3728  -9.3427  -9.2999  -9.2999  -9.2884  -9.2799  -9.2021
    -9.1586  -9.1367  -9.1006  -8.9958  -8.9958  -8.9459  -8.9459  -8.6962
    -8.6377  -8.6377  -8.1756  -8.1756  -7.9705  -7.9705  -7.6592  -7.6592
    -7.5459  -7.5019  -7.4622  -7.3878  -7.3657  -7.3657  -7.0473  -6.8229
    -6.8229  -6.1918  -6.0489  -6.0489  -6.0457  -5.9869  -5.9869  -5.9634
    -5.9396  -5.9396  -5.9206  -5.9206  -5.8483  -5.8483  -5.8361  -5.8089
    -5.8089  -5.7439  -5.7439  -5.7401  -5.7401  -5.6800  -5.5540  -5.5158
    -5.4850  -5.4850  -5.4492  -5.4492  -5.4302  -5.3208  -5.2923  -5.2473
    -5.0464  -5.0464  -5.0387  -5.0387  -4.9556  -4.8528  -4.8528  -4.7457
    -4.7457  -4.6023  -4.5342  -4.4448  -4.4225  -4.4105  -4.4105  -4.3075
    -4.3074  -4.2424  -4.1310  -4.0524  -4.0524  -4.0050  -3.9327  -3.9327
    -3.8711  -3.8296  -3.8296  -3.7361  -3.7266  -3.7266  -3.6366  -3.6366
    -3.6362  -3.6355  -3.6194  -3.6075  -3.5791  -3.5635  -3.5404  -3.5404
    -3.4937  -3.3414  -3.3414  -3.3393  -3.3393  -3.2783  -3.2783  -3.1493
    -3.1493  -3.1082  -3.1082  -1.8095  -1.8095  -1.7131  -1.7131  -1.4496
    -1.4496  -1.4096  -1.4096  -1.2958  -0.9113   1.1852   1.1852   1.3425
     1.4200   1.4200   2.2660   2.3432   2.3432   3.4171   3.4171   3.5082
     3.5082   4.5300   4.5300   4.5949   4.5949   4.9976   5.1347   5.1714
     6.6462   6.6462   6.7717   6.7717   6.9345   7.0357   7.0357   7.4407
     7.4407   7.7015   7.7015   8.6642   8.8245   9.3474   9.5189   9.5189
     9.8863   9.8863  10.1289  10.2170  10.2170  10.4552  10.4955  10.5049
    10.5049  10.5053  10.6584  10.7334  10.7334  11.0263  11.2476  11.3416
    11.3416  11.7785  11.9009  11.9009  11.9555  11.9555  12.2239  12.6407
    12.6445  12.6445  12.6930  12.6930  12.7393  12.7393  12.9137  12.9137
    12.9397  13.0486  13.0486  13.1585  13.4084  13.5497  13.5498  13.6847
    13.7573  13.7573  14.0677  14.0677  14.2801  14.2801  14.3106  14.3181
    14.3543  14.9445  14.9445  15.0508  15.1625  15.1628  15.3456  15.3456

     occupation numbers 
     1.0000   1.0000   1.0000   1.0000   1.0000   1.0000   1.0000   1.0000
     1.0000   1.0000   1.0000   1.0000   1.0000   1.0000   1.0000   1.0000
     1.0000   1.0000   1.0000   1.0000   1.0000   1.0000   1.0000   1.0000
     1.0000   1.0000   1.0000   1.0000   1.0000   1.0000   1.0000   1.0000
     1.0000   1.0000   1.0000   1.0000   1.0000   1.0000   1.0000   1.0000
     1.0000   1.0000   1.0000   1.0000   1.0000   1.0000   1.0000   1.0000
     1.0000   1.0000   1.0000   1.0000   1.0000   1.0000   1.0000   1.0000
     1.0000   1.0000   1.0000   1.0000   1.0000   1.0000   1.0000   1.0000
     1.0000   1.0000   1.0000   1.0000   1.0000   1.0000   1.0000   1.0000
     1.0000   1.0000   1.0000   1.0000   1.0000   1.0000   1.0000   1.0000
     1.0000   1.0000   1.0000   1.0000   1.0000   1.0000   1.0000   1.0000
     1.0000   1.0000   1.0000   1.0000   1.0000   1.0000   1.0000   1.0000
     1.0000   1.0000   1.0000   1.0000   1.0000   1.0000   1.0000   1.0000
     1.0000   1.0000   1.0000   1.0000   1.0000   1.0000   1.0000   1.0000
     1.0000   1.0000   1.0000   1.0000   1.0000   1.0000   1.0000   1.0000
     1.0000   1.0000   1.0000   1.0000   1.0000   1.0000   1.0000   1.0000
     1.0000   1.0000   1.0000   1.0000   1.0000   1.0000   1.0000   1.0000
     1.0000   1.0000   1.0000   1.0000   1.0000   1.0000   1.0000   1.0000
     1.0000   1.0000   1.0000   1.0000   1.0000   1.0000   1.0000   1.0000
     1.0000   1.0000   1.0000   1.0000   1.0000   1.0000   1.0000   1.0000
     1.0000   1.0000   1.0000   1.0000   1.0000   1.0000   1.0000   1.0000
     1.0000   1.0000   1.0000   1.0000   1.0000   1.0000   1.0000   1.0000
     1.0000   1.0000   1.0000   1.0000   1.0000   1.0000   1.0000   1.0000
     1.0000   1.0000   1.0000   1.0000   1.0000   1.0000   1.0000   1.0000
     1.0000   1.0000   1.0000   1.0000   1.0000   1.0000   1.0000   1.0000
     1.0000   1.0000   1.0000   1.0000   1.0000   1.0000   1.0000   1.0000
     1.0000   1.0000   1.0000   1.0000   1.0000   1.0000   1.0000   1.0000
     1.0000   1.0000   1.0000   1.0000   1.0000   1.0000   1.0000   1.0000
     1.0000   1.0000   1.0000   1.0000   1.0000   1.0000   1.0000   1.0000
     1.0000   1.0000   1.0000   1.0000   1.0000   1.0000   1.0000   1.0000
     1.0000   1.0000   1.0000   1.0000   1.0000   1.0000   1.0000   1.0000
     1.0000   1.0000   1.0000   1.0000   1.0000   1.0000   1.0000   1.0000
     1.0000   1.0000   1.0000   1.0000   1.0000   1.0000   1.0000   1.0000
     1.0000   1.0000   1.0000   1.0000   1.0000   1.0000   1.0000   1.0000
     1.0000   1.0000   1.0000   1.0000   1.0000   1.0000   1.0000   1.0000
     1.0000   1.0000   1.0000   1.0000   1.0000   1.0000   1.0000   1.0000
     1.0000   1.0000   1.0000   1.0000   1.0000   1.0000   1.0000   1.0000
     1.0000   1.0000   1.0000   1.0000   1.0000   1.0000   1.0000   1.0000
     1.0000   1.0000   1.0000   1.0000   1.0000   1.0000   1.0000   1.0000
     1.0000   1.0000   1.0000   1.0000   1.0000   1.0000   1.0000   1.0000
     1.0000   1.0000   1.0000   1.0000   1.0000   1.0000   1.0000   1.0000
     1.0000   1.0000   1.0000   1.0000   1.0000   1.0000   1.0000   1.0000
     1.0000   1.0000   1.0000   1.0000   1.0000   1.0000   1.0000   1.0000
     1.0000   1.0000   1.0000   1.0000   1.0000   1.0000   1.0000   1.0000
     1.0000   1.0000   1.0000   1.0000   1.0000   1.0009   1.0072   1.0114
     0.0000   0.0000   0.0000   0.0000   0.0000   0.0000   0.0000   0.0000
     0.0000   0.0000   0.0000   0.0000   0.0000   0.0000   0.0000   0.0000
     0.0000   0.0000   0.0000   0.0000   0.0000   0.0000   0.0000   0.0000
     0.0000   0.0000   0.0000   0.0000   0.0000   0.0000   0.0000   0.0000
     0.0000   0.0000   0.0000   0.0000   0.0000   0.0000   0.0000   0.0000
     0.0000   0.0000   0.0000   0.0000   0.0000   0.0000   0.0000   0.0000
     0.0000   0.0000   0.0000   0.0000   0.0000   0.0000   0.0000   0.0000
     0.0000   0.0000   0.0000   0.0000   0.0000   0.0000   0.0000   0.0000
     0.0000   0.0000   0.0000   0.0000   0.0000   0.0000   0.0000   0.0000

          k = 0.0000 0.2887-0.2078 ( 40518 PWs)   bands (ev):

  -127.1386-127.1354-126.9125-126.9094-126.8097-126.8097-126.8068-126.8068
  -126.6340-126.6340-126.6312-126.6312-126.5743-126.5715-126.3277-126.3277
  -126.3250-126.3250-125.9701-125.9701-125.9677-125.9677-125.7184-125.7161
  -125.6567-125.6567-125.6545-125.6545-125.4740-125.4740-125.4718-125.4718
  -125.3660-125.3640-125.1257-125.1237 -83.1709 -83.1709 -83.1669 -83.1669
   -82.9947 -82.9947 -82.9909 -82.9909 -82.9883 -82.9845 -82.9148 -82.9148
   -82.9112 -82.9112 -82.8406 -82.8370 -82.6806 -82.6772 -82.6112 -82.6078
   -82.3009 -82.2977 -82.1399 -82.1399 -82.1367 -82.1367 -81.9155 -81.9155
   -81.9122 -81.9122 -81.9031 -81.8997 -81.2578 -81.2578 -81.2551 -81.2551
   -80.4487 -80.4487 -80.4464 -80.4464 -80.2697 -80.2313 -80.1423 -80.1058
   -80.0847 -80.0847 -80.0491 -80.0491 -79.9867 -79.9867 -79.9536 -79.9526
   -79.9526 -79.9199 -79.8172 -79.8172 -79.8094 -79.8076 -79.7938 -79.7938
   -79.7918 -79.7918 -79.7854 -79.7854 -79.6214 -79.6214 -79.5924 -79.5924
   -79.5650 -79.5650 -79.5629 -79.5629 -79.4848 -79.4578 -79.4516 -79.4516
   -79.4251 -79.4251 -79.4017 -79.3998 -79.3535 -79.3535 -79.3284 -79.3284
   -79.2957 -79.2715 -79.1679 -79.1456 -79.0810 -79.0793 -79.0085 -79.0070
   -78.8395 -78.8382 -78.7635 -78.7635 -78.7622 -78.7622 -78.6829 -78.6817
   -78.6797 -78.6797 -78.6785 -78.6785 -78.5064 -78.5064 -78.5055 -78.5055
   -14.1261 -14.1261 -14.0003 -14.0003 -13.0134 -13.0134 -12.9355 -12.8851
   -12.8851 -12.8006 -12.3806 -12.3806 -12.2499 -12.2499 -11.6772 -11.6108
   -11.5825 -11.5399 -11.5138 -11.2761 -11.2761 -11.2305 -11.1762 -11.1762
   -11.1401 -11.1401 -10.8430 -10.8430 -10.8389 -10.8032 -10.8032 -10.8005
   -10.6200 -10.6200 -10.5875 -10.5875 -10.4289 -10.3917 -10.3917 -10.2391
   -10.2227 -10.2227 -10.1933 -10.1933 -10.0945 -10.0694 -10.0547 -10.0547
   -10.0309 -10.0114  -9.9599  -9.8942  -9.8942  -9.8644  -9.8644  -9.7717
    -9.7717  -9.7553  -9.6587  -9.6443  -9.6439  -9.6439  -9.5883  -9.5856
    -9.5856  -9.4986  -9.4985  -9.4587  -9.4587  -9.4339  -9.4139  -9.4139
    -9.3913  -9.3728  -9.3427  -9.2998  -9.2998  -9.2883  -9.2799  -9.2021
    -9.1586  -9.1367  -9.1006  -8.9958  -8.9958  -8.9459  -8.9459  -8.6962
    -8.6377  -8.6377  -8.1756  -8.1756  -7.9705  -7.9705  -7.6592  -7.6592
    -7.5459  -7.5019  -7.4622  -7.3878  -7.3657  -7.3657  -7.0473  -6.8229
    -6.8229  -6.1918  -6.0489  -6.0489  -6.0457  -5.9869  -5.9869  -5.9634
    -5.9396  -5.9396  -5.9206  -5.9206  -5.8483  -5.8483  -5.8361  -5.8089
    -5.8089  -5.7439  -5.7439  -5.7401  -5.7401  -5.6800  -5.5540  -5.5158
    -5.4850  -5.4850  -5.4492  -5.4492  -5.4302  -5.3208  -5.2923  -5.2473
    -5.0464  -5.0464  -5.0387  -5.0387  -4.9556  -4.8528  -4.8528  -4.7457
    -4.7457  -4.6023  -4.5342  -4.4448  -4.4225  -4.4105  -4.4105  -4.3074
    -4.3074  -4.2423  -4.1310  -4.0524  -4.0524  -4.0050  -3.9327  -3.9327
    -3.8711  -3.8297  -3.8297  -3.7361  -3.7266  -3.7266  -3.6366  -3.6366
    -3.6362  -3.6354  -3.6194  -3.6075  -3.5791  -3.5635  -3.5404  -3.5404
    -3.4937  -3.3414  -3.3414  -3.3393  -3.3393  -3.2782  -3.2782  -3.1493
    -3.1493  -3.1082  -3.1082  -1.8095  -1.8095  -1.7131  -1.7131  -1.4496
    -1.4496  -1.4096  -1.4096  -1.2958  -0.9113   1.1852   1.1852   1.3425
     1.4200   1.4200   2.2660   2.3432   2.3432   3.4171   3.4171   3.5082
     3.5082   4.5300   4.5300   4.5949   4.5949   4.9976   5.1347   5.1714
     6.6462   6.6462   6.7717   6.7717   6.9345   7.0357   7.0357   7.4407
     7.4407   7.7015   7.7015   8.6642   8.8535   9.2558   9.5189   9.5189
     9.8863   9.8863  10.2170  10.2170  10.3407  10.4552  10.5046  10.5046
    10.5053  10.5273  10.6583  10.7339  10.7339  10.9261  10.9707  11.3739
    11.3739  11.7914  11.7914  11.9556  11.9556  11.9648  12.2989  12.6054
    12.6926  12.6926  12.7393  12.7393  12.9160  12.9160  12.9421  12.9421
    13.0230  13.0486  13.0486  13.1585  13.4084  13.4221  13.4221  13.4394
    13.4394  13.7097  13.8735  14.0625  14.0625  14.2479  14.5909  14.5909
    14.7696  14.9485  14.9485  15.0020  15.0020  15.2537  15.3456  15.3456

     occupation numbers 
     1.0000   1.0000   1.0000   1.0000   1.0000   1.0000   1.0000   1.0000
     1.0000   1.0000   1.0000   1.0000   1.0000   1.0000   1.0000   1.0000
     1.0000   1.0000   1.0000   1.0000   1.0000   1.0000   1.0000   1.0000
     1.0000   1.0000   1.0000   1.0000   1.0000   1.0000   1.0000   1.0000
     1.0000   1.0000   1.0000   1.0000   1.0000   1.0000   1.0000   1.0000
     1.0000   1.0000   1.0000   1.0000   1.0000   1.0000   1.0000   1.0000
     1.0000   1.0000   1.0000   1.0000   1.0000   1.0000   1.0000   1.0000
     1.0000   1.0000   1.0000   1.0000   1.0000   1.0000   1.0000   1.0000
     1.0000   1.0000   1.0000   1.0000   1.0000   1.0000   1.0000   1.0000
     1.0000   1.0000   1.0000   1.0000   1.0000   1.0000   1.0000   1.0000
     1.0000   1.0000   1.0000   1.0000   1.0000   1.0000   1.0000   1.0000
     1.0000   1.0000   1.0000   1.0000   1.0000   1.0000   1.0000   1.0000
     1.0000   1.0000   1.0000   1.0000   1.0000   1.0000   1.0000   1.0000
     1.0000   1.0000   1.0000   1.0000   1.0000   1.0000   1.0000   1.0000
     1.0000   1.0000   1.0000   1.0000   1.0000   1.0000   1.0000   1.0000
     1.0000   1.0000   1.0000   1.0000   1.0000   1.0000   1.0000   1.0000
     1.0000   1.0000   1.0000   1.0000   1.0000   1.0000   1.0000   1.0000
     1.0000   1.0000   1.0000   1.0000   1.0000   1.0000   1.0000   1.0000
     1.0000   1.0000   1.0000   1.0000   1.0000   1.0000   1.0000   1.0000
     1.0000   1.0000   1.0000   1.0000   1.0000   1.0000   1.0000   1.0000
     1.0000   1.0000   1.0000   1.0000   1.0000   1.0000   1.0000   1.0000
     1.0000   1.0000   1.0000   1.0000   1.0000   1.0000   1.0000   1.0000
     1.0000   1.0000   1.0000   1.0000   1.0000   1.0000   1.0000   1.0000
     1.0000   1.0000   1.0000   1.0000   1.0000   1.0000   1.0000   1.0000
     1.0000   1.0000   1.0000   1.0000   1.0000   1.0000   1.0000   1.0000
     1.0000   1.0000   1.0000   1.0000   1.0000   1.0000   1.0000   1.0000
     1.0000   1.0000   1.0000   1.0000   1.0000   1.0000   1.0000   1.0000
     1.0000   1.0000   1.0000   1.0000   1.0000   1.0000   1.0000   1.0000
     1.0000   1.0000   1.0000   1.0000   1.0000   1.0000   1.0000   1.0000
     1.0000   1.0000   1.0000   1.0000   1.0000   1.0000   1.0000   1.0000
     1.0000   1.0000   1.0000   1.0000   1.0000   1.0000   1.0000   1.0000
     1.0000   1.0000   1.0000   1.0000   1.0000   1.0000   1.0000   1.0000
     1.0000   1.0000   1.0000   1.0000   1.0000   1.0000   1.0000   1.0000
     1.0000   1.0000   1.0000   1.0000   1.0000   1.0000   1.0000   1.0000
     1.0000   1.0000   1.0000   1.0000   1.0000   1.0000   1.0000   1.0000
     1.0000   1.0000   1.0000   1.0000   1.0000   1.0000   1.0000   1.0000
     1.0000   1.0000   1.0000   1.0000   1.0000   1.0000   1.0000   1.0000
     1.0000   1.0000   1.0000   1.0000   1.0000   1.0000   1.0000   1.0000
     1.0000   1.0000   1.0000   1.0000   1.0000   1.0000   1.0000   1.0000
     1.0000   1.0000   1.0000   1.0000   1.0000   1.0000   1.0000   1.0000
     1.0000   1.0000   1.0000   1.0000   1.0000   1.0000   1.0000   1.0000
     1.0000   1.0000   1.0000   1.0000   1.0000   1.0000   1.0000   1.0000
     1.0000   1.0000   1.0000   1.0000   1.0000   1.0000   1.0000   1.0000
     1.0000   1.0000   1.0000   1.0000   1.0000   1.0000   1.0000   1.0000
     1.0000   1.0000   1.0000   1.0000   1.0000   1.0009   1.0072   1.0114
     0.0000   0.0000   0.0000   0.0000   0.0000   0.0000   0.0000   0.0000
     0.0000   0.0000   0.0000   0.0000   0.0000   0.0000   0.0000   0.0000
     0.0000   0.0000   0.0000   0.0000   0.0000   0.0000   0.0000   0.0000
     0.0000   0.0000   0.0000   0.0000   0.0000   0.0000   0.0000   0.0000
     0.0000   0.0000   0.0000   0.0000   0.0000   0.0000   0.0000   0.0000
     0.0000   0.0000   0.0000   0.0000   0.0000   0.0000   0.0000   0.0000
     0.0000   0.0000   0.0000   0.0000   0.0000   0.0000   0.0000   0.0000
     0.0000   0.0000   0.0000   0.0000   0.0000   0.0000   0.0000   0.0000
     0.0000   0.0000   0.0000   0.0000   0.0000   0.0000   0.0000   0.0000

          k = 0.0000-0.5774 0.0000 ( 40436 PWs)   bands (ev):

  -127.0503-127.0503-127.0472-127.0472-126.8328-126.8328-126.8298-126.8298
  -126.4928-126.4928-126.4928-126.4928-126.4925-126.4901-126.4901-126.4901
  -126.4901-126.4897-125.8024-125.8020-125.8020-125.8020-125.8020-125.8000
  -125.7997-125.7997-125.7997-125.7997-125.4498-125.4498-125.4477-125.4477
  -125.2200-125.2200-125.2180-125.2180 -83.0921 -83.0921 -83.0921 -83.0921
   -83.0883 -83.0883 -83.0883 -83.0883 -83.0101 -83.0063 -82.9205 -82.9205
   -82.9168 -82.9168 -82.7499 -82.7499 -82.7465 -82.7465 -82.4871 -82.4871
   -82.4839 -82.4839 -82.1428 -82.1428 -82.1396 -82.1396 -81.8270 -81.8238
   -81.6256 -81.6256 -81.6256 -81.6256 -81.6226 -81.6226 -81.6226 -81.6226
   -80.2199 -80.2199 -80.1822 -80.1822 -80.0976 -80.0976 -80.0823 -80.0823
   -80.0823 -80.0823 -80.0802 -80.0802 -80.0802 -80.0802 -80.0618 -80.0618
   -79.9083 -79.9083 -79.9083 -79.9083 -79.9083 -79.8866 -79.8856 -79.8753
   -79.8753 -79.8753 -79.8753 -79.8747 -79.5601 -79.5601 -79.5580 -79.5580
   -79.5302 -79.5301 -79.5301 -79.5301 -79.5301 -79.5025 -79.5024 -79.5024
   -79.5024 -79.5024 -79.3405 -79.3405 -79.3156 -79.3156 -79.2180 -79.2180
   -79.2094 -79.2093 -79.2078 -79.2078 -79.1950 -79.1950 -78.9354 -78.9353
   -78.9339 -78.9339 -78.7597 -78.7597 -78.7584 -78.7584 -78.6596 -78.6586
   -78.5837 -78.5837 -78.5837 -78.5837 -78.5827 -78.5827 -78.5827 -78.5827
   -13.6728 -13.6728 -13.6728 -13.6728 -13.5474 -13.5474 -13.5474 -13.5474
   -13.1069 -12.9730 -12.4319 -12.4319 -12.3024 -12.3024 -11.7100 -11.6831
   -11.0168 -11.0168 -11.0168 -11.0168 -10.9846 -10.9846 -10.8923 -10.8923
   -10.7171 -10.7171 -10.7171 -10.7171 -10.7014 -10.7014 -10.6916 -10.6916
   -10.6916 -10.6916 -10.4804 -10.4803 -10.4803 -10.4714 -10.4714 -10.4450
   -10.4450 -10.3798 -10.3798 -10.3636 -10.3636 -10.3636 -10.3636 -10.1946
   -10.1946 -10.1460 -10.1460 -10.0591 -10.0317 -10.0317 -10.0054  -9.9272
    -9.9272  -9.9044  -9.9044  -9.8351  -9.8351  -9.6720  -9.6720  -9.4416
    -9.4415  -9.3884  -9.3884  -9.3884  -9.3884  -9.3787  -9.3787  -9.3306
    -9.3306  -9.2518  -9.2518  -9.2518  -9.2518  -9.1699  -9.1685  -9.1685
    -9.1685  -9.1685  -9.1651  -9.1651  -9.1516  -8.9506  -8.8875  -8.8875
    -8.5096  -8.5096  -8.5096  -8.5096  -8.3717  -8.3717  -7.3559  -7.3559
    -7.3559  -7.3559  -6.8456  -6.7622  -6.7622  -6.7204  -6.7204  -6.3898
    -6.3898  -6.3112  -6.3112  -6.3108  -6.3108  -6.3108  -6.3108  -6.2000
    -6.2000  -6.0084  -5.9957  -5.9957  -5.9731  -5.9731  -5.9731  -5.9731
    -5.8670  -5.8060  -5.8060  -5.7872  -5.7872  -5.6051  -5.6051  -5.6051
    -5.6051  -5.4133  -5.4133  -5.4086  -5.4086  -5.4063  -5.2529  -5.2529
    -5.2458  -5.2458  -5.2458  -5.2458  -5.1502  -4.8752  -4.8752  -4.6091
    -4.6091  -4.6091  -4.6091  -4.4220  -4.4220  -4.3941  -4.3941  -4.3548
    -4.3548  -4.2388  -4.2388  -3.9576  -3.9576  -3.9120  -3.9120  -3.8248
    -3.8248  -3.6664  -3.6367  -3.6367  -3.5823  -3.5406  -3.5406  -3.5406
    -3.5406  -3.5114  -3.5070  -3.5070  -3.5070  -3.5070  -3.4355  -3.4355
    -3.4355  -3.4355  -3.4030  -3.4030  -3.3869  -3.3869  -3.3814  -3.3677
    -2.6013  -2.3539  -2.3539  -2.3539  -2.3539  -2.1798  -2.1798  -2.1798
    -2.1798  -0.4600  -0.4600  -0.4600  -0.4600  -0.1377  -0.1377   0.4592
     0.7657   2.1129   2.1129   2.4214   2.4214   2.4214   2.4214   3.3612
     5.4230   5.4230   5.4230   5.4230   5.6571   5.6571   5.6571   5.6571
     5.7826   5.7826   6.4546   6.5921   6.5921   6.5921   6.5921   7.5645
     7.5645   8.7892   8.7892   8.8324   8.9708   8.9708   9.4045   9.4045
     9.5784   9.5784   9.5784   9.5784  10.0598  10.1148  10.1148  10.5403
    10.5403  10.9557  10.9557  10.9557  10.9557  11.0994  11.0994  11.4018
    11.4018  11.4018  11.4018  11.7356  11.7356  12.2000  12.2000  12.2051
    12.2051  12.2689  12.2689  12.3423  12.3423  12.3810  12.3810  12.7561
    12.8854  12.9924  12.9996  12.9996  13.9446  13.9446  14.2866  14.2866
    14.2866  14.2866  14.5291  14.5291  15.1073  15.1073  15.1575  15.1575
    15.1575  15.1575  15.1985  15.1985  15.1985  15.1985  15.4179  15.4180

     occupation numbers 
     1.0000   1.0000   1.0000   1.0000   1.0000   1.0000   1.0000   1.0000
     1.0000   1.0000   1.0000   1.0000   1.0000   1.0000   1.0000   1.0000
     1.0000   1.0000   1.0000   1.0000   1.0000   1.0000   1.0000   1.0000
     1.0000   1.0000   1.0000   1.0000   1.0000   1.0000   1.0000   1.0000
     1.0000   1.0000   1.0000   1.0000   1.0000   1.0000   1.0000   1.0000
     1.0000   1.0000   1.0000   1.0000   1.0000   1.0000   1.0000   1.0000
     1.0000   1.0000   1.0000   1.0000   1.0000   1.0000   1.0000   1.0000
     1.0000   1.0000   1.0000   1.0000   1.0000   1.0000   1.0000   1.0000
     1.0000   1.0000   1.0000   1.0000   1.0000   1.0000   1.0000   1.0000
     1.0000   1.0000   1.0000   1.0000   1.0000   1.0000   1.0000   1.0000
     1.0000   1.0000   1.0000   1.0000   1.0000   1.0000   1.0000   1.0000
     1.0000   1.0000   1.0000   1.0000   1.0000   1.0000   1.0000   1.0000
     1.0000   1.0000   1.0000   1.0000   1.0000   1.0000   1.0000   1.0000
     1.0000   1.0000   1.0000   1.0000   1.0000   1.0000   1.0000   1.0000
     1.0000   1.0000   1.0000   1.0000   1.0000   1.0000   1.0000   1.0000
     1.0000   1.0000   1.0000   1.0000   1.0000   1.0000   1.0000   1.0000
     1.0000   1.0000   1.0000   1.0000   1.0000   1.0000   1.0000   1.0000
     1.0000   1.0000   1.0000   1.0000   1.0000   1.0000   1.0000   1.0000
     1.0000   1.0000   1.0000   1.0000   1.0000   1.0000   1.0000   1.0000
     1.0000   1.0000   1.0000   1.0000   1.0000   1.0000   1.0000   1.0000
     1.0000   1.0000   1.0000   1.0000   1.0000   1.0000   1.0000   1.0000
     1.0000   1.0000   1.0000   1.0000   1.0000   1.0000   1.0000   1.0000
     1.0000   1.0000   1.0000   1.0000   1.0000   1.0000   1.0000   1.0000
     1.0000   1.0000   1.0000   1.0000   1.0000   1.0000   1.0000   1.0000
     1.0000   1.0000   1.0000   1.0000   1.0000   1.0000   1.0000   1.0000
     1.0000   1.0000   1.0000   1.0000   1.0000   1.0000   1.0000   1.0000
     1.0000   1.0000   1.0000   1.0000   1.0000   1.0000   1.0000   1.0000
     1.0000   1.0000   1.0000   1.0000   1.0000   1.0000   1.0000   1.0000
     1.0000   1.0000   1.0000   1.0000   1.0000   1.0000   1.0000   1.0000
     1.0000   1.0000   1.0000   1.0000   1.0000   1.0000   1.0000   1.0000
     1.0000   1.0000   1.0000   1.0000   1.0000   1.0000   1.0000   1.0000
[...]
     atom   23 type  1   force =    -5.95775545    3.43971179  286.82671250
     atom   24 type  1   force =     2.83385606   -1.63612749 -302.42656290
     atom   25 type  1   force =    -0.00001431   -8.83975990  276.28220225
     atom   26 type  1   force =    -0.00001414    4.37959272 -264.62490080
     atom   27 type  1   force =    -7.65547706    4.41989083  276.28220220
     atom   28 type  1   force =     3.79281786   -2.18978531 -264.62490060
     atom   29 type  1   force =     5.95772815    3.43971186  286.82671251
     atom   30 type  1   force =    -2.83388343   -1.63612750 -302.42656286
     atom   31 type  1   force =    -3.34965134    1.93392189  278.43481993
     atom   32 type  1   force =     1.85167169   -1.06906336 -274.49397630
     atom   33 type  1   force =     7.65544984    4.41989103  276.28220225
     atom   34 type  1   force =    -3.79284528   -2.18978541 -264.62490080
     atom   35 type  1   force =    -0.00001423   -3.86782084  278.43481987
     atom   36 type  1   force =    -0.00001418    2.13814979 -274.49397614
     The core correction contribution to forces
     atom    1 type  1   force =     0.00000000    0.00000000    0.00000000
     atom    2 type  1   force =     0.00000000    0.00000000    0.00000000
     atom    3 type  1   force =     0.00000000    0.00000000    0.00000000
     atom    4 type  1   force =     0.00000000    0.00000000    0.00000000
     atom    5 type  1   force =     0.00000000    0.00000000    0.00000000
     atom    6 type  1   force =     0.00000000    0.00000000    0.00000000
     atom    7 type  1   force =     0.00000000    0.00000000    0.00000000
     atom    8 type  1   force =     0.00000000    0.00000000    0.00000000
     atom    9 type  1   force =     0.00000000    0.00000000    0.00000000
     atom   10 type  1   force =     0.00000000    0.00000000    0.00000000
     atom   11 type  1   force =     0.00000000    0.00000000    0.00000000
     atom   12 type  1   force =     0.00000000    0.00000000    0.00000000
     atom   13 type  1   force =     0.00000000    0.00000000    0.00000000
     atom   14 type  1   force =     0.00000000    0.00000000    0.00000000
     atom   15 type  1   force =     0.00000000    0.00000000    0.00000000
     atom   16 type  1   force =     0.00000000    0.00000000    0.00000000
     atom   17 type  1   force =     0.00000000    0.00000000    0.00000000
     atom   18 type  1   force =     0.00000000    0.00000000    0.00000000
     atom   19 type  1   force =     0.00000000    0.00000000    0.00000000
     atom   20 type  1   force =     0.00000000    0.00000000    0.00000000
     atom   21 type  1   force =     0.00000000    0.00000000    0.00000000
     atom   22 type  1   force =     0.00000000    0.00000000    0.00000000
     atom   23 type  1   force =     0.00000000    0.00000000    0.00000000
     atom   24 type  1   force =     0.00000000    0.00000000    0.00000000
     atom   25 type  1   force =     0.00000000    0.00000000    0.00000000
     atom   26 type  1   force =     0.00000000    0.00000000    0.00000000
     atom   27 type  1   force =     0.00000000    0.00000000    0.00000000
     atom   28 type  1   force =     0.00000000    0.00000000    0.00000000
     atom   29 type  1   force =     0.00000000    0.00000000    0.00000000
     atom   30 type  1   force =     0.00000000    0.00000000    0.00000000
     atom   31 type  1   force =     0.00000000    0.00000000    0.00000000
     atom   32 type  1   force =     0.00000000    0.00000000    0.00000000
     atom   33 type  1   force =     0.00000000    0.00000000    0.00000000
     atom   34 type  1   force =     0.00000000    0.00000000    0.00000000
     atom   35 type  1   force =     0.00000000    0.00000000    0.00000000
     atom   36 type  1   force =     0.00000000    0.00000000    0.00000000
     The Hubbard contrib.    to forces
     atom    1 type  1   force =     0.00000000    0.00000000    0.00000000
     atom    2 type  1   force =     0.00000000    0.00000000    0.00000000
     atom    3 type  1   force =     0.00000000    0.00000000    0.00000000
     atom    4 type  1   force =     0.00000000    0.00000000    0.00000000
     atom    5 type  1   force =     0.00000000    0.00000000    0.00000000
     atom    6 type  1   force =     0.00000000    0.00000000    0.00000000
     atom    7 type  1   force =     0.00000000    0.00000000    0.00000000
     atom    8 type  1   force =     0.00000000    0.00000000    0.00000000
     atom    9 type  1   force =     0.00000000    0.00000000    0.00000000
     atom   10 type  1   force =     0.00000000    0.00000000    0.00000000
     atom   11 type  1   force =     0.00000000    0.00000000    0.00000000
     atom   12 type  1   force =     0.00000000    0.00000000    0.00000000
     atom   13 type  1   force =     0.00000000    0.00000000    0.00000000
     atom   14 type  1   force =     0.00000000    0.00000000    0.00000000
     atom   15 type  1   force =     0.00000000    0.00000000    0.00000000
     atom   16 type  1   force =     0.00000000    0.00000000    0.00000000
     atom   17 type  1   force =     0.00000000    0.00000000    0.00000000
     atom   18 type  1   force =     0.00000000    0.00000000    0.00000000
     atom   19 type  1   force =     0.00000000    0.00000000    0.00000000
     atom   20 type  1   force =     0.00000000    0.00000000    0.00000000
     atom   21 type  1   force =     0.00000000    0.00000000    0.00000000
     atom   22 type  1   force =     0.00000000    0.00000000    0.00000000
     atom   23 type  1   force =     0.00000000    0.00000000    0.00000000
     atom   24 type  1   force =     0.00000000    0.00000000    0.00000000
     atom   25 type  1   force =     0.00000000    0.00000000    0.00000000
     atom   26 type  1   force =     0.00000000    0.00000000    0.00000000
     atom   27 type  1   force =     0.00000000    0.00000000    0.00000000
     atom   28 type  1   force =     0.00000000    0.00000000    0.00000000
     atom   29 type  1   force =     0.00000000    0.00000000    0.00000000
     atom   30 type  1   force =     0.00000000    0.00000000    0.00000000
     atom   31 type  1   force =     0.00000000    0.00000000    0.00000000
     atom   32 type  1   force =     0.00000000    0.00000000    0.00000000
     atom   33 type  1   force =     0.00000000    0.00000000    0.00000000
     atom   34 type  1   force =     0.00000000    0.00000000    0.00000000
     atom   35 type  1   force =     0.00000000    0.00000000    0.00000000
     atom   36 type  1   force =     0.00000000    0.00000000    0.00000000
     The SCF correction term to forces
     atom    1 type  1   force =    -0.00000000    0.00261076   -0.00046303
     atom    2 type  1   force =    -0.00000000    0.00038044    0.00095479
     atom    3 type  1   force =     0.00122193    0.00070548   -0.00050767
     atom    4 type  1   force =    -0.00085667   -0.00049460    0.00006408
     atom    5 type  1   force =     0.00226098   -0.00130538   -0.00046303
     atom    6 type  1   force =     0.00032947   -0.00019022    0.00095479
     atom    7 type  1   force =     0.00257368    0.00148591   -0.00064994
     atom    8 type  1   force =    -0.00091009   -0.00052544    0.00034949
     atom    9 type  1   force =    -0.00122193    0.00070548   -0.00050767
     atom   10 type  1   force =     0.00085667   -0.00049460    0.00006408
     atom   11 type  1   force =     0.00000000   -0.00141097   -0.00050767
     atom   12 type  1   force =    -0.00000000    0.00098920    0.00006408
     atom   13 type  1   force =    -0.00257368    0.00148591   -0.00064994
     atom   14 type  1   force =     0.00091009   -0.00052544    0.00034949
     atom   15 type  1   force =    -0.00000000   -0.00297183   -0.00064994
     atom   16 type  1   force =    -0.00000000    0.00105089    0.00034949
     atom   17 type  1   force =    -0.00226098   -0.00130538   -0.00046303
     atom   18 type  1   force =    -0.00032947   -0.00019022    0.00095479
     atom   19 type  1   force =     0.00226098    0.00130538   -0.00046303
     atom   20 type  1   force =     0.00032947    0.00019022    0.00095479
     atom   21 type  1   force =     0.00000000    0.00297183   -0.00064994
     atom   22 type  1   force =     0.00000000   -0.00105089    0.00034949
     atom   23 type  1   force =     0.00257368   -0.00148591   -0.00064994
     atom   24 type  1   force =    -0.00091009    0.00052544    0.00034949
     atom   25 type  1   force =    -0.00000000    0.00141097   -0.00050767
     atom   26 type  1   force =     0.00000000   -0.00098920    0.00006408
     atom   27 type  1   force =     0.00122193   -0.00070548   -0.00050767
     atom   28 type  1   force =    -0.00085667    0.00049460    0.00006408
     atom   29 type  1   force =    -0.00257368   -0.00148591   -0.00064994
     atom   30 type  1   force =     0.00091009    0.00052544    0.00034949
     atom   31 type  1   force =    -0.00226098    0.00130538   -0.00046303
     atom   32 type  1   force =    -0.00032947    0.00019022    0.00095479
     atom   33 type  1   force =    -0.00122193   -0.00070548   -0.00050767
     atom   34 type  1   force =     0.00085667    0.00049460    0.00006408
     atom   35 type  1   force =     0.00000000   -0.00261076   -0.00046303
     atom   36 type  1   force =     0.00000000   -0.00038044    0.00095479

     Total force =     1.826305     Total SCF correction =     0.011436


     Computing stress (Cartesian axis) and pressure

          total   stress  (Ry/bohr**3)                   (kbar)     P=     2101.51
   0.02142211   0.00000000   0.00000000         3151.30        0.00        0.00
   0.00000000   0.02142211  -0.00000000            0.00     3151.30       -0.00
   0.00000000   0.00000000   0.00001319            0.00        0.00        1.94

     kinetic stress (kbar)  21805.89      0.00     -0.00
                                0.00  21805.89      0.00
                               -0.00      0.00  22017.63

     local   stress (kbar)**********     -0.00     -0.00
                               -0.00**********     -0.00
                               -0.00     -0.002066492.32

     nonloc. stress (kbar)  -1954.65      0.00      0.00
                                0.00  -1954.65      0.00
                                0.00      0.00  -1212.91

     hartree stress (kbar)1018269.17     -0.00      0.00
                               -0.001018269.17      0.00
                                0.00      0.00-949847.55

     exc-cor stress (kbar) -10719.61      0.00     -0.00
                                0.00 -10719.61     -0.00
                               -0.00     -0.00 -10786.83

     corecor stress (kbar)      0.00      0.00      0.00
                                0.00      0.00      0.00
                                0.00      0.00      0.00

     ewald   stress (kbar) 945002.63      0.00      0.00
                                0.00 945002.63      0.00
                                0.00      0.00**********

     hubbard stress (kbar)      0.00      0.00      0.00
                                0.00      0.00      0.00
                                0.00      0.00      0.00

     DFT-D   stress (kbar)      0.00      0.00      0.00
                                0.00      0.00      0.00
                                0.00      0.00      0.00

     XDM     stress (kbar)      0.00      0.00      0.00
                                0.00      0.00      0.00
                                0.00      0.00      0.00

     dft-nl  stress (kbar)      0.00      0.00      0.00
                                0.00      0.00      0.00
                                0.00      0.00      0.00

     TS-vdW  stress (kbar)      0.00      0.00      0.00
                                0.00      0.00      0.00
                                0.00      0.00      0.00

     MDB     stress (kbar)      0.00      0.00      0.00
                                0.00      0.00      0.00
                                0.00      0.00      0.00

     3D-RISM stress (kbar)      0.00      0.00      0.00
                                0.00      0.00      0.00
                                0.00      0.00      0.00

     Energy error            =      3.7E-04 Ry
     Gradient error          =      4.4E-01 Ry/Bohr

     number of scf cycles    =  12
     number of bfgs steps    =  10

     energy             old  =  -16572.0065302570 Ry
     energy             new  =  -16572.0068958790 Ry

     CASE: energy            _new > energy            _old

     new trust radius        =       0.0294937260 bohr
     new conv_thr            =       0.0000007350 Ry


ATOMIC_POSITIONS (angstrom)
Zn              -0.0000000130        1.5157485035        0.5125367908
Zn              -0.0000000130        1.5095947171        4.3518105537
Zn              -1.3197497714        3.7662462290        0.5160272692
Zn              -1.3024289311        3.7762464208        4.3345155789
Zn              -2.6088630936        6.0344319082        0.5125367908
Zn              -2.6141924289        6.0375088014        4.3518105537
Zn               2.6057145669        1.5044100215        0.4944314900
Zn               2.6153360088        1.5099649636        4.4101612064
Zn               1.3197497454        3.7662462290        0.5160272692
Zn               1.3024289051        3.7762464208        4.3345155789
Zn              -0.0000000130        6.0521198629        0.5160272692
Zn              -0.0000000130        6.0321194793        4.3345155789
Zn               5.2373649741        1.5044100215        0.4944314900
Zn               5.2277435322        1.5099649636        4.4101612064
Zn               3.9215397700        3.7834861290        0.4944314900
Zn               3.9215397700        3.7723762448        4.4101612064
Zn               2.6088630676        6.0344319082        0.5125367908
Zn               2.6141924029        6.0375088014        4.3518105537
Zn               1.3126767164        0.7578742408        0.5125367908
Zn               1.3073473811        0.7547973476        4.3518105537
Zn               0.0000000130        3.0088200210        0.4944314900
Zn               0.0000000130        3.0199299052        4.4101612064
Zn              -1.3158251911        5.2878961275        0.4944314900
Zn              -1.3062037492        5.2823411854        4.4101612064
Zn               3.9215397970        0.7401862861        0.5160272692
Zn               3.9215397970        0.7601866697        4.3345155789
Zn               2.6017900386        3.0260599210        0.5160272692
Zn               2.6191108789        3.0160597292        4.3345155789
Zn               1.3158252171        5.2878961275        0.4944314900
Zn               1.3062037752        5.2823411854        4.4101612064
Zn               6.5304028766        0.7578742408        0.5125367908
Zn               6.5357322119        0.7547973476        4.3518105537
Zn               5.2412895544        3.0260599210        0.5160272692
Zn               5.2239687141        3.0160597292        4.3345155789
Zn               3.9215397970        5.2765576455        0.5125367908
Zn               3.9215397970        5.2827114319        4.3518105537



     Writing config-only to output data dir ./tmp/Zn002_3x3x2_relax.save/ :
     XML data file
     NEW-OLD atomic charge density approx. for the potential

     negative rho (up, down):  9.966E-04 0.000E+00

     total cpu time spent up to now is    28992.0 secs

     Self-consistent Calculation

     iteration #  1     ecut=    50.00 Ry     beta= 0.70
     Davidson diagonalization with overlap

---- Real-time Memory Report at c_bands before calling an iterative solver
           582 MiB given to the printing process from OS
             0 MiB allocation reported by mallinfo(arena+hblkhd)
        136147 MiB available memory on the node where the printing process lives
------------------
     ethr =  1.00E-06,  avg # of iterations =  5.6

     negative rho (up, down):  9.413E-04 0.000E+00

     total cpu time spent up to now is    29422.0 secs

     total energy              =  -16572.01807993 Ry
     estimated scf accuracy    <       0.00072858 Ry

     iteration #  2     ecut=    50.00 Ry     beta= 0.70
     Davidson diagonalization with overlap

---- Real-time Memory Report at c_bands before calling an iterative solver
           582 MiB given to the printing process from OS
             0 MiB allocation reported by mallinfo(arena+hblkhd)
        136120 MiB available memory on the node where the printing process lives
------------------
     ethr =  1.01E-07,  avg # of iterations =  2.0

     negative rho (up, down):  9.440E-04 0.000E+00

     total cpu time spent up to now is    29647.2 secs

     total energy              =  -16572.01742491 Ry
     estimated scf accuracy    <       0.00406693 Ry

     iteration #  3     ecut=    50.00 Ry     beta= 0.70
     Davidson diagonalization with overlap

---- Real-time Memory Report at c_bands before calling an iterative solver
           582 MiB given to the printing process from OS
             0 MiB allocation reported by mallinfo(arena+hblkhd)
        136104 MiB available memory on the node where the printing process lives
------------------
     ethr =  1.01E-07,  avg # of iterations =  3.2

     negative rho (up, down):  9.465E-04 0.000E+00

     total cpu time spent up to now is    29833.6 secs

     total energy              =  -16572.01688608 Ry
     estimated scf accuracy    <       0.04496348 Ry

     iteration #  4     ecut=    50.00 Ry     beta= 0.70
     Davidson diagonalization with overlap

---- Real-time Memory Report at c_bands before calling an iterative solver
           582 MiB given to the printing process from OS
             0 MiB allocation reported by mallinfo(arena+hblkhd)
        136106 MiB available memory on the node where the printing process lives
------------------
     ethr =  1.01E-07,  avg # of iterations =  2.5

     negative rho (up, down):  9.462E-04 0.000E+00

     total cpu time spent up to now is    30027.6 secs

     total energy              =  -16572.01813747 Ry
     estimated scf accuracy    <       0.00033502 Ry

     iteration #  5     ecut=    50.00 Ry     beta= 0.70
     Davidson diagonalization with overlap

---- Real-time Memory Report at c_bands before calling an iterative solver
           582 MiB given to the printing process from OS
             0 MiB allocation reported by mallinfo(arena+hblkhd)
        136098 MiB available memory on the node where the printing process lives
------------------
     ethr =  4.65E-08,  avg # of iterations =  2.0

     negative rho (up, down):  9.466E-04 0.000E+00

     total cpu time spent up to now is    30210.7 secs

     total energy              =  -16572.01819362 Ry
     estimated scf accuracy    <       0.00005019 Ry

     iteration #  6     ecut=    50.00 Ry     beta= 0.70
     Davidson diagonalization with overlap

---- Real-time Memory Report at c_bands before calling an iterative solver
           582 MiB given to the printing process from OS
             0 MiB allocation reported by mallinfo(arena+hblkhd)
        136094 MiB available memory on the node where the printing process lives
------------------
     ethr =  6.97E-09,  avg # of iterations =  2.0

     negative rho (up, down):  9.466E-04 0.000E+00

     total cpu time spent up to now is    30402.2 secs

     total energy              =  -16572.01820231 Ry
     estimated scf accuracy    <       0.00000184 Ry

     iteration #  7     ecut=    50.00 Ry     beta= 0.70
     Davidson diagonalization with overlap

---- Real-time Memory Report at c_bands before calling an iterative solver
           582 MiB given to the printing process from OS
             0 MiB allocation reported by mallinfo(arena+hblkhd)
        136088 MiB available memory on the node where the printing process lives
------------------
