
     Program PWSCF v.7.3.1 starts on 18Jan1998 at 18:42:59 

     This program is part of the open-source Quantum ESPRESSO suite
     for quantum simulation of materials; please cite
         "P. Giannozzi et al., J. Phys.:Condens. Matter 21 395502 (2009);
         "P. Giannozzi et al., J. Phys.:Condens. Matter 29 465901 (2017);
         "P. Giannozzi et al., J. Chem. Phys. 152 154105 (2020);
          URL http://www.quantum-espresso.org", 
     in publications or presentations arising from this work. More details at
     http://www.quantum-espresso.org/quote

     Parallel version (MPI), running on     4 processors

     MPI processes distributed on     1 nodes
     160904 MiB available memory on the printing compute node when the environment starts

     Waiting for input...
     Reading input from standard input
Warning: card &CELL ignored
Warning: card   CELL_DOFREE = 'ALL' ignored
Warning: card / ignored

     Current dimensions of program PWSCF are:
     Max number of different atomic species (ntypx) = 10
     Max number of k-points (npk) =  40000
     Max angular momentum in pseudopotentials (lmaxx) =  4
     Found identity + (  0.0000  0.3333  0.0000) symmetry
     This is a supercell, fractional translations are disabled
     Message from routine setup:
     using ibrav=0 with symmetry is DISCOURAGED, use correct ibrav instead

     R & G space division:  proc/nbgrp/npool/nimage =       4
     Subspace diagonalization in iterative solution of the eigenvalue problem:
     one sub-group per band group will be used
     custom distributed-memory algorithm (size of sub-group:  2*  2 procs)


     Parallelization info
     --------------------
     sticks:   dense  smooth     PW     G-vecs:    dense   smooth      PW
     Min        1516     759    204               229158    81019   11268
     Max        1517     760    205               229161    81028   11273
     Sum        6067    3037    817               916637   324089   45083

     Using Slab Decomposition



     bravais-lattice index     =            0
     lattice parameter (alat)  =      14.8213  a.u.
     unit-cell volume          =    6784.9262 (a.u.)^3
     number of atoms/cell      =           36
     number of atomic types    =            1
     number of electrons       =       720.00
     number of Kohn-Sham states=          432
     kinetic-energy cutoff     =      50.0000  Ry
     charge density cutoff     =     400.0000  Ry
     scf convergence threshold =      7.3E-07
     mixing beta               =       0.7000
     number of iterations used =            8  plain     mixing
     energy convergence thresh.=      1.0E-05
     force convergence thresh. =      5.0E-04
     Exchange-correlation= SLA  PW   PBE  PBE
                           (   1   4   3   4   0   0   0)
     nstep                     =          100


     celldm(1)=  14.821272  celldm(2)=   0.000000  celldm(3)=   0.000000
     celldm(4)=   0.000000  celldm(5)=   0.000000  celldm(6)=   0.000000

     crystal axes: (cart. coord. in units of alat)
               a(1) = (   1.000000   0.000000   0.000000 )  
               a(2) = (  -0.500000   0.866025   0.000000 )  
               a(3) = (   0.000000   0.000000   2.406346 )  

     reciprocal axes: (cart. coord. in units 2 pi/alat)
               b(1) = (  1.000000  0.577350 -0.000000 )  
               b(2) = (  0.000000  1.154701  0.000000 )  
               b(3) = (  0.000000 -0.000000  0.415568 )  


     PseudoPot. # 1 for Zn read from file:
     /home/ys/qepseudo/SSSP_1.3.0_PBE_efficiency/Zn_pbe_v1.uspp.F.UPF
     MD5 check sum: df62231357ef9e81f77b2b3087fa5675
     Pseudo is Ultrasoft, Zval = 20.0
     Generated by new atomic code, or converted to UPF format
     Using radial grid of  943 points,  6 beta functions with: 
                l(1) =   0
                l(2) =   0
                l(3) =   1
                l(4) =   1
                l(5) =   2
                l(6) =   2
     Q(r) pseudized with  8 coefficients,  rinner =    1.100   1.100   1.100
                                                       1.100   1.100

     atomic species   valence    mass     pseudopotential
     Zn               20.00    65.38000     Zn( 1.00)

     12 Sym. Ops. (no inversion) found


                                    s                        frac. trans.

      isym =  1     identity                                     

 cryst.   s( 1) = (     1          0          0      )
                  (     0          1          0      )
                  (     0          0          1      )

 cart.    s( 1) = (  1.0000000  0.0000000  0.0000000 )
                  (  0.0000000  1.0000000  0.0000000 )
                  (  0.0000000  0.0000000  1.0000000 )


      isym =  2     180 deg rotation - cart. axis [0,0,1]        

 cryst.   s( 2) = (    -1          0          0      )
                  (     0         -1          0      )
                  (     0          0          1      )

 cart.    s( 2) = ( -1.0000000  0.0000000  0.0000000 )
                  (  0.0000000 -1.0000000  0.0000000 )
                  (  0.0000000  0.0000000  1.0000000 )


      isym =  3      60 deg rotation - cryst. axis [0,0,1]       

 cryst.   s( 3) = (     1          1          0      )
                  (    -1          0          0      )
                  (     0          0          1      )

 cart.    s( 3) = (  0.5000000 -0.8660254  0.0000000 )
                  (  0.8660254  0.5000000  0.0000000 )
                  (  0.0000000  0.0000000  1.0000000 )


      isym =  4      60 deg rotation - cryst. axis [0,0,-1]      

 cryst.   s( 4) = (     0         -1          0      )
                  (     1          1          0      )
                  (     0          0          1      )

 cart.    s( 4) = (  0.5000000  0.8660254  0.0000000 )
                  ( -0.8660254  0.5000000  0.0000000 )
                  (  0.0000000  0.0000000  1.0000000 )


      isym =  5     120 deg rotation - cryst. axis [0,0,1]       

 cryst.   s( 5) = (     0          1          0      )
                  (    -1         -1          0      )
                  (     0          0          1      )

 cart.    s( 5) = ( -0.5000000 -0.8660254  0.0000000 )
                  (  0.8660254 -0.5000000  0.0000000 )
                  (  0.0000000  0.0000000  1.0000000 )


      isym =  6     120 deg rotation - cryst. axis [0,0,-1]      

 cryst.   s( 6) = (    -1         -1          0      )
                  (     1          0          0      )
                  (     0          0          1      )

 cart.    s( 6) = ( -0.5000000  0.8660254  0.0000000 )
                  ( -0.8660254 -0.5000000  0.0000000 )
                  (  0.0000000  0.0000000  1.0000000 )


      isym =  7     inv. 180 deg rotation - cart. axis [0,1,0]   

 cryst.   s( 7) = (     1          0          0      )
                  (    -1         -1          0      )
                  (     0          0          1      )

 cart.    s( 7) = (  1.0000000  0.0000000  0.0000000 )
                  (  0.0000000 -1.0000000  0.0000000 )
                  (  0.0000000  0.0000000  1.0000000 )


      isym =  8     inv. 180 deg rotation - cart. axis [1,0,0]   

 cryst.   s( 8) = (    -1          0          0      )
                  (     1          1          0      )
                  (     0          0          1      )

 cart.    s( 8) = ( -1.0000000  0.0000000  0.0000000 )
                  (  0.0000000  1.0000000  0.0000000 )
                  (  0.0000000  0.0000000  1.0000000 )


      isym =  9     inv. 180 deg rotation - cryst. axis [1,-1,0] 

 cryst.   s( 9) = (     0          1          0      )
                  (     1          0          0      )
                  (     0          0          1      )

 cart.    s( 9) = ( -0.5000000  0.8660254  0.0000000 )
                  (  0.8660254  0.5000000  0.0000000 )
                  (  0.0000000  0.0000000  1.0000000 )


      isym = 10     inv. 180 deg rotation - cryst. axis [2,1,0]  

 cryst.   s(10) = (    -1         -1          0      )
                  (     0          1          0      )
                  (     0          0          1      )

 cart.    s(10) = ( -0.5000000 -0.8660254  0.0000000 )
                  ( -0.8660254  0.5000000  0.0000000 )
                  (  0.0000000  0.0000000  1.0000000 )


      isym = 11     inv. 180 deg rotation - cryst. axis [0,1,0]  

 cryst.   s(11) = (     1          1          0      )
                  (     0         -1          0      )
                  (     0          0          1      )

 cart.    s(11) = (  0.5000000  0.8660254  0.0000000 )
                  (  0.8660254 -0.5000000  0.0000000 )
                  (  0.0000000  0.0000000  1.0000000 )


      isym = 12     inv. 180 deg rotation - cryst. axis [1,1,0]  

 cryst.   s(12) = (     0         -1          0      )
                  (    -1          0          0      )
                  (     0          0          1      )

 cart.    s(12) = (  0.5000000 -0.8660254  0.0000000 )
                  ( -0.8660254 -0.5000000  0.0000000 )
                  (  0.0000000  0.0000000  1.0000000 )


   Cartesian axes

     site n.     atom                  positions (alat units)
         1        Zn     tau(   1) = (  -0.0000000   0.1924501   0.1553331  )
         2        Zn     tau(   2) = (  -0.0000000   0.1924501   0.4659994  )
         3        Zn     tau(   3) = (  -0.1666667   0.4811252   0.1553331  )
         4        Zn     tau(   4) = (  -0.1666667   0.4811252   0.4659994  )
         5        Zn     tau(   5) = (  -0.3333333   0.7698004   0.1553331  )
         6        Zn     tau(   6) = (  -0.3333333   0.7698004   0.4659994  )
         7        Zn     tau(   7) = (   0.3333333   0.1924501   0.1553331  )
         8        Zn     tau(   8) = (   0.3333333   0.1924501   0.4659994  )
         9        Zn     tau(   9) = (   0.1666667   0.4811252   0.1553331  )
        10        Zn     tau(  10) = (   0.1666667   0.4811252   0.4659994  )
        11        Zn     tau(  11) = (  -0.0000000   0.7698004   0.1553331  )
        12        Zn     tau(  12) = (  -0.0000000   0.7698004   0.4659994  )
        13        Zn     tau(  13) = (   0.6666667   0.1924501   0.1553331  )
        14        Zn     tau(  14) = (   0.6666667   0.1924501   0.4659994  )
        15        Zn     tau(  15) = (   0.5000000   0.4811252   0.1553331  )
        16        Zn     tau(  16) = (   0.5000000   0.4811252   0.4659994  )
        17        Zn     tau(  17) = (   0.3333333   0.7698004   0.1553331  )
        18        Zn     tau(  18) = (   0.3333333   0.7698004   0.4659994  )
        19        Zn     tau(  19) = (   0.1666667   0.0962250   0.1553331  )
        20        Zn     tau(  20) = (   0.1666667   0.0962250   0.4659994  )
        21        Zn     tau(  21) = (   0.0000000   0.3849002   0.1553331  )
        22        Zn     tau(  22) = (   0.0000000   0.3849002   0.4659994  )
        23        Zn     tau(  23) = (  -0.1666667   0.6735753   0.1553331  )
        24        Zn     tau(  24) = (  -0.1666667   0.6735753   0.4659994  )
        25        Zn     tau(  25) = (   0.5000000   0.0962250   0.1553331  )
        26        Zn     tau(  26) = (   0.5000000   0.0962250   0.4659994  )
        27        Zn     tau(  27) = (   0.3333333   0.3849002   0.1553331  )
        28        Zn     tau(  28) = (   0.3333333   0.3849002   0.4659994  )
        29        Zn     tau(  29) = (   0.1666667   0.6735753   0.1553331  )
        30        Zn     tau(  30) = (   0.1666667   0.6735753   0.4659994  )
        31        Zn     tau(  31) = (   0.8333333   0.0962250   0.1553331  )
        32        Zn     tau(  32) = (   0.8333333   0.0962250   0.4659994  )
        33        Zn     tau(  33) = (   0.6666667   0.3849002   0.1553331  )
        34        Zn     tau(  34) = (   0.6666667   0.3849002   0.4659994  )
        35        Zn     tau(  35) = (   0.5000000   0.6735753   0.1553331  )
        36        Zn     tau(  36) = (   0.5000000   0.6735753   0.4659994  )

   Crystallographic axes

     site n.     atom                  positions (cryst. coord.)
         1        Zn     tau(   1) = (  0.1111111  0.2222222  0.0645515  )
         2        Zn     tau(   2) = (  0.1111111  0.2222222  0.1936544  )
         3        Zn     tau(   3) = (  0.1111111  0.5555556  0.0645515  )
         4        Zn     tau(   4) = (  0.1111111  0.5555556  0.1936544  )
         5        Zn     tau(   5) = (  0.1111111  0.8888889  0.0645515  )
         6        Zn     tau(   6) = (  0.1111111  0.8888889  0.1936544  )
         7        Zn     tau(   7) = (  0.4444444  0.2222222  0.0645515  )
         8        Zn     tau(   8) = (  0.4444444  0.2222222  0.1936544  )
         9        Zn     tau(   9) = (  0.4444444  0.5555556  0.0645515  )
        10        Zn     tau(  10) = (  0.4444444  0.5555556  0.1936544  )
        11        Zn     tau(  11) = (  0.4444444  0.8888889  0.0645515  )
        12        Zn     tau(  12) = (  0.4444444  0.8888889  0.1936544  )
        13        Zn     tau(  13) = (  0.7777778  0.2222222  0.0645515  )
        14        Zn     tau(  14) = (  0.7777778  0.2222222  0.1936544  )
        15        Zn     tau(  15) = (  0.7777778  0.5555556  0.0645515  )
        16        Zn     tau(  16) = (  0.7777778  0.5555556  0.1936544  )
        17        Zn     tau(  17) = (  0.7777778  0.8888889  0.0645515  )
        18        Zn     tau(  18) = (  0.7777778  0.8888889  0.1936544  )
        19        Zn     tau(  19) = (  0.2222222  0.1111111  0.0645515  )
        20        Zn     tau(  20) = (  0.2222222  0.1111111  0.1936544  )
        21        Zn     tau(  21) = (  0.2222222  0.4444444  0.0645515  )
        22        Zn     tau(  22) = (  0.2222222  0.4444444  0.1936544  )
        23        Zn     tau(  23) = (  0.2222222  0.7777778  0.0645515  )
        24        Zn     tau(  24) = (  0.2222222  0.7777778  0.1936544  )
        25        Zn     tau(  25) = (  0.5555556  0.1111111  0.0645515  )
        26        Zn     tau(  26) = (  0.5555556  0.1111111  0.1936544  )
        27        Zn     tau(  27) = (  0.5555556  0.4444444  0.0645515  )
        28        Zn     tau(  28) = (  0.5555556  0.4444444  0.1936544  )
        29        Zn     tau(  29) = (  0.5555556  0.7777778  0.0645515  )
        30        Zn     tau(  30) = (  0.5555556  0.7777778  0.1936544  )
        31        Zn     tau(  31) = (  0.8888889  0.1111111  0.0645515  )
        32        Zn     tau(  32) = (  0.8888889  0.1111111  0.1936544  )
        33        Zn     tau(  33) = (  0.8888889  0.4444444  0.0645515  )
        34        Zn     tau(  34) = (  0.8888889  0.4444444  0.1936544  )
        35        Zn     tau(  35) = (  0.8888889  0.7777778  0.0645515  )
        36        Zn     tau(  36) = (  0.8888889  0.7777778  0.1936544  )

     number of k points=    12  Marzari-Vanderbilt smearing, width (Ry)=  0.0200
                       cart. coord. in units 2pi/alat
        k(    1) = (   0.0000000   0.0000000   0.0000000), wk =   0.0312500
        k(    2) = (   0.0000000   0.0000000   0.1038920), wk =   0.0625000
        k(    3) = (   0.0000000   0.0000000  -0.2077839), wk =   0.0312500
        k(    4) = (   0.0000000   0.2886751   0.0000000), wk =   0.1875000
        k(    5) = (   0.0000000   0.2886751   0.1038920), wk =   0.3750000
        k(    6) = (   0.0000000   0.2886751  -0.2077839), wk =   0.1875000
        k(    7) = (   0.0000000  -0.5773503   0.0000000), wk =   0.0937500
        k(    8) = (   0.0000000  -0.5773503   0.1038920), wk =   0.1875000
        k(    9) = (   0.0000000  -0.5773503  -0.2077839), wk =   0.0937500
        k(   10) = (   0.2500000   0.4330127   0.0000000), wk =   0.1875000
        k(   11) = (   0.2500000   0.4330127   0.1038920), wk =   0.3750000
        k(   12) = (   0.2500000   0.4330127  -0.2077839), wk =   0.1875000

                       cryst. coord.
        k(    1) = (   0.0000000   0.0000000   0.0000000), wk =   0.0312500
        k(    2) = (   0.0000000   0.0000000   0.2500000), wk =   0.0625000
        k(    3) = (   0.0000000   0.0000000  -0.5000000), wk =   0.0312500
        k(    4) = (   0.0000000   0.2500000   0.0000000), wk =   0.1875000
        k(    5) = (   0.0000000   0.2500000   0.2500000), wk =   0.3750000
        k(    6) = (   0.0000000   0.2500000  -0.5000000), wk =   0.1875000
        k(    7) = (   0.0000000  -0.5000000   0.0000000), wk =   0.0937500
        k(    8) = (   0.0000000  -0.5000000   0.2500000), wk =   0.1875000
        k(    9) = (   0.0000000  -0.5000000  -0.5000000), wk =   0.0937500
        k(   10) = (   0.2500000   0.2500000   0.0000000), wk =   0.1875000
        k(   11) = (   0.2500000   0.2500000   0.2500000), wk =   0.3750000
        k(   12) = (   0.2500000   0.2500000  -0.5000000), wk =   0.1875000

     Dense  grid:   916637 G-vectors     FFT dimensions: (  96,  96, 240)

     Smooth grid:   324089 G-vectors     FFT dimensions: (  72,  72, 162)

     Dynamical RAM for                 wfc:      66.76 MB

     Dynamical RAM for     wfc (w. buffer):     867.82 MB

     Dynamical RAM for           str. fact:       3.50 MB

     Dynamical RAM for           local pot:       0.00 MB

     Dynamical RAM for          nlocal pot:     100.13 MB

     Dynamical RAM for                qrad:       1.61 MB

     Dynamical RAM for          rho,v,vnew:      23.15 MB

     Dynamical RAM for               rhoin:       7.72 MB

     Dynamical RAM for            rho*nmix:      55.95 MB

     Dynamical RAM for           G-vectors:      13.73 MB

     Dynamical RAM for          h,s,v(r/c):       8.54 MB

     Dynamical RAM for          <psi|beta>:       4.27 MB

     Dynamical RAM for                 psi:     133.51 MB

     Dynamical RAM for                hpsi:     133.51 MB

     Dynamical RAM for                spsi:     133.51 MB

     Dynamical RAM for      wfcinit/wfcrot:     149.65 MB

     Dynamical RAM for           addusdens:     776.26 MB

     Dynamical RAM for          addusforce:    1022.92 MB

     Dynamical RAM for         addusstress:     702.83 MB

     Estimated static dynamical RAM per process >       1.02 GB

     Estimated max dynamical RAM per process >       2.07 GB

     Estimated total dynamical RAM >       8.30 GB

     Initial potential from superposition of free atoms

     starting charge     719.9949, renormalised to     720.0000

     negative rho (up, down):  1.032E-03 0.000E+00
     Starting wfcs are  468 randomized atomic wfcs

     total cpu time spent up to now is      307.7 secs

     Self-consistent Calculation

     iteration #  1     ecut=    50.00 Ry     beta= 0.70
     Davidson diagonalization with overlap

---- Real-time Memory Report at c_bands before calling an iterative solver
          1168 MiB given to the printing process from OS
             0 MiB allocation reported by mallinfo(arena+hblkhd)
        156585 MiB available memory on the node where the printing process lives
------------------
     ethr =  1.00E-02,  avg # of iterations =  7.3

     Threshold (ethr) on eigenvalues was too large:
     Diagonalizing with lowered threshold

     Davidson diagonalization with overlap

---- Real-time Memory Report at c_bands before calling an iterative solver
          1856 MiB given to the printing process from OS
             0 MiB allocation reported by mallinfo(arena+hblkhd)
        156547 MiB available memory on the node where the printing process lives
------------------
     ethr =  6.23E-05,  avg # of iterations =  6.8

     negative rho (up, down):  4.725E-04 0.000E+00

     total cpu time spent up to now is     2973.1 secs

     total energy              =  -16570.70760825 Ry
     estimated scf accuracy    <       0.44365584 Ry

     iteration #  2     ecut=    50.00 Ry     beta= 0.70
     Davidson diagonalization with overlap

---- Real-time Memory Report at c_bands before calling an iterative solver
          1888 MiB given to the printing process from OS
             0 MiB allocation reported by mallinfo(arena+hblkhd)
        156440 MiB available memory on the node where the printing process lives
------------------
     ethr =  6.16E-05,  avg # of iterations =  2.9

     negative rho (up, down):  7.784E-04 0.000E+00

     total cpu time spent up to now is     4092.6 secs

     total energy              =  -16570.69222939 Ry
     estimated scf accuracy    <       0.13554831 Ry

     iteration #  3     ecut=    50.00 Ry     beta= 0.70
     Davidson diagonalization with overlap

---- Real-time Memory Report at c_bands before calling an iterative solver
          1889 MiB given to the printing process from OS
             0 MiB allocation reported by mallinfo(arena+hblkhd)
        156415 MiB available memory on the node where the printing process lives
------------------
     ethr =  1.88E-05,  avg # of iterations =  3.8

     negative rho (up, down):  9.376E-04 0.000E+00

     total cpu time spent up to now is     5346.8 secs

     total energy              =  -16570.71106415 Ry
     estimated scf accuracy    <       0.20285593 Ry

     iteration #  4     ecut=    50.00 Ry     beta= 0.70
     Davidson diagonalization with overlap

---- Real-time Memory Report at c_bands before calling an iterative solver
          1892 MiB given to the printing process from OS
             0 MiB allocation reported by mallinfo(arena+hblkhd)
        156393 MiB available memory on the node where the printing process lives
------------------
     ethr =  1.88E-05,  avg # of iterations =  7.0

     negative rho (up, down):  9.434E-04 0.000E+00

     total cpu time spent up to now is     6445.5 secs

     total energy              =  -16570.74570675 Ry
     estimated scf accuracy    <       0.01654350 Ry

     iteration #  5     ecut=    50.00 Ry     beta= 0.70
     Davidson diagonalization with overlap

---- Real-time Memory Report at c_bands before calling an iterative solver
          1894 MiB given to the printing process from OS
             0 MiB allocation reported by mallinfo(arena+hblkhd)
        156372 MiB available memory on the node where the printing process lives
------------------
     c_bands:  1 eigenvalues not converged
     ethr =  2.30E-06,  avg # of iterations =  5.2

     negative rho (up, down):  9.436E-04 0.000E+00

     total cpu time spent up to now is     7651.2 secs

     total energy              =  -16570.74906807 Ry
     estimated scf accuracy    <       0.00010020 Ry

     iteration #  6     ecut=    50.00 Ry     beta= 0.70
     Davidson diagonalization with overlap

---- Real-time Memory Report at c_bands before calling an iterative solver
          1898 MiB given to the printing process from OS
             0 MiB allocation reported by mallinfo(arena+hblkhd)
        156355 MiB available memory on the node where the printing process lives
------------------
     ethr =  1.39E-08,  avg # of iterations =  2.8

     negative rho (up, down):  9.455E-04 0.000E+00

     total cpu time spent up to now is     8706.0 secs

     total energy              =  -16570.74901704 Ry
     estimated scf accuracy    <       0.00096627 Ry

     iteration #  7     ecut=    50.00 Ry     beta= 0.70
     Davidson diagonalization with overlap

---- Real-time Memory Report at c_bands before calling an iterative solver
          1899 MiB given to the printing process from OS
             0 MiB allocation reported by mallinfo(arena+hblkhd)
        156335 MiB available memory on the node where the printing process lives
------------------
     ethr =  1.39E-08,  avg # of iterations =  2.0

     negative rho (up, down):  9.445E-04 0.000E+00

     total cpu time spent up to now is     9677.0 secs

     total energy              =  -16570.74908107 Ry
     estimated scf accuracy    <       0.00000794 Ry

     iteration #  8     ecut=    50.00 Ry     beta= 0.70
     Davidson diagonalization with overlap

---- Real-time Memory Report at c_bands before calling an iterative solver
          1901 MiB given to the printing process from OS
             0 MiB allocation reported by mallinfo(arena+hblkhd)
        156317 MiB available memory on the node where the printing process lives
------------------
     ethr =  1.10E-09,  avg # of iterations =  2.0

     negative rho (up, down):  9.435E-04 0.000E+00

     total cpu time spent up to now is    10678.1 secs

     End of self-consistent calculation

          k = 0.0000 0.0000 0.0000 ( 40605 PWs)   bands (ev):

  -127.1690-127.1657-126.7422-126.7422-126.7422-126.7419-126.7418-126.7418
  -126.7393-126.7393-126.7392-126.7389-126.7389-126.7389-126.1494-126.1494
  -126.1494-126.1494-126.1469-126.1469-126.1469-126.1469-125.5449-125.5449
  -125.5449-125.5445-125.5445-125.5445-125.5427-125.5427-125.5426-125.5423
  -125.5423-125.5423-125.0932-125.0912 -83.2003 -83.2003 -83.1964 -83.1964
   -82.9274 -82.9273 -82.9273 -82.9271 -82.9271 -82.9270 -82.9237 -82.9235
   -82.9235 -82.9234 -82.9234 -82.9232 -82.6546 -82.6546 -82.6511 -82.6511
   -82.0871 -82.0871 -82.0870 -82.0870 -82.0869 -82.0869 -82.0837 -82.0837
   -82.0836 -82.0836 -82.0835 -82.0835 -80.8530 -80.8530 -80.8530 -80.8530
   -80.8506 -80.8506 -80.8506 -80.8506 -80.2869 -80.2483 -80.0471 -80.0471
   -80.0471 -80.0467 -80.0467 -80.0467 -80.0121 -80.0121 -80.0121 -80.0118
   -80.0117 -80.0117 -79.7193 -79.7193 -79.7193 -79.7193 -79.6889 -79.6889
   -79.6889 -79.6889 -79.6217 -79.6217 -79.6216 -79.6216 -79.6215 -79.6215
   -79.6195 -79.6195 -79.6195 -79.6194 -79.6193 -79.6193 -79.3916 -79.3916
   -79.3915 -79.3912 -79.3912 -79.3912 -79.3660 -79.3660 -79.3659 -79.3656
   -79.3656 -79.3656 -79.1507 -79.1288 -79.0360 -79.0360 -79.0344 -79.0344
   -78.7480 -78.7479 -78.7479 -78.7477 -78.7477 -78.7476 -78.7466 -78.7465
   -78.7465 -78.7464 -78.7464 -78.7462 -78.4774 -78.4774 -78.4767 -78.4767
   -14.2849 -14.2849 -14.1588 -14.1588 -12.4399 -12.4398 -12.4398 -12.4397
   -12.4397 -12.4396 -12.3022 -12.3021 -12.3021 -12.3020 -12.3019 -12.3019
   -11.7194 -11.3879 -11.3674 -11.3674 -11.3169 -11.3168 -11.3168 -11.3167
   -11.3167 -11.3166 -11.2849 -11.2848 -11.2848 -11.2846 -11.2846 -11.2846
   -10.6671 -10.6671 -10.2830 -10.2829 -10.2829 -10.2827 -10.2827 -10.2826
   -10.0048  -9.8926  -9.8926  -9.8926  -9.8925  -9.8925  -9.8924  -9.8315
    -9.8314  -9.8314  -9.8312  -9.8312  -9.8311  -9.7912  -9.7912  -9.7912
    -9.7912  -9.7459  -9.7459  -9.7459  -9.7459  -9.6619  -9.6619  -9.6618
    -9.6616  -9.6615  -9.6615  -9.5834  -9.5834  -9.5182  -9.5182  -9.5181
    -9.5179  -9.5178  -9.5178  -9.2188  -9.2188  -9.1375  -9.1375  -9.1375
    -9.1374  -9.1373  -9.1373  -8.4868  -8.4868  -8.4664  -8.4664  -8.4359
    -8.4359  -8.3884  -8.3884  -8.1139  -8.1139  -8.1139  -8.1139  -7.7505
    -7.7505  -7.7504  -7.7503  -7.7502  -7.7502  -7.3923  -7.3923  -7.3923
    -7.3923  -5.9687  -5.9687  -5.9687  -5.9687  -5.9370  -5.9370  -5.9369
    -5.9369  -5.9368  -5.9368  -5.7340  -5.7340  -5.7340  -5.7339  -5.7338
    -5.7338  -5.6193  -5.6137  -5.6137  -5.6136  -5.6136  -5.6135  -5.6135
    -5.5910  -5.5910  -5.5909  -5.5909  -5.5908  -5.5908  -4.9483  -4.9483
    -4.9483  -4.9483  -4.6825  -4.6825  -4.4930  -4.4930  -4.3576  -4.3576
    -4.3576  -4.3574  -4.3574  -4.3573  -4.3001  -4.3000  -4.3000  -4.2999
    -4.2999  -4.2998  -4.2861  -4.2860  -4.2860  -4.2859  -4.2859  -4.2858
    -4.1972  -3.8866  -3.8865  -3.8865  -3.8863  -3.8863  -3.8862  -3.7874
    -3.7873  -3.7873  -3.7871  -3.7871  -3.7870  -3.6739  -3.6737  -3.6737
    -3.6737  -3.6737  -3.6735  -3.5529  -3.2770  -3.2770  -3.2203  -3.2203
    -2.6028  -2.6027  -2.6027  -2.6027  -2.6026  -2.6025  -1.7986  -1.1054
    -1.1054  -1.1024  -1.1024   0.0711   0.0711   1.1346   1.1346   1.1346
     1.1346   2.4773   2.4773   2.9771   2.9772   2.9772   2.9774   2.9774
     2.9774   4.6149   4.6149   4.6149   4.6149   4.7162   5.4267   5.4267
     5.4267   5.4267   5.4267   5.4267   7.7056   7.7056   7.7056   7.7057
     7.7057   7.7057   8.5973   9.1800   9.1800   9.1800   9.1800   9.2443
     9.3936   9.3936   9.3936   9.3937   9.3937   9.3937   9.7375  11.3319
    11.5046  11.5046  11.5507  11.5507  11.5507  11.5509  11.5509  11.5509
    11.8607  11.8607  11.8607  11.8608  11.8608  11.8608  12.0840  12.6827
    12.6827  12.6827  12.6827  12.6827  12.6827  12.9871  12.9871  12.9871
    12.9871  12.9871  12.9871  13.2886  13.2886  13.2887  13.2887  13.2887
    13.2887  14.5601  14.5743  14.5743  14.5743  14.5745  14.5745  14.5745
    14.7783  14.7783  14.7783  14.7784  14.7784  14.7784  15.1167  15.1167

     occupation numbers 
     1.0000   1.0000   1.0000   1.0000   1.0000   1.0000   1.0000   1.0000
     1.0000   1.0000   1.0000   1.0000   1.0000   1.0000   1.0000   1.0000
     1.0000   1.0000   1.0000   1.0000   1.0000   1.0000   1.0000   1.0000
     1.0000   1.0000   1.0000   1.0000   1.0000   1.0000   1.0000   1.0000
     1.0000   1.0000   1.0000   1.0000   1.0000   1.0000   1.0000   1.0000
     1.0000   1.0000   1.0000   1.0000   1.0000   1.0000   1.0000   1.0000
     1.0000   1.0000   1.0000   1.0000   1.0000   1.0000   1.0000   1.0000
     1.0000   1.0000   1.0000   1.0000   1.0000   1.0000   1.0000   1.0000
     1.0000   1.0000   1.0000   1.0000   1.0000   1.0000   1.0000   1.0000
     1.0000   1.0000   1.0000   1.0000   1.0000   1.0000   1.0000   1.0000
     1.0000   1.0000   1.0000   1.0000   1.0000   1.0000   1.0000   1.0000
     1.0000   1.0000   1.0000   1.0000   1.0000   1.0000   1.0000   1.0000
     1.0000   1.0000   1.0000   1.0000   1.0000   1.0000   1.0000   1.0000
     1.0000   1.0000   1.0000   1.0000   1.0000   1.0000   1.0000   1.0000
     1.0000   1.0000   1.0000   1.0000   1.0000   1.0000   1.0000   1.0000
     1.0000   1.0000   1.0000   1.0000   1.0000   1.0000   1.0000   1.0000
     1.0000   1.0000   1.0000   1.0000   1.0000   1.0000   1.0000   1.0000
     1.0000   1.0000   1.0000   1.0000   1.0000   1.0000   1.0000   1.0000
     1.0000   1.0000   1.0000   1.0000   1.0000   1.0000   1.0000   1.0000
     1.0000   1.0000   1.0000   1.0000   1.0000   1.0000   1.0000   1.0000
     1.0000   1.0000   1.0000   1.0000   1.0000   1.0000   1.0000   1.0000
     1.0000   1.0000   1.0000   1.0000   1.0000   1.0000   1.0000   1.0000
     1.0000   1.0000   1.0000   1.0000   1.0000   1.0000   1.0000   1.0000
     1.0000   1.0000   1.0000   1.0000   1.0000   1.0000   1.0000   1.0000
     1.0000   1.0000   1.0000   1.0000   1.0000   1.0000   1.0000   1.0000
     1.0000   1.0000   1.0000   1.0000   1.0000   1.0000   1.0000   1.0000
     1.0000   1.0000   1.0000   1.0000   1.0000   1.0000   1.0000   1.0000
     1.0000   1.0000   1.0000   1.0000   1.0000   1.0000   1.0000   1.0000
     1.0000   1.0000   1.0000   1.0000   1.0000   1.0000   1.0000   1.0000
     1.0000   1.0000   1.0000   1.0000   1.0000   1.0000   1.0000   1.0000
     1.0000   1.0000   1.0000   1.0000   1.0000   1.0000   1.0000   1.0000
     1.0000   1.0000   1.0000   1.0000   1.0000   1.0000   1.0000   1.0000
     1.0000   1.0000   1.0000   1.0000   1.0000   1.0000   1.0000   1.0000
     1.0000   1.0000   1.0000   1.0000   1.0000   1.0000   1.0000   1.0000
     1.0000   1.0000   1.0000   1.0000   1.0000   1.0000   1.0000   1.0000
     1.0000   1.0000   1.0000   1.0000   1.0000   1.0000   1.0000   1.0000
     1.0000   1.0000   1.0000   1.0000   1.0000   1.0000   1.0000   1.0000
     1.0000   1.0000   1.0000   1.0000   1.0000   1.0000   1.0000   1.0000
     1.0000   1.0000   1.0000   1.0000   1.0000   1.0000   1.0000   1.0000
     1.0000   1.0000   1.0000   1.0000   1.0000   1.0000   1.0000   1.0000
     1.0000   1.0000   1.0000   1.0000   1.0000   1.0000   1.0000   1.0000
     1.0000   1.0000   1.0000   1.0000   1.0000   1.0000   1.0000   1.0000
     1.0000   1.0000   1.0000   1.0000   1.0000   1.0000   1.0000   1.0000
     1.0000   1.0000   1.0000   1.0000   1.0000   1.0000   1.0000   1.0000
     1.0000   1.0000   1.0000   1.0000   1.0000   1.0000   1.0802   1.0802
     1.0802   1.0802   1.0802   1.0802   0.0000   0.0000   0.0000   0.0000
     0.0000   0.0000   0.0000   0.0000   0.0000   0.0000   0.0000   0.0000
     0.0000   0.0000   0.0000   0.0000   0.0000   0.0000   0.0000   0.0000
     0.0000   0.0000   0.0000   0.0000   0.0000   0.0000   0.0000   0.0000
     0.0000   0.0000   0.0000   0.0000   0.0000   0.0000   0.0000   0.0000
     0.0000   0.0000   0.0000   0.0000   0.0000   0.0000   0.0000   0.0000
     0.0000   0.0000   0.0000   0.0000   0.0000   0.0000   0.0000   0.0000
     0.0000   0.0000   0.0000   0.0000   0.0000   0.0000   0.0000   0.0000
     0.0000   0.0000   0.0000   0.0000   0.0000   0.0000   0.0000   0.0000

          k = 0.0000 0.0000 0.1039 ( 40532 PWs)   bands (ev):

  -127.1690-127.1657-126.7422-126.7422-126.7422-126.7419-126.7418-126.7418
  -126.7393-126.7393-126.7392-126.7389-126.7389-126.7389-126.1494-126.1494
  -126.1494-126.1494-126.1469-126.1469-126.1469-126.1469-125.5449-125.5449
  -125.5449-125.5445-125.5445-125.5445-125.5427-125.5427-125.5426-125.5423
  -125.5423-125.5423-125.0932-125.0912 -83.2003 -83.2003 -83.1964 -83.1964
   -82.9274 -82.9272 -82.9272 -82.9271 -82.9271 -82.9270 -82.9237 -82.9235
   -82.9235 -82.9234 -82.9234 -82.9233 -82.6545 -82.6545 -82.6511 -82.6511
   -82.0871 -82.0871 -82.0870 -82.0870 -82.0869 -82.0869 -82.0837 -82.0837
   -82.0836 -82.0836 -82.0835 -82.0835 -80.8530 -80.8530 -80.8530 -80.8530
   -80.8506 -80.8506 -80.8506 -80.8506 -80.2870 -80.2483 -80.0471 -80.0471
   -80.0471 -80.0467 -80.0467 -80.0467 -80.0121 -80.0121 -80.0120 -80.0117
   -80.0117 -80.0117 -79.7192 -79.7192 -79.7192 -79.7192 -79.6889 -79.6889
   -79.6889 -79.6889 -79.6217 -79.6217 -79.6216 -79.6216 -79.6215 -79.6215
   -79.6196 -79.6196 -79.6195 -79.6195 -79.6194 -79.6194 -79.3916 -79.3916
   -79.3915 -79.3912 -79.3912 -79.3912 -79.3659 -79.3659 -79.3659 -79.3656
   -79.3655 -79.3655 -79.1507 -79.1288 -79.0360 -79.0360 -79.0344 -79.0344
   -78.7480 -78.7479 -78.7479 -78.7477 -78.7477 -78.7476 -78.7467 -78.7465
   -78.7465 -78.7464 -78.7464 -78.7463 -78.4774 -78.4774 -78.4767 -78.4767
   -14.2849 -14.2849 -14.1588 -14.1588 -12.4399 -12.4398 -12.4398 -12.4397
   -12.4397 -12.4396 -12.3022 -12.3021 -12.3021 -12.3020 -12.3020 -12.3019
   -11.7194 -11.3879 -11.3674 -11.3674 -11.3169 -11.3168 -11.3168 -11.3167
   -11.3167 -11.3166 -11.2849 -11.2848 -11.2848 -11.2847 -11.2847 -11.2846
   -10.6671 -10.6671 -10.2830 -10.2829 -10.2829 -10.2827 -10.2827 -10.2826
   -10.0048  -9.8926  -9.8926  -9.8926  -9.8924  -9.8924  -9.8924  -9.8314
    -9.8313  -9.8313  -9.8312  -9.8312  -9.8311  -9.7912  -9.7912  -9.7912
    -9.7912  -9.7459  -9.7459  -9.7459  -9.7459  -9.6619  -9.6619  -9.6618
    -9.6616  -9.6615  -9.6615  -9.5833  -9.5833  -9.5181  -9.5181  -9.5181
    -9.5179  -9.5178  -9.5178  -9.2188  -9.2188  -9.1375  -9.1375  -9.1374
    -9.1373  -9.1373  -9.1373  -8.4868  -8.4868  -8.4664  -8.4664  -8.4359
    -8.4359  -8.3884  -8.3884  -8.1138  -8.1138  -8.1138  -8.1138  -7.7505
    -7.7505  -7.7504  -7.7503  -7.7502  -7.7502  -7.3923  -7.3923  -7.3923
    -7.3923  -5.9687  -5.9687  -5.9687  -5.9687  -5.9370  -5.9370  -5.9369
    -5.9368  -5.9368  -5.9368  -5.7340  -5.7340  -5.7340  -5.7339  -5.7338
    -5.7338  -5.6193  -5.6137  -5.6137  -5.6136  -5.6136  -5.6135  -5.6135
    -5.5910  -5.5910  -5.5910  -5.5909  -5.5909  -5.5909  -4.9483  -4.9483
    -4.9483  -4.9483  -4.6825  -4.6825  -4.4930  -4.4930  -4.3576  -4.3575
    -4.3575  -4.3574  -4.3574  -4.3573  -4.3001  -4.3000  -4.3000  -4.2999
    -4.2999  -4.2998  -4.2861  -4.2860  -4.2860  -4.2859  -4.2859  -4.2858
    -4.1972  -3.8866  -3.8865  -3.8865  -3.8863  -3.8863  -3.8862  -3.7874
    -3.7872  -3.7872  -3.7871  -3.7871  -3.7870  -3.6739  -3.6737  -3.6737
    -3.6737  -3.6737  -3.6735  -3.5529  -3.2770  -3.2770  -3.2203  -3.2203
    -2.6028  -2.6027  -2.6027  -2.6027  -2.6027  -2.6025  -1.7986  -1.1054
    -1.1054  -1.1023  -1.1023   0.0711   0.0711   1.1346   1.1346   1.1346
     1.1346   2.4773   2.4773   2.9771   2.9772   2.9772   2.9774   2.9774
     2.9774   4.6149   4.6149   4.6149   4.6149   4.7162   5.4267   5.4267
     5.4267   5.4267   5.4267   5.4267   7.7056   7.7056   7.7056   7.7057
     7.7057   7.7057   8.6207   9.1325   9.1800   9.1800   9.1800   9.1800
     9.3936   9.3936   9.3936   9.3937   9.3937   9.3937   9.9195  11.0388
    11.5046  11.5046  11.5507  11.5507  11.5507  11.5509  11.5509  11.5509
    11.8841  11.8841  11.8841  11.8842  11.8842  11.8842  12.4343  12.5131
    12.5131  12.5131  12.5131  12.5131  12.5131  13.2485  13.2485  13.2485
    13.2486  13.2486  13.2486  13.2904  13.2904  13.2904  13.2904  13.2905
    13.2905  14.1156  14.3604  14.3605  14.3605  14.3605  14.3605  14.3605
    14.5743  14.5743  14.5743  14.5745  14.5745  14.5745  15.1167  15.1167

     occupation numbers 
     1.0000   1.0000   1.0000   1.0000   1.0000   1.0000   1.0000   1.0000
     1.0000   1.0000   1.0000   1.0000   1.0000   1.0000   1.0000   1.0000
     1.0000   1.0000   1.0000   1.0000   1.0000   1.0000   1.0000   1.0000
     1.0000   1.0000   1.0000   1.0000   1.0000   1.0000   1.0000   1.0000
     1.0000   1.0000   1.0000   1.0000   1.0000   1.0000   1.0000   1.0000
     1.0000   1.0000   1.0000   1.0000   1.0000   1.0000   1.0000   1.0000
     1.0000   1.0000   1.0000   1.0000   1.0000   1.0000   1.0000   1.0000
     1.0000   1.0000   1.0000   1.0000   1.0000   1.0000   1.0000   1.0000
     1.0000   1.0000   1.0000   1.0000   1.0000   1.0000   1.0000   1.0000
     1.0000   1.0000   1.0000   1.0000   1.0000   1.0000   1.0000   1.0000
     1.0000   1.0000   1.0000   1.0000   1.0000   1.0000   1.0000   1.0000
     1.0000   1.0000   1.0000   1.0000   1.0000   1.0000   1.0000   1.0000
     1.0000   1.0000   1.0000   1.0000   1.0000   1.0000   1.0000   1.0000
     1.0000   1.0000   1.0000   1.0000   1.0000   1.0000   1.0000   1.0000
     1.0000   1.0000   1.0000   1.0000   1.0000   1.0000   1.0000   1.0000
     1.0000   1.0000   1.0000   1.0000   1.0000   1.0000   1.0000   1.0000
     1.0000   1.0000   1.0000   1.0000   1.0000   1.0000   1.0000   1.0000
     1.0000   1.0000   1.0000   1.0000   1.0000   1.0000   1.0000   1.0000
     1.0000   1.0000   1.0000   1.0000   1.0000   1.0000   1.0000   1.0000
     1.0000   1.0000   1.0000   1.0000   1.0000   1.0000   1.0000   1.0000
     1.0000   1.0000   1.0000   1.0000   1.0000   1.0000   1.0000   1.0000
     1.0000   1.0000   1.0000   1.0000   1.0000   1.0000   1.0000   1.0000
     1.0000   1.0000   1.0000   1.0000   1.0000   1.0000   1.0000   1.0000
     1.0000   1.0000   1.0000   1.0000   1.0000   1.0000   1.0000   1.0000
     1.0000   1.0000   1.0000   1.0000   1.0000   1.0000   1.0000   1.0000
     1.0000   1.0000   1.0000   1.0000   1.0000   1.0000   1.0000   1.0000
     1.0000   1.0000   1.0000   1.0000   1.0000   1.0000   1.0000   1.0000
     1.0000   1.0000   1.0000   1.0000   1.0000   1.0000   1.0000   1.0000
     1.0000   1.0000   1.0000   1.0000   1.0000   1.0000   1.0000   1.0000
     1.0000   1.0000   1.0000   1.0000   1.0000   1.0000   1.0000   1.0000
     1.0000   1.0000   1.0000   1.0000   1.0000   1.0000   1.0000   1.0000
     1.0000   1.0000   1.0000   1.0000   1.0000   1.0000   1.0000   1.0000
     1.0000   1.0000   1.0000   1.0000   1.0000   1.0000   1.0000   1.0000
     1.0000   1.0000   1.0000   1.0000   1.0000   1.0000   1.0000   1.0000
     1.0000   1.0000   1.0000   1.0000   1.0000   1.0000   1.0000   1.0000
     1.0000   1.0000   1.0000   1.0000   1.0000   1.0000   1.0000   1.0000
     1.0000   1.0000   1.0000   1.0000   1.0000   1.0000   1.0000   1.0000
     1.0000   1.0000   1.0000   1.0000   1.0000   1.0000   1.0000   1.0000
     1.0000   1.0000   1.0000   1.0000   1.0000   1.0000   1.0000   1.0000
     1.0000   1.0000   1.0000   1.0000   1.0000   1.0000   1.0000   1.0000
     1.0000   1.0000   1.0000   1.0000   1.0000   1.0000   1.0000   1.0000
     1.0000   1.0000   1.0000   1.0000   1.0000   1.0000   1.0000   1.0000
     1.0000   1.0000   1.0000   1.0000   1.0000   1.0000   1.0000   1.0000
     1.0000   1.0000   1.0000   1.0000   1.0000   1.0000   1.0000   1.0000
     1.0000   1.0000   1.0000   1.0000   1.0000   1.0000   1.0802   1.0802
     1.0802   1.0802   1.0802   1.0802   0.0000   0.0000   0.0000   0.0000
     0.0000   0.0000   0.0000   0.0000   0.0000   0.0000   0.0000   0.0000
     0.0000   0.0000   0.0000   0.0000   0.0000   0.0000   0.0000   0.0000
     0.0000   0.0000   0.0000   0.0000   0.0000   0.0000   0.0000   0.0000
     0.0000   0.0000   0.0000   0.0000   0.0000   0.0000   0.0000   0.0000
     0.0000   0.0000   0.0000   0.0000   0.0000   0.0000   0.0000   0.0000
     0.0000   0.0000   0.0000   0.0000   0.0000   0.0000   0.0000   0.0000
     0.0000   0.0000   0.0000   0.0000   0.0000   0.0000   0.0000   0.0000
     0.0000   0.0000   0.0000   0.0000   0.0000   0.0000   0.0000   0.0000

          k = 0.0000 0.0000-0.2078 ( 40496 PWs)   bands (ev):

  -127.1689-127.1657-126.7422-126.7422-126.7422-126.7418-126.7418-126.7418
  -126.7393-126.7393-126.7392-126.7389-126.7389-126.7389-126.1494-126.1494
  -126.1494-126.1494-126.1469-126.1469-126.1469-126.1469-125.5449-125.5449
  -125.5449-125.5445-125.5445-125.5445-125.5427-125.5427-125.5426-125.5423
  -125.5423-125.5423-125.0932-125.0912 -83.2004 -83.2004 -83.1963 -83.1963
   -82.9274 -82.9272 -82.9272 -82.9271 -82.9271 -82.9270 -82.9237 -82.9235
   -82.9235 -82.9234 -82.9234 -82.9233 -82.6545 -82.6545 -82.6512 -82.6512
   -82.0871 -82.0871 -82.0870 -82.0870 -82.0869 -82.0869 -82.0837 -82.0837
   -82.0837 -82.0836 -82.0835 -82.0835 -80.8530 -80.8530 -80.8530 -80.8530
   -80.8506 -80.8506 -80.8506 -80.8506 -80.2870 -80.2481 -80.0471 -80.0471
   -80.0470 -80.0467 -80.0467 -80.0467 -80.0120 -80.0120 -80.0119 -80.0116
   -80.0116 -80.0116 -79.7192 -79.7192 -79.7192 -79.7192 -79.6889 -79.6889
   -79.6889 -79.6889 -79.6217 -79.6217 -79.6216 -79.6216 -79.6215 -79.6215
   -79.6196 -79.6196 -79.6195 -79.6194 -79.6194 -79.6194 -79.3916 -79.3916
   -79.3915 -79.3912 -79.3912 -79.3912 -79.3660 -79.3660 -79.3659 -79.3656
   -79.3656 -79.3656 -79.1509 -79.1287 -79.0359 -79.0359 -79.0344 -79.0344
   -78.7480 -78.7479 -78.7479 -78.7477 -78.7477 -78.7476 -78.7467 -78.7465
   -78.7465 -78.7464 -78.7464 -78.7463 -78.4774 -78.4774 -78.4767 -78.4767
   -14.2849 -14.2849 -14.1588 -14.1588 -12.4399 -12.4398 -12.4398 -12.4397
   -12.4397 -12.4396 -12.3022 -12.3021 -12.3021 -12.3020 -12.3020 -12.3019
   -11.7194 -11.3879 -11.3673 -11.3673 -11.3169 -11.3168 -11.3168 -11.3167
   -11.3167 -11.3166 -11.2849 -11.2848 -11.2848 -11.2847 -11.2847 -11.2846
   -10.6671 -10.6671 -10.2830 -10.2829 -10.2829 -10.2827 -10.2827 -10.2826
   -10.0047  -9.8926  -9.8926  -9.8926  -9.8924  -9.8924  -9.8924  -9.8314
    -9.8313  -9.8313  -9.8312  -9.8312  -9.8311  -9.7912  -9.7912  -9.7912
    -9.7912  -9.7459  -9.7459  -9.7459  -9.7459  -9.6619  -9.6619  -9.6618
    -9.6616  -9.6615  -9.6615  -9.5834  -9.5834  -9.5181  -9.5181  -9.5180
    -9.5179  -9.5178  -9.5178  -9.2188  -9.2188  -9.1375  -9.1375  -9.1374
    -9.1373  -9.1373  -9.1373  -8.4868  -8.4868  -8.4664  -8.4664  -8.4359
    -8.4359  -8.3884  -8.3884  -8.1138  -8.1138  -8.1138  -8.1138  -7.7505
    -7.7505  -7.7504  -7.7503  -7.7502  -7.7502  -7.3923  -7.3923  -7.3923
    -7.3923  -5.9687  -5.9687  -5.9687  -5.9687  -5.9370  -5.9370  -5.9369
    -5.9368  -5.9368  -5.9368  -5.7340  -5.7340  -5.7340  -5.7339  -5.7338
    -5.7338  -5.6193  -5.6137  -5.6137  -5.6136  -5.6136  -5.6135  -5.6135
    -5.5910  -5.5910  -5.5910  -5.5909  -5.5909  -5.5909  -4.9483  -4.9483
    -4.9483  -4.9483  -4.6825  -4.6825  -4.4929  -4.4929  -4.3576  -4.3575
    -4.3575  -4.3574  -4.3574  -4.3573  -4.3001  -4.3000  -4.3000  -4.2999
    -4.2999  -4.2998  -4.2861  -4.2860  -4.2860  -4.2859  -4.2859  -4.2858
    -4.1972  -3.8866  -3.8865  -3.8865  -3.8863  -3.8863  -3.8862  -3.7874
    -3.7872  -3.7872  -3.7871  -3.7871  -3.7870  -3.6739  -3.6737  -3.6737
    -3.6737  -3.6737  -3.6735  -3.5530  -3.2770  -3.2770  -3.2203  -3.2203
    -2.6028  -2.6027  -2.6027  -2.6027  -2.6026  -2.6025  -1.7986  -1.1054
    -1.1054  -1.1023  -1.1023   0.0711   0.0711   1.1346   1.1346   1.1346
     1.1346   2.4773   2.4773   2.9772   2.9772   2.9772   2.9774   2.9774
     2.9774   4.6150   4.6150   4.6150   4.6150   4.7162   5.4267   5.4267
     5.4267   5.4267   5.4267   5.4267   7.7056   7.7056   7.7056   7.7057
     7.7057   7.7057   8.6498   9.0427   9.1801   9.1801   9.1801   9.1801
     9.3935   9.3935   9.3936   9.3936   9.3937   9.3937  10.1237  10.7706
    11.5046  11.5046  11.5507  11.5507  11.5507  11.5509  11.5509  11.5509
    11.9125  11.9125  11.9125  11.9125  11.9125  11.9126  12.4046  12.4046
    12.4046  12.4046  12.4046  12.4046  12.8023  13.2880  13.2880  13.2880
    13.2880  13.2880  13.2880  13.5479  13.5479  13.5479  13.5479  13.5479
    13.5479  13.6946  13.9917  13.9917  13.9917  13.9917  13.9917  13.9917
    14.5743  14.5743  14.5743  14.5745  14.5745  14.5745  15.1167  15.1167

     occupation numbers 
     1.0000   1.0000   1.0000   1.0000   1.0000   1.0000   1.0000   1.0000
     1.0000   1.0000   1.0000   1.0000   1.0000   1.0000   1.0000   1.0000
     1.0000   1.0000   1.0000   1.0000   1.0000   1.0000   1.0000   1.0000
     1.0000   1.0000   1.0000   1.0000   1.0000   1.0000   1.0000   1.0000
     1.0000   1.0000   1.0000   1.0000   1.0000   1.0000   1.0000   1.0000
     1.0000   1.0000   1.0000   1.0000   1.0000   1.0000   1.0000   1.0000
     1.0000   1.0000   1.0000   1.0000   1.0000   1.0000   1.0000   1.0000
     1.0000   1.0000   1.0000   1.0000   1.0000   1.0000   1.0000   1.0000
     1.0000   1.0000   1.0000   1.0000   1.0000   1.0000   1.0000   1.0000
     1.0000   1.0000   1.0000   1.0000   1.0000   1.0000   1.0000   1.0000
     1.0000   1.0000   1.0000   1.0000   1.0000   1.0000   1.0000   1.0000
     1.0000   1.0000   1.0000   1.0000   1.0000   1.0000   1.0000   1.0000
     1.0000   1.0000   1.0000   1.0000   1.0000   1.0000   1.0000   1.0000
     1.0000   1.0000   1.0000   1.0000   1.0000   1.0000   1.0000   1.0000
     1.0000   1.0000   1.0000   1.0000   1.0000   1.0000   1.0000   1.0000
     1.0000   1.0000   1.0000   1.0000   1.0000   1.0000   1.0000   1.0000
     1.0000   1.0000   1.0000   1.0000   1.0000   1.0000   1.0000   1.0000
     1.0000   1.0000   1.0000   1.0000   1.0000   1.0000   1.0000   1.0000
     1.0000   1.0000   1.0000   1.0000   1.0000   1.0000   1.0000   1.0000
     1.0000   1.0000   1.0000   1.0000   1.0000   1.0000   1.0000   1.0000
     1.0000   1.0000   1.0000   1.0000   1.0000   1.0000   1.0000   1.0000
     1.0000   1.0000   1.0000   1.0000   1.0000   1.0000   1.0000   1.0000
     1.0000   1.0000   1.0000   1.0000   1.0000   1.0000   1.0000   1.0000
     1.0000   1.0000   1.0000   1.0000   1.0000   1.0000   1.0000   1.0000
     1.0000   1.0000   1.0000   1.0000   1.0000   1.0000   1.0000   1.0000
     1.0000   1.0000   1.0000   1.0000   1.0000   1.0000   1.0000   1.0000
     1.0000   1.0000   1.0000   1.0000   1.0000   1.0000   1.0000   1.0000
     1.0000   1.0000   1.0000   1.0000   1.0000   1.0000   1.0000   1.0000
     1.0000   1.0000   1.0000   1.0000   1.0000   1.0000   1.0000   1.0000
     1.0000   1.0000   1.0000   1.0000   1.0000   1.0000   1.0000   1.0000
     1.0000   1.0000   1.0000   1.0000   1.0000   1.0000   1.0000   1.0000
     1.0000   1.0000   1.0000   1.0000   1.0000   1.0000   1.0000   1.0000
     1.0000   1.0000   1.0000   1.0000   1.0000   1.0000   1.0000   1.0000
     1.0000   1.0000   1.0000   1.0000   1.0000   1.0000   1.0000   1.0000
     1.0000   1.0000   1.0000   1.0000   1.0000   1.0000   1.0000   1.0000
     1.0000   1.0000   1.0000   1.0000   1.0000   1.0000   1.0000   1.0000
     1.0000   1.0000   1.0000   1.0000   1.0000   1.0000   1.0000   1.0000
     1.0000   1.0000   1.0000   1.0000   1.0000   1.0000   1.0000   1.0000
     1.0000   1.0000   1.0000   1.0000   1.0000   1.0000   1.0000   1.0000
     1.0000   1.0000   1.0000   1.0000   1.0000   1.0000   1.0000   1.0000
     1.0000   1.0000   1.0000   1.0000   1.0000   1.0000   1.0000   1.0000
     1.0000   1.0000   1.0000   1.0000   1.0000   1.0000   1.0000   1.0000
     1.0000   1.0000   1.0000   1.0000   1.0000   1.0000   1.0000   1.0000
     1.0000   1.0000   1.0000   1.0000   1.0000   1.0000   1.0000   1.0000
     1.0000   1.0000   1.0000   1.0000   1.0000   1.0000   1.0802   1.0802
     1.0802   1.0802   1.0802   1.0802   0.0000   0.0000   0.0000   0.0000
     0.0000   0.0000   0.0000   0.0000   0.0000   0.0000   0.0000   0.0000
     0.0000   0.0000   0.0000   0.0000   0.0000   0.0000   0.0000   0.0000
     0.0000   0.0000   0.0000   0.0000   0.0000   0.0000   0.0000   0.0000
     0.0000   0.0000   0.0000   0.0000   0.0000   0.0000   0.0000   0.0000
     0.0000   0.0000   0.0000   0.0000   0.0000   0.0000   0.0000   0.0000
     0.0000   0.0000   0.0000   0.0000   0.0000   0.0000   0.0000   0.0000
     0.0000   0.0000   0.0000   0.0000   0.0000   0.0000   0.0000   0.0000
     0.0000   0.0000   0.0000   0.0000   0.0000   0.0000   0.0000   0.0000

          k = 0.0000 0.2887 0.0000 ( 40527 PWs)   bands (ev):

  -127.1386-127.1354-126.9125-126.9094-126.8097-126.8097-126.8068-126.8068
  -126.6340-126.6340-126.6312-126.6312-126.5743-126.5715-126.3276-126.3276
  -126.3250-126.3250-125.9701-125.9701-125.9677-125.9677-125.7183-125.7160
  -125.6567-125.6567-125.6545-125.6545-125.4740-125.4740-125.4718-125.4718
  -125.3660-125.3639-125.1257-125.1237 -83.1709 -83.1709 -83.1670 -83.1670
   -82.9947 -82.9947 -82.9909 -82.9909 -82.9882 -82.9844 -82.9149 -82.9149
   -82.9112 -82.9112 -82.8406 -82.8370 -82.6805 -82.6772 -82.6112 -82.6079
   -82.3009 -82.2977 -82.1399 -82.1399 -82.1367 -82.1367 -81.9155 -81.9155
   -81.9123 -81.9123 -81.9030 -81.8997 -81.2578 -81.2578 -81.2551 -81.2551
   -80.4487 -80.4487 -80.4465 -80.4465 -80.2698 -80.2314 -80.1423 -80.1059
   -80.0847 -80.0847 -80.0491 -80.0491 -79.9868 -79.9868 -79.9536 -79.9526
   -79.9526 -79.9199 -79.8171 -79.8171 -79.8094 -79.8077 -79.7938 -79.7938
   -79.7918 -79.7918 -79.7853 -79.7853 -79.6213 -79.6213 -79.5924 -79.5924
   -79.5650 -79.5650 -79.5629 -79.5629 -79.4848 -79.4578 -79.4516 -79.4516
   -79.4251 -79.4251 -79.4016 -79.3998 -79.3535 -79.3535 -79.3284 -79.3284
   -79.2957 -79.2715 -79.1680 -79.1457 -79.0809 -79.0793 -79.0085 -79.0069
   -78.8395 -78.8382 -78.7634 -78.7634 -78.7622 -78.7622 -78.6829 -78.6817
   -78.6797 -78.6797 -78.6786 -78.6786 -78.5064 -78.5064 -78.5055 -78.5055
   -14.1261 -14.1261 -14.0003 -14.0003 -13.0134 -13.0134 -12.9355 -12.8851
   -12.8851 -12.8006 -12.3806 -12.3806 -12.2499 -12.2499 -11.6772 -11.6107
   -11.5825 -11.5398 -11.5138 -11.2761 -11.2761 -11.2305 -11.1762 -11.1762
   -11.1402 -11.1402 -10.8430 -10.8430 -10.8388 -10.8032 -10.8032 -10.8005
   -10.6200 -10.6200 -10.5875 -10.5875 -10.4288 -10.3917 -10.3917 -10.2391
   -10.2227 -10.2227 -10.1933 -10.1933 -10.0944 -10.0694 -10.0547 -10.0547
   -10.0309 -10.0114  -9.9599  -9.8942  -9.8942  -9.8644  -9.8644  -9.7717
    -9.7717  -9.7553  -9.6588  -9.6443  -9.6439  -9.6439  -9.5883  -9.5856
    -9.5856  -9.4985  -9.4985  -9.4587  -9.4587  -9.4339  -9.4139  -9.4139
    -9.3913  -9.3728  -9.3427  -9.2999  -9.2999  -9.2883  -9.2799  -9.2020
    -9.1586  -9.1368  -9.1006  -8.9958  -8.9958  -8.9459  -8.9459  -8.6962
    -8.6377  -8.6377  -8.1756  -8.1756  -7.9705  -7.9705  -7.6592  -7.6592
    -7.5459  -7.5019  -7.4622  -7.3878  -7.3657  -7.3657  -7.0473  -6.8229
    -6.8229  -6.1918  -6.0489  -6.0489  -6.0457  -5.9869  -5.9869  -5.9634
    -5.9396  -5.9396  -5.9206  -5.9206  -5.8483  -5.8483  -5.8361  -5.8089
    -5.8089  -5.7439  -5.7439  -5.7401  -5.7401  -5.6799  -5.5540  -5.5158
    -5.4850  -5.4850  -5.4492  -5.4492  -5.4302  -5.3208  -5.2923  -5.2473
    -5.0464  -5.0464  -5.0387  -5.0387  -4.9556  -4.8528  -4.8528  -4.7457
    -4.7457  -4.6023  -4.5342  -4.4448  -4.4225  -4.4105  -4.4105  -4.3075
    -4.3075  -4.2424  -4.1310  -4.0524  -4.0524  -4.0050  -3.9327  -3.9327
    -3.8711  -3.8296  -3.8296  -3.7361  -3.7266  -3.7266  -3.6367  -3.6366
    -3.6362  -3.6354  -3.6194  -3.6075  -3.5791  -3.5635  -3.5404  -3.5404
    -3.4937  -3.3414  -3.3414  -3.3393  -3.3393  -3.2782  -3.2782  -3.1493
    -3.1493  -3.1082  -3.1082  -1.8095  -1.8095  -1.7131  -1.7131  -1.4496
    -1.4496  -1.4096  -1.4096  -1.2958  -0.9113   1.1852   1.1852   1.3426
     1.4200   1.4200   2.2660   2.3432   2.3432   3.4171   3.4171   3.5082
     3.5082   4.5300   4.5300   4.5949   4.5949   4.9976   5.1347   5.1714
     6.6462   6.6462   6.7717   6.7717   6.9345   7.0357   7.0357   7.4407
     7.4407   7.7015   7.7015   8.6642   8.8011   9.4635   9.5189   9.5189
     9.8864   9.8864   9.9403  10.2170  10.2170  10.4553  10.4703  10.5052
    10.5052  10.5053  10.6584  10.7328  10.7328  11.1587  11.3161  11.3161
    11.5513  11.5803  11.9555  11.9555  12.0613  12.0613  12.2075  12.2784
    12.3987  12.3987  12.6933  12.6933  12.7393  12.7393  12.8901  12.8901
    13.0486  13.0486  13.1585  13.3005  13.4084  13.6635  13.7288  13.7288
    13.8950  14.0046  14.0046  14.0248  14.0248  14.1818  14.1818  14.5314
    14.7054  14.7054  14.7802  14.7897  14.9571  14.9571  15.3457  15.3457

     occupation numbers 
     1.0000   1.0000   1.0000   1.0000   1.0000   1.0000   1.0000   1.0000
     1.0000   1.0000   1.0000   1.0000   1.0000   1.0000   1.0000   1.0000
     1.0000   1.0000   1.0000   1.0000   1.0000   1.0000   1.0000   1.0000
     1.0000   1.0000   1.0000   1.0000   1.0000   1.0000   1.0000   1.0000
     1.0000   1.0000   1.0000   1.0000   1.0000   1.0000   1.0000   1.0000
     1.0000   1.0000   1.0000   1.0000   1.0000   1.0000   1.0000   1.0000
     1.0000   1.0000   1.0000   1.0000   1.0000   1.0000   1.0000   1.0000
     1.0000   1.0000   1.0000   1.0000   1.0000   1.0000   1.0000   1.0000
     1.0000   1.0000   1.0000   1.0000   1.0000   1.0000   1.0000   1.0000
     1.0000   1.0000   1.0000   1.0000   1.0000   1.0000   1.0000   1.0000
     1.0000   1.0000   1.0000   1.0000   1.0000   1.0000   1.0000   1.0000
     1.0000   1.0000   1.0000   1.0000   1.0000   1.0000   1.0000   1.0000
     1.0000   1.0000   1.0000   1.0000   1.0000   1.0000   1.0000   1.0000
     1.0000   1.0000   1.0000   1.0000   1.0000   1.0000   1.0000   1.0000
     1.0000   1.0000   1.0000   1.0000   1.0000   1.0000   1.0000   1.0000
     1.0000   1.0000   1.0000   1.0000   1.0000   1.0000   1.0000   1.0000
     1.0000   1.0000   1.0000   1.0000   1.0000   1.0000   1.0000   1.0000
     1.0000   1.0000   1.0000   1.0000   1.0000   1.0000   1.0000   1.0000
     1.0000   1.0000   1.0000   1.0000   1.0000   1.0000   1.0000   1.0000
     1.0000   1.0000   1.0000   1.0000   1.0000   1.0000   1.0000   1.0000
     1.0000   1.0000   1.0000   1.0000   1.0000   1.0000   1.0000   1.0000
     1.0000   1.0000   1.0000   1.0000   1.0000   1.0000   1.0000   1.0000
     1.0000   1.0000   1.0000   1.0000   1.0000   1.0000   1.0000   1.0000
     1.0000   1.0000   1.0000   1.0000   1.0000   1.0000   1.0000   1.0000
     1.0000   1.0000   1.0000   1.0000   1.0000   1.0000   1.0000   1.0000
     1.0000   1.0000   1.0000   1.0000   1.0000   1.0000   1.0000   1.0000
     1.0000   1.0000   1.0000   1.0000   1.0000   1.0000   1.0000   1.0000
     1.0000   1.0000   1.0000   1.0000   1.0000   1.0000   1.0000   1.0000
     1.0000   1.0000   1.0000   1.0000   1.0000   1.0000   1.0000   1.0000
     1.0000   1.0000   1.0000   1.0000   1.0000   1.0000   1.0000   1.0000
     1.0000   1.0000   1.0000   1.0000   1.0000   1.0000   1.0000   1.0000
     1.0000   1.0000   1.0000   1.0000   1.0000   1.0000   1.0000   1.0000
     1.0000   1.0000   1.0000   1.0000   1.0000   1.0000   1.0000   1.0000
     1.0000   1.0000   1.0000   1.0000   1.0000   1.0000   1.0000   1.0000
     1.0000   1.0000   1.0000   1.0000   1.0000   1.0000   1.0000   1.0000
     1.0000   1.0000   1.0000   1.0000   1.0000   1.0000   1.0000   1.0000
     1.0000   1.0000   1.0000   1.0000   1.0000   1.0000   1.0000   1.0000
     1.0000   1.0000   1.0000   1.0000   1.0000   1.0000   1.0000   1.0000
     1.0000   1.0000   1.0000   1.0000   1.0000   1.0000   1.0000   1.0000
     1.0000   1.0000   1.0000   1.0000   1.0000   1.0000   1.0000   1.0000
     1.0000   1.0000   1.0000   1.0000   1.0000   1.0000   1.0000   1.0000
     1.0000   1.0000   1.0000   1.0000   1.0000   1.0000   1.0000   1.0000
     1.0000   1.0000   1.0000   1.0000   1.0000   1.0000   1.0000   1.0000
     1.0000   1.0000   1.0000   1.0000   1.0000   1.0000   1.0000   1.0000
     1.0000   1.0000   1.0000   1.0000   1.0000   1.0009   1.0072   1.0114
     0.0000   0.0000   0.0000   0.0000   0.0000   0.0000   0.0000   0.0000
     0.0000   0.0000   0.0000   0.0000   0.0000   0.0000   0.0000   0.0000
     0.0000   0.0000   0.0000   0.0000   0.0000   0.0000   0.0000   0.0000
     0.0000   0.0000   0.0000   0.0000   0.0000   0.0000   0.0000   0.0000
     0.0000   0.0000   0.0000   0.0000   0.0000   0.0000   0.0000   0.0000
     0.0000   0.0000   0.0000   0.0000   0.0000   0.0000   0.0000   0.0000
     0.0000   0.0000   0.0000   0.0000   0.0000   0.0000   0.0000   0.0000
     0.0000   0.0000   0.0000   0.0000   0.0000   0.0000   0.0000   0.0000
     0.0000   0.0000   0.0000   0.0000   0.0000   0.0000   0.0000   0.0000

          k = 0.0000 0.2887 0.1039 ( 40532 PWs)   bands (ev):

  -127.1386-127.1354-126.9125-126.9094-126.8097-126.8097-126.8068-126.8068
  -126.6340-126.6340-126.6312-126.6312-126.5743-126.5715-126.3277-126.3277
  -126.3250-126.3250-125.9701-125.9701-125.9677-125.9677-125.7184-125.7161
  -125.6567-125.6567-125.6545-125.6545-125.4740-125.4740-125.4718-125.4718
  -125.3660-125.3639-125.1257-125.1237 -83.1709 -83.1709 -83.1670 -83.1670
   -82.9947 -82.9947 -82.9909 -82.9909 -82.9882 -82.9845 -82.9148 -82.9148
   -82.9112 -82.9112 -82.8406 -82.8370 -82.6806 -82.6772 -82.6112 -82.6079
   -82.3009 -82.2977 -82.1399 -82.1399 -82.1367 -82.1367 -81.9155 -81.9155
   -81.9122 -81.9122 -81.9030 -81.8997 -81.2578 -81.2578 -81.2551 -81.2551
   -80.4487 -80.4487 -80.4464 -80.4464 -80.2698 -80.2313 -80.1423 -80.1058
   -80.0847 -80.0847 -80.0491 -80.0491 -79.9867 -79.9867 -79.9536 -79.9526
   -79.9526 -79.9199 -79.8172 -79.8172 -79.8095 -79.8077 -79.7938 -79.7938
   -79.7918 -79.7918 -79.7854 -79.7854 -79.6214 -79.6214 -79.5924 -79.5924
   -79.5650 -79.5650 -79.5629 -79.5629 -79.4848 -79.4578 -79.4516 -79.4516
   -79.4251 -79.4251 -79.4017 -79.3998 -79.3535 -79.3535 -79.3284 -79.3284
   -79.2957 -79.2716 -79.1680 -79.1457 -79.0810 -79.0793 -79.0085 -79.0070
   -78.8395 -78.8382 -78.7634 -78.7634 -78.7622 -78.7622 -78.6829 -78.6817
   -78.6797 -78.6797 -78.6785 -78.6785 -78.5064 -78.5064 -78.5055 -78.5055
   -14.1261 -14.1261 -14.0003 -14.0003 -13.0134 -13.0134 -12.9355 -12.8851
   -12.8851 -12.8006 -12.3806 -12.3806 -12.2499 -12.2499 -11.6772 -11.6107
   -11.5825 -11.5399 -11.5138 -11.2761 -11.2761 -11.2305 -11.1762 -11.1762
   -11.1401 -11.1401 -10.8430 -10.8430 -10.8388 -10.8032 -10.8032 -10.8005
   -10.6200 -10.6200 -10.5875 -10.5875 -10.4289 -10.3917 -10.3917 -10.2391
   -10.2227 -10.2227 -10.1933 -10.1933 -10.0944 -10.0694 -10.0547 -10.0546
   -10.0309 -10.0114  -9.9599  -9.8941  -9.8941  -9.8644  -9.8644  -9.7717
    -9.7717  -9.7553  -9.6588  -9.6443  -9.6439  -9.6439  -9.5883  -9.5856
    -9.5856  -9.4985  -9.4985  -9.4587  -9.4587  -9.4339  -9.4139  -9.4139
    -9.3913  -9.3728  -9.3427  -9.2998  -9.2998  -9.2883  -9.2799  -9.2021
    -9.1586  -9.1367  -9.1006  -8.9958  -8.9958  -8.9458  -8.9458  -8.6962
    -8.6377  -8.6377  -8.1756  -8.1756  -7.9705  -7.9705  -7.6592  -7.6592
    -7.5459  -7.5019  -7.4622  -7.3878  -7.3657  -7.3657  -7.0473  -6.8229
    -6.8229  -6.1918  -6.0489  -6.0489  -6.0457  -5.9869  -5.9869  -5.9634
    -5.9396  -5.9396  -5.9206  -5.9206  -5.8483  -5.8483  -5.8361  -5.8089
    -5.8089  -5.7439  -5.7439  -5.7401  -5.7401  -5.6800  -5.5540  -5.5158
    -5.4850  -5.4850  -5.4492  -5.4492  -5.4302  -5.3208  -5.2923  -5.2473
    -5.0464  -5.0464  -5.0387  -5.0387  -4.9556  -4.8528  -4.8528  -4.7457
    -4.7457  -4.6023  -4.5342  -4.4448  -4.4225  -4.4105  -4.4105  -4.3074
    -4.3074  -4.2424  -4.1310  -4.0524  -4.0524  -4.0050  -3.9327  -3.9327
    -3.8711  -3.8296  -3.8296  -3.7361  -3.7266  -3.7266  -3.6366  -3.6366
    -3.6362  -3.6355  -3.6194  -3.6075  -3.5791  -3.5635  -3.5404  -3.5404
    -3.4937  -3.3414  -3.3414  -3.3393  -3.3393  -3.2783  -3.2783  -3.1493
    -3.1493  -3.1082  -3.1082  -1.8095  -1.8095  -1.7131  -1.7131  -1.4496
    -1.4496  -1.4096  -1.4096  -1.2958  -0.9113   1.1852   1.1852   1.3425
     1.4200   1.4200   2.2660   2.3432   2.3432   3.4171   3.4171   3.5082
     3.5082   4.5300   4.5300   4.5949   4.5949   4.9976   5.1347   5.1714
     6.6462   6.6462   6.7717   6.7717   6.9345   7.0357   7.0357   7.4407
     7.4407   7.7015   7.7015   8.6642   8.8245   9.3474   9.5189   9.5189
     9.8863   9.8863  10.1289  10.2170  10.2170  10.4553  10.4955  10.5049
    10.5049  10.5053  10.6584  10.7334  10.7334  11.0263  11.2476  11.3416
    11.3416  11.7785  11.9009  11.9009  11.9556  11.9556  12.2239  12.6407
    12.6445  12.6445  12.6930  12.6930  12.7393  12.7393  12.9137  12.9137
    12.9397  13.0486  13.0486  13.1585  13.4084  13.5497  13.5498  13.6847
    13.7573  13.7573  14.0677  14.0677  14.2801  14.2801  14.3106  14.3181
    14.3543  14.9445  14.9446  15.0508  15.1625  15.1628  15.3456  15.3456

     occupation numbers 
     1.0000   1.0000   1.0000   1.0000   1.0000   1.0000   1.0000   1.0000
     1.0000   1.0000   1.0000   1.0000   1.0000   1.0000   1.0000   1.0000
     1.0000   1.0000   1.0000   1.0000   1.0000   1.0000   1.0000   1.0000
     1.0000   1.0000   1.0000   1.0000   1.0000   1.0000   1.0000   1.0000
     1.0000   1.0000   1.0000   1.0000   1.0000   1.0000   1.0000   1.0000
     1.0000   1.0000   1.0000   1.0000   1.0000   1.0000   1.0000   1.0000
     1.0000   1.0000   1.0000   1.0000   1.0000   1.0000   1.0000   1.0000
     1.0000   1.0000   1.0000   1.0000   1.0000   1.0000   1.0000   1.0000
     1.0000   1.0000   1.0000   1.0000   1.0000   1.0000   1.0000   1.0000
     1.0000   1.0000   1.0000   1.0000   1.0000   1.0000   1.0000   1.0000
     1.0000   1.0000   1.0000   1.0000   1.0000   1.0000   1.0000   1.0000
     1.0000   1.0000   1.0000   1.0000   1.0000   1.0000   1.0000   1.0000
     1.0000   1.0000   1.0000   1.0000   1.0000   1.0000   1.0000   1.0000
     1.0000   1.0000   1.0000   1.0000   1.0000   1.0000   1.0000   1.0000
     1.0000   1.0000   1.0000   1.0000   1.0000   1.0000   1.0000   1.0000
     1.0000   1.0000   1.0000   1.0000   1.0000   1.0000   1.0000   1.0000
     1.0000   1.0000   1.0000   1.0000   1.0000   1.0000   1.0000   1.0000
     1.0000   1.0000   1.0000   1.0000   1.0000   1.0000   1.0000   1.0000
     1.0000   1.0000   1.0000   1.0000   1.0000   1.0000   1.0000   1.0000
     1.0000   1.0000   1.0000   1.0000   1.0000   1.0000   1.0000   1.0000
     1.0000   1.0000   1.0000   1.0000   1.0000   1.0000   1.0000   1.0000
     1.0000   1.0000   1.0000   1.0000   1.0000   1.0000   1.0000   1.0000
     1.0000   1.0000   1.0000   1.0000   1.0000   1.0000   1.0000   1.0000
     1.0000   1.0000   1.0000   1.0000   1.0000   1.0000   1.0000   1.0000
     1.0000   1.0000   1.0000   1.0000   1.0000   1.0000   1.0000   1.0000
     1.0000   1.0000   1.0000   1.0000   1.0000   1.0000   1.0000   1.0000
     1.0000   1.0000   1.0000   1.0000   1.0000   1.0000   1.0000   1.0000
     1.0000   1.0000   1.0000   1.0000   1.0000   1.0000   1.0000   1.0000
     1.0000   1.0000   1.0000   1.0000   1.0000   1.0000   1.0000   1.0000
     1.0000   1.0000   1.0000   1.0000   1.0000   1.0000   1.0000   1.0000
     1.0000   1.0000   1.0000   1.0000   1.0000   1.0000   1.0000   1.0000
     1.0000   1.0000   1.0000   1.0000   1.0000   1.0000   1.0000   1.0000
     1.0000   1.0000   1.0000   1.0000   1.0000   1.0000   1.0000   1.0000
     1.0000   1.0000   1.0000   1.0000   1.0000   1.0000   1.0000   1.0000
     1.0000   1.0000   1.0000   1.0000   1.0000   1.0000   1.0000   1.0000
     1.0000   1.0000   1.0000   1.0000   1.0000   1.0000   1.0000   1.0000
     1.0000   1.0000   1.0000   1.0000   1.0000   1.0000   1.0000   1.0000
     1.0000   1.0000   1.0000   1.0000   1.0000   1.0000   1.0000   1.0000
     1.0000   1.0000   1.0000   1.0000   1.0000   1.0000   1.0000   1.0000
     1.0000   1.0000   1.0000   1.0000   1.0000   1.0000   1.0000   1.0000
     1.0000   1.0000   1.0000   1.0000   1.0000   1.0000   1.0000   1.0000
     1.0000   1.0000   1.0000   1.0000   1.0000   1.0000   1.0000   1.0000
     1.0000   1.0000   1.0000   1.0000   1.0000   1.0000   1.0000   1.0000
     1.0000   1.0000   1.0000   1.0000   1.0000   1.0000   1.0000   1.0000
     1.0000   1.0000   1.0000   1.0000   1.0000   1.0009   1.0072   1.0114
     0.0000   0.0000   0.0000   0.0000   0.0000   0.0000   0.0000   0.0000
     0.0000   0.0000   0.0000   0.0000   0.0000   0.0000   0.0000   0.0000
     0.0000   0.0000   0.0000   0.0000   0.0000   0.0000   0.0000   0.0000
     0.0000   0.0000   0.0000   0.0000   0.0000   0.0000   0.0000   0.0000
     0.0000   0.0000   0.0000   0.0000   0.0000   0.0000   0.0000   0.0000
     0.0000   0.0000   0.0000   0.0000   0.0000   0.0000   0.0000   0.0000
     0.0000   0.0000   0.0000   0.0000   0.0000   0.0000   0.0000   0.0000
     0.0000   0.0000   0.0000   0.0000   0.0000   0.0000   0.0000   0.0000
     0.0000   0.0000   0.0000   0.0000   0.0000   0.0000   0.0000   0.0000

          k = 0.0000 0.2887-0.2078 ( 40518 PWs)   bands (ev):

  -127.1386-127.1354-126.9125-126.9094-126.8097-126.8097-126.8068-126.8068
  -126.6340-126.6340-126.6312-126.6312-126.5743-126.5715-126.3277-126.3277
  -126.3250-126.3250-125.9701-125.9701-125.9677-125.9677-125.7184-125.7161
  -125.6567-125.6567-125.6545-125.6545-125.4740-125.4740-125.4718-125.4718
  -125.3660-125.3639-125.1257-125.1237 -83.1708 -83.1708 -83.1669 -83.1669
   -82.9947 -82.9947 -82.9909 -82.9909 -82.9883 -82.9845 -82.9148 -82.9148
   -82.9112 -82.9112 -82.8406 -82.8370 -82.6806 -82.6772 -82.6112 -82.6078
   -82.3009 -82.2977 -82.1399 -82.1399 -82.1367 -82.1367 -81.9155 -81.9155
   -81.9122 -81.9122 -81.9031 -81.8997 -81.2578 -81.2578 -81.2551 -81.2551
   -80.4487 -80.4487 -80.4464 -80.4464 -80.2697 -80.2313 -80.1423 -80.1058
   -80.0847 -80.0847 -80.0491 -80.0491 -79.9867 -79.9867 -79.9536 -79.9526
   -79.9526 -79.9199 -79.8172 -79.8172 -79.8094 -79.8076 -79.7938 -79.7938
   -79.7918 -79.7918 -79.7854 -79.7854 -79.6214 -79.6214 -79.5924 -79.5924
   -79.5650 -79.5650 -79.5629 -79.5629 -79.4848 -79.4578 -79.4516 -79.4516
   -79.4251 -79.4251 -79.4017 -79.3998 -79.3535 -79.3535 -79.3284 -79.3284
   -79.2957 -79.2715 -79.1679 -79.1456 -79.0810 -79.0793 -79.0085 -79.0070
   -78.8395 -78.8382 -78.7635 -78.7635 -78.7622 -78.7622 -78.6829 -78.6817
   -78.6797 -78.6797 -78.6785 -78.6785 -78.5064 -78.5064 -78.5055 -78.5055
   -14.1261 -14.1261 -14.0003 -14.0003 -13.0134 -13.0134 -12.9355 -12.8851
   -12.8851 -12.8006 -12.3806 -12.3806 -12.2499 -12.2499 -11.6772 -11.6108
   -11.5825 -11.5399 -11.5138 -11.2761 -11.2761 -11.2305 -11.1762 -11.1762
   -11.1401 -11.1401 -10.8430 -10.8430 -10.8388 -10.8032 -10.8032 -10.8005
   -10.6200 -10.6200 -10.5875 -10.5875 -10.4289 -10.3917 -10.3917 -10.2391
   -10.2227 -10.2227 -10.1933 -10.1933 -10.0944 -10.0694 -10.0547 -10.0547
   -10.0309 -10.0114  -9.9599  -9.8941  -9.8941  -9.8644  -9.8644  -9.7717
    -9.7717  -9.7553  -9.6587  -9.6443  -9.6439  -9.6439  -9.5883  -9.5856
    -9.5856  -9.4985  -9.4985  -9.4587  -9.4587  -9.4339  -9.4139  -9.4139
    -9.3913  -9.3728  -9.3427  -9.2998  -9.2998  -9.2883  -9.2799  -9.2020
    -9.1586  -9.1367  -9.1006  -8.9958  -8.9958  -8.9459  -8.9459  -8.6962
    -8.6377  -8.6377  -8.1756  -8.1756  -7.9704  -7.9704  -7.6592  -7.6592
    -7.5459  -7.5019  -7.4622  -7.3878  -7.3657  -7.3657  -7.0473  -6.8229
    -6.8229  -6.1918  -6.0489  -6.0489  -6.0457  -5.9869  -5.9869  -5.9634
    -5.9396  -5.9396  -5.9206  -5.9206  -5.8483  -5.8483  -5.8361  -5.8089
    -5.8089  -5.7439  -5.7439  -5.7401  -5.7401  -5.6800  -5.5540  -5.5158
    -5.4850  -5.4850  -5.4492  -5.4492  -5.4302  -5.3208  -5.2923  -5.2473
    -5.0464  -5.0464  -5.0387  -5.0387  -4.9556  -4.8528  -4.8528  -4.7457
    -4.7457  -4.6023  -4.5342  -4.4448  -4.4225  -4.4105  -4.4105  -4.3074
    -4.3074  -4.2423  -4.1310  -4.0524  -4.0524  -4.0050  -3.9327  -3.9327
    -3.8711  -3.8296  -3.8296  -3.7361  -3.7266  -3.7266  -3.6366  -3.6366
    -3.6362  -3.6354  -3.6194  -3.6075  -3.5791  -3.5635  -3.5404  -3.5404
    -3.4937  -3.3414  -3.3414  -3.3393  -3.3393  -3.2782  -3.2782  -3.1493
    -3.1493  -3.1082  -3.1082  -1.8095  -1.8095  -1.7131  -1.7131  -1.4496
    -1.4496  -1.4096  -1.4096  -1.2958  -0.9113   1.1852   1.1852   1.3425
     1.4200   1.4200   2.2660   2.3432   2.3432   3.4171   3.4171   3.5082
     3.5082   4.5300   4.5300   4.5949   4.5949   4.9976   5.1347   5.1714
     6.6462   6.6462   6.7717   6.7717   6.9345   7.0357   7.0357   7.4407
     7.4407   7.7015   7.7015   8.6642   8.8535   9.2558   9.5189   9.5189
     9.8863   9.8863  10.2170  10.2170  10.3407  10.4552  10.5046  10.5046
    10.5053  10.5273  10.6583  10.7340  10.7340  10.9261  10.9707  11.3739
    11.3739  11.7914  11.7914  11.9556  11.9556  11.9648  12.2989  12.6054
    12.6927  12.6927  12.7393  12.7393  12.9160  12.9160  12.9422  12.9422
    13.0230  13.0486  13.0486  13.1585  13.4084  13.4221  13.4221  13.4394
    13.4394  13.7097  13.8735  14.0625  14.0625  14.2479  14.5909  14.5909
    14.7696  14.9485  14.9485  15.0019  15.0020  15.2537  15.3456  15.3456

     occupation numbers 
     1.0000   1.0000   1.0000   1.0000   1.0000   1.0000   1.0000   1.0000
     1.0000   1.0000   1.0000   1.0000   1.0000   1.0000   1.0000   1.0000
     1.0000   1.0000   1.0000   1.0000   1.0000   1.0000   1.0000   1.0000
     1.0000   1.0000   1.0000   1.0000   1.0000   1.0000   1.0000   1.0000
     1.0000   1.0000   1.0000   1.0000   1.0000   1.0000   1.0000   1.0000
     1.0000   1.0000   1.0000   1.0000   1.0000   1.0000   1.0000   1.0000
     1.0000   1.0000   1.0000   1.0000   1.0000   1.0000   1.0000   1.0000
     1.0000   1.0000   1.0000   1.0000   1.0000   1.0000   1.0000   1.0000
     1.0000   1.0000   1.0000   1.0000   1.0000   1.0000   1.0000   1.0000
     1.0000   1.0000   1.0000   1.0000   1.0000   1.0000   1.0000   1.0000
     1.0000   1.0000   1.0000   1.0000   1.0000   1.0000   1.0000   1.0000
     1.0000   1.0000   1.0000   1.0000   1.0000   1.0000   1.0000   1.0000
     1.0000   1.0000   1.0000   1.0000   1.0000   1.0000   1.0000   1.0000
     1.0000   1.0000   1.0000   1.0000   1.0000   1.0000   1.0000   1.0000
     1.0000   1.0000   1.0000   1.0000   1.0000   1.0000   1.0000   1.0000
     1.0000   1.0000   1.0000   1.0000   1.0000   1.0000   1.0000   1.0000
     1.0000   1.0000   1.0000   1.0000   1.0000   1.0000   1.0000   1.0000
     1.0000   1.0000   1.0000   1.0000   1.0000   1.0000   1.0000   1.0000
     1.0000   1.0000   1.0000   1.0000   1.0000   1.0000   1.0000   1.0000
     1.0000   1.0000   1.0000   1.0000   1.0000   1.0000   1.0000   1.0000
     1.0000   1.0000   1.0000   1.0000   1.0000   1.0000   1.0000   1.0000
     1.0000   1.0000   1.0000   1.0000   1.0000   1.0000   1.0000   1.0000
     1.0000   1.0000   1.0000   1.0000   1.0000   1.0000   1.0000   1.0000
     1.0000   1.0000   1.0000   1.0000   1.0000   1.0000   1.0000   1.0000
     1.0000   1.0000   1.0000   1.0000   1.0000   1.0000   1.0000   1.0000
     1.0000   1.0000   1.0000   1.0000   1.0000   1.0000   1.0000   1.0000
     1.0000   1.0000   1.0000   1.0000   1.0000   1.0000   1.0000   1.0000
     1.0000   1.0000   1.0000   1.0000   1.0000   1.0000   1.0000   1.0000
     1.0000   1.0000   1.0000   1.0000   1.0000   1.0000   1.0000   1.0000
     1.0000   1.0000   1.0000   1.0000   1.0000   1.0000   1.0000   1.0000
     1.0000   1.0000   1.0000   1.0000   1.0000   1.0000   1.0000   1.0000
     1.0000   1.0000   1.0000   1.0000   1.0000   1.0000   1.0000   1.0000
     1.0000   1.0000   1.0000   1.0000   1.0000   1.0000   1.0000   1.0000
     1.0000   1.0000   1.0000   1.0000   1.0000   1.0000   1.0000   1.0000
     1.0000   1.0000   1.0000   1.0000   1.0000   1.0000   1.0000   1.0000
     1.0000   1.0000   1.0000   1.0000   1.0000   1.0000   1.0000   1.0000
     1.0000   1.0000   1.0000   1.0000   1.0000   1.0000   1.0000   1.0000
     1.0000   1.0000   1.0000   1.0000   1.0000   1.0000   1.0000   1.0000
     1.0000   1.0000   1.0000   1.0000   1.0000   1.0000   1.0000   1.0000
     1.0000   1.0000   1.0000   1.0000   1.0000   1.0000   1.0000   1.0000
     1.0000   1.0000   1.0000   1.0000   1.0000   1.0000   1.0000   1.0000
     1.0000   1.0000   1.0000   1.0000   1.0000   1.0000   1.0000   1.0000
     1.0000   1.0000   1.0000   1.0000   1.0000   1.0000   1.0000   1.0000
     1.0000   1.0000   1.0000   1.0000   1.0000   1.0000   1.0000   1.0000
     1.0000   1.0000   1.0000   1.0000   1.0000   1.0009   1.0072   1.0114
     0.0000   0.0000   0.0000   0.0000   0.0000   0.0000   0.0000   0.0000
     0.0000   0.0000   0.0000   0.0000   0.0000   0.0000   0.0000   0.0000
     0.0000   0.0000   0.0000   0.0000   0.0000   0.0000   0.0000   0.0000
     0.0000   0.0000   0.0000   0.0000   0.0000   0.0000   0.0000   0.0000
     0.0000   0.0000   0.0000   0.0000   0.0000   0.0000   0.0000   0.0000
     0.0000   0.0000   0.0000   0.0000   0.0000   0.0000   0.0000   0.0000
     0.0000   0.0000   0.0000   0.0000   0.0000   0.0000   0.0000   0.0000
     0.0000   0.0000   0.0000   0.0000   0.0000   0.0000   0.0000   0.0000
     0.0000   0.0000   0.0000   0.0000   0.0000   0.0000   0.0000   0.0000

          k = 0.0000-0.5774 0.0000 ( 40436 PWs)   bands (ev):

  -127.0504-127.0502-127.0473-127.0470-126.8328-126.8328-126.8298-126.8298
  -126.4929-126.4929-126.4928-126.4927-126.4924-126.4902-126.4901-126.4901
  -126.4900-126.4896-125.8024-125.8021-125.8021-125.8019-125.8018-125.8001
  -125.7998-125.7997-125.7996-125.7995-125.4498-125.4498-125.4477-125.4477
  -125.2202-125.2199-125.2181-125.2179 -83.0922 -83.0921 -83.0920 -83.0919
   -83.0884 -83.0883 -83.0882 -83.0881 -83.0101 -83.0063 -82.9205 -82.9205
   -82.9168 -82.9168 -82.7500 -82.7498 -82.7466 -82.7464 -82.4872 -82.4870
   -82.4840 -82.4838 -82.1428 -82.1428 -82.1396 -82.1396 -81.8270 -81.8238
   -81.6256 -81.6256 -81.6255 -81.6255 -81.6227 -81.6226 -81.6226 -81.6225
   -80.2200 -80.2197 -80.1823 -80.1820 -80.0976 -80.0976 -80.0823 -80.0823
   -80.0823 -80.0822 -80.0803 -80.0803 -80.0802 -80.0802 -80.0618 -80.0618
   -79.9085 -79.9084 -79.9084 -79.9083 -79.9081 -79.8866 -79.8856 -79.8754
   -79.8753 -79.8752 -79.8752 -79.8746 -79.5601 -79.5601 -79.5580 -79.5580
   -79.5303 -79.5302 -79.5301 -79.5300 -79.5298 -79.5026 -79.5025 -79.5025
   -79.5023 -79.5022 -79.3405 -79.3405 -79.3156 -79.3156 -79.2182 -79.2179
   -79.2095 -79.2092 -79.2079 -79.2076 -79.1951 -79.1949 -78.9355 -78.9352
   -78.9340 -78.9338 -78.7597 -78.7597 -78.7584 -78.7584 -78.6596 -78.6586
   -78.5839 -78.5838 -78.5837 -78.5836 -78.5829 -78.5827 -78.5826 -78.5825
   -13.6730 -13.6729 -13.6727 -13.6727 -13.5475 -13.5474 -13.5473 -13.5472
   -13.1069 -12.9730 -12.4319 -12.4319 -12.3023 -12.3023 -11.7100 -11.6831
   -11.0169 -11.0169 -11.0167 -11.0166 -10.9847 -10.9845 -10.8923 -10.8922
   -10.7171 -10.7171 -10.7171 -10.7170 -10.7014 -10.7014 -10.6916 -10.6916
   -10.6916 -10.6915 -10.4804 -10.4802 -10.4802 -10.4714 -10.4714 -10.4450
   -10.4450 -10.3798 -10.3797 -10.3637 -10.3637 -10.3635 -10.3634 -10.1946
   -10.1946 -10.1460 -10.1460 -10.0591 -10.0317 -10.0317 -10.0054  -9.9272
    -9.9272  -9.9044  -9.9044  -9.8352  -9.8350  -9.6720  -9.6719  -9.4416
    -9.4414  -9.3885  -9.3885  -9.3883  -9.3883  -9.3787  -9.3787  -9.3307
    -9.3305  -9.2519  -9.2519  -9.2517  -9.2517  -9.1699  -9.1685  -9.1685
    -9.1684  -9.1684  -9.1652  -9.1650  -9.1516  -8.9506  -8.8875  -8.8875
    -8.5096  -8.5096  -8.5095  -8.5095  -8.3717  -8.3717  -7.3560  -7.3560
    -7.3559  -7.3558  -6.8456  -6.7622  -6.7622  -6.7205  -6.7204  -6.3898
    -6.3898  -6.3112  -6.3112  -6.3108  -6.3108  -6.3107  -6.3107  -6.2000
    -6.2000  -6.0084  -5.9957  -5.9957  -5.9733  -5.9732  -5.9731  -5.9730
    -5.8670  -5.8060  -5.8060  -5.7871  -5.7871  -5.6052  -5.6052  -5.6050
    -5.6050  -5.4133  -5.4133  -5.4086  -5.4085  -5.4063  -5.2529  -5.2529
    -5.2460  -5.2458  -5.2458  -5.2457  -5.1502  -4.8752  -4.8752  -4.6092
    -4.6092  -4.6090  -4.6090  -4.4220  -4.4220  -4.3942  -4.3939  -4.3549
    -4.3547  -4.2389  -4.2387  -3.9576  -3.9576  -3.9120  -3.9120  -3.8248
    -3.8248  -3.6664  -3.6368  -3.6366  -3.5823  -3.5407  -3.5406  -3.5406
    -3.5405  -3.5114  -3.5072  -3.5071  -3.5070  -3.5069  -3.4356  -3.4355
    -3.4354  -3.4353  -3.4030  -3.4030  -3.3869  -3.3869  -3.3814  -3.3677
    -2.6013  -2.3540  -2.3539  -2.3538  -2.3537  -2.1799  -2.1799  -2.1797
    -2.1797  -0.4600  -0.4600  -0.4599  -0.4599  -0.1377  -0.1376   0.4592
     0.7657   2.1130   2.1130   2.4213   2.4214   2.4214   2.4215   3.3612
     5.4230   5.4230   5.4231   5.4232   5.6571   5.6571   5.6571   5.6572
     5.7826   5.7827   6.4546   6.5921   6.5921   6.5922   6.5922   7.5645
     7.5645   8.7892   8.7892   8.8324   8.9708   8.9708   9.4045   9.4045
     9.5784   9.5784   9.5785   9.5785  10.0598  10.1148  10.1148  10.5402
    10.5403  10.9556  10.9557  10.9557  10.9558  11.0994  11.0994  11.4017
    11.4018  11.4018  11.4018  11.7356  11.7356  12.2000  12.2000  12.2051
    12.2051  12.2689  12.2689  12.3423  12.3423  12.3810  12.3810  12.7562
    12.8854  12.9924  12.9996  12.9996  13.9446  13.9446  14.2866  14.2866
    14.2866  14.2866  14.5291  14.5292  15.1073  15.1073  15.1575  15.1575
    15.1575  15.1576  15.1984  15.1985  15.1985  15.1985  15.4179  15.4180

     occupation numbers 
     1.0000   1.0000   1.0000   1.0000   1.0000   1.0000   1.0000   1.0000
     1.0000   1.0000   1.0000   1.0000   1.0000   1.0000   1.0000   1.0000
     1.0000   1.0000   1.0000   1.0000   1.0000   1.0000   1.0000   1.0000
     1.0000   1.0000   1.0000   1.0000   1.0000   1.0000   1.0000   1.0000
     1.0000   1.0000   1.0000   1.0000   1.0000   1.0000   1.0000   1.0000
     1.0000   1.0000   1.0000   1.0000   1.0000   1.0000   1.0000   1.0000
     1.0000   1.0000   1.0000   1.0000   1.0000   1.0000   1.0000   1.0000
     1.0000   1.0000   1.0000   1.0000   1.0000   1.0000   1.0000   1.0000
     1.0000   1.0000   1.0000   1.0000   1.0000   1.0000   1.0000   1.0000
     1.0000   1.0000   1.0000   1.0000   1.0000   1.0000   1.0000   1.0000
     1.0000   1.0000   1.0000   1.0000   1.0000   1.0000   1.0000   1.0000
     1.0000   1.0000   1.0000   1.0000   1.0000   1.0000   1.0000   1.0000
     1.0000   1.0000   1.0000   1.0000   1.0000   1.0000   1.0000   1.0000
     1.0000   1.0000   1.0000   1.0000   1.0000   1.0000   1.0000   1.0000
     1.0000   1.0000   1.0000   1.0000   1.0000   1.0000   1.0000   1.0000
     1.0000   1.0000   1.0000   1.0000   1.0000   1.0000   1.0000   1.0000
     1.0000   1.0000   1.0000   1.0000   1.0000   1.0000   1.0000   1.0000
     1.0000   1.0000   1.0000   1.0000   1.0000   1.0000   1.0000   1.0000
     1.0000   1.0000   1.0000   1.0000   1.0000   1.0000   1.0000   1.0000
     1.0000   1.0000   1.0000   1.0000   1.0000   1.0000   1.0000   1.0000
     1.0000   1.0000   1.0000   1.0000   1.0000   1.0000   1.0000   1.0000
     1.0000   1.0000   1.0000   1.0000   1.0000   1.0000   1.0000   1.0000
     1.0000   1.0000   1.0000   1.0000   1.0000   1.0000   1.0000   1.0000
     1.0000   1.0000   1.0000   1.0000   1.0000   1.0000   1.0000   1.0000
     1.0000   1.0000   1.0000   1.0000   1.0000   1.0000   1.0000   1.0000
     1.0000   1.0000   1.0000   1.0000   1.0000   1.0000   1.0000   1.0000
     1.0000   1.0000   1.0000   1.0000   1.0000   1.0000   1.0000   1.0000
     1.0000   1.0000   1.0000   1.0000   1.0000   1.0000   1.0000   1.0000
     1.0000   1.0000   1.0000   1.0000   1.0000   1.0000   1.0000   1.0000
     1.0000   1.0000   1.0000   1.0000   1.0000   1.0000   1.0000   1.0000
     1.0000   1.0000   1.0000   1.0000   1.0000   1.0000   1.0000   1.0000
[...]
     atom   12 type  1   force =     0.00000377   -0.00000211  353.64624986
     atom   13 type  1   force =     0.00000395   -0.00000207 -353.64624985
     atom   14 type  1   force =     0.00000395   -0.00000207  353.64624985
     atom   15 type  1   force =     0.00000388   -0.00000226 -353.64624989
     atom   16 type  1   force =     0.00000388   -0.00000226  353.64624989
     atom   17 type  1   force =     0.00000379   -0.00000206 -353.64624986
     atom   18 type  1   force =     0.00000379   -0.00000206  353.64624986
     atom   19 type  1   force =    -0.00000378    0.00000220 -353.64624984
     atom   20 type  1   force =    -0.00000378    0.00000220  353.64624984
     atom   21 type  1   force =    -0.00000380    0.00000206 -353.64624985
     atom   22 type  1   force =    -0.00000380    0.00000206  353.64624985
     atom   23 type  1   force =    -0.00000376    0.00000233 -353.64624987
     atom   24 type  1   force =    -0.00000376    0.00000233  353.64624987
     atom   25 type  1   force =    -0.00000391    0.00000206 -353.64624986
     atom   26 type  1   force =    -0.00000391    0.00000206  353.64624986
     atom   27 type  1   force =    -0.00000396    0.00000197 -353.64624987
     atom   28 type  1   force =    -0.00000396    0.00000197  353.64624987
     atom   29 type  1   force =    -0.00000383    0.00000232 -353.64624987
     atom   30 type  1   force =    -0.00000383    0.00000232  353.64624987
     atom   31 type  1   force =    -0.00000379    0.00000219 -353.64624985
     atom   32 type  1   force =    -0.00000379    0.00000219  353.64624985
     atom   33 type  1   force =    -0.00000373    0.00000206 -353.64624986
     atom   34 type  1   force =    -0.00000373    0.00000206  353.64624986
     atom   35 type  1   force =    -0.00000388    0.00000228 -353.64624988
     atom   36 type  1   force =    -0.00000388    0.00000228  353.64624988
     The local contribution  to forces
     atom    1 type  1   force =     0.00001369    0.00114167  353.24922362
     atom    2 type  1   force =     0.00001369    0.00111274 -353.24920778
     atom    3 type  1   force =     0.00020600    0.00010256  353.24960302
     atom    4 type  1   force =     0.00019706    0.00009741 -353.24960317
     atom    5 type  1   force =     0.00100966   -0.00058252  353.24922362
     atom    6 type  1   force =     0.00098461   -0.00056806 -353.24920778
     atom    7 type  1   force =     0.00081266    0.00045351  353.24952641
     atom    8 type  1   force =     0.00079791    0.00044500 -353.24952416
     atom    9 type  1   force =    -0.00017862    0.00010256  353.24960302
     atom   10 type  1   force =    -0.00016969    0.00009741 -353.24960317
     atom   11 type  1   force =     0.00001369   -0.00022955  353.24960302
     atom   12 type  1   force =     0.00001369   -0.00021924 -353.24960317
     atom   13 type  1   force =    -0.00078529    0.00045351  353.24952641
     atom   14 type  1   force =    -0.00077053    0.00044500 -353.24952416
     atom   15 type  1   force =     0.00001421   -0.00093134  353.24952641
     atom   16 type  1   force =     0.00001421   -0.00091431 -353.24952416
     atom   17 type  1   force =    -0.00098229   -0.00058252  353.24922362
     atom   18 type  1   force =    -0.00095724   -0.00056806 -353.24920778
     atom   19 type  1   force =     0.00098176    0.00058242  353.24922362
     atom   20 type  1   force =     0.00095671    0.00056795 -353.24920778
     atom   21 type  1   force =    -0.00001369    0.00093019  353.24952641
     atom   22 type  1   force =    -0.00001369    0.00091315 -353.24952416
     atom   23 type  1   force =     0.00078581   -0.00045362  353.24952641
     atom   24 type  1   force =     0.00077106   -0.00044510 -353.24952416
     atom   25 type  1   force =    -0.00001421    0.00022945  353.24960302
     atom   26 type  1   force =    -0.00001421    0.00021913 -353.24960317
     atom   27 type  1   force =     0.00017809   -0.00010372  353.24960302
     atom   28 type  1   force =     0.00016916   -0.00009856 -353.24960317
     atom   29 type  1   force =    -0.00081319   -0.00045362  353.24952641
     atom   30 type  1   force =    -0.00079844   -0.00044510 -353.24952416
     atom   31 type  1   force =    -0.00100914    0.00058242  353.24922362
     atom   32 type  1   force =    -0.00098408    0.00056795 -353.24920778
     atom   33 type  1   force =    -0.00020547   -0.00010372  353.24960302
     atom   34 type  1   force =    -0.00019653   -0.00009856 -353.24960317
     atom   35 type  1   force =    -0.00001421   -0.00114178  353.24922362
     atom   36 type  1   force =    -0.00001421   -0.00111285 -353.24920778
     The core correction contribution to forces
     atom    1 type  1   force =     0.00000000    0.00000000    0.00000000
     atom    2 type  1   force =     0.00000000    0.00000000    0.00000000
     atom    3 type  1   force =     0.00000000    0.00000000    0.00000000
     atom    4 type  1   force =     0.00000000    0.00000000    0.00000000
     atom    5 type  1   force =     0.00000000    0.00000000    0.00000000
     atom    6 type  1   force =     0.00000000    0.00000000    0.00000000
     atom    7 type  1   force =     0.00000000    0.00000000    0.00000000
     atom    8 type  1   force =     0.00000000    0.00000000    0.00000000
     atom    9 type  1   force =     0.00000000    0.00000000    0.00000000
     atom   10 type  1   force =     0.00000000    0.00000000    0.00000000
     atom   11 type  1   force =     0.00000000    0.00000000    0.00000000
     atom   12 type  1   force =     0.00000000    0.00000000    0.00000000
     atom   13 type  1   force =     0.00000000    0.00000000    0.00000000
     atom   14 type  1   force =     0.00000000    0.00000000    0.00000000
     atom   15 type  1   force =     0.00000000    0.00000000    0.00000000
     atom   16 type  1   force =     0.00000000    0.00000000    0.00000000
     atom   17 type  1   force =     0.00000000    0.00000000    0.00000000
     atom   18 type  1   force =     0.00000000    0.00000000    0.00000000
     atom   19 type  1   force =     0.00000000    0.00000000    0.00000000
     atom   20 type  1   force =     0.00000000    0.00000000    0.00000000
     atom   21 type  1   force =     0.00000000    0.00000000    0.00000000
     atom   22 type  1   force =     0.00000000    0.00000000    0.00000000
     atom   23 type  1   force =     0.00000000    0.00000000    0.00000000
     atom   24 type  1   force =     0.00000000    0.00000000    0.00000000
     atom   25 type  1   force =     0.00000000    0.00000000    0.00000000
     atom   26 type  1   force =     0.00000000    0.00000000    0.00000000
     atom   27 type  1   force =     0.00000000    0.00000000    0.00000000
     atom   28 type  1   force =     0.00000000    0.00000000    0.00000000
     atom   29 type  1   force =     0.00000000    0.00000000    0.00000000
     atom   30 type  1   force =     0.00000000    0.00000000    0.00000000
     atom   31 type  1   force =     0.00000000    0.00000000    0.00000000
     atom   32 type  1   force =     0.00000000    0.00000000    0.00000000
     atom   33 type  1   force =     0.00000000    0.00000000    0.00000000
     atom   34 type  1   force =     0.00000000    0.00000000    0.00000000
     atom   35 type  1   force =     0.00000000    0.00000000    0.00000000
     atom   36 type  1   force =     0.00000000    0.00000000    0.00000000
     The Hubbard contrib.    to forces
     atom    1 type  1   force =     0.00000000    0.00000000    0.00000000
     atom    2 type  1   force =     0.00000000    0.00000000    0.00000000
     atom    3 type  1   force =     0.00000000    0.00000000    0.00000000
     atom    4 type  1   force =     0.00000000    0.00000000    0.00000000
     atom    5 type  1   force =     0.00000000    0.00000000    0.00000000
     atom    6 type  1   force =     0.00000000    0.00000000    0.00000000
     atom    7 type  1   force =     0.00000000    0.00000000    0.00000000
     atom    8 type  1   force =     0.00000000    0.00000000    0.00000000
     atom    9 type  1   force =     0.00000000    0.00000000    0.00000000
     atom   10 type  1   force =     0.00000000    0.00000000    0.00000000
     atom   11 type  1   force =     0.00000000    0.00000000    0.00000000
     atom   12 type  1   force =     0.00000000    0.00000000    0.00000000
     atom   13 type  1   force =     0.00000000    0.00000000    0.00000000
     atom   14 type  1   force =     0.00000000    0.00000000    0.00000000
     atom   15 type  1   force =     0.00000000    0.00000000    0.00000000
     atom   16 type  1   force =     0.00000000    0.00000000    0.00000000
     atom   17 type  1   force =     0.00000000    0.00000000    0.00000000
     atom   18 type  1   force =     0.00000000    0.00000000    0.00000000
     atom   19 type  1   force =     0.00000000    0.00000000    0.00000000
     atom   20 type  1   force =     0.00000000    0.00000000    0.00000000
     atom   21 type  1   force =     0.00000000    0.00000000    0.00000000
     atom   22 type  1   force =     0.00000000    0.00000000    0.00000000
     atom   23 type  1   force =     0.00000000    0.00000000    0.00000000
     atom   24 type  1   force =     0.00000000    0.00000000    0.00000000
     atom   25 type  1   force =     0.00000000    0.00000000    0.00000000
     atom   26 type  1   force =     0.00000000    0.00000000    0.00000000
     atom   27 type  1   force =     0.00000000    0.00000000    0.00000000
     atom   28 type  1   force =     0.00000000    0.00000000    0.00000000
     atom   29 type  1   force =     0.00000000    0.00000000    0.00000000
     atom   30 type  1   force =     0.00000000    0.00000000    0.00000000
     atom   31 type  1   force =     0.00000000    0.00000000    0.00000000
     atom   32 type  1   force =     0.00000000    0.00000000    0.00000000
     atom   33 type  1   force =     0.00000000    0.00000000    0.00000000
     atom   34 type  1   force =     0.00000000    0.00000000    0.00000000
     atom   35 type  1   force =     0.00000000    0.00000000    0.00000000
     atom   36 type  1   force =     0.00000000    0.00000000    0.00000000
     The SCF correction term to forces
     atom    1 type  1   force =    -0.00000000   -0.00000000    0.00000000
     atom    2 type  1   force =    -0.00000000   -0.00000000   -0.00010952
     atom    3 type  1   force =    -0.00000000   -0.00000000   -0.00000000
     atom    4 type  1   force =    -0.00000000   -0.00000000    0.00034702
     atom    5 type  1   force =    -0.00000000    0.00000000    0.00000000
     atom    6 type  1   force =    -0.00000000    0.00000000   -0.00010952
     atom    7 type  1   force =    -0.00000000   -0.00000000   -0.00000000
     atom    8 type  1   force =    -0.00000000   -0.00000000    0.00025825
     atom    9 type  1   force =     0.00000000   -0.00000000   -0.00000000
     atom   10 type  1   force =     0.00000000   -0.00000000    0.00034702
     atom   11 type  1   force =    -0.00000000    0.00000000   -0.00000000
     atom   12 type  1   force =    -0.00000000    0.00000000    0.00034702
     atom   13 type  1   force =     0.00000000   -0.00000000   -0.00000000
     atom   14 type  1   force =     0.00000000   -0.00000000    0.00025825
     atom   15 type  1   force =    -0.00000000    0.00000000   -0.00000000
     atom   16 type  1   force =    -0.00000000    0.00000000    0.00025825
     atom   17 type  1   force =     0.00000000    0.00000000    0.00000000
     atom   18 type  1   force =     0.00000000    0.00000000   -0.00010952
     atom   19 type  1   force =    -0.00000000   -0.00000000    0.00000000
     atom   20 type  1   force =    -0.00000000   -0.00000000   -0.00010952
     atom   21 type  1   force =     0.00000000   -0.00000000   -0.00000000
     atom   22 type  1   force =     0.00000000   -0.00000000    0.00025825
     atom   23 type  1   force =    -0.00000000    0.00000000   -0.00000000
     atom   24 type  1   force =    -0.00000000    0.00000000    0.00025825
     atom   25 type  1   force =     0.00000000   -0.00000000   -0.00000000
     atom   26 type  1   force =     0.00000000   -0.00000000    0.00034702
     atom   27 type  1   force =    -0.00000000    0.00000000   -0.00000000
     atom   28 type  1   force =    -0.00000000    0.00000000    0.00034702
     atom   29 type  1   force =     0.00000000    0.00000000   -0.00000000
     atom   30 type  1   force =     0.00000000    0.00000000    0.00025825
     atom   31 type  1   force =     0.00000000   -0.00000000    0.00000000
     atom   32 type  1   force =     0.00000000   -0.00000000   -0.00010952
     atom   33 type  1   force =     0.00000000    0.00000000   -0.00000000
     atom   34 type  1   force =     0.00000000    0.00000000    0.00034702
     atom   35 type  1   force =     0.00000000    0.00000000    0.00000000
     atom   36 type  1   force =     0.00000000    0.00000000   -0.00010952

     Total force =     0.422551     Total SCF correction =     0.001093


     Computing stress (Cartesian axis) and pressure

          total   stress  (Ry/bohr**3)                   (kbar)     P=     2210.09
   0.02193991   0.00000000   0.00000000         3227.47        0.00        0.00
   0.00000000   0.02193991   0.00000000            0.00     3227.47        0.00
   0.00000000   0.00000000   0.00119190            0.00        0.00      175.33

     kinetic stress (kbar)  21929.92     -0.00      0.00
                               -0.00  21929.92      0.00
                                0.00      0.00  22033.16

     local   stress (kbar)**********     -0.00      0.00
                               -0.00**********      0.00
                                0.00      0.002734798.85

     nonloc. stress (kbar)  -1927.33      0.00      0.00
                                0.00  -1927.33     -0.00
                                0.00     -0.00  -1217.86

     hartree stress (kbar)1352856.66     -0.00     -0.00
                               -0.001352856.66      0.00
                               -0.00      0.00**********

     exc-cor stress (kbar) -10743.63      0.00     -0.00
                                0.00 -10743.63     -0.00
                               -0.00     -0.00 -10800.13

     corecor stress (kbar)      0.00      0.00      0.00
                                0.00      0.00      0.00
                                0.00      0.00      0.00

     ewald   stress (kbar)1279766.54      0.00     -0.00
                                0.001279766.55      0.00
                               -0.00      0.00**********

     hubbard stress (kbar)      0.00      0.00      0.00
                                0.00      0.00      0.00
                                0.00      0.00      0.00

     DFT-D   stress (kbar)      0.00      0.00      0.00
                                0.00      0.00      0.00
                                0.00      0.00      0.00

     XDM     stress (kbar)      0.00      0.00      0.00
                                0.00      0.00      0.00
                                0.00      0.00      0.00

     dft-nl  stress (kbar)      0.00      0.00      0.00
                                0.00      0.00      0.00
                                0.00      0.00      0.00

     TS-vdW  stress (kbar)      0.00      0.00      0.00
                                0.00      0.00      0.00
                                0.00      0.00      0.00

     MDB     stress (kbar)      0.00      0.00      0.00
                                0.00      0.00      0.00
                                0.00      0.00      0.00

     3D-RISM stress (kbar)      0.00      0.00      0.00
                                0.00      0.00      0.00
                                0.00      0.00      0.00


     BFGS Geometry Optimization
     Energy error            =      0.0E+00 Ry
     Gradient error          =      1.0E-01 Ry/Bohr

     number of scf cycles    =   1
     number of bfgs steps    =   0

     energy             new  =  -16570.7490813533 Ry

     new trust radius        =       0.0996934628 bohr
     new conv_thr            =       0.0000007350 Ry


ATOMIC_POSITIONS (angstrom)
Zn              -0.0000000130        1.5094013740        1.2182902410    0   0   0
Zn              -0.0000000130        1.5094013740        3.7074975530    0   0   1
Zn              -1.3071799410        3.7735034240        1.2182902410    0   0   0
Zn              -1.3071799410        3.7735034240        3.7076262306    0   0   1
Zn              -2.6143598690        6.0376054730        1.2182902410    0   0   0
Zn              -2.6143598690        6.0376054730        3.7074975530    0   0   1
Zn               2.6143598430        1.5094013740        1.2182902410    0   0   0
Zn               2.6143598430        1.5094013740        3.7076005755    0   0   1
Zn               1.3071799150        3.7735034240        1.2182902410    0   0   0
Zn               1.3071799150        3.7735034240        3.7076262306    0   0   1
Zn              -0.0000000130        6.0376054730        1.2182902410    0   0   0
Zn              -0.0000000130        6.0376054730        3.7076262306    0   0   1
Zn               5.2287196980        1.5094013740        1.2182902410    0   0   0
Zn               5.2287196980        1.5094013740        3.7076005755    0   0   1
Zn               3.9215397700        3.7735034240        1.2182902410    0   0   0
Zn               3.9215397700        3.7735034240        3.7076005755    0   0   1
Zn               2.6143598430        6.0376054730        1.2182902410    0   0   0
Zn               2.6143598430        6.0376054730        3.7074975530    0   0   1
Zn               1.3071799410        0.7547006760        1.2182902410    0   0   0
Zn               1.3071799410        0.7547006760        3.7074975530    0   0   1
Zn               0.0000000130        3.0188027260        1.2182902410    0   0   0
Zn               0.0000000130        3.0188027260        3.7076005755    0   0   1
Zn              -1.3071799150        5.2829047750        1.2182902410    0   0   0
Zn              -1.3071799150        5.2829047750        3.7076005755    0   0   1
Zn               3.9215397970        0.7547006760        1.2182902410    0   0   0
Zn               3.9215397970        0.7547006760        3.7076262306    0   0   1
Zn               2.6143598690        3.0188027260        1.2182902410    0   0   0
Zn               2.6143598690        3.0188027260        3.7076262306    0   0   1
Zn               1.3071799410        5.2829047750        1.2182902410    0   0   0
Zn               1.3071799410        5.2829047750        3.7076005755    0   0   1
Zn               6.5358996520        0.7547006760        1.2182902410    0   0   0
Zn               6.5358996520        0.7547006760        3.7074975530    0   0   1
Zn               5.2287197240        3.0188027260        1.2182902410    0   0   0
Zn               5.2287197240        3.0188027260        3.7076262306    0   0   1
Zn               3.9215397970        5.2829047750        1.2182902410    0   0   0
Zn               3.9215397970        5.2829047750        3.7074975530    0   0   1



     Writing config-only to output data dir ./tmp/Zn002_3x3x2_relax_fix.save/ :
     XML data file
     NEW-OLD atomic charge density approx. for the potential

     negative rho (up, down):  1.517E-03 0.000E+00

     total cpu time spent up to now is    11784.7 secs

     Self-consistent Calculation

     iteration #  1     ecut=    50.00 Ry     beta= 0.70
     Davidson diagonalization with overlap

---- Real-time Memory Report at c_bands before calling an iterative solver
          2125 MiB given to the printing process from OS
             0 MiB allocation reported by mallinfo(arena+hblkhd)
        156412 MiB available memory on the node where the printing process lives
------------------
