
     Program PWSCF v.7.3.1 starts on 10Mar2025 at  1:55:37 

     This program is part of the open-source Quantum ESPRESSO suite
     for quantum simulation of materials; please cite
         "P. Giannozzi et al., J. Phys.:Condens. Matter 21 395502 (2009);
         "P. Giannozzi et al., J. Phys.:Condens. Matter 29 465901 (2017);
         "P. Giannozzi et al., J. Chem. Phys. 152 154105 (2020);
          URL http://www.quantum-espresso.org", 
     in publications or presentations arising from this work. More details at
     http://www.quantum-espresso.org/quote

     Parallel version (MPI), running on    28 processors

     MPI processes distributed on     1 nodes
     80039 MiB available memory on the printing compute node when the environment starts

     Waiting for input...
     Reading input from standard input
Warning: card &CELL ignored
Warning: card   CELL_DOFREE = 'ALL' ignored
Warning: card / ignored

     Current dimensions of program PWSCF are:
     Max number of different atomic species (ntypx) = 10
     Max number of k-points (npk) =  40000
     Max angular momentum in pseudopotentials (lmaxx) =  4
     Found identity + (  0.0000  0.2500  0.0000) symmetry
     This is a supercell, fractional translations are disabled

     K-points division:     npool     =       4
     R & G space division:  proc/nbgrp/npool/nimage =       7
     Subspace diagonalization in iterative solution of the eigenvalue problem:
     one sub-group per band group will be used
     custom distributed-memory algorithm (size of sub-group:  2*  2 procs)


     Parallelization info
     --------------------
     sticks:   dense  smooth     PW     G-vecs:    dense   smooth      PW
     Min        1652     828    224               245898    86951   12286
     Max        1653     829    225               245901    86953   12290
     Sum       11565    5799   1573              1721291   608663   86009

     Using Slab Decomposition



     bravais-lattice index     =            0
     lattice parameter (alat)  =      18.4179  a.u.
     unit-cell volume          =   12743.7144 (a.u.)^3
     number of atoms/cell      =           32
     number of atomic types    =            1
     number of electrons       =       640.00
     number of Kohn-Sham states=          384
     kinetic-energy cutoff     =      50.0000  Ry
     charge density cutoff     =     400.0000  Ry
     scf convergence threshold =      7.3E-07
     mixing beta               =       0.7000
     number of iterations used =            8  plain     mixing
     energy convergence thresh.=      1.0E-05
     force convergence thresh. =      5.0E-04
     Exchange-correlation= SLA  PW   PBE  PBE
                           (   1   4   3   4   0   0   0)
     nstep                     =          100


     celldm(1)=  18.417879  celldm(2)=   0.000000  celldm(3)=   0.000000
     celldm(4)=   0.000000  celldm(5)=   0.000000  celldm(6)=   0.000000

     crystal axes: (cart. coord. in units of alat)
               a(1) = (   1.000000   0.000000   0.000000 )  
               a(2) = (   0.000000   1.072963   0.000000 )  
               a(3) = (   0.000000  -1.097569   1.901046 )  

     reciprocal axes: (cart. coord. in units 2 pi/alat)
               b(1) = (  1.000000  0.000000 -0.000000 )  
               b(2) = ( -0.000000  0.931999  0.538090 )  
               b(3) = (  0.000000  0.000000  0.526026 )  


     PseudoPot. # 1 for Zn read from file:
     /home/ys/qepseudo/SSSP_1.3.0_PBE_efficiency/Zn_pbe_v1.uspp.F.UPF
     MD5 check sum: df62231357ef9e81f77b2b3087fa5675
     Pseudo is Ultrasoft, Zval = 20.0
     Generated by new atomic code, or converted to UPF format
     Using radial grid of  943 points,  6 beta functions with: 
                l(1) =   0
                l(2) =   0
                l(3) =   1
                l(4) =   1
                l(5) =   2
                l(6) =   2
     Q(r) pseudized with  8 coefficients,  rinner =    1.100   1.100   1.100
                                                       1.100   1.100

     atomic species   valence    mass     pseudopotential
     Zn               20.00    65.38000     Zn( 1.00)

     No symmetry found


                                    s                        frac. trans.

      isym =  1     identity                                     

 cryst.   s( 1) = (     1          0          0      )
                  (     0          1          0      )
                  (     0          0          1      )

 cart.    s( 1) = (  1.0000000  0.0000000  0.0000000 )
                  (  0.0000000  1.0000000  0.0000000 )
                  (  0.0000000  0.0000000  1.0000000 )


   Cartesian axes

     site n.     atom                  positions (alat units)
         1        Zn     tau(   1) = (   0.1250000   0.1341203   0.0774344  )
         2        Zn     tau(   2) = (   0.1250000  -0.0000000   0.3097376  )
         3        Zn     tau(   3) = (   0.1250000   0.4023610   0.0774344  )
         4        Zn     tau(   4) = (   0.1250000   0.2682407   0.3097376  )
         5        Zn     tau(   5) = (   0.1250000   0.6706017   0.0774344  )
         6        Zn     tau(   6) = (   0.1250000   0.5364813   0.3097376  )
         7        Zn     tau(   7) = (   0.1250000   0.9388423   0.0774344  )
         8        Zn     tau(   8) = (   0.1250000   0.8047220   0.3097376  )
         9        Zn     tau(   9) = (   0.6250000   0.1341203   0.0774344  )
        10        Zn     tau(  10) = (   0.6250000  -0.0000000   0.3097376  )
        11        Zn     tau(  11) = (   0.6250000   0.4023610   0.0774344  )
        12        Zn     tau(  12) = (   0.6250000   0.2682407   0.3097376  )
        13        Zn     tau(  13) = (   0.6250000   0.6706017   0.0774344  )
        14        Zn     tau(  14) = (   0.6250000   0.5364813   0.3097376  )
        15        Zn     tau(  15) = (   0.6250000   0.9388423   0.0774344  )
        16        Zn     tau(  16) = (   0.6250000   0.8047220   0.3097376  )
        17        Zn     tau(  17) = (   0.3750000  -0.0000000   0.1548688  )
        18        Zn     tau(  18) = (   0.3750000  -0.1341203   0.3871721  )
        19        Zn     tau(  19) = (   0.3750000   0.2682407   0.1548688  )
        20        Zn     tau(  20) = (   0.3750000   0.1341203   0.3871721  )
        21        Zn     tau(  21) = (   0.3750000   0.5364813   0.1548688  )
        22        Zn     tau(  22) = (   0.3750000   0.4023610   0.3871721  )
        23        Zn     tau(  23) = (   0.3750000   0.8047220   0.1548688  )
        24        Zn     tau(  24) = (   0.3750000   0.6706017   0.3871721  )
        25        Zn     tau(  25) = (   0.8750000  -0.0000000   0.1548688  )
        26        Zn     tau(  26) = (   0.8750000  -0.1341203   0.3871721  )
        27        Zn     tau(  27) = (   0.8750000   0.2682407   0.1548688  )
        28        Zn     tau(  28) = (   0.8750000   0.1341203   0.3871721  )
        29        Zn     tau(  29) = (   0.8750000   0.5364813   0.1548688  )
        30        Zn     tau(  30) = (   0.8750000   0.4023610   0.3871721  )
        31        Zn     tau(  31) = (   0.8750000   0.8047220   0.1548688  )
        32        Zn     tau(  32) = (   0.8750000   0.6706017   0.3871721  )

   Crystallographic axes

     site n.     atom                  positions (cryst. coord.)
         1        Zn     tau(   1) = (  0.1250000  0.1666667  0.0407325  )
         2        Zn     tau(   2) = (  0.1250000  0.1666667  0.1629301  )
         3        Zn     tau(   3) = (  0.1250000  0.4166667  0.0407325  )
         4        Zn     tau(   4) = (  0.1250000  0.4166667  0.1629301  )
         5        Zn     tau(   5) = (  0.1250000  0.6666667  0.0407325  )
         6        Zn     tau(   6) = (  0.1250000  0.6666667  0.1629301  )
         7        Zn     tau(   7) = (  0.1250000  0.9166667  0.0407325  )
         8        Zn     tau(   8) = (  0.1250000  0.9166667  0.1629301  )
         9        Zn     tau(   9) = (  0.6250000  0.1666667  0.0407325  )
        10        Zn     tau(  10) = (  0.6250000  0.1666667  0.1629301  )
        11        Zn     tau(  11) = (  0.6250000  0.4166667  0.0407325  )
        12        Zn     tau(  12) = (  0.6250000  0.4166667  0.1629301  )
        13        Zn     tau(  13) = (  0.6250000  0.6666667  0.0407325  )
        14        Zn     tau(  14) = (  0.6250000  0.6666667  0.1629301  )
        15        Zn     tau(  15) = (  0.6250000  0.9166667  0.0407325  )
        16        Zn     tau(  16) = (  0.6250000  0.9166667  0.1629301  )
        17        Zn     tau(  17) = (  0.3750000  0.0833333  0.0814651  )
        18        Zn     tau(  18) = (  0.3750000  0.0833333  0.2036627  )
        19        Zn     tau(  19) = (  0.3750000  0.3333333  0.0814651  )
        20        Zn     tau(  20) = (  0.3750000  0.3333333  0.2036627  )
        21        Zn     tau(  21) = (  0.3750000  0.5833333  0.0814651  )
        22        Zn     tau(  22) = (  0.3750000  0.5833333  0.2036627  )
        23        Zn     tau(  23) = (  0.3750000  0.8333333  0.0814651  )
        24        Zn     tau(  24) = (  0.3750000  0.8333333  0.2036627  )
        25        Zn     tau(  25) = (  0.8750000  0.0833333  0.0814651  )
        26        Zn     tau(  26) = (  0.8750000  0.0833333  0.2036627  )
        27        Zn     tau(  27) = (  0.8750000  0.3333333  0.0814651  )
        28        Zn     tau(  28) = (  0.8750000  0.3333333  0.2036627  )
        29        Zn     tau(  29) = (  0.8750000  0.5833333  0.0814651  )
        30        Zn     tau(  30) = (  0.8750000  0.5833333  0.2036627  )
        31        Zn     tau(  31) = (  0.8750000  0.8333333  0.0814651  )
        32        Zn     tau(  32) = (  0.8750000  0.8333333  0.2036627  )

     number of k points=    36  Marzari-Vanderbilt smearing, width (Ry)=  0.0200
                       cart. coord. in units 2pi/alat
        k(    1) = (   0.0000000   0.0000000   0.0000000), wk =   0.0312500
        k(    2) = (   0.0000000   0.0000000   0.1315066), wk =   0.0625000
        k(    3) = (   0.0000000   0.0000000  -0.2630131), wk =   0.0312500
        k(    4) = (   0.0000000   0.2329997   0.1345224), wk =   0.0625000
        k(    5) = (   0.0000000   0.2329997   0.2660290), wk =   0.0625000
        k(    6) = (   0.0000000   0.2329997  -0.1284907), wk =   0.0625000
        k(    7) = (   0.0000000   0.2329997   0.0030159), wk =   0.0625000
        k(    8) = (   0.0000000  -0.4659994  -0.2690449), wk =   0.0312500
        k(    9) = (   0.0000000  -0.4659994  -0.1375383), wk =   0.0625000
        k(   10) = (   0.0000000  -0.4659994  -0.5320580), wk =   0.0312500
        k(   11) = (   0.2500000   0.0000000   0.0000000), wk =   0.0625000
        k(   12) = (   0.2500000   0.0000000   0.1315066), wk =   0.0625000
        k(   13) = (   0.2500000   0.0000000  -0.2630131), wk =   0.0625000
        k(   14) = (   0.2500000   0.2329997   0.1345224), wk =   0.0625000
        k(   15) = (   0.2500000   0.2329997   0.2660290), wk =   0.0625000
        k(   16) = (   0.2500000   0.2329997  -0.1284907), wk =   0.0625000
        k(   17) = (   0.2500000   0.2329997   0.0030159), wk =   0.0625000
        k(   18) = (   0.2500000  -0.4659994  -0.2690449), wk =   0.0625000
        k(   19) = (   0.2500000  -0.4659994  -0.1375383), wk =   0.0625000
        k(   20) = (   0.2500000  -0.4659994  -0.5320580), wk =   0.0625000
        k(   21) = (  -0.5000000   0.0000000   0.0000000), wk =   0.0312500
        k(   22) = (  -0.5000000   0.0000000   0.1315066), wk =   0.0625000
        k(   23) = (  -0.5000000   0.0000000  -0.2630131), wk =   0.0312500
        k(   24) = (  -0.5000000   0.2329997   0.1345224), wk =   0.0625000
        k(   25) = (  -0.5000000   0.2329997   0.2660290), wk =   0.0625000
        k(   26) = (  -0.5000000   0.2329997  -0.1284907), wk =   0.0625000
        k(   27) = (  -0.5000000   0.2329997   0.0030159), wk =   0.0625000
        k(   28) = (  -0.5000000  -0.4659994  -0.2690449), wk =   0.0312500
        k(   29) = (  -0.5000000  -0.4659994  -0.1375383), wk =   0.0625000
        k(   30) = (  -0.5000000  -0.4659994  -0.5320580), wk =   0.0312500
        k(   31) = (   0.2500000   0.0000000  -0.1315066), wk =   0.0625000
        k(   32) = (   0.2500000  -0.2329997  -0.1345224), wk =   0.0625000
        k(   33) = (   0.2500000  -0.2329997  -0.2660290), wk =   0.0625000
        k(   34) = (   0.2500000  -0.2329997   0.1284907), wk =   0.0625000
        k(   35) = (   0.2500000  -0.2329997  -0.0030159), wk =   0.0625000
        k(   36) = (   0.2500000   0.4659994   0.1375383), wk =   0.0625000

                       cryst. coord.
        k(    1) = (   0.0000000   0.0000000   0.0000000), wk =   0.0312500
        k(    2) = (   0.0000000   0.0000000   0.2500000), wk =   0.0625000
        k(    3) = (   0.0000000   0.0000000  -0.5000000), wk =   0.0312500
        k(    4) = (   0.0000000   0.2500000   0.0000000), wk =   0.0625000
        k(    5) = (   0.0000000   0.2500000   0.2500000), wk =   0.0625000
        k(    6) = (   0.0000000   0.2500000  -0.5000000), wk =   0.0625000
        k(    7) = (   0.0000000   0.2500000  -0.2500000), wk =   0.0625000
        k(    8) = (   0.0000000  -0.5000000   0.0000000), wk =   0.0312500
        k(    9) = (   0.0000000  -0.5000000   0.2500000), wk =   0.0625000
        k(   10) = (   0.0000000  -0.5000000  -0.5000000), wk =   0.0312500
        k(   11) = (   0.2500000   0.0000000   0.0000000), wk =   0.0625000
        k(   12) = (   0.2500000   0.0000000   0.2500000), wk =   0.0625000
        k(   13) = (   0.2500000   0.0000000  -0.5000000), wk =   0.0625000
        k(   14) = (   0.2500000   0.2500000   0.0000000), wk =   0.0625000
        k(   15) = (   0.2500000   0.2500000   0.2500000), wk =   0.0625000
        k(   16) = (   0.2500000   0.2500000  -0.5000000), wk =   0.0625000
        k(   17) = (   0.2500000   0.2500000  -0.2500000), wk =   0.0625000
        k(   18) = (   0.2500000  -0.5000000   0.0000000), wk =   0.0625000
        k(   19) = (   0.2500000  -0.5000000   0.2500000), wk =   0.0625000
        k(   20) = (   0.2500000  -0.5000000  -0.5000000), wk =   0.0625000
        k(   21) = (  -0.5000000   0.0000000   0.0000000), wk =   0.0312500
        k(   22) = (  -0.5000000   0.0000000   0.2500000), wk =   0.0625000
        k(   23) = (  -0.5000000   0.0000000  -0.5000000), wk =   0.0312500
        k(   24) = (  -0.5000000   0.2500000   0.0000000), wk =   0.0625000
        k(   25) = (  -0.5000000   0.2500000   0.2500000), wk =   0.0625000
        k(   26) = (  -0.5000000   0.2500000  -0.5000000), wk =   0.0625000
        k(   27) = (  -0.5000000   0.2500000  -0.2500000), wk =   0.0625000
        k(   28) = (  -0.5000000  -0.5000000   0.0000000), wk =   0.0312500
        k(   29) = (  -0.5000000  -0.5000000   0.2500000), wk =   0.0625000
        k(   30) = (  -0.5000000  -0.5000000  -0.5000000), wk =   0.0312500
        k(   31) = (   0.2500000   0.0000000  -0.2500000), wk =   0.0625000
        k(   32) = (   0.2500000  -0.2500000   0.0000000), wk =   0.0625000
        k(   33) = (   0.2500000  -0.2500000  -0.2500000), wk =   0.0625000
        k(   34) = (   0.2500000  -0.2500000   0.5000000), wk =   0.0625000
        k(   35) = (   0.2500000  -0.2500000   0.2500000), wk =   0.0625000
        k(   36) = (   0.2500000   0.5000000  -0.2500000), wk =   0.0625000

     Dense  grid:  1721291 G-vectors     FFT dimensions: ( 120, 125, 270)

     Smooth grid:   608663 G-vectors     FFT dimensions: (  90,  90, 192)

     Dynamical RAM for                 wfc:      63.69 MB

     Dynamical RAM for     wfc (w. buffer):     636.86 MB

     Dynamical RAM for           str. fact:       3.75 MB

     Dynamical RAM for           local pot:       0.00 MB

     Dynamical RAM for          nlocal pot:      95.53 MB

     Dynamical RAM for                qrad:       1.61 MB

     Dynamical RAM for          rho,v,vnew:      24.65 MB

     Dynamical RAM for               rhoin:       8.22 MB

     Dynamical RAM for            rho*nmix:      60.03 MB

     Dynamical RAM for           G-vectors:      14.73 MB

     Dynamical RAM for          h,s,v(r/c):       6.75 MB

     Dynamical RAM for          <psi|beta>:       3.38 MB

     Dynamical RAM for                 psi:     127.37 MB

     Dynamical RAM for                hpsi:     127.37 MB

     Dynamical RAM for                spsi:     127.37 MB

     Dynamical RAM for      wfcinit/wfcrot:     141.95 MB

     Dynamical RAM for           addusdens:     207.30 MB

     Dynamical RAM for          addusforce:     264.65 MB

     Dynamical RAM for         addusstress:     189.95 MB

     Estimated static dynamical RAM per process >     815.16 MB

     Estimated max dynamical RAM per process >       1.24 GB

     Estimated total dynamical RAM >      33.43 GB

     Initial potential from superposition of free atoms

     starting charge     639.9955, renormalised to     640.0000

     negative rho (up, down):  1.263E-03 0.000E+00
     Starting wfcs are  416 randomized atomic wfcs

     total cpu time spent up to now is      268.1 secs

     Self-consistent Calculation

     iteration #  1     ecut=    50.00 Ry     beta= 0.70
     Davidson diagonalization with overlap

---- Real-time Memory Report at c_bands before calling an iterative solver
           935 MiB given to the printing process from OS
             0 MiB allocation reported by mallinfo(arena+hblkhd)
         56162 MiB available memory on the node where the printing process lives
------------------
     ethr =  1.00E-02,  avg # of iterations =  8.8

     Threshold (ethr) on eigenvalues was too large:
     Diagonalizing with lowered threshold

     Davidson diagonalization with overlap

---- Real-time Memory Report at c_bands before calling an iterative solver
          1260 MiB given to the printing process from OS
             0 MiB allocation reported by mallinfo(arena+hblkhd)
         55434 MiB available memory on the node where the printing process lives
------------------
     ethr =  1.24E-04,  avg # of iterations = 10.3

     negative rho (up, down):  5.448E-04 0.000E+00

     total cpu time spent up to now is     2268.4 secs

     total energy              =  -14768.67443362 Ry
     estimated scf accuracy    <       0.83625878 Ry

     iteration #  2     ecut=    50.00 Ry     beta= 0.70
     Davidson diagonalization with overlap

---- Real-time Memory Report at c_bands before calling an iterative solver
          1272 MiB given to the printing process from OS
             0 MiB allocation reported by mallinfo(arena+hblkhd)
         55628 MiB available memory on the node where the printing process lives
------------------
     ethr =  1.31E-04,  avg # of iterations =  3.3

     negative rho (up, down):  1.065E-03 0.000E+00

     total cpu time spent up to now is     3467.7 secs

     total energy              =  -14768.82478076 Ry
     estimated scf accuracy    <       1.18019549 Ry

     iteration #  3     ecut=    50.00 Ry     beta= 0.70
     Davidson diagonalization with overlap

---- Real-time Memory Report at c_bands before calling an iterative solver
          1313 MiB given to the printing process from OS
             0 MiB allocation reported by mallinfo(arena+hblkhd)
         55604 MiB available memory on the node where the printing process lives
------------------
