
     Program PWSCF v.7.3.1 starts on 10Mar2025 at  1:41:12 

     This program is part of the open-source Quantum ESPRESSO suite
     for quantum simulation of materials; please cite
         "P. Giannozzi et al., J. Phys.:Condens. Matter 21 395502 (2009);
         "P. Giannozzi et al., J. Phys.:Condens. Matter 29 465901 (2017);
         "P. Giannozzi et al., J. Chem. Phys. 152 154105 (2020);
          URL http://www.quantum-espresso.org", 
     in publications or presentations arising from this work. More details at
     http://www.quantum-espresso.org/quote

     Parallel version (MPI), running on    28 processors

     MPI processes distributed on     1 nodes
     88302 MiB available memory on the printing compute node when the environment starts

     Waiting for input...
     Reading input from standard input
Warning: card &CELL ignored
Warning: card   CELL_DOFREE = 'ALL' ignored
Warning: card / ignored

     Current dimensions of program PWSCF are:
     Max number of different atomic species (ntypx) = 10
     Max number of k-points (npk) =  40000
     Max angular momentum in pseudopotentials (lmaxx) =  4
     Found identity + ( -0.0000  0.2500  0.0000) symmetry
     This is a supercell, fractional translations are disabled

     K-points division:     npool     =       4
     R & G space division:  proc/nbgrp/npool/nimage =       7
     Subspace diagonalization in iterative solution of the eigenvalue problem:
     one sub-group per band group will be used
     custom distributed-memory algorithm (size of sub-group:  2*  2 procs)


     Parallelization info
     --------------------
     sticks:   dense  smooth     PW     G-vecs:    dense   smooth      PW
     Min        1824     911    266               265014    93696   14758
     Max        1825     912    267               265016    93700   14760
     Sum       12769    6383   1863              1855101   655895  103317

     Using Slab Decomposition



     bravais-lattice index     =            0
     lattice parameter (alat)  =      20.9009  a.u.
     unit-cell volume          =   13732.2523 (a.u.)^3
     number of atoms/cell      =           32
     number of atomic types    =            1
     number of electrons       =       640.00
     number of Kohn-Sham states=          384
     kinetic-energy cutoff     =      50.0000  Ry
     charge density cutoff     =     400.0000  Ry
     scf convergence threshold =      7.3E-07
     mixing beta               =       0.7000
     number of iterations used =            8  plain     mixing
     energy convergence thresh.=      1.0E-05
     force convergence thresh. =      5.0E-04
     Exchange-correlation= SLA  PW   PBE  PBE
                           (   1   4   3   4   0   0   0)
     nstep                     =          100


     celldm(1)=  20.900943  celldm(2)=   0.000000  celldm(3)=   0.000000
     celldm(4)=   0.000000  celldm(5)=   0.000000  celldm(6)=   0.000000

     crystal axes: (cart. coord. in units of alat)
               a(1) = (   1.000000   0.000000   0.000000 )  
               a(2) = (  -0.223489   0.918700   0.000000 )  
               a(3) = (  -3.428711  -0.834092   1.637082 )  

     reciprocal axes: (cart. coord. in units 2 pi/alat)
               b(1) = (  1.000000  0.243267  2.218348 )  
               b(2) = ( -0.000000  1.088495  0.554587 )  
               b(3) = (  0.000000 -0.000000  0.610843 )  


     PseudoPot. # 1 for Zn read from file:
     /home/ys/qepseudo/SSSP_1.3.0_PBE_efficiency/Zn_pbe_v1.uspp.F.UPF
     MD5 check sum: df62231357ef9e81f77b2b3087fa5675
     Pseudo is Ultrasoft, Zval = 20.0
     Generated by new atomic code, or converted to UPF format
     Using radial grid of  943 points,  6 beta functions with: 
                l(1) =   0
                l(2) =   0
                l(3) =   1
                l(4) =   1
                l(5) =   2
                l(6) =   2
     Q(r) pseudized with  8 coefficients,  rinner =    1.100   1.100   1.100
                                                       1.100   1.100

     atomic species   valence    mass     pseudopotential
     Zn               20.00    65.38000     Zn( 1.00)

     No symmetry found


                                    s                        frac. trans.

      isym =  1     identity                                     

 cryst.   s( 1) = (     1          0          0      )
                  (     0          1          0      )
                  (     0          0          1      )

 cart.    s( 1) = (  1.0000000  0.0000000  0.0000000 )
                  (  0.0000000  1.0000000  0.0000000 )
                  (  0.0000000  0.0000000  1.0000000 )


   Cartesian axes

     site n.     atom                  positions (alat units)
         1        Zn     tau(   1) = (  -0.0970638   0.0980210   0.1082939  )
         2        Zn     tau(   2) = (  -0.4853192   0.0035714   0.2939407  )
         3        Zn     tau(   3) = (  -0.1529362   0.3276960   0.1082939  )
         4        Zn     tau(   4) = (  -0.5411915   0.2332464   0.2939407  )
         5        Zn     tau(   5) = (  -0.2088085   0.5573710   0.1082939  )
         6        Zn     tau(   6) = (  -0.5970638   0.4629214   0.2939407  )
         7        Zn     tau(   7) = (  -0.2646808   0.7870460   0.1082939  )
         8        Zn     tau(   8) = (  -0.6529361   0.6925964   0.2939407  )
         9        Zn     tau(   9) = (   0.4029362   0.0980210   0.1082939  )
        10        Zn     tau(  10) = (   0.0146808   0.0035714   0.2939407  )
        11        Zn     tau(  11) = (   0.3470638   0.3276960   0.1082939  )
        12        Zn     tau(  12) = (  -0.0411915   0.2332464   0.2939407  )
        13        Zn     tau(  13) = (   0.2911915   0.5573710   0.1082939  )
        14        Zn     tau(  14) = (  -0.0970638   0.4629214   0.2939407  )
        15        Zn     tau(  15) = (   0.2353192   0.7870460   0.1082939  )
        16        Zn     tau(  16) = (  -0.1529361   0.6925964   0.2939407  )
        17        Zn     tau(  17) = (   0.1529362   0.0372043   0.0773528  )
        18        Zn     tau(  18) = (  -0.2353192  -0.0572454   0.2629996  )
        19        Zn     tau(  19) = (   0.0970639   0.2668793   0.0773528  )
        20        Zn     tau(  20) = (  -0.2911915   0.1724296   0.2629996  )
        21        Zn     tau(  21) = (   0.0411915   0.4965543   0.0773528  )
        22        Zn     tau(  22) = (  -0.3470638   0.4021046   0.2629996  )
        23        Zn     tau(  23) = (  -0.0146808   0.7262293   0.0773528  )
        24        Zn     tau(  24) = (  -0.4029361   0.6317796   0.2629996  )
        25        Zn     tau(  25) = (   0.6529362   0.0372043   0.0773528  )
        26        Zn     tau(  26) = (   0.2646808  -0.0572454   0.2629996  )
        27        Zn     tau(  27) = (   0.5970639   0.2668793   0.0773528  )
        28        Zn     tau(  28) = (   0.2088085   0.1724296   0.2629996  )
        29        Zn     tau(  29) = (   0.5411915   0.4965543   0.0773528  )
        30        Zn     tau(  30) = (   0.1529362   0.4021046   0.2629996  )
        31        Zn     tau(  31) = (   0.4853192   0.7262293   0.0773528  )
        32        Zn     tau(  32) = (   0.0970639   0.6317796   0.2629996  )

   Crystallographic axes

     site n.     atom                  positions (cryst. coord.)
         1        Zn     tau(   1) = (  0.1670151  0.1667538  0.0661506  )
         2        Zn     tau(   2) = (  0.1676124  0.1669031  0.1795516  )
         3        Zn     tau(   3) = (  0.1670151  0.4167538  0.0661506  )
         4        Zn     tau(   4) = (  0.1676124  0.4169031  0.1795516  )
         5        Zn     tau(   5) = (  0.1670151  0.6667538  0.0661506  )
         6        Zn     tau(   6) = (  0.1676124  0.6669031  0.1795516  )
         7        Zn     tau(   7) = (  0.1670151  0.9167538  0.0661506  )
         8        Zn     tau(   8) = (  0.1676124  0.9169031  0.1795516  )
         9        Zn     tau(   9) = (  0.6670151  0.1667538  0.0661506  )
        10        Zn     tau(  10) = (  0.6676124  0.1669031  0.1795516  )
        11        Zn     tau(  11) = (  0.6670151  0.4167538  0.0661506  )
        12        Zn     tau(  12) = (  0.6676124  0.4169031  0.1795516  )
        13        Zn     tau(  13) = (  0.6670151  0.6667538  0.0661506  )
        14        Zn     tau(  14) = (  0.6676124  0.6669031  0.1795516  )
        15        Zn     tau(  15) = (  0.6670151  0.9167538  0.0661506  )
        16        Zn     tau(  16) = (  0.6676124  0.9169031  0.1795516  )
        17        Zn     tau(  17) = (  0.3335822  0.0833955  0.0472504  )
        18        Zn     tau(  18) = (  0.3341795  0.0835449  0.1606514  )
        19        Zn     tau(  19) = (  0.3335822  0.3333955  0.0472504  )
        20        Zn     tau(  20) = (  0.3341795  0.3335449  0.1606514  )
        21        Zn     tau(  21) = (  0.3335822  0.5833955  0.0472504  )
        22        Zn     tau(  22) = (  0.3341795  0.5835449  0.1606514  )
        23        Zn     tau(  23) = (  0.3335822  0.8333955  0.0472504  )
        24        Zn     tau(  24) = (  0.3341795  0.8335449  0.1606514  )
        25        Zn     tau(  25) = (  0.8335822  0.0833955  0.0472504  )
        26        Zn     tau(  26) = (  0.8341795  0.0835449  0.1606514  )
        27        Zn     tau(  27) = (  0.8335822  0.3333955  0.0472504  )
        28        Zn     tau(  28) = (  0.8341795  0.3335449  0.1606514  )
        29        Zn     tau(  29) = (  0.8335822  0.5833955  0.0472504  )
        30        Zn     tau(  30) = (  0.8341795  0.5835449  0.1606514  )
        31        Zn     tau(  31) = (  0.8335822  0.8333955  0.0472504  )
        32        Zn     tau(  32) = (  0.8341795  0.8335449  0.1606514  )

     number of k points=    36  Marzari-Vanderbilt smearing, width (Ry)=  0.0200
                       cart. coord. in units 2pi/alat
        k(    1) = (   0.0000000   0.0000000   0.0000000), wk =   0.0312500
        k(    2) = (   0.0000000   0.0000000   0.1527107), wk =   0.0625000
        k(    3) = (   0.0000000   0.0000000  -0.3054215), wk =   0.0312500
        k(    4) = (   0.0000000   0.2721237   0.1386467), wk =   0.0625000
        k(    5) = (   0.0000000   0.2721237   0.2913575), wk =   0.0625000
        k(    6) = (   0.0000000   0.2721237  -0.1667747), wk =   0.0625000
        k(    7) = (   0.0000000   0.2721237  -0.0140640), wk =   0.0625000
        k(    8) = (   0.0000000  -0.5442473  -0.2772935), wk =   0.0312500
        k(    9) = (   0.0000000  -0.5442473  -0.1245827), wk =   0.0625000
        k(   10) = (   0.0000000  -0.5442473  -0.5827150), wk =   0.0312500
        k(   11) = (   0.2500000   0.0608167   0.5545870), wk =   0.0625000
        k(   12) = (   0.2500000   0.0608167   0.7072977), wk =   0.0625000
        k(   13) = (   0.2500000   0.0608167   0.2491655), wk =   0.0625000
        k(   14) = (   0.2500000   0.0608167   0.4018763), wk =   0.0625000
        k(   15) = (   0.2500000   0.3329404   0.6932337), wk =   0.0625000
        k(   16) = (   0.2500000   0.3329404   0.8459445), wk =   0.0625000
        k(   17) = (   0.2500000   0.3329404   0.3878122), wk =   0.0625000
        k(   18) = (   0.2500000   0.3329404   0.5405230), wk =   0.0625000
        k(   19) = (   0.2500000  -0.4834306   0.2772935), wk =   0.0625000
        k(   20) = (   0.2500000  -0.4834306   0.4300043), wk =   0.0625000
        k(   21) = (   0.2500000  -0.4834306  -0.0281280), wk =   0.0625000
        k(   22) = (   0.2500000  -0.4834306   0.1245828), wk =   0.0625000
        k(   23) = (   0.2500000  -0.2113069   0.4159403), wk =   0.0625000
        k(   24) = (   0.2500000  -0.2113069   0.5686510), wk =   0.0625000
        k(   25) = (   0.2500000  -0.2113069   0.1105188), wk =   0.0625000
        k(   26) = (   0.2500000  -0.2113069   0.2632295), wk =   0.0625000
        k(   27) = (  -0.5000000  -0.1216334  -1.1091740), wk =   0.0312500
        k(   28) = (  -0.5000000  -0.1216334  -0.9564633), wk =   0.0625000
        k(   29) = (  -0.5000000  -0.1216334  -1.4145955), wk =   0.0312500
        k(   30) = (  -0.5000000   0.1504902  -0.9705273), wk =   0.0625000
        k(   31) = (  -0.5000000   0.1504902  -0.8178165), wk =   0.0625000
        k(   32) = (  -0.5000000   0.1504902  -1.2759487), wk =   0.0625000
        k(   33) = (  -0.5000000   0.1504902  -1.1232380), wk =   0.0625000
        k(   34) = (  -0.5000000  -0.6658807  -1.3864675), wk =   0.0312500
        k(   35) = (  -0.5000000  -0.6658807  -1.2337567), wk =   0.0625000
        k(   36) = (  -0.5000000  -0.6658807  -1.6918890), wk =   0.0312500

                       cryst. coord.
        k(    1) = (   0.0000000   0.0000000   0.0000000), wk =   0.0312500
        k(    2) = (   0.0000000   0.0000000   0.2500000), wk =   0.0625000
        k(    3) = (   0.0000000   0.0000000  -0.5000000), wk =   0.0312500
        k(    4) = (   0.0000000   0.2500000   0.0000000), wk =   0.0625000
        k(    5) = (   0.0000000   0.2500000   0.2500000), wk =   0.0625000
        k(    6) = (   0.0000000   0.2500000  -0.5000000), wk =   0.0625000
        k(    7) = (   0.0000000   0.2500000  -0.2500000), wk =   0.0625000
        k(    8) = (   0.0000000  -0.5000000   0.0000000), wk =   0.0312500
        k(    9) = (   0.0000000  -0.5000000   0.2500000), wk =   0.0625000
        k(   10) = (   0.0000000  -0.5000000  -0.5000000), wk =   0.0312500
        k(   11) = (   0.2500000   0.0000000   0.0000000), wk =   0.0625000
        k(   12) = (   0.2500000   0.0000000   0.2500000), wk =   0.0625000
        k(   13) = (   0.2500000   0.0000000  -0.5000000), wk =   0.0625000
        k(   14) = (   0.2500000   0.0000000  -0.2500000), wk =   0.0625000
        k(   15) = (   0.2500000   0.2500000   0.0000000), wk =   0.0625000
        k(   16) = (   0.2500000   0.2500000   0.2500000), wk =   0.0625000
        k(   17) = (   0.2500000   0.2500000  -0.5000000), wk =   0.0625000
        k(   18) = (   0.2500000   0.2500000  -0.2500000), wk =   0.0625000
        k(   19) = (   0.2500000  -0.5000000  -0.0000000), wk =   0.0625000
        k(   20) = (   0.2500000  -0.5000000   0.2500000), wk =   0.0625000
        k(   21) = (   0.2500000  -0.5000000  -0.5000000), wk =   0.0625000
        k(   22) = (   0.2500000  -0.5000000  -0.2500000), wk =   0.0625000
        k(   23) = (   0.2500000  -0.2500000  -0.0000000), wk =   0.0625000
        k(   24) = (   0.2500000  -0.2500000   0.2500000), wk =   0.0625000
        k(   25) = (   0.2500000  -0.2500000  -0.5000000), wk =   0.0625000
        k(   26) = (   0.2500000  -0.2500000  -0.2500000), wk =   0.0625000
        k(   27) = (  -0.5000000   0.0000000   0.0000000), wk =   0.0312500
        k(   28) = (  -0.5000000   0.0000000   0.2500000), wk =   0.0625000
        k(   29) = (  -0.5000000   0.0000000  -0.5000000), wk =   0.0312500
        k(   30) = (  -0.5000000   0.2500000   0.0000000), wk =   0.0625000
        k(   31) = (  -0.5000000   0.2500000   0.2500000), wk =   0.0625000
        k(   32) = (  -0.5000000   0.2500000  -0.5000000), wk =   0.0625000
        k(   33) = (  -0.5000000   0.2500000  -0.2500000), wk =   0.0625000
        k(   34) = (  -0.5000000  -0.5000000   0.0000000), wk =   0.0312500
        k(   35) = (  -0.5000000  -0.5000000   0.2500000), wk =   0.0625000
        k(   36) = (  -0.5000000  -0.5000000  -0.5000000), wk =   0.0312500

     Dense  grid:  1855101 G-vectors     FFT dimensions: ( 135, 125, 540)

     Smooth grid:   655895 G-vectors     FFT dimensions: (  96,  90, 375)

     Dynamical RAM for                 wfc:      68.62 MB

     Dynamical RAM for     wfc (w. buffer):     686.25 MB

     Dynamical RAM for           str. fact:       4.04 MB

     Dynamical RAM for           local pot:       0.00 MB

     Dynamical RAM for          nlocal pot:     102.94 MB

     Dynamical RAM for                qrad:       1.61 MB

     Dynamical RAM for          rho,v,vnew:      42.26 MB

     Dynamical RAM for               rhoin:      14.09 MB

     Dynamical RAM for            rho*nmix:      64.70 MB

     Dynamical RAM for           G-vectors:      15.88 MB

     Dynamical RAM for          h,s,v(r/c):       6.75 MB

     Dynamical RAM for          <psi|beta>:       3.38 MB

     Dynamical RAM for                 psi:     137.25 MB

     Dynamical RAM for                hpsi:     137.25 MB

     Dynamical RAM for                spsi:     137.25 MB

     Dynamical RAM for      wfcinit/wfcrot:     152.65 MB

     Dynamical RAM for           addusdens:     223.42 MB

     Dynamical RAM for          addusforce:     285.21 MB

     Dynamical RAM for         addusstress:     204.72 MB

     Estimated static dynamical RAM per process >     925.36 MB

     Estimated max dynamical RAM per process >       1.38 GB

     Estimated total dynamical RAM >      37.28 GB

     Initial potential from superposition of free atoms

     starting charge     639.9955, renormalised to     640.0000

     negative rho (up, down):  1.344E-03 0.000E+00
     Starting wfcs are  416 randomized atomic wfcs

     total cpu time spent up to now is      353.6 secs

     Self-consistent Calculation

     iteration #  1     ecut=    50.00 Ry     beta= 0.70
     Davidson diagonalization with overlap

---- Real-time Memory Report at c_bands before calling an iterative solver
          1066 MiB given to the printing process from OS
             0 MiB allocation reported by mallinfo(arena+hblkhd)
         61171 MiB available memory on the node where the printing process lives
------------------
     ethr =  1.00E-02,  avg # of iterations =  8.7

     Threshold (ethr) on eigenvalues was too large:
     Diagonalizing with lowered threshold

     Davidson diagonalization with overlap

---- Real-time Memory Report at c_bands before calling an iterative solver
          1406 MiB given to the printing process from OS
             0 MiB allocation reported by mallinfo(arena+hblkhd)
         61094 MiB available memory on the node where the printing process lives
------------------
     ethr =  1.17E-04,  avg # of iterations =  9.8

     negative rho (up, down):  5.973E-04 0.000E+00

     total cpu time spent up to now is     2867.4 secs

     total energy              =  -14768.56651436 Ry
     estimated scf accuracy    <       0.79105335 Ry

     iteration #  2     ecut=    50.00 Ry     beta= 0.70
     Davidson diagonalization with overlap

---- Real-time Memory Report at c_bands before calling an iterative solver
          1408 MiB given to the printing process from OS
             0 MiB allocation reported by mallinfo(arena+hblkhd)
         60701 MiB available memory on the node where the printing process lives
------------------
     ethr =  1.24E-04,  avg # of iterations =  3.1
