
     Program PWSCF v.7.3.1 starts on 10Mar2025 at  2:54:25 

     This program is part of the open-source Quantum ESPRESSO suite
     for quantum simulation of materials; please cite
         "P. Giannozzi et al., J. Phys.:Condens. Matter 21 395502 (2009);
         "P. Giannozzi et al., J. Phys.:Condens. Matter 29 465901 (2017);
         "P. Giannozzi et al., J. Chem. Phys. 152 154105 (2020);
          URL http://www.quantum-espresso.org", 
     in publications or presentations arising from this work. More details at
     http://www.quantum-espresso.org/quote

     Parallel version (MPI), running on    28 processors

     MPI processes distributed on     1 nodes
     88298 MiB available memory on the printing compute node when the environment starts

     Waiting for input...
     Reading input from standard input
Warning: card &CELL ignored
Warning: card   CELL_DOFREE = 'ALL' ignored
Warning: card / ignored

     Current dimensions of program PWSCF are:
     Max number of different atomic species (ntypx) = 10
     Max number of k-points (npk) =  40000
     Max angular momentum in pseudopotentials (lmaxx) =  4
     Found identity + ( -0.0000  0.2500  0.0000) symmetry
     This is a supercell, fractional translations are disabled

     K-points division:     npool     =       4
     R & G space division:  proc/nbgrp/npool/nimage =       7
     Subspace diagonalization in iterative solution of the eigenvalue problem:
     one sub-group per band group will be used
     custom distributed-memory algorithm (size of sub-group:  2*  2 procs)


     Parallelization info
     --------------------
     sticks:   dense  smooth     PW     G-vecs:    dense   smooth      PW
     Min        1824     911    266               265014    93696   14758
     Max        1825     912    267               265016    93700   14760
     Sum       12769    6383   1863              1855101   655895  103317

     Using Slab Decomposition



     bravais-lattice index     =            0
     lattice parameter (alat)  =      20.9009  a.u.
     unit-cell volume          =   13732.2523 (a.u.)^3
     number of atoms/cell      =           32
     number of atomic types    =            1
     number of electrons       =       640.00
     number of Kohn-Sham states=          384
     kinetic-energy cutoff     =      50.0000  Ry
     charge density cutoff     =     400.0000  Ry
     scf convergence threshold =      7.3E-07
     mixing beta               =       0.7000
     number of iterations used =            8  plain     mixing
     energy convergence thresh.=      1.0E-05
     force convergence thresh. =      5.0E-04
     Exchange-correlation= SLA  PW   PBE  PBE
                           (   1   4   3   4   0   0   0)
     nstep                     =          100


     celldm(1)=  20.900943  celldm(2)=   0.000000  celldm(3)=   0.000000
     celldm(4)=   0.000000  celldm(5)=   0.000000  celldm(6)=   0.000000

     crystal axes: (cart. coord. in units of alat)
               a(1) = (   1.000000   0.000000   0.000000 )  
               a(2) = (  -0.223489   0.918700   0.000000 )  
               a(3) = (  -3.428711  -0.834092   1.637082 )  

     reciprocal axes: (cart. coord. in units 2 pi/alat)
               b(1) = (  1.000000  0.243267  2.218348 )  
               b(2) = ( -0.000000  1.088495  0.554587 )  
               b(3) = (  0.000000 -0.000000  0.610843 )  


     PseudoPot. # 1 for Zn read from file:
     /home/ys/qepseudo/SSSP_1.3.0_PBE_efficiency/Zn_pbe_v1.uspp.F.UPF
     MD5 check sum: df62231357ef9e81f77b2b3087fa5675
     Pseudo is Ultrasoft, Zval = 20.0
     Generated by new atomic code, or converted to UPF format
     Using radial grid of  943 points,  6 beta functions with: 
                l(1) =   0
                l(2) =   0
                l(3) =   1
                l(4) =   1
                l(5) =   2
                l(6) =   2
     Q(r) pseudized with  8 coefficients,  rinner =    1.100   1.100   1.100
                                                       1.100   1.100

     atomic species   valence    mass     pseudopotential
     Zn               20.00    65.38000     Zn( 1.00)

     No symmetry found


                                    s                        frac. trans.

      isym =  1     identity                                     

 cryst.   s( 1) = (     1          0          0      )
                  (     0          1          0      )
                  (     0          0          1      )

 cart.    s( 1) = (  1.0000000  0.0000000  0.0000000 )
                  (  0.0000000  1.0000000  0.0000000 )
                  (  0.0000000  0.0000000  1.0000000 )


   Cartesian axes

     site n.     atom                  positions (alat units)
         1        Zn     tau(   1) = (  -0.0970638   0.0980210   0.1082939  )
         2        Zn     tau(   2) = (  -0.4853192   0.0035714   0.2939407  )
         3        Zn     tau(   3) = (  -0.1529362   0.3276960   0.1082939  )
         4        Zn     tau(   4) = (  -0.5411915   0.2332464   0.2939407  )
         5        Zn     tau(   5) = (  -0.2088085   0.5573710   0.1082939  )
         6        Zn     tau(   6) = (  -0.5970638   0.4629214   0.2939407  )
         7        Zn     tau(   7) = (  -0.2646808   0.7870460   0.1082939  )
         8        Zn     tau(   8) = (  -0.6529361   0.6925964   0.2939407  )
         9        Zn     tau(   9) = (   0.4029362   0.0980210   0.1082939  )
        10        Zn     tau(  10) = (   0.0146808   0.0035714   0.2939407  )
        11        Zn     tau(  11) = (   0.3470638   0.3276960   0.1082939  )
        12        Zn     tau(  12) = (  -0.0411915   0.2332464   0.2939407  )
        13        Zn     tau(  13) = (   0.2911915   0.5573710   0.1082939  )
        14        Zn     tau(  14) = (  -0.0970638   0.4629214   0.2939407  )
        15        Zn     tau(  15) = (   0.2353192   0.7870460   0.1082939  )
        16        Zn     tau(  16) = (  -0.1529361   0.6925964   0.2939407  )
        17        Zn     tau(  17) = (   0.1529362   0.0372043   0.0773528  )
        18        Zn     tau(  18) = (  -0.2353192  -0.0572454   0.2629996  )
        19        Zn     tau(  19) = (   0.0970639   0.2668793   0.0773528  )
        20        Zn     tau(  20) = (  -0.2911915   0.1724296   0.2629996  )
        21        Zn     tau(  21) = (   0.0411915   0.4965543   0.0773528  )
        22        Zn     tau(  22) = (  -0.3470638   0.4021046   0.2629996  )
        23        Zn     tau(  23) = (  -0.0146808   0.7262293   0.0773528  )
        24        Zn     tau(  24) = (  -0.4029361   0.6317796   0.2629996  )
        25        Zn     tau(  25) = (   0.6529362   0.0372043   0.0773528  )
        26        Zn     tau(  26) = (   0.2646808  -0.0572454   0.2629996  )
        27        Zn     tau(  27) = (   0.5970639   0.2668793   0.0773528  )
        28        Zn     tau(  28) = (   0.2088085   0.1724296   0.2629996  )
        29        Zn     tau(  29) = (   0.5411915   0.4965543   0.0773528  )
        30        Zn     tau(  30) = (   0.1529362   0.4021046   0.2629996  )
        31        Zn     tau(  31) = (   0.4853192   0.7262293   0.0773528  )
        32        Zn     tau(  32) = (   0.0970639   0.6317796   0.2629996  )

   Crystallographic axes

     site n.     atom                  positions (cryst. coord.)
         1        Zn     tau(   1) = (  0.1670151  0.1667538  0.0661506  )
         2        Zn     tau(   2) = (  0.1676124  0.1669031  0.1795516  )
         3        Zn     tau(   3) = (  0.1670151  0.4167538  0.0661506  )
         4        Zn     tau(   4) = (  0.1676124  0.4169031  0.1795516  )
         5        Zn     tau(   5) = (  0.1670151  0.6667538  0.0661506  )
         6        Zn     tau(   6) = (  0.1676124  0.6669031  0.1795516  )
         7        Zn     tau(   7) = (  0.1670151  0.9167538  0.0661506  )
         8        Zn     tau(   8) = (  0.1676124  0.9169031  0.1795516  )
         9        Zn     tau(   9) = (  0.6670151  0.1667538  0.0661506  )
        10        Zn     tau(  10) = (  0.6676124  0.1669031  0.1795516  )
        11        Zn     tau(  11) = (  0.6670151  0.4167538  0.0661506  )
        12        Zn     tau(  12) = (  0.6676124  0.4169031  0.1795516  )
        13        Zn     tau(  13) = (  0.6670151  0.6667538  0.0661506  )
        14        Zn     tau(  14) = (  0.6676124  0.6669031  0.1795516  )
        15        Zn     tau(  15) = (  0.6670151  0.9167538  0.0661506  )
        16        Zn     tau(  16) = (  0.6676124  0.9169031  0.1795516  )
        17        Zn     tau(  17) = (  0.3335822  0.0833955  0.0472504  )
        18        Zn     tau(  18) = (  0.3341795  0.0835449  0.1606514  )
        19        Zn     tau(  19) = (  0.3335822  0.3333955  0.0472504  )
        20        Zn     tau(  20) = (  0.3341795  0.3335449  0.1606514  )
        21        Zn     tau(  21) = (  0.3335822  0.5833955  0.0472504  )
        22        Zn     tau(  22) = (  0.3341795  0.5835449  0.1606514  )
        23        Zn     tau(  23) = (  0.3335822  0.8333955  0.0472504  )
        24        Zn     tau(  24) = (  0.3341795  0.8335449  0.1606514  )
        25        Zn     tau(  25) = (  0.8335822  0.0833955  0.0472504  )
        26        Zn     tau(  26) = (  0.8341795  0.0835449  0.1606514  )
        27        Zn     tau(  27) = (  0.8335822  0.3333955  0.0472504  )
        28        Zn     tau(  28) = (  0.8341795  0.3335449  0.1606514  )
        29        Zn     tau(  29) = (  0.8335822  0.5833955  0.0472504  )
        30        Zn     tau(  30) = (  0.8341795  0.5835449  0.1606514  )
        31        Zn     tau(  31) = (  0.8335822  0.8333955  0.0472504  )
        32        Zn     tau(  32) = (  0.8341795  0.8335449  0.1606514  )

     number of k points=    36  Marzari-Vanderbilt smearing, width (Ry)=  0.0200
                       cart. coord. in units 2pi/alat
        k(    1) = (   0.0000000   0.0000000   0.0000000), wk =   0.0312500
        k(    2) = (   0.0000000   0.0000000   0.1527107), wk =   0.0625000
        k(    3) = (   0.0000000   0.0000000  -0.3054215), wk =   0.0312500
        k(    4) = (   0.0000000   0.2721237   0.1386467), wk =   0.0625000
        k(    5) = (   0.0000000   0.2721237   0.2913575), wk =   0.0625000
        k(    6) = (   0.0000000   0.2721237  -0.1667747), wk =   0.0625000
        k(    7) = (   0.0000000   0.2721237  -0.0140640), wk =   0.0625000
        k(    8) = (   0.0000000  -0.5442473  -0.2772935), wk =   0.0312500
        k(    9) = (   0.0000000  -0.5442473  -0.1245827), wk =   0.0625000
        k(   10) = (   0.0000000  -0.5442473  -0.5827150), wk =   0.0312500
        k(   11) = (   0.2500000   0.0608167   0.5545870), wk =   0.0625000
        k(   12) = (   0.2500000   0.0608167   0.7072977), wk =   0.0625000
        k(   13) = (   0.2500000   0.0608167   0.2491655), wk =   0.0625000
        k(   14) = (   0.2500000   0.0608167   0.4018763), wk =   0.0625000
        k(   15) = (   0.2500000   0.3329404   0.6932337), wk =   0.0625000
        k(   16) = (   0.2500000   0.3329404   0.8459445), wk =   0.0625000
        k(   17) = (   0.2500000   0.3329404   0.3878122), wk =   0.0625000
        k(   18) = (   0.2500000   0.3329404   0.5405230), wk =   0.0625000
        k(   19) = (   0.2500000  -0.4834306   0.2772935), wk =   0.0625000
        k(   20) = (   0.2500000  -0.4834306   0.4300043), wk =   0.0625000
        k(   21) = (   0.2500000  -0.4834306  -0.0281280), wk =   0.0625000
        k(   22) = (   0.2500000  -0.4834306   0.1245828), wk =   0.0625000
        k(   23) = (   0.2500000  -0.2113069   0.4159403), wk =   0.0625000
        k(   24) = (   0.2500000  -0.2113069   0.5686510), wk =   0.0625000
        k(   25) = (   0.2500000  -0.2113069   0.1105188), wk =   0.0625000
        k(   26) = (   0.2500000  -0.2113069   0.2632295), wk =   0.0625000
        k(   27) = (  -0.5000000  -0.1216334  -1.1091740), wk =   0.0312500
        k(   28) = (  -0.5000000  -0.1216334  -0.9564633), wk =   0.0625000
        k(   29) = (  -0.5000000  -0.1216334  -1.4145955), wk =   0.0312500
        k(   30) = (  -0.5000000   0.1504902  -0.9705273), wk =   0.0625000
        k(   31) = (  -0.5000000   0.1504902  -0.8178165), wk =   0.0625000
        k(   32) = (  -0.5000000   0.1504902  -1.2759487), wk =   0.0625000
        k(   33) = (  -0.5000000   0.1504902  -1.1232380), wk =   0.0625000
        k(   34) = (  -0.5000000  -0.6658807  -1.3864675), wk =   0.0312500
        k(   35) = (  -0.5000000  -0.6658807  -1.2337567), wk =   0.0625000
        k(   36) = (  -0.5000000  -0.6658807  -1.6918890), wk =   0.0312500

                       cryst. coord.
        k(    1) = (   0.0000000   0.0000000   0.0000000), wk =   0.0312500
        k(    2) = (   0.0000000   0.0000000   0.2500000), wk =   0.0625000
        k(    3) = (   0.0000000   0.0000000  -0.5000000), wk =   0.0312500
        k(    4) = (   0.0000000   0.2500000   0.0000000), wk =   0.0625000
        k(    5) = (   0.0000000   0.2500000   0.2500000), wk =   0.0625000
        k(    6) = (   0.0000000   0.2500000  -0.5000000), wk =   0.0625000
        k(    7) = (   0.0000000   0.2500000  -0.2500000), wk =   0.0625000
        k(    8) = (   0.0000000  -0.5000000   0.0000000), wk =   0.0312500
        k(    9) = (   0.0000000  -0.5000000   0.2500000), wk =   0.0625000
        k(   10) = (   0.0000000  -0.5000000  -0.5000000), wk =   0.0312500
        k(   11) = (   0.2500000   0.0000000   0.0000000), wk =   0.0625000
        k(   12) = (   0.2500000   0.0000000   0.2500000), wk =   0.0625000
        k(   13) = (   0.2500000   0.0000000  -0.5000000), wk =   0.0625000
        k(   14) = (   0.2500000   0.0000000  -0.2500000), wk =   0.0625000
        k(   15) = (   0.2500000   0.2500000   0.0000000), wk =   0.0625000
        k(   16) = (   0.2500000   0.2500000   0.2500000), wk =   0.0625000
        k(   17) = (   0.2500000   0.2500000  -0.5000000), wk =   0.0625000
        k(   18) = (   0.2500000   0.2500000  -0.2500000), wk =   0.0625000
        k(   19) = (   0.2500000  -0.5000000  -0.0000000), wk =   0.0625000
        k(   20) = (   0.2500000  -0.5000000   0.2500000), wk =   0.0625000
        k(   21) = (   0.2500000  -0.5000000  -0.5000000), wk =   0.0625000
        k(   22) = (   0.2500000  -0.5000000  -0.2500000), wk =   0.0625000
        k(   23) = (   0.2500000  -0.2500000  -0.0000000), wk =   0.0625000
        k(   24) = (   0.2500000  -0.2500000   0.2500000), wk =   0.0625000
        k(   25) = (   0.2500000  -0.2500000  -0.5000000), wk =   0.0625000
        k(   26) = (   0.2500000  -0.2500000  -0.2500000), wk =   0.0625000
        k(   27) = (  -0.5000000   0.0000000   0.0000000), wk =   0.0312500
        k(   28) = (  -0.5000000   0.0000000   0.2500000), wk =   0.0625000
        k(   29) = (  -0.5000000   0.0000000  -0.5000000), wk =   0.0312500
        k(   30) = (  -0.5000000   0.2500000   0.0000000), wk =   0.0625000
        k(   31) = (  -0.5000000   0.2500000   0.2500000), wk =   0.0625000
        k(   32) = (  -0.5000000   0.2500000  -0.5000000), wk =   0.0625000
        k(   33) = (  -0.5000000   0.2500000  -0.2500000), wk =   0.0625000
        k(   34) = (  -0.5000000  -0.5000000   0.0000000), wk =   0.0312500
        k(   35) = (  -0.5000000  -0.5000000   0.2500000), wk =   0.0625000
        k(   36) = (  -0.5000000  -0.5000000  -0.5000000), wk =   0.0312500

     Dense  grid:  1855101 G-vectors     FFT dimensions: ( 135, 125, 540)

     Smooth grid:   655895 G-vectors     FFT dimensions: (  96,  90, 375)

     Dynamical RAM for                 wfc:      68.62 MB

     Dynamical RAM for     wfc (w. buffer):     686.25 MB

     Dynamical RAM for           str. fact:       4.04 MB

     Dynamical RAM for           local pot:       0.00 MB

     Dynamical RAM for          nlocal pot:     102.94 MB

     Dynamical RAM for                qrad:       1.61 MB

     Dynamical RAM for          rho,v,vnew:      42.26 MB

     Dynamical RAM for               rhoin:      14.09 MB

     Dynamical RAM for            rho*nmix:      64.70 MB

     Dynamical RAM for           G-vectors:      15.88 MB

     Dynamical RAM for          h,s,v(r/c):       6.75 MB

     Dynamical RAM for          <psi|beta>:       3.38 MB

     Dynamical RAM for                 psi:     137.25 MB

     Dynamical RAM for                hpsi:     137.25 MB

     Dynamical RAM for                spsi:     137.25 MB

     Dynamical RAM for      wfcinit/wfcrot:     152.65 MB

     Dynamical RAM for           addusdens:     223.42 MB

     Dynamical RAM for          addusforce:     285.21 MB

     Dynamical RAM for         addusstress:     204.72 MB

     Estimated static dynamical RAM per process >     925.36 MB

     Estimated max dynamical RAM per process >       1.38 GB

     Estimated total dynamical RAM >      37.28 GB

     Initial potential from superposition of free atoms

     starting charge     639.9955, renormalised to     640.0000

     negative rho (up, down):  1.344E-03 0.000E+00
     Starting wfcs are  416 randomized atomic wfcs

     total cpu time spent up to now is      353.3 secs

     Self-consistent Calculation

     iteration #  1     ecut=    50.00 Ry     beta= 0.70
     Davidson diagonalization with overlap

---- Real-time Memory Report at c_bands before calling an iterative solver
          1065 MiB given to the printing process from OS
             0 MiB allocation reported by mallinfo(arena+hblkhd)
         61169 MiB available memory on the node where the printing process lives
------------------
     ethr =  1.00E-02,  avg # of iterations =  8.7

     Threshold (ethr) on eigenvalues was too large:
     Diagonalizing with lowered threshold

     Davidson diagonalization with overlap

---- Real-time Memory Report at c_bands before calling an iterative solver
          1407 MiB given to the printing process from OS
             0 MiB allocation reported by mallinfo(arena+hblkhd)
         61084 MiB available memory on the node where the printing process lives
------------------
     ethr =  1.17E-04,  avg # of iterations =  9.8

     negative rho (up, down):  5.973E-04 0.000E+00

     total cpu time spent up to now is     2862.7 secs

     total energy              =  -14768.56651436 Ry
     estimated scf accuracy    <       0.79105335 Ry

     iteration #  2     ecut=    50.00 Ry     beta= 0.70
     Davidson diagonalization with overlap

---- Real-time Memory Report at c_bands before calling an iterative solver
          1407 MiB given to the printing process from OS
             0 MiB allocation reported by mallinfo(arena+hblkhd)
         60693 MiB available memory on the node where the printing process lives
------------------
     ethr =  1.24E-04,  avg # of iterations =  3.1

     negative rho (up, down):  1.146E-03 0.000E+00

     total cpu time spent up to now is     4353.3 secs

     total energy              =  -14768.70706059 Ry
     estimated scf accuracy    <       1.07652528 Ry

     iteration #  3     ecut=    50.00 Ry     beta= 0.70
     Davidson diagonalization with overlap

---- Real-time Memory Report at c_bands before calling an iterative solver
          1445 MiB given to the printing process from OS
             0 MiB allocation reported by mallinfo(arena+hblkhd)
         60667 MiB available memory on the node where the printing process lives
------------------
     ethr =  1.24E-04,  avg # of iterations =  2.0

     negative rho (up, down):  1.293E-03 0.000E+00

     total cpu time spent up to now is     5593.4 secs

     total energy              =  -14768.91765905 Ry
     estimated scf accuracy    <       0.00953715 Ry

     iteration #  4     ecut=    50.00 Ry     beta= 0.70
     Davidson diagonalization with overlap

---- Real-time Memory Report at c_bands before calling an iterative solver
          1445 MiB given to the printing process from OS
             0 MiB allocation reported by mallinfo(arena+hblkhd)
         60648 MiB available memory on the node where the printing process lives
------------------
     ethr =  1.49E-06,  avg # of iterations =  9.9

     negative rho (up, down):  1.363E-03 0.000E+00

     total cpu time spent up to now is     7077.1 secs

     total energy              =  -14768.91938766 Ry
     estimated scf accuracy    <       0.01245488 Ry

     iteration #  5     ecut=    50.00 Ry     beta= 0.70
     Davidson diagonalization with overlap

---- Real-time Memory Report at c_bands before calling an iterative solver
          1445 MiB given to the printing process from OS
             0 MiB allocation reported by mallinfo(arena+hblkhd)
         60623 MiB available memory on the node where the printing process lives
------------------
     c_bands:  1 eigenvalues not converged
     ethr =  1.49E-06,  avg # of iterations =  9.3

     negative rho (up, down):  1.383E-03 0.000E+00

     total cpu time spent up to now is     8267.0 secs

     total energy              =  -14768.92119558 Ry
     estimated scf accuracy    <       0.00101726 Ry

     iteration #  6     ecut=    50.00 Ry     beta= 0.70
     Davidson diagonalization with overlap

---- Real-time Memory Report at c_bands before calling an iterative solver
          1445 MiB given to the printing process from OS
             0 MiB allocation reported by mallinfo(arena+hblkhd)
         60609 MiB available memory on the node where the printing process lives
------------------
     ethr =  1.59E-07,  avg # of iterations =  2.3

     negative rho (up, down):  1.389E-03 0.000E+00

     total cpu time spent up to now is     9517.7 secs

     total energy              =  -14768.92133086 Ry
     estimated scf accuracy    <       0.00011015 Ry

     iteration #  7     ecut=    50.00 Ry     beta= 0.70
     Davidson diagonalization with overlap

---- Real-time Memory Report at c_bands before calling an iterative solver
          1446 MiB given to the printing process from OS
             0 MiB allocation reported by mallinfo(arena+hblkhd)
         60585 MiB available memory on the node where the printing process lives
------------------
     ethr =  1.72E-08,  avg # of iterations =  2.1

     negative rho (up, down):  1.391E-03 0.000E+00

     total cpu time spent up to now is    10827.6 secs

     total energy              =  -14768.92135982 Ry
     estimated scf accuracy    <       0.00009268 Ry

     iteration #  8     ecut=    50.00 Ry     beta= 0.70
     Davidson diagonalization with overlap

---- Real-time Memory Report at c_bands before calling an iterative solver
          1450 MiB given to the printing process from OS
             0 MiB allocation reported by mallinfo(arena+hblkhd)
         60567 MiB available memory on the node where the printing process lives
------------------
     ethr =  1.45E-08,  avg # of iterations =  2.0

     negative rho (up, down):  1.392E-03 0.000E+00

     total cpu time spent up to now is    11878.9 secs

     total energy              =  -14768.92136406 Ry
     estimated scf accuracy    <       0.00002691 Ry

     iteration #  9     ecut=    50.00 Ry     beta= 0.70
     Davidson diagonalization with overlap

---- Real-time Memory Report at c_bands before calling an iterative solver
          1452 MiB given to the printing process from OS
             0 MiB allocation reported by mallinfo(arena+hblkhd)
         60543 MiB available memory on the node where the printing process lives
------------------
     ethr =  4.20E-09,  avg # of iterations =  1.6

     negative rho (up, down):  1.392E-03 0.000E+00

     total cpu time spent up to now is    12907.6 secs

     total energy              =  -14768.92136472 Ry
     estimated scf accuracy    <       0.00000550 Ry

     iteration # 10     ecut=    50.00 Ry     beta= 0.70
     Davidson diagonalization with overlap

---- Real-time Memory Report at c_bands before calling an iterative solver
          1456 MiB given to the printing process from OS
             0 MiB allocation reported by mallinfo(arena+hblkhd)
         60523 MiB available memory on the node where the printing process lives
------------------
     ethr =  8.59E-10,  avg # of iterations =  2.0

     negative rho (up, down):  1.392E-03 0.000E+00

     total cpu time spent up to now is    13980.4 secs

     total energy              =  -14768.92136418 Ry
     estimated scf accuracy    <       0.00000226 Ry

     iteration # 11     ecut=    50.00 Ry     beta= 0.70
     Davidson diagonalization with overlap

---- Real-time Memory Report at c_bands before calling an iterative solver
          1458 MiB given to the printing process from OS
             0 MiB allocation reported by mallinfo(arena+hblkhd)
         60523 MiB available memory on the node where the printing process lives
------------------
     ethr =  3.53E-10,  avg # of iterations =  2.0

     negative rho (up, down):  1.393E-03 0.000E+00

     total cpu time spent up to now is    15216.5 secs

     End of self-consistent calculation

          k = 0.0000 0.0000 0.0000 ( 82001 PWs)   bands (ev):

  -126.3067-126.3066-126.3062-126.3061-126.3057-126.3057-126.3056-126.3056
  -126.3054-126.3053-126.3053-126.3052-126.3047-126.3046-126.3045-126.3043
  -126.2430-126.2429-126.2427-126.2425-126.2421-126.2421-126.2419-126.2419
  -126.2418-126.2417-126.2416-126.2416-126.2412-126.2410-126.2408-126.2407
   -80.4787 -80.4785 -80.4784 -80.4783 -80.4773 -80.4772 -80.4772 -80.4772
   -80.4770 -80.4770 -80.4769 -80.4769 -80.4759 -80.4758 -80.4757 -80.4755
   -80.4625 -80.4624 -80.4623 -80.4621 -80.4542 -80.4537 -80.4526 -80.4526
   -80.4524 -80.4524 -80.4509 -80.4509 -80.4508 -80.4508 -80.4494 -80.4492
   -80.4492 -80.4491 -80.4491 -80.4491 -80.4490 -80.4490 -80.4489 -80.4488
   -80.4479 -80.4479 -80.4479 -80.4479 -80.4379 -80.4378 -80.4366 -80.4366
   -80.4145 -80.4143 -80.4136 -80.4136 -80.4135 -80.4134 -80.4129 -80.4128
   -80.4120 -80.4119 -80.4112 -80.4111 -80.4110 -80.4110 -80.4104 -80.4103
   -80.3998 -80.3997 -80.3995 -80.3994 -80.3879 -80.3879 -80.3878 -80.3878
   -80.3876 -80.3876 -80.3875 -80.3875 -80.3868 -80.3866 -80.3860 -80.3859
   -80.3858 -80.3857 -80.3857 -80.3855 -80.3850 -80.3849 -80.3849 -80.3848
   -80.3847 -80.3846 -80.3839 -80.3838 -80.3758 -80.3757 -80.3756 -80.3754
    -9.1101  -8.2773  -8.2453  -8.0381  -8.0131  -8.0077  -8.0077  -7.9641
    -7.9578  -7.8749  -7.8359  -7.8359  -7.8308  -7.8308  -7.8300  -7.8299
    -7.8198  -7.8197  -7.7666  -7.7665  -7.7360  -7.7360  -7.7287  -7.7287
    -7.7204  -7.7204  -7.6989  -7.6916  -7.6916  -7.6790  -7.6790  -7.6697
    -7.6418  -7.6277  -7.6277  -7.6199  -7.6199  -7.6073  -7.6073  -7.5978
    -7.5978  -7.5867  -7.5867  -7.5808  -7.5808  -7.5358  -7.5358  -7.5125
    -7.4896  -7.4896  -7.4605  -7.4605  -7.4488  -7.4230  -7.4208  -7.4187
    -7.4187  -7.3828  -7.3536  -7.3535  -7.3475  -7.3475  -7.3182  -7.3002
    -7.3002  -7.2788  -7.2788  -7.2782  -7.2782  -7.2581  -7.2355  -7.2355
    -7.2308  -7.2307  -7.2084  -7.2084  -7.1836  -7.1836  -7.1830  -7.1830
    -7.1741  -7.1465  -7.1437  -7.1418  -7.1412  -7.1412  -7.1217  -7.1217
    -7.1079  -7.1078  -7.1073  -7.0937  -7.0936  -7.0915  -7.0909  -7.0909
    -7.0837  -7.0837  -7.0635  -7.0635  -7.0599  -7.0599  -7.0404  -7.0363
    -7.0145  -7.0145  -7.0001  -7.0001  -6.9965  -6.9962  -6.9961  -6.9951
    -6.9947  -6.9947  -6.9369  -6.9289  -6.9221  -6.9221  -6.9220  -6.9219
    -6.9105  -6.9105  -6.8832  -6.8831  -6.8709  -6.8693  -6.8693  -6.8644
    -6.8594  -6.8535  -6.8534  -6.8495  -6.8495  -6.8421  -6.8421  -6.8256
    -6.8256  -6.8133  -6.8133  -6.8069  -6.8060  -6.8060  -6.7847  -6.7751
    -6.7750  -6.7673  -6.7673  -6.7671  -6.7671  -6.7646  -6.7645  -6.7610
    -6.7521  -6.7468  -6.6959  -6.6928  -6.6724  -6.6691  -6.6455  -6.6455
    -6.6169  -6.6168  -6.5968  -6.5945  -6.5943  -6.1819  -6.1819  -4.9204
    -4.9204  -4.5234  -3.6183  -3.2369  -3.2369  -3.1688  -2.9739  -2.9135
    -2.9135  -2.8932  -2.6405  -2.6405  -2.4927  -2.4926  -2.4025  -2.4024
    -1.1563  -1.1563  -0.6853  -0.4207  -0.4206  -0.2084  -0.2084   0.3850
     0.4858   0.4909   0.4910   0.7102   0.7102   0.7924   1.1729   1.1729
     1.2210   1.2282   1.2283   1.3575   1.3575   1.6482   1.6482   3.0998
     3.0998   3.2125   3.2774   3.2774   3.3385   3.3385   3.4420   3.5246
     3.5247   3.8621   3.9518   4.1458   4.1458   4.4274   4.5107   4.5317
     4.5317   4.5676   4.5676   4.7247   4.9706   4.9706   5.0848   5.2461
     5.2461   5.3567   5.3567   5.3584   5.3584   5.3604   5.3947   5.4201
     5.4201   5.5196   5.5900   5.5901   5.8251   5.8396   5.9256   5.9976
     5.9976   6.0959   6.0959   6.4401   6.4401   6.5409   6.5409   6.5875

     occupation numbers 
     1.0000   1.0000   1.0000   1.0000   1.0000   1.0000   1.0000   1.0000
     1.0000   1.0000   1.0000   1.0000   1.0000   1.0000   1.0000   1.0000
     1.0000   1.0000   1.0000   1.0000   1.0000   1.0000   1.0000   1.0000
     1.0000   1.0000   1.0000   1.0000   1.0000   1.0000   1.0000   1.0000
     1.0000   1.0000   1.0000   1.0000   1.0000   1.0000   1.0000   1.0000
     1.0000   1.0000   1.0000   1.0000   1.0000   1.0000   1.0000   1.0000
     1.0000   1.0000   1.0000   1.0000   1.0000   1.0000   1.0000   1.0000
     1.0000   1.0000   1.0000   1.0000   1.0000   1.0000   1.0000   1.0000
     1.0000   1.0000   1.0000   1.0000   1.0000   1.0000   1.0000   1.0000
     1.0000   1.0000   1.0000   1.0000   1.0000   1.0000   1.0000   1.0000
     1.0000   1.0000   1.0000   1.0000   1.0000   1.0000   1.0000   1.0000
     1.0000   1.0000   1.0000   1.0000   1.0000   1.0000   1.0000   1.0000
     1.0000   1.0000   1.0000   1.0000   1.0000   1.0000   1.0000   1.0000
     1.0000   1.0000   1.0000   1.0000   1.0000   1.0000   1.0000   1.0000
     1.0000   1.0000   1.0000   1.0000   1.0000   1.0000   1.0000   1.0000
     1.0000   1.0000   1.0000   1.0000   1.0000   1.0000   1.0000   1.0000
     1.0000   1.0000   1.0000   1.0000   1.0000   1.0000   1.0000   1.0000
     1.0000   1.0000   1.0000   1.0000   1.0000   1.0000   1.0000   1.0000
     1.0000   1.0000   1.0000   1.0000   1.0000   1.0000   1.0000   1.0000
     1.0000   1.0000   1.0000   1.0000   1.0000   1.0000   1.0000   1.0000
     1.0000   1.0000   1.0000   1.0000   1.0000   1.0000   1.0000   1.0000
     1.0000   1.0000   1.0000   1.0000   1.0000   1.0000   1.0000   1.0000
     1.0000   1.0000   1.0000   1.0000   1.0000   1.0000   1.0000   1.0000
     1.0000   1.0000   1.0000   1.0000   1.0000   1.0000   1.0000   1.0000
     1.0000   1.0000   1.0000   1.0000   1.0000   1.0000   1.0000   1.0000
     1.0000   1.0000   1.0000   1.0000   1.0000   1.0000   1.0000   1.0000
     1.0000   1.0000   1.0000   1.0000   1.0000   1.0000   1.0000   1.0000
     1.0000   1.0000   1.0000   1.0000   1.0000   1.0000   1.0000   1.0000
     1.0000   1.0000   1.0000   1.0000   1.0000   1.0000   1.0000   1.0000
     1.0000   1.0000   1.0000   1.0000   1.0000   1.0000   1.0000   1.0000
     1.0000   1.0000   1.0000   1.0000   1.0000   1.0000   1.0000   1.0000
     1.0000   1.0000   1.0000   1.0000   1.0000   1.0000   1.0000   1.0000
     1.0000   1.0000   1.0000   1.0000   1.0000   1.0000   1.0000   1.0000
     1.0000   1.0000   1.0000   1.0000   1.0000   1.0000   1.0000   1.0000
     1.0000   1.0000   1.0000   1.0000   1.0000   1.0000   1.0000   1.0000
     1.0000   1.0000   1.0000   1.0000   1.0000   1.0000   1.0000   1.0000
     1.0000   1.0000   1.0000   1.0000   1.0000   1.0000   1.0000   1.0000
     1.0000   1.0000   1.0000   1.0000   1.0000   1.0000   1.0000   1.0000
     1.0000   1.0000   1.0000   1.0000   1.0000   1.0000   1.0000   1.0000
     1.0000   1.0000   1.0057   1.0689   1.0690   0.9985   0.9985   0.0109
     0.0021   0.0019   0.0019   0.0000   0.0000   0.0000   0.0000   0.0000
     0.0000   0.0000   0.0000   0.0000   0.0000   0.0000   0.0000   0.0000
     0.0000   0.0000   0.0000   0.0000   0.0000   0.0000   0.0000   0.0000
     0.0000   0.0000   0.0000   0.0000   0.0000   0.0000   0.0000   0.0000
     0.0000   0.0000   0.0000   0.0000   0.0000   0.0000   0.0000   0.0000
     0.0000   0.0000   0.0000   0.0000   0.0000   0.0000   0.0000   0.0000
     0.0000   0.0000   0.0000   0.0000   0.0000   0.0000   0.0000   0.0000
     0.0000   0.0000   0.0000   0.0000   0.0000   0.0000   0.0000   0.0000

          k = 0.0000 0.0000 0.1527 ( 81993 PWs)   bands (ev):

  -126.3067-126.3066-126.3062-126.3061-126.3057-126.3057-126.3056-126.3056
  -126.3054-126.3053-126.3053-126.3052-126.3047-126.3046-126.3045-126.3043
  -126.2430-126.2429-126.2427-126.2425-126.2421-126.2421-126.2419-126.2419
  -126.2418-126.2417-126.2416-126.2416-126.2412-126.2410-126.2408-126.2407
   -80.4787 -80.4786 -80.4784 -80.4783 -80.4773 -80.4772 -80.4772 -80.4771
   -80.4770 -80.4770 -80.4769 -80.4769 -80.4759 -80.4758 -80.4757 -80.4755
   -80.4625 -80.4624 -80.4623 -80.4621 -80.4542 -80.4537 -80.4526 -80.4526
   -80.4524 -80.4524 -80.4509 -80.4509 -80.4508 -80.4508 -80.4494 -80.4492
   -80.4492 -80.4491 -80.4491 -80.4491 -80.4490 -80.4490 -80.4489 -80.4488
   -80.4479 -80.4479 -80.4479 -80.4479 -80.4379 -80.4378 -80.4366 -80.4365
   -80.4145 -80.4143 -80.4136 -80.4136 -80.4135 -80.4134 -80.4129 -80.4128
   -80.4120 -80.4118 -80.4112 -80.4111 -80.4110 -80.4110 -80.4105 -80.4103
   -80.3998 -80.3997 -80.3995 -80.3994 -80.3879 -80.3879 -80.3878 -80.3878
   -80.3876 -80.3876 -80.3875 -80.3875 -80.3868 -80.3866 -80.3860 -80.3859
   -80.3858 -80.3857 -80.3857 -80.3855 -80.3850 -80.3849 -80.3849 -80.3848
   -80.3847 -80.3846 -80.3839 -80.3838 -80.3758 -80.3757 -80.3756 -80.3754
    -9.1101  -8.2773  -8.2453  -8.0381  -8.0131  -8.0077  -8.0077  -7.9641
    -7.9578  -7.8749  -7.8359  -7.8359  -7.8308  -7.8308  -7.8300  -7.8299
    -7.8198  -7.8197  -7.7666  -7.7665  -7.7360  -7.7360  -7.7287  -7.7287
    -7.7204  -7.7204  -7.6989  -7.6916  -7.6916  -7.6790  -7.6790  -7.6697
    -7.6417  -7.6277  -7.6277  -7.6199  -7.6199  -7.6073  -7.6073  -7.5978
    -7.5978  -7.5867  -7.5867  -7.5808  -7.5808  -7.5358  -7.5358  -7.5125
    -7.4896  -7.4896  -7.4605  -7.4605  -7.4488  -7.4230  -7.4208  -7.4187
    -7.4186  -7.3828  -7.3536  -7.3535  -7.3475  -7.3475  -7.3182  -7.3002
    -7.3002  -7.2788  -7.2788  -7.2782  -7.2782  -7.2581  -7.2355  -7.2355
    -7.2308  -7.2307  -7.2084  -7.2084  -7.1836  -7.1836  -7.1830  -7.1830
    -7.1741  -7.1465  -7.1437  -7.1418  -7.1412  -7.1412  -7.1217  -7.1217
    -7.1079  -7.1078  -7.1073  -7.0937  -7.0936  -7.0914  -7.0909  -7.0909
    -7.0837  -7.0837  -7.0635  -7.0635  -7.0599  -7.0599  -7.0404  -7.0363
    -7.0145  -7.0145  -7.0001  -7.0001  -6.9965  -6.9962  -6.9961  -6.9951
    -6.9947  -6.9947  -6.9369  -6.9289  -6.9221  -6.9221  -6.9220  -6.9219
    -6.9105  -6.9105  -6.8832  -6.8831  -6.8709  -6.8693  -6.8693  -6.8644
    -6.8594  -6.8535  -6.8534  -6.8495  -6.8495  -6.8421  -6.8421  -6.8256
    -6.8256  -6.8133  -6.8133  -6.8069  -6.8060  -6.8060  -6.7847  -6.7751
    -6.7750  -6.7673  -6.7673  -6.7671  -6.7671  -6.7646  -6.7645  -6.7610
    -6.7521  -6.7468  -6.6959  -6.6928  -6.6724  -6.6690  -6.6455  -6.6455
    -6.6169  -6.6168  -6.5968  -6.5945  -6.5943  -6.1819  -6.1819  -4.9204
    -4.9204  -4.5234  -3.6183  -3.2369  -3.2369  -3.1688  -2.9739  -2.9135
    -2.9135  -2.8932  -2.6405  -2.6405  -2.4927  -2.4926  -2.4025  -2.4024
    -1.1563  -1.1563  -0.6852  -0.4207  -0.4206  -0.2084  -0.2084   0.3850
     0.4858   0.4909   0.4910   0.7102   0.7102   0.7924   1.1729   1.1729
     1.2210   1.2282   1.2283   1.3575   1.3575   1.6482   1.6482   3.0998
     3.0998   3.1957   3.2774   3.2774   3.3385   3.3385   3.4420   3.5246
     3.5247   3.9517   3.9587   4.1458   4.1458   4.4347   4.4352   4.5316
     4.5317   4.5523   4.5643   4.7511   4.8759   4.9706   4.9706   5.1887
     5.2370   5.2581   5.3228   5.3408   5.3796   5.3891   5.4080   5.4725
     5.5418   5.5900   5.5901   5.7854   5.8895   5.9281   5.9777   5.9976
     5.9976   6.0488   6.2462   6.2877   6.3344   6.4267   6.5637   6.5745

     occupation numbers 
     1.0000   1.0000   1.0000   1.0000   1.0000   1.0000   1.0000   1.0000
     1.0000   1.0000   1.0000   1.0000   1.0000   1.0000   1.0000   1.0000
     1.0000   1.0000   1.0000   1.0000   1.0000   1.0000   1.0000   1.0000
     1.0000   1.0000   1.0000   1.0000   1.0000   1.0000   1.0000   1.0000
     1.0000   1.0000   1.0000   1.0000   1.0000   1.0000   1.0000   1.0000
     1.0000   1.0000   1.0000   1.0000   1.0000   1.0000   1.0000   1.0000
     1.0000   1.0000   1.0000   1.0000   1.0000   1.0000   1.0000   1.0000
     1.0000   1.0000   1.0000   1.0000   1.0000   1.0000   1.0000   1.0000
     1.0000   1.0000   1.0000   1.0000   1.0000   1.0000   1.0000   1.0000
     1.0000   1.0000   1.0000   1.0000   1.0000   1.0000   1.0000   1.0000
     1.0000   1.0000   1.0000   1.0000   1.0000   1.0000   1.0000   1.0000
     1.0000   1.0000   1.0000   1.0000   1.0000   1.0000   1.0000   1.0000
     1.0000   1.0000   1.0000   1.0000   1.0000   1.0000   1.0000   1.0000
     1.0000   1.0000   1.0000   1.0000   1.0000   1.0000   1.0000   1.0000
     1.0000   1.0000   1.0000   1.0000   1.0000   1.0000   1.0000   1.0000
     1.0000   1.0000   1.0000   1.0000   1.0000   1.0000   1.0000   1.0000
     1.0000   1.0000   1.0000   1.0000   1.0000   1.0000   1.0000   1.0000
     1.0000   1.0000   1.0000   1.0000   1.0000   1.0000   1.0000   1.0000
     1.0000   1.0000   1.0000   1.0000   1.0000   1.0000   1.0000   1.0000
     1.0000   1.0000   1.0000   1.0000   1.0000   1.0000   1.0000   1.0000
     1.0000   1.0000   1.0000   1.0000   1.0000   1.0000   1.0000   1.0000
     1.0000   1.0000   1.0000   1.0000   1.0000   1.0000   1.0000   1.0000
     1.0000   1.0000   1.0000   1.0000   1.0000   1.0000   1.0000   1.0000
     1.0000   1.0000   1.0000   1.0000   1.0000   1.0000   1.0000   1.0000
     1.0000   1.0000   1.0000   1.0000   1.0000   1.0000   1.0000   1.0000
     1.0000   1.0000   1.0000   1.0000   1.0000   1.0000   1.0000   1.0000
     1.0000   1.0000   1.0000   1.0000   1.0000   1.0000   1.0000   1.0000
     1.0000   1.0000   1.0000   1.0000   1.0000   1.0000   1.0000   1.0000
     1.0000   1.0000   1.0000   1.0000   1.0000   1.0000   1.0000   1.0000
     1.0000   1.0000   1.0000   1.0000   1.0000   1.0000   1.0000   1.0000
     1.0000   1.0000   1.0000   1.0000   1.0000   1.0000   1.0000   1.0000
     1.0000   1.0000   1.0000   1.0000   1.0000   1.0000   1.0000   1.0000
     1.0000   1.0000   1.0000   1.0000   1.0000   1.0000   1.0000   1.0000
     1.0000   1.0000   1.0000   1.0000   1.0000   1.0000   1.0000   1.0000
     1.0000   1.0000   1.0000   1.0000   1.0000   1.0000   1.0000   1.0000
     1.0000   1.0000   1.0000   1.0000   1.0000   1.0000   1.0000   1.0000
     1.0000   1.0000   1.0000   1.0000   1.0000   1.0000   1.0000   1.0000
     1.0000   1.0000   1.0000   1.0000   1.0000   1.0000   1.0000   1.0000
     1.0000   1.0000   1.0000   1.0000   1.0000   1.0000   1.0000   1.0000
     1.0000   1.0000   1.0057   1.0689   1.0690   0.9985   0.9985   0.0109
     0.0021   0.0019   0.0019   0.0000   0.0000   0.0000   0.0000   0.0000
     0.0000   0.0000   0.0000   0.0000   0.0000   0.0000   0.0000   0.0000
     0.0000   0.0000   0.0000   0.0000   0.0000   0.0000   0.0000   0.0000
     0.0000   0.0000   0.0000   0.0000   0.0000   0.0000   0.0000   0.0000
     0.0000   0.0000   0.0000   0.0000   0.0000   0.0000   0.0000   0.0000
     0.0000   0.0000   0.0000   0.0000   0.0000   0.0000   0.0000   0.0000
     0.0000   0.0000   0.0000   0.0000   0.0000   0.0000   0.0000   0.0000
     0.0000   0.0000   0.0000   0.0000   0.0000   0.0000   0.0000   0.0000

          k = 0.0000 0.0000-0.3054 ( 81942 PWs)   bands (ev):

  -126.3066-126.3066-126.3062-126.3061-126.3057-126.3057-126.3056-126.3056
  -126.3054-126.3053-126.3053-126.3052-126.3047-126.3046-126.3045-126.3043
  -126.2430-126.2429-126.2427-126.2425-126.2421-126.2421-126.2419-126.2419
  -126.2418-126.2417-126.2416-126.2416-126.2412-126.2410-126.2408-126.2407
   -80.4787 -80.4785 -80.4784 -80.4783 -80.4773 -80.4772 -80.4771 -80.4771
   -80.4770 -80.4770 -80.4769 -80.4768 -80.4759 -80.4758 -80.4757 -80.4755
   -80.4625 -80.4624 -80.4623 -80.4621 -80.4541 -80.4537 -80.4526 -80.4526
   -80.4524 -80.4524 -80.4509 -80.4509 -80.4508 -80.4508 -80.4494 -80.4492
   -80.4492 -80.4491 -80.4491 -80.4491 -80.4490 -80.4490 -80.4489 -80.4488
   -80.4479 -80.4479 -80.4479 -80.4479 -80.4379 -80.4378 -80.4366 -80.4365
   -80.4144 -80.4143 -80.4136 -80.4136 -80.4135 -80.4134 -80.4129 -80.4128
   -80.4120 -80.4119 -80.4112 -80.4111 -80.4110 -80.4110 -80.4104 -80.4103
   -80.3998 -80.3997 -80.3995 -80.3994 -80.3879 -80.3879 -80.3878 -80.3878
   -80.3876 -80.3876 -80.3875 -80.3875 -80.3868 -80.3865 -80.3860 -80.3859
   -80.3858 -80.3857 -80.3857 -80.3855 -80.3850 -80.3849 -80.3849 -80.3848
   -80.3846 -80.3846 -80.3839 -80.3838 -80.3758 -80.3757 -80.3755 -80.3754
    -9.1101  -8.2773  -8.2453  -8.0381  -8.0131  -8.0077  -8.0077  -7.9641
    -7.9578  -7.8749  -7.8359  -7.8359  -7.8308  -7.8308  -7.8300  -7.8299
    -7.8198  -7.8198  -7.7666  -7.7665  -7.7360  -7.7360  -7.7287  -7.7287
    -7.7204  -7.7204  -7.6989  -7.6916  -7.6916  -7.6790  -7.6790  -7.6697
    -7.6417  -7.6277  -7.6277  -7.6199  -7.6199  -7.6073  -7.6073  -7.5978
    -7.5978  -7.5867  -7.5867  -7.5808  -7.5808  -7.5358  -7.5358  -7.5125
    -7.4895  -7.4895  -7.4605  -7.4605  -7.4488  -7.4230  -7.4208  -7.4186
    -7.4186  -7.3828  -7.3536  -7.3535  -7.3475  -7.3475  -7.3182  -7.3002
    -7.3002  -7.2788  -7.2788  -7.2782  -7.2782  -7.2581  -7.2355  -7.2355
    -7.2308  -7.2307  -7.2084  -7.2084  -7.1836  -7.1836  -7.1830  -7.1830
    -7.1741  -7.1466  -7.1437  -7.1418  -7.1412  -7.1412  -7.1217  -7.1217
    -7.1079  -7.1078  -7.1073  -7.0937  -7.0936  -7.0914  -7.0909  -7.0909
    -7.0837  -7.0837  -7.0635  -7.0635  -7.0599  -7.0599  -7.0404  -7.0363
    -7.0145  -7.0145  -7.0001  -7.0001  -6.9965  -6.9962  -6.9961  -6.9951
    -6.9947  -6.9947  -6.9369  -6.9289  -6.9221  -6.9221  -6.9220  -6.9219
    -6.9105  -6.9105  -6.8832  -6.8832  -6.8709  -6.8693  -6.8693  -6.8644
    -6.8594  -6.8535  -6.8534  -6.8495  -6.8495  -6.8421  -6.8421  -6.8256
    -6.8256  -6.8133  -6.8133  -6.8069  -6.8060  -6.8060  -6.7847  -6.7751
    -6.7750  -6.7673  -6.7673  -6.7671  -6.7671  -6.7646  -6.7645  -6.7610
    -6.7521  -6.7468  -6.6959  -6.6928  -6.6724  -6.6690  -6.6455  -6.6455
    -6.6169  -6.6168  -6.5968  -6.5945  -6.5943  -6.1819  -6.1819  -4.9204
    -4.9204  -4.5234  -3.6183  -3.2369  -3.2369  -3.1688  -2.9739  -2.9135
    -2.9135  -2.8932  -2.6405  -2.6405  -2.4927  -2.4926  -2.4025  -2.4024
    -1.1563  -1.1563  -0.6852  -0.4207  -0.4206  -0.2084  -0.2084   0.3850
     0.4858   0.4909   0.4910   0.7102   0.7102   0.7924   1.1730   1.1730
     1.2210   1.2282   1.2283   1.3575   1.3575   1.6482   1.6482   3.0998
     3.0998   3.1807   3.2774   3.2774   3.3385   3.3385   3.4420   3.5246
     3.5247   3.9516   4.1458   4.1458   4.1722   4.2190   4.4431   4.5316
     4.5316   4.5493   4.5493   4.7771   4.7802   4.9706   4.9706   5.1750
     5.2305   5.2427   5.2427   5.3610   5.3610   5.3653   5.3653   5.5900
     5.5901   5.6229   5.6229   5.9250   5.9543   5.9543   5.9976   5.9976
     6.0708   6.0708   6.1171   6.2722   6.4072   6.5613   6.5702   6.5702

     occupation numbers 
     1.0000   1.0000   1.0000   1.0000   1.0000   1.0000   1.0000   1.0000
     1.0000   1.0000   1.0000   1.0000   1.0000   1.0000   1.0000   1.0000
     1.0000   1.0000   1.0000   1.0000   1.0000   1.0000   1.0000   1.0000
     1.0000   1.0000   1.0000   1.0000   1.0000   1.0000   1.0000   1.0000
     1.0000   1.0000   1.0000   1.0000   1.0000   1.0000   1.0000   1.0000
     1.0000   1.0000   1.0000   1.0000   1.0000   1.0000   1.0000   1.0000
     1.0000   1.0000   1.0000   1.0000   1.0000   1.0000   1.0000   1.0000
     1.0000   1.0000   1.0000   1.0000   1.0000   1.0000   1.0000   1.0000
     1.0000   1.0000   1.0000   1.0000   1.0000   1.0000   1.0000   1.0000
     1.0000   1.0000   1.0000   1.0000   1.0000   1.0000   1.0000   1.0000
     1.0000   1.0000   1.0000   1.0000   1.0000   1.0000   1.0000   1.0000
     1.0000   1.0000   1.0000   1.0000   1.0000   1.0000   1.0000   1.0000
     1.0000   1.0000   1.0000   1.0000   1.0000   1.0000   1.0000   1.0000
     1.0000   1.0000   1.0000   1.0000   1.0000   1.0000   1.0000   1.0000
     1.0000   1.0000   1.0000   1.0000   1.0000   1.0000   1.0000   1.0000
     1.0000   1.0000   1.0000   1.0000   1.0000   1.0000   1.0000   1.0000
     1.0000   1.0000   1.0000   1.0000   1.0000   1.0000   1.0000   1.0000
     1.0000   1.0000   1.0000   1.0000   1.0000   1.0000   1.0000   1.0000
     1.0000   1.0000   1.0000   1.0000   1.0000   1.0000   1.0000   1.0000
     1.0000   1.0000   1.0000   1.0000   1.0000   1.0000   1.0000   1.0000
     1.0000   1.0000   1.0000   1.0000   1.0000   1.0000   1.0000   1.0000
     1.0000   1.0000   1.0000   1.0000   1.0000   1.0000   1.0000   1.0000
     1.0000   1.0000   1.0000   1.0000   1.0000   1.0000   1.0000   1.0000
     1.0000   1.0000   1.0000   1.0000   1.0000   1.0000   1.0000   1.0000
     1.0000   1.0000   1.0000   1.0000   1.0000   1.0000   1.0000   1.0000
     1.0000   1.0000   1.0000   1.0000   1.0000   1.0000   1.0000   1.0000
     1.0000   1.0000   1.0000   1.0000   1.0000   1.0000   1.0000   1.0000
     1.0000   1.0000   1.0000   1.0000   1.0000   1.0000   1.0000   1.0000
     1.0000   1.0000   1.0000   1.0000   1.0000   1.0000   1.0000   1.0000
     1.0000   1.0000   1.0000   1.0000   1.0000   1.0000   1.0000   1.0000
     1.0000   1.0000   1.0000   1.0000   1.0000   1.0000   1.0000   1.0000
     1.0000   1.0000   1.0000   1.0000   1.0000   1.0000   1.0000   1.0000
     1.0000   1.0000   1.0000   1.0000   1.0000   1.0000   1.0000   1.0000
     1.0000   1.0000   1.0000   1.0000   1.0000   1.0000   1.0000   1.0000
     1.0000   1.0000   1.0000   1.0000   1.0000   1.0000   1.0000   1.0000
     1.0000   1.0000   1.0000   1.0000   1.0000   1.0000   1.0000   1.0000
     1.0000   1.0000   1.0000   1.0000   1.0000   1.0000   1.0000   1.0000
     1.0000   1.0000   1.0000   1.0000   1.0000   1.0000   1.0000   1.0000
     1.0000   1.0000   1.0000   1.0000   1.0000   1.0000   1.0000   1.0000
     1.0000   1.0000   1.0057   1.0689   1.0690   0.9985   0.9985   0.0109
     0.0021   0.0019   0.0019   0.0000   0.0000   0.0000   0.0000   0.0000
     0.0000   0.0000   0.0000   0.0000   0.0000   0.0000   0.0000   0.0000
     0.0000   0.0000   0.0000   0.0000   0.0000   0.0000   0.0000   0.0000
     0.0000   0.0000   0.0000   0.0000   0.0000   0.0000   0.0000   0.0000
     0.0000   0.0000   0.0000   0.0000   0.0000   0.0000   0.0000   0.0000
     0.0000   0.0000   0.0000   0.0000   0.0000   0.0000   0.0000   0.0000
     0.0000   0.0000   0.0000   0.0000   0.0000   0.0000   0.0000   0.0000
     0.0000   0.0000   0.0000   0.0000   0.0000   0.0000   0.0000   0.0000

          k = 0.0000 0.2721 0.1386 ( 82015 PWs)   bands (ev):

  -126.3066-126.3065-126.3062-126.3061-126.3060-126.3060-126.3056-126.3055
  -126.3053-126.3053-126.3050-126.3049-126.3048-126.3047-126.3046-126.3044
  -126.2429-126.2428-126.2426-126.2425-126.2424-126.2423-126.2421-126.2419
  -126.2418-126.2416-126.2415-126.2413-126.2412-126.2411-126.2409-126.2407
   -80.4786 -80.4785 -80.4783 -80.4782 -80.4778 -80.4777 -80.4775 -80.4774
   -80.4767 -80.4766 -80.4765 -80.4764 -80.4760 -80.4759 -80.4758 -80.4756
   -80.4616 -80.4615 -80.4613 -80.4612 -80.4552 -80.4552 -80.4547 -80.4547
   -80.4540 -80.4536 -80.4531 -80.4528 -80.4510 -80.4509 -80.4498 -80.4497
   -80.4490 -80.4490 -80.4488 -80.4488 -80.4487 -80.4487 -80.4483 -80.4482
   -80.4453 -80.4452 -80.4445 -80.4445 -80.4388 -80.4387 -80.4376 -80.4376
   -80.4144 -80.4142 -80.4139 -80.4137 -80.4134 -80.4132 -80.4130 -80.4128
   -80.4119 -80.4118 -80.4114 -80.4113 -80.4109 -80.4107 -80.4105 -80.4103
   -80.3989 -80.3988 -80.3986 -80.3985 -80.3925 -80.3924 -80.3922 -80.3920
   -80.3867 -80.3865 -80.3861 -80.3860 -80.3859 -80.3855 -80.3855 -80.3854
   -80.3852 -80.3850 -80.3850 -80.3849 -80.3845 -80.3843 -80.3840 -80.3838
   -80.3833 -80.3832 -80.3830 -80.3829 -80.3768 -80.3766 -80.3765 -80.3763
    -9.0186  -8.3644  -8.2544  -8.1475  -7.9967  -7.9764  -7.9397  -7.9260
    -7.9216  -7.8621  -7.8362  -7.8337  -7.8315  -7.8235  -7.8224  -7.8099
    -7.7972  -7.7950  -7.7915  -7.7654  -7.7626  -7.7519  -7.7509  -7.7487
    -7.7421  -7.7331  -7.7208  -7.7072  -7.7013  -7.6912  -7.6895  -7.6866
    -7.6836  -7.6633  -7.6485  -7.6446  -7.6279  -7.6219  -7.6180  -7.6141
    -7.6003  -7.5850  -7.5831  -7.5816  -7.5716  -7.5658  -7.5576  -7.5397
    -7.5389  -7.5071  -7.4975  -7.4754  -7.4635  -7.4191  -7.4152  -7.4122
    -7.3847  -7.3831  -7.3449  -7.3438  -7.3428  -7.3368  -7.3194  -7.3170
    -7.3055  -7.2913  -7.2869  -7.2785  -7.2691  -7.2629  -7.2615  -7.2585
    -7.2484  -7.2416  -7.2394  -7.2374  -7.2312  -7.2291  -7.2149  -7.1742
    -7.1725  -7.1616  -7.1604  -7.1390  -7.1378  -7.1301  -7.1258  -7.1130
    -7.1100  -7.0918  -7.0871  -7.0835  -7.0810  -7.0766  -7.0703  -7.0671
    -7.0663  -7.0602  -7.0579  -7.0506  -7.0428  -7.0337  -7.0215  -7.0160
    -7.0070  -7.0029  -7.0004  -7.0000  -6.9925  -6.9889  -6.9679  -6.9639
    -6.9590  -6.9489  -6.9403  -6.9380  -6.9340  -6.9139  -6.8916  -6.8897
    -6.8801  -6.8800  -6.8767  -6.8651  -6.8605  -6.8599  -6.8593  -6.8543
    -6.8513  -6.8477  -6.8453  -6.8447  -6.8392  -6.8337  -6.8314  -6.8311
    -6.8271  -6.8236  -6.8170  -6.8149  -6.8120  -6.8044  -6.7989  -6.7955
    -6.7936  -6.7886  -6.7832  -6.7741  -6.7646  -6.7636  -6.7554  -6.7538
    -6.7392  -6.7340  -6.7183  -6.7128  -6.7031  -6.6891  -6.6648  -6.6553
    -6.6551  -6.6225  -6.6197  -6.4747  -6.4370  -6.1019  -5.6469  -5.6429
    -4.4449  -3.9737  -3.8804  -3.8089  -3.7256  -3.5689  -3.2997  -3.2096
    -3.1023  -2.8463  -2.5627  -2.5287  -2.3917  -2.0034  -1.9136  -1.4931
    -1.1439  -1.0436  -1.0365  -0.9232  -0.5755  -0.2261  -0.1790  -0.0691
     0.2046   0.3845   0.4583   0.6051   0.7416   1.0832   1.0845   1.3582
     1.3830   1.5018   1.6924   2.0051   2.2663   2.3634   2.4267   2.5442
     2.6289   2.6545   2.7430   2.8814   3.0525   3.0724   3.2536   3.2855
     3.5233   3.9726   3.9841   4.0319   4.1198   4.2779   4.2958   4.3134
     4.4491   4.4973   4.5171   4.7137   4.7680   4.8223   4.9084   4.9094
     4.9576   4.9760   5.3483   5.4119   5.4579   5.4900   5.5002   5.5062
     5.7025   5.7670   5.7790   5.8953   5.9081   5.9177   5.9418   6.0964
     6.1100   6.1818   6.3624   6.4388   6.5197   6.5995   6.6499   6.7660

     occupation numbers 
     1.0000   1.0000   1.0000   1.0000   1.0000   1.0000   1.0000   1.0000
     1.0000   1.0000   1.0000   1.0000   1.0000   1.0000   1.0000   1.0000
     1.0000   1.0000   1.0000   1.0000   1.0000   1.0000   1.0000   1.0000
     1.0000   1.0000   1.0000   1.0000   1.0000   1.0000   1.0000   1.0000
     1.0000   1.0000   1.0000   1.0000   1.0000   1.0000   1.0000   1.0000
     1.0000   1.0000   1.0000   1.0000   1.0000   1.0000   1.0000   1.0000
     1.0000   1.0000   1.0000   1.0000   1.0000   1.0000   1.0000   1.0000
     1.0000   1.0000   1.0000   1.0000   1.0000   1.0000   1.0000   1.0000
     1.0000   1.0000   1.0000   1.0000   1.0000   1.0000   1.0000   1.0000
     1.0000   1.0000   1.0000   1.0000   1.0000   1.0000   1.0000   1.0000
     1.0000   1.0000   1.0000   1.0000   1.0000   1.0000   1.0000   1.0000
     1.0000   1.0000   1.0000   1.0000   1.0000   1.0000   1.0000   1.0000
     1.0000   1.0000   1.0000   1.0000   1.0000   1.0000   1.0000   1.0000
     1.0000   1.0000   1.0000   1.0000   1.0000   1.0000   1.0000   1.0000
     1.0000   1.0000   1.0000   1.0000   1.0000   1.0000   1.0000   1.0000
     1.0000   1.0000   1.0000   1.0000   1.0000   1.0000   1.0000   1.0000
     1.0000   1.0000   1.0000   1.0000   1.0000   1.0000   1.0000   1.0000
     1.0000   1.0000   1.0000   1.0000   1.0000   1.0000   1.0000   1.0000
     1.0000   1.0000   1.0000   1.0000   1.0000   1.0000   1.0000   1.0000
     1.0000   1.0000   1.0000   1.0000   1.0000   1.0000   1.0000   1.0000
     1.0000   1.0000   1.0000   1.0000   1.0000   1.0000   1.0000   1.0000
     1.0000   1.0000   1.0000   1.0000   1.0000   1.0000   1.0000   1.0000
     1.0000   1.0000   1.0000   1.0000   1.0000   1.0000   1.0000   1.0000
     1.0000   1.0000   1.0000   1.0000   1.0000   1.0000   1.0000   1.0000
     1.0000   1.0000   1.0000   1.0000   1.0000   1.0000   1.0000   1.0000
     1.0000   1.0000   1.0000   1.0000   1.0000   1.0000   1.0000   1.0000
     1.0000   1.0000   1.0000   1.0000   1.0000   1.0000   1.0000   1.0000
     1.0000   1.0000   1.0000   1.0000   1.0000   1.0000   1.0000   1.0000
     1.0000   1.0000   1.0000   1.0000   1.0000   1.0000   1.0000   1.0000
     1.0000   1.0000   1.0000   1.0000   1.0000   1.0000   1.0000   1.0000
     1.0000   1.0000   1.0000   1.0000   1.0000   1.0000   1.0000   1.0000
     1.0000   1.0000   1.0000   1.0000   1.0000   1.0000   1.0000   1.0000
     1.0000   1.0000   1.0000   1.0000   1.0000   1.0000   1.0000   1.0000
     1.0000   1.0000   1.0000   1.0000   1.0000   1.0000   1.0000   1.0000
     1.0000   1.0000   1.0000   1.0000   1.0000   1.0000   1.0000   1.0000
     1.0000   1.0000   1.0000   1.0000   1.0000   1.0000   1.0000   1.0000
     1.0000   1.0000   1.0000   1.0000   1.0000   1.0000   1.0000   1.0000
     1.0000   1.0000   1.0000   1.0000   1.0000   1.0000   1.0000   1.0000
     1.0000   1.0000   1.0000   1.0000   1.0000   1.0000   1.0000   1.0000
     1.0000   1.0000   1.0000   1.0001   1.0213   1.0213   0.9523   0.6991
     0.1044   0.0110   0.0034   0.0002   0.0000   0.0000   0.0000   0.0000
     0.0000   0.0000   0.0000   0.0000   0.0000   0.0000   0.0000   0.0000
     0.0000   0.0000   0.0000   0.0000   0.0000   0.0000   0.0000   0.0000
     0.0000   0.0000   0.0000   0.0000   0.0000   0.0000   0.0000   0.0000
     0.0000   0.0000   0.0000   0.0000   0.0000   0.0000   0.0000   0.0000
     0.0000   0.0000   0.0000   0.0000   0.0000   0.0000   0.0000   0.0000
     0.0000   0.0000   0.0000   0.0000   0.0000   0.0000   0.0000   0.0000
     0.0000   0.0000   0.0000   0.0000   0.0000   0.0000   0.0000   0.0000

          k = 0.0000 0.2721 0.2914 ( 81981 PWs)   bands (ev):

  -126.3066-126.3065-126.3062-126.3061-126.3060-126.3060-126.3056-126.3055
  -126.3053-126.3053-126.3050-126.3049-126.3048-126.3047-126.3046-126.3044
  -126.2429-126.2428-126.2426-126.2425-126.2424-126.2423-126.2421-126.2419
  -126.2418-126.2416-126.2415-126.2413-126.2412-126.2411-126.2409-126.2407
   -80.4786 -80.4785 -80.4783 -80.4782 -80.4778 -80.4777 -80.4775 -80.4774
   -80.4767 -80.4766 -80.4765 -80.4764 -80.4760 -80.4759 -80.4758 -80.4756
   -80.4616 -80.4615 -80.4613 -80.4612 -80.4552 -80.4552 -80.4547 -80.4547
   -80.4540 -80.4536 -80.4531 -80.4528 -80.4510 -80.4509 -80.4498 -80.4497
   -80.4490 -80.4490 -80.4488 -80.4488 -80.4487 -80.4486 -80.4483 -80.4482
   -80.4453 -80.4452 -80.4445 -80.4444 -80.4388 -80.4387 -80.4376 -80.4376
   -80.4144 -80.4142 -80.4139 -80.4137 -80.4134 -80.4132 -80.4130 -80.4128
   -80.4120 -80.4118 -80.4114 -80.4113 -80.4109 -80.4108 -80.4105 -80.4103
   -80.3989 -80.3988 -80.3986 -80.3985 -80.3925 -80.3924 -80.3922 -80.3920
   -80.3867 -80.3865 -80.3862 -80.3860 -80.3859 -80.3855 -80.3855 -80.3854
   -80.3852 -80.3850 -80.3850 -80.3849 -80.3845 -80.3843 -80.3840 -80.3838
   -80.3833 -80.3832 -80.3830 -80.3829 -80.3768 -80.3766 -80.3765 -80.3763
    -9.0186  -8.3644  -8.2544  -8.1475  -7.9967  -7.9764  -7.9397  -7.9260
    -7.9216  -7.8621  -7.8362  -7.8337  -7.8315  -7.8235  -7.8224  -7.8099
    -7.7972  -7.7950  -7.7915  -7.7654  -7.7626  -7.7519  -7.7509  -7.7487
    -7.7421  -7.7331  -7.7208  -7.7072  -7.7013  -7.6912  -7.6895  -7.6866
    -7.6836  -7.6633  -7.6485  -7.6446  -7.6279  -7.6219  -7.6180  -7.6141
    -7.6003  -7.5850  -7.5831  -7.5816  -7.5716  -7.5658  -7.5576  -7.5397
    -7.5389  -7.5071  -7.4975  -7.4754  -7.4635  -7.4191  -7.4152  -7.4122
    -7.3847  -7.3831  -7.3449  -7.3438  -7.3428  -7.3368  -7.3194  -7.3170
    -7.3055  -7.2913  -7.2869  -7.2785  -7.2691  -7.2629  -7.2615  -7.2585
    -7.2483  -7.2416  -7.2394  -7.2374  -7.2312  -7.2291  -7.2149  -7.1742
    -7.1725  -7.1616  -7.1604  -7.1390  -7.1378  -7.1301  -7.1258  -7.1130
    -7.1100  -7.0918  -7.0870  -7.0835  -7.0810  -7.0766  -7.0703  -7.0671
    -7.0663  -7.0602  -7.0579  -7.0506  -7.0428  -7.0337  -7.0215  -7.0160
    -7.0069  -7.0028  -7.0004  -7.0000  -6.9925  -6.9889  -6.9679  -6.9639
    -6.9590  -6.9489  -6.9403  -6.9380  -6.9340  -6.9139  -6.8916  -6.8897
    -6.8801  -6.8800  -6.8767  -6.8651  -6.8605  -6.8599  -6.8593  -6.8543
    -6.8513  -6.8477  -6.8453  -6.8447  -6.8392  -6.8337  -6.8314  -6.8311
    -6.8271  -6.8236  -6.8170  -6.8149  -6.8120  -6.8044  -6.7989  -6.7955
    -6.7936  -6.7886  -6.7832  -6.7741  -6.7646  -6.7636  -6.7553  -6.7538
    -6.7391  -6.7340  -6.7183  -6.7128  -6.7031  -6.6891  -6.6648  -6.6553
    -6.6551  -6.6225  -6.6197  -6.4747  -6.4370  -6.1019  -5.6469  -5.6429
    -4.4449  -3.9737  -3.8804  -3.8089  -3.7256  -3.5689  -3.2997  -3.2096
    -3.1023  -2.8463  -2.5627  -2.5287  -2.3917  -2.0034  -1.9136  -1.4931
    -1.1439  -1.0436  -1.0365  -0.9232  -0.5755  -0.2261  -0.1790  -0.0691
     0.2046   0.3845   0.4582   0.6051   0.7416   1.0832   1.0845   1.3582
     1.3830   1.5018   1.6924   2.0051   2.2663   2.3634   2.4267   2.5442
     2.6289   2.6545   2.7430   2.8814   3.0525   3.0724   3.2536   3.2684
     3.5233   3.9664   3.9841   4.1198   4.2483   4.2779   4.2958   4.3135
     4.3143   4.4697   4.4972   4.7137   4.7677   4.8274   4.8576   4.8936
     4.9278   5.0171   5.1434   5.3588   5.3995   5.4458   5.5062   5.5760
     5.7671   5.7927   5.8913   5.9019   5.9392   6.0673   6.0795   6.1204
     6.3653   6.3826   6.4052   6.4581   6.4815   6.4847   6.5995   6.6150

     occupation numbers 
     1.0000   1.0000   1.0000   1.0000   1.0000   1.0000   1.0000   1.0000
     1.0000   1.0000   1.0000   1.0000   1.0000   1.0000   1.0000   1.0000
     1.0000   1.0000   1.0000   1.0000   1.0000   1.0000   1.0000   1.0000
     1.0000   1.0000   1.0000   1.0000   1.0000   1.0000   1.0000   1.0000
     1.0000   1.0000   1.0000   1.0000   1.0000   1.0000   1.0000   1.0000
     1.0000   1.0000   1.0000   1.0000   1.0000   1.0000   1.0000   1.0000
     1.0000   1.0000   1.0000   1.0000   1.0000   1.0000   1.0000   1.0000
     1.0000   1.0000   1.0000   1.0000   1.0000   1.0000   1.0000   1.0000
     1.0000   1.0000   1.0000   1.0000   1.0000   1.0000   1.0000   1.0000
     1.0000   1.0000   1.0000   1.0000   1.0000   1.0000   1.0000   1.0000
     1.0000   1.0000   1.0000   1.0000   1.0000   1.0000   1.0000   1.0000
     1.0000   1.0000   1.0000   1.0000   1.0000   1.0000   1.0000   1.0000
     1.0000   1.0000   1.0000   1.0000   1.0000   1.0000   1.0000   1.0000
     1.0000   1.0000   1.0000   1.0000   1.0000   1.0000   1.0000   1.0000
     1.0000   1.0000   1.0000   1.0000   1.0000   1.0000   1.0000   1.0000
     1.0000   1.0000   1.0000   1.0000   1.0000   1.0000   1.0000   1.0000
     1.0000   1.0000   1.0000   1.0000   1.0000   1.0000   1.0000   1.0000
     1.0000   1.0000   1.0000   1.0000   1.0000   1.0000   1.0000   1.0000
     1.0000   1.0000   1.0000   1.0000   1.0000   1.0000   1.0000   1.0000
     1.0000   1.0000   1.0000   1.0000   1.0000   1.0000   1.0000   1.0000
     1.0000   1.0000   1.0000   1.0000   1.0000   1.0000   1.0000   1.0000
     1.0000   1.0000   1.0000   1.0000   1.0000   1.0000   1.0000   1.0000
     1.0000   1.0000   1.0000   1.0000   1.0000   1.0000   1.0000   1.0000
     1.0000   1.0000   1.0000   1.0000   1.0000   1.0000   1.0000   1.0000
     1.0000   1.0000   1.0000   1.0000   1.0000   1.0000   1.0000   1.0000
     1.0000   1.0000   1.0000   1.0000   1.0000   1.0000   1.0000   1.0000
     1.0000   1.0000   1.0000   1.0000   1.0000   1.0000   1.0000   1.0000
     1.0000   1.0000   1.0000   1.0000   1.0000   1.0000   1.0000   1.0000
     1.0000   1.0000   1.0000   1.0000   1.0000   1.0000   1.0000   1.0000
     1.0000   1.0000   1.0000   1.0000   1.0000   1.0000   1.0000   1.0000
     1.0000   1.0000   1.0000   1.0000   1.0000   1.0000   1.0000   1.0000
     1.0000   1.0000   1.0000   1.0000   1.0000   1.0000   1.0000   1.0000
     1.0000   1.0000   1.0000   1.0000   1.0000   1.0000   1.0000   1.0000
     1.0000   1.0000   1.0000   1.0000   1.0000   1.0000   1.0000   1.0000
     1.0000   1.0000   1.0000   1.0000   1.0000   1.0000   1.0000   1.0000
     1.0000   1.0000   1.0000   1.0000   1.0000   1.0000   1.0000   1.0000
     1.0000   1.0000   1.0000   1.0000   1.0000   1.0000   1.0000   1.0000
     1.0000   1.0000   1.0000   1.0000   1.0000   1.0000   1.0000   1.0000
     1.0000   1.0000   1.0000   1.0000   1.0000   1.0000   1.0000   1.0000
     1.0000   1.0000   1.0000   1.0001   1.0213   1.0213   0.9523   0.6991
     0.1044   0.0110   0.0034   0.0002   0.0000   0.0000   0.0000   0.0000
     0.0000   0.0000   0.0000   0.0000   0.0000   0.0000   0.0000   0.0000
     0.0000   0.0000   0.0000   0.0000   0.0000   0.0000   0.0000   0.0000
     0.0000   0.0000   0.0000   0.0000   0.0000   0.0000   0.0000   0.0000
     0.0000   0.0000   0.0000   0.0000   0.0000   0.0000   0.0000   0.0000
     0.0000   0.0000   0.0000   0.0000   0.0000   0.0000   0.0000   0.0000
     0.0000   0.0000   0.0000   0.0000   0.0000   0.0000   0.0000   0.0000
     0.0000   0.0000   0.0000   0.0000   0.0000   0.0000   0.0000   0.0000

          k = 0.0000 0.2721-0.1668 ( 82017 PWs)   bands (ev):

  -126.3066-126.3065-126.3062-126.3061-126.3060-126.3060-126.3056-126.3055
  -126.3053-126.3053-126.3050-126.3049-126.3048-126.3047-126.3046-126.3044
  -126.2429-126.2428-126.2426-126.2425-126.2424-126.2423-126.2421-126.2419
  -126.2418-126.2416-126.2415-126.2413-126.2412-126.2411-126.2409-126.2407
   -80.4786 -80.4784 -80.4783 -80.4782 -80.4778 -80.4777 -80.4775 -80.4774
   -80.4768 -80.4766 -80.4765 -80.4764 -80.4760 -80.4759 -80.4758 -80.4756
   -80.4616 -80.4615 -80.4613 -80.4612 -80.4552 -80.4552 -80.4547 -80.4547
   -80.4540 -80.4536 -80.4531 -80.4527 -80.4510 -80.4509 -80.4498 -80.4497
   -80.4491 -80.4490 -80.4488 -80.4488 -80.4487 -80.4487 -80.4483 -80.4482
   -80.4453 -80.4452 -80.4445 -80.4444 -80.4388 -80.4387 -80.4376 -80.4376
   -80.4144 -80.4142 -80.4139 -80.4137 -80.4134 -80.4132 -80.4130 -80.4128
   -80.4119 -80.4118 -80.4114 -80.4113 -80.4109 -80.4108 -80.4105 -80.4103
   -80.3989 -80.3988 -80.3986 -80.3985 -80.3925 -80.3924 -80.3922 -80.3920
   -80.3867 -80.3865 -80.3862 -80.3860 -80.3859 -80.3856 -80.3855 -80.3854
   -80.3852 -80.3850 -80.3850 -80.3849 -80.3845 -80.3843 -80.3840 -80.3838
   -80.3833 -80.3832 -80.3830 -80.3829 -80.3768 -80.3766 -80.3765 -80.3763
    -9.0186  -8.3644  -8.2544  -8.1475  -7.9967  -7.9764  -7.9397  -7.9260
    -7.9216  -7.8621  -7.8362  -7.8337  -7.8315  -7.8235  -7.8224  -7.8099
    -7.7972  -7.7950  -7.7915  -7.7654  -7.7626  -7.7519  -7.7509  -7.7487
    -7.7421  -7.7331  -7.7208  -7.7072  -7.7013  -7.6912  -7.6895  -7.6866
    -7.6836  -7.6633  -7.6485  -7.6446  -7.6279  -7.6219  -7.6180  -7.6141
    -7.6003  -7.5850  -7.5831  -7.5816  -7.5716  -7.5658  -7.5576  -7.5397
    -7.5389  -7.5071  -7.4975  -7.4754  -7.4635  -7.4191  -7.4152  -7.4122
    -7.3846  -7.3831  -7.3449  -7.3438  -7.3428  -7.3368  -7.3194  -7.3170
    -7.3055  -7.2913  -7.2868  -7.2785  -7.2691  -7.2629  -7.2615  -7.2585
    -7.2483  -7.2416  -7.2394  -7.2374  -7.2312  -7.2291  -7.2149  -7.1742
    -7.1725  -7.1616  -7.1604  -7.1390  -7.1378  -7.1301  -7.1258  -7.1130
    -7.1100  -7.0918  -7.0870  -7.0835  -7.0810  -7.0766  -7.0703  -7.0671
    -7.0663  -7.0602  -7.0579  -7.0506  -7.0428  -7.0337  -7.0215  -7.0160
    -7.0069  -7.0029  -7.0004  -7.0000  -6.9925  -6.9889  -6.9679  -6.9639
    -6.9590  -6.9489  -6.9403  -6.9380  -6.9340  -6.9139  -6.8916  -6.8897
    -6.8801  -6.8800  -6.8767  -6.8651  -6.8605  -6.8599  -6.8593  -6.8543
    -6.8513  -6.8477  -6.8453  -6.8447  -6.8392  -6.8337  -6.8314  -6.8311
    -6.8271  -6.8236  -6.8170  -6.8149  -6.8120  -6.8044  -6.7989  -6.7955
    -6.7936  -6.7886  -6.7832  -6.7741  -6.7646  -6.7636  -6.7554  -6.7538
    -6.7391  -6.7340  -6.7183  -6.7128  -6.7030  -6.6891  -6.6648  -6.6553
    -6.6551  -6.6225  -6.6197  -6.4747  -6.4370  -6.1019  -5.6469  -5.6429
    -4.4449  -3.9737  -3.8804  -3.8089  -3.7256  -3.5689  -3.2997  -3.2096
    -3.1023  -2.8463  -2.5627  -2.5287  -2.3917  -2.0034  -1.9136  -1.4931
    -1.1439  -1.0436  -1.0365  -0.9232  -0.5755  -0.2261  -0.1790  -0.0691
     0.2046   0.3845   0.4582   0.6051   0.7416   1.0832   1.0845   1.3582
     1.3830   1.5018   1.6924   2.0051   2.2663   2.3634   2.4267   2.5442
     2.6289   2.6545   2.7430   2.8814   3.0525   3.0724   3.2536   3.2808
     3.5233   3.9841   3.9847   4.0687   4.1198   4.2779   4.2958   4.3139
     4.4742   4.4790   4.4972   4.7137   4.7245   4.7676   4.8710   4.8918
     4.9278   5.0069   5.1196   5.4010   5.5062   5.6318   5.6715   5.7637
     5.7671   5.8064   5.8917   5.8939   5.9111   5.9727   6.0473   6.1056
     6.1272   6.1324   6.2270   6.3576   6.3602   6.4797   6.4830   6.6254

     occupation numbers 
     1.0000   1.0000   1.0000   1.0000   1.0000   1.0000   1.0000   1.0000
     1.0000   1.0000   1.0000   1.0000   1.0000   1.0000   1.0000   1.0000
     1.0000   1.0000   1.0000   1.0000   1.0000   1.0000   1.0000   1.0000
     1.0000   1.0000   1.0000   1.0000   1.0000   1.0000   1.0000   1.0000
     1.0000   1.0000   1.0000   1.0000   1.0000   1.0000   1.0000   1.0000
     1.0000   1.0000   1.0000   1.0000   1.0000   1.0000   1.0000   1.0000
     1.0000   1.0000   1.0000   1.0000   1.0000   1.0000   1.0000   1.0000
     1.0000   1.0000   1.0000   1.0000   1.0000   1.0000   1.0000   1.0000
     1.0000   1.0000   1.0000   1.0000   1.0000   1.0000   1.0000   1.0000
     1.0000   1.0000   1.0000   1.0000   1.0000   1.0000   1.0000   1.0000
     1.0000   1.0000   1.0000   1.0000   1.0000   1.0000   1.0000   1.0000
     1.0000   1.0000   1.0000   1.0000   1.0000   1.0000   1.0000   1.0000
     1.0000   1.0000   1.0000   1.0000   1.0000   1.0000   1.0000   1.0000
     1.0000   1.0000   1.0000   1.0000   1.0000   1.0000   1.0000   1.0000
     1.0000   1.0000   1.0000   1.0000   1.0000   1.0000   1.0000   1.0000
     1.0000   1.0000   1.0000   1.0000   1.0000   1.0000   1.0000   1.0000
     1.0000   1.0000   1.0000   1.0000   1.0000   1.0000   1.0000   1.0000
     1.0000   1.0000   1.0000   1.0000   1.0000   1.0000   1.0000   1.0000
     1.0000   1.0000   1.0000   1.0000   1.0000   1.0000   1.0000   1.0000
     1.0000   1.0000   1.0000   1.0000   1.0000   1.0000   1.0000   1.0000
     1.0000   1.0000   1.0000   1.0000   1.0000   1.0000   1.0000   1.0000
     1.0000   1.0000   1.0000   1.0000   1.0000   1.0000   1.0000   1.0000
     1.0000   1.0000   1.0000   1.0000   1.0000   1.0000   1.0000   1.0000
     1.0000   1.0000   1.0000   1.0000   1.0000   1.0000   1.0000   1.0000
     1.0000   1.0000   1.0000   1.0000   1.0000   1.0000   1.0000   1.0000
     1.0000   1.0000   1.0000   1.0000   1.0000   1.0000   1.0000   1.0000
     1.0000   1.0000   1.0000   1.0000   1.0000   1.0000   1.0000   1.0000
     1.0000   1.0000   1.0000   1.0000   1.0000   1.0000   1.0000   1.0000
     1.0000   1.0000   1.0000   1.0000   1.0000   1.0000   1.0000   1.0000
     1.0000   1.0000   1.0000   1.0000   1.0000   1.0000   1.0000   1.0000
     1.0000   1.0000   1.0000   1.0000   1.0000   1.0000   1.0000   1.0000
     1.0000   1.0000   1.0000   1.0000   1.0000   1.0000   1.0000   1.0000
     1.0000   1.0000   1.0000   1.0000   1.0000   1.0000   1.0000   1.0000
     1.0000   1.0000   1.0000   1.0000   1.0000   1.0000   1.0000   1.0000
     1.0000   1.0000   1.0000   1.0000   1.0000   1.0000   1.0000   1.0000
     1.0000   1.0000   1.0000   1.0000   1.0000   1.0000   1.0000   1.0000
     1.0000   1.0000   1.0000   1.0000   1.0000   1.0000   1.0000   1.0000
     1.0000   1.0000   1.0000   1.0000   1.0000   1.0000   1.0000   1.0000
     1.0000   1.0000   1.0000   1.0000   1.0000   1.0000   1.0000   1.0000
     1.0000   1.0000   1.0000   1.0001   1.0213   1.0213   0.9523   0.6991
     0.1044   0.0110   0.0034   0.0002   0.0000   0.0000   0.0000   0.0000
     0.0000   0.0000   0.0000   0.0000   0.0000   0.0000   0.0000   0.0000
     0.0000   0.0000   0.0000   0.0000   0.0000   0.0000   0.0000   0.0000
     0.0000   0.0000   0.0000   0.0000   0.0000   0.0000   0.0000   0.0000
     0.0000   0.0000   0.0000   0.0000   0.0000   0.0000   0.0000   0.0000
     0.0000   0.0000   0.0000   0.0000   0.0000   0.0000   0.0000   0.0000
     0.0000   0.0000   0.0000   0.0000   0.0000   0.0000   0.0000   0.0000
     0.0000   0.0000   0.0000   0.0000   0.0000   0.0000   0.0000   0.0000

          k = 0.0000 0.2721-0.0141 ( 82008 PWs)   bands (ev):

  -126.3066-126.3065-126.3062-126.3061-126.3060-126.3060-126.3056-126.3055
  -126.3053-126.3053-126.3050-126.3049-126.3048-126.3047-126.3046-126.3044
  -126.2429-126.2428-126.2426-126.2425-126.2424-126.2423-126.2421-126.2419
  -126.2418-126.2416-126.2415-126.2413-126.2412-126.2411-126.2409-126.2407
   -80.4786 -80.4784 -80.4783 -80.4782 -80.4778 -80.4777 -80.4775 -80.4774
   -80.4768 -80.4766 -80.4765 -80.4764 -80.4760 -80.4759 -80.4758 -80.4756
   -80.4616 -80.4615 -80.4613 -80.4612 -80.4552 -80.4552 -80.4547 -80.4547
   -80.4540 -80.4536 -80.4531 -80.4528 -80.4510 -80.4509 -80.4498 -80.4498
   -80.4491 -80.4490 -80.4488 -80.4488 -80.4487 -80.4487 -80.4483 -80.4482
   -80.4453 -80.4452 -80.4445 -80.4444 -80.4388 -80.4387 -80.4376 -80.4376
   -80.4144 -80.4142 -80.4139 -80.4137 -80.4134 -80.4132 -80.4130 -80.4128
   -80.4119 -80.4118 -80.4114 -80.4113 -80.4109 -80.4108 -80.4105 -80.4103
   -80.3989 -80.3988 -80.3986 -80.3985 -80.3925 -80.3924 -80.3922 -80.3920
   -80.3867 -80.3865 -80.3862 -80.3860 -80.3859 -80.3856 -80.3855 -80.3854
   -80.3852 -80.3850 -80.3850 -80.3849 -80.3845 -80.3843 -80.3840 -80.3838
   -80.3833 -80.3832 -80.3830 -80.3829 -80.3768 -80.3766 -80.3765 -80.3763
    -9.0186  -8.3644  -8.2544  -8.1475  -7.9967  -7.9764  -7.9397  -7.9260
    -7.9216  -7.8621  -7.8362  -7.8337  -7.8315  -7.8235  -7.8224  -7.8099
    -7.7972  -7.7950  -7.7915  -7.7654  -7.7626  -7.7519  -7.7509  -7.7487
    -7.7421  -7.7331  -7.7208  -7.7072  -7.7013  -7.6912  -7.6895  -7.6866
    -7.6836  -7.6633  -7.6485  -7.6446  -7.6279  -7.6219  -7.6180  -7.6141
    -7.6003  -7.5850  -7.5831  -7.5816  -7.5716  -7.5658  -7.5576  -7.5397
    -7.5389  -7.5071  -7.4975  -7.4754  -7.4635  -7.4191  -7.4152  -7.4122
    -7.3847  -7.3831  -7.3449  -7.3438  -7.3428  -7.3368  -7.3194  -7.3170
    -7.3055  -7.2913  -7.2868  -7.2785  -7.2691  -7.2629  -7.2615  -7.2585
    -7.2483  -7.2416  -7.2394  -7.2374  -7.2312  -7.2291  -7.2149  -7.1742
    -7.1725  -7.1616  -7.1604  -7.1390  -7.1378  -7.1301  -7.1258  -7.1130
    -7.1100  -7.0918  -7.0870  -7.0835  -7.0810  -7.0766  -7.0703  -7.0671
    -7.0663  -7.0602  -7.0579  -7.0506  -7.0428  -7.0337  -7.0215  -7.0160
    -7.0069  -7.0029  -7.0004  -7.0000  -6.9925  -6.9889  -6.9679  -6.9639
    -6.9590  -6.9489  -6.9403  -6.9380  -6.9340  -6.9139  -6.8916  -6.8897
    -6.8801  -6.8800  -6.8767  -6.8651  -6.8605  -6.8599  -6.8593  -6.8543
    -6.8513  -6.8477  -6.8453  -6.8447  -6.8392  -6.8337  -6.8314  -6.8311
    -6.8271  -6.8236  -6.8170  -6.8149  -6.8120  -6.8044  -6.7989  -6.7955
    -6.7936  -6.7886  -6.7832  -6.7741  -6.7646  -6.7636  -6.7554  -6.7538
    -6.7392  -6.7340  -6.7182  -6.7128  -6.7030  -6.6891  -6.6648  -6.6553
    -6.6551  -6.6225  -6.6197  -6.4747  -6.4370  -6.1019  -5.6469  -5.6429
    -4.4449  -3.9737  -3.8804  -3.8089  -3.7256  -3.5689  -3.2997  -3.2096
    -3.1023  -2.8463  -2.5627  -2.5287  -2.3917  -2.0034  -1.9136  -1.4931
    -1.1439  -1.0436  -1.0365  -0.9232  -0.5755  -0.2261  -0.1790  -0.0691
     0.2046   0.3845   0.4583   0.6051   0.7416   1.0832   1.0845   1.3582
     1.3830   1.5018   1.6924   2.0051   2.2663   2.3634   2.4267   2.5442
     2.6289   2.6545   2.7430   2.8814   3.0525   3.0724   3.2536   3.2995
     3.5233   3.9548   3.9841   3.9916   4.1198   4.2779   4.2958   4.3138
     4.4530   4.4973   4.5587   4.6949   4.7137   4.7680   4.8747   4.8843
     4.9907   5.1743   5.2967   5.4135   5.5062   5.5826   5.6269   5.6295
     5.7670   5.7726   5.8173   5.8641   5.9044   5.9190   5.9507   6.0407
     6.0893   6.1193   6.1709   6.2532   6.2621   6.3559   6.5412   6.5994

     occupation numbers 
     1.0000   1.0000   1.0000   1.0000   1.0000   1.0000   1.0000   1.0000
     1.0000   1.0000   1.0000   1.0000   1.0000   1.0000   1.0000   1.0000
     1.0000   1.0000   1.0000   1.0000   1.0000   1.0000   1.0000   1.0000
     1.0000   1.0000   1.0000   1.0000   1.0000   1.0000   1.0000   1.0000
     1.0000   1.0000   1.0000   1.0000   1.0000   1.0000   1.0000   1.0000
     1.0000   1.0000   1.0000   1.0000   1.0000   1.0000   1.0000   1.0000
     1.0000   1.0000   1.0000   1.0000   1.0000   1.0000   1.0000   1.0000
     1.0000   1.0000   1.0000   1.0000   1.0000   1.0000   1.0000   1.0000
     1.0000   1.0000   1.0000   1.0000   1.0000   1.0000   1.0000   1.0000
     1.0000   1.0000   1.0000   1.0000   1.0000   1.0000   1.0000   1.0000
     1.0000   1.0000   1.0000   1.0000   1.0000   1.0000   1.0000   1.0000
     1.0000   1.0000   1.0000   1.0000   1.0000   1.0000   1.0000   1.0000
     1.0000   1.0000   1.0000   1.0000   1.0000   1.0000   1.0000   1.0000
     1.0000   1.0000   1.0000   1.0000   1.0000   1.0000   1.0000   1.0000
     1.0000   1.0000   1.0000   1.0000   1.0000   1.0000   1.0000   1.0000
     1.0000   1.0000   1.0000   1.0000   1.0000   1.0000   1.0000   1.0000
     1.0000   1.0000   1.0000   1.0000   1.0000   1.0000   1.0000   1.0000
     1.0000   1.0000   1.0000   1.0000   1.0000   1.0000   1.0000   1.0000
     1.0000   1.0000   1.0000   1.0000   1.0000   1.0000   1.0000   1.0000
     1.0000   1.0000   1.0000   1.0000   1.0000   1.0000   1.0000   1.0000
     1.0000   1.0000   1.0000   1.0000   1.0000   1.0000   1.0000   1.0000
     1.0000   1.0000   1.0000   1.0000   1.0000   1.0000   1.0000   1.0000
     1.0000   1.0000   1.0000   1.0000   1.0000   1.0000   1.0000   1.0000
     1.0000   1.0000   1.0000   1.0000   1.0000   1.0000   1.0000   1.0000
     1.0000   1.0000   1.0000   1.0000   1.0000   1.0000   1.0000   1.0000
     1.0000   1.0000   1.0000   1.0000   1.0000   1.0000   1.0000   1.0000
     1.0000   1.0000   1.0000   1.0000   1.0000   1.0000   1.0000   1.0000
     1.0000   1.0000   1.0000   1.0000   1.0000   1.0000   1.0000   1.0000
     1.0000   1.0000   1.0000   1.0000   1.0000   1.0000   1.0000   1.0000
     1.0000   1.0000   1.0000   1.0000   1.0000   1.0000   1.0000   1.0000
     1.0000   1.0000   1.0000   1.0000   1.0000   1.0000   1.0000   1.0000
     1.0000   1.0000   1.0000   1.0000   1.0000   1.0000   1.0000   1.0000
     1.0000   1.0000   1.0000   1.0000   1.0000   1.0000   1.0000   1.0000
     1.0000   1.0000   1.0000   1.0000   1.0000   1.0000   1.0000   1.0000
     1.0000   1.0000   1.0000   1.0000   1.0000   1.0000   1.0000   1.0000
     1.0000   1.0000   1.0000   1.0000   1.0000   1.0000   1.0000   1.0000
     1.0000   1.0000   1.0000   1.0000   1.0000   1.0000   1.0000   1.0000
     1.0000   1.0000   1.0000   1.0000   1.0000   1.0000   1.0000   1.0000
     1.0000   1.0000   1.0000   1.0000   1.0000   1.0000   1.0000   1.0000
     1.0000   1.0000   1.0000   1.0001   1.0213   1.0213   0.9523   0.6991
     0.1044   0.0110   0.0034   0.0002   0.0000   0.0000   0.0000   0.0000
     0.0000   0.0000   0.0000   0.0000   0.0000   0.0000   0.0000   0.0000
     0.0000   0.0000   0.0000   0.0000   0.0000   0.0000   0.0000   0.0000
     0.0000   0.0000   0.0000   0.0000   0.0000   0.0000   0.0000   0.0000
     0.0000   0.0000   0.0000   0.0000   0.0000   0.0000   0.0000   0.0000
     0.0000   0.0000   0.0000   0.0000   0.0000   0.0000   0.0000   0.0000
     0.0000   0.0000   0.0000   0.0000   0.0000   0.0000   0.0000   0.0000
     0.0000   0.0000   0.0000   0.0000   0.0000   0.0000   0.0000   0.0000

          k = 0.0000-0.5442-0.2773 ( 82030 PWs)   bands (ev):

  -126.3065-126.3064-126.3062-126.3062-126.3060-126.3060-126.3058-126.3057
  -126.3051-126.3050-126.3049-126.3049-126.3047-126.3047-126.3047-126.3045
  -126.2429-126.2427-126.2426-126.2425-126.2424-126.2424-126.2423-126.2421
  -126.2416-126.2414-126.2413-126.2413-126.2412-126.2411-126.2410-126.2408
   -80.4784 -80.4783 -80.4781 -80.4781 -80.4780 -80.4780 -80.4779 -80.4777
   -80.4764 -80.4763 -80.4762 -80.4762 -80.4761 -80.4760 -80.4760 -80.4758
   -80.4592 -80.4591 -80.4590 -80.4590 -80.4586 -80.4586 -80.4585 -80.4584
   -80.4537 -80.4537 -80.4532 -80.4532 -80.4505 -80.4505 -80.4503 -80.4503
   -80.4489 -80.4489 -80.4487 -80.4487 -80.4485 -80.4485 -80.4484 -80.4483
   -80.4416 -80.4415 -80.4413 -80.4413 -80.4405 -80.4405 -80.4403 -80.4402
   -80.4143 -80.4141 -80.4140 -80.4139 -80.4133 -80.4131 -80.4130 -80.4129
   -80.4118 -80.4117 -80.4116 -80.4114 -80.4108 -80.4106 -80.4105 -80.4104
   -80.3965 -80.3964 -80.3962 -80.3962 -80.3961 -80.3960 -80.3959 -80.3958
   -80.3866 -80.3865 -80.3863 -80.3862 -80.3857 -80.3856 -80.3854 -80.3853
   -80.3852 -80.3851 -80.3851 -80.3850 -80.3843 -80.3842 -80.3841 -80.3839
   -80.3795 -80.3794 -80.3793 -80.3792 -80.3791 -80.3791 -80.3790 -80.3788
    -8.7542  -8.7542  -8.1236  -8.1236  -7.9629  -7.9629  -7.8866  -7.8865
    -7.8755  -7.8754  -7.8369  -7.8369  -7.8317  -7.8317  -7.8211  -7.8211
    -7.8204  -7.8204  -7.7930  -7.7930  -7.7862  -7.7862  -7.7499  -7.7499
    -7.7368  -7.7368  -7.7358  -7.7358  -7.7263  -7.7263  -7.7077  -7.7077
    -7.6784  -7.6784  -7.6566  -7.6566  -7.6422  -7.6422  -7.6398  -7.6398
    -7.6052  -7.6052  -7.5925  -7.5925  -7.5913  -7.5913  -7.5510  -7.5510
    -7.5375  -7.5374  -7.5019  -7.5019  -7.4579  -7.4579  -7.3855  -7.3855
    -7.3837  -7.3837  -7.3787  -7.3787  -7.3248  -7.3248  -7.3244  -7.3244
    -7.3108  -7.3108  -7.2872  -7.2872  -7.2750  -7.2750  -7.2642  -7.2642
    -7.2449  -7.2448  -7.2325  -7.2325  -7.2160  -7.2160  -7.2041  -7.2041
    -7.1884  -7.1884  -7.1605  -7.1605  -7.1233  -7.1233  -7.1225  -7.1225
    -7.1017  -7.1016  -7.0702  -7.0702  -7.0681  -7.0681  -7.0414  -7.0413
    -7.0395  -7.0395  -7.0306  -7.0306  -7.0237  -7.0237  -7.0207  -7.0207
    -7.0125  -7.0125  -6.9912  -6.9912  -6.9643  -6.9643  -6.9473  -6.9473
    -6.9456  -6.9456  -6.9292  -6.9292  -6.8968  -6.8968  -6.8955  -6.8955
    -6.8941  -6.8941  -6.8888  -6.8888  -6.8568  -6.8568  -6.8566  -6.8566
    -6.8541  -6.8541  -6.8465  -6.8465  -6.8277  -6.8277  -6.8094  -6.8094
    -6.8047  -6.8047  -6.8040  -6.8040  -6.8036  -6.8036  -6.7779  -6.7779
    -6.7609  -6.7608  -6.7568  -6.7568  -6.7556  -6.7556  -6.7525  -6.7525
    -6.7500  -6.7499  -6.7368  -6.7368  -6.7211  -6.7211  -6.7063  -6.7063
    -6.7032  -6.7032  -6.5644  -6.5644  -6.1528  -6.1528  -5.1174  -5.1174
    -4.8061  -4.8061  -4.2085  -4.2085  -3.4051  -3.4051  -3.3377  -3.3377
    -2.8163  -2.8163  -2.4830  -2.4830  -1.9429  -1.9429  -1.8398  -1.8398
    -1.4823  -1.4823  -1.1925  -1.1925  -0.2598  -0.2598   0.3797   0.3797
     0.5829   0.5829   0.6874   0.6874   0.9135   0.9135   1.0285   1.0285
     1.6609   1.6609   1.6858   1.6858   1.7516   1.7516   2.4819   2.4819
     2.9674   2.9674   3.0843   3.0843   3.2113   3.2113   3.3193   3.3193
     3.5311   3.5311   3.7607   3.7607   4.0852   4.0852   4.4818   4.4818
     4.5337   4.5337   4.5857   4.5858   4.6017   4.6017   4.6690   4.6690
     4.9971   4.9971   4.9991   4.9991   5.2732   5.2732   5.3231   5.3231
     5.6099   5.6099   5.7192   5.7192   5.8668   5.8669   6.1669   6.1669
     6.4600   6.4601   6.4673   6.4673   6.7317   6.7521   6.7522   6.7839

     occupation numbers 
     1.0000   1.0000   1.0000   1.0000   1.0000   1.0000   1.0000   1.0000
     1.0000   1.0000   1.0000   1.0000   1.0000   1.0000   1.0000   1.0000
     1.0000   1.0000   1.0000   1.0000   1.0000   1.0000   1.0000   1.0000
     1.0000   1.0000   1.0000   1.0000   1.0000   1.0000   1.0000   1.0000
[...]
     atom   21 type  1   force =    -0.03038184   -0.00605713   -0.10937026
     atom   22 type  1   force =     0.07755994    0.01872671    0.12147978
     atom   23 type  1   force =    -0.03046846   -0.00595589   -0.10934776
     atom   24 type  1   force =     0.07760487    0.01876629    0.12144719
     atom   25 type  1   force =    -0.03058012   -0.00616749   -0.10934016
     atom   26 type  1   force =     0.07774808    0.01879179    0.12141510
     atom   27 type  1   force =    -0.03066464   -0.00610582   -0.10935050
     atom   28 type  1   force =     0.07779027    0.01868431    0.12140222
     atom   29 type  1   force =    -0.03065042   -0.00604786   -0.10932078
     atom   30 type  1   force =     0.07786897    0.01868799    0.12142508
     atom   31 type  1   force =    -0.03056621   -0.00610904   -0.10930741
     atom   32 type  1   force =     0.07782589    0.01879437    0.12143863
     The ionic contribution  to forces
     atom    1 type  1   force =    -6.33650908   -1.54285432 -130.05360916
     atom    2 type  1   force =    -2.49606165   -0.60717999  168.53189632
     atom    3 type  1   force =    -6.33822632   -1.54203243 -130.05478859
     atom    4 type  1   force =    -2.49626923   -0.60741610  168.53770216
     atom    5 type  1   force =    -6.34004804   -1.54094637 -130.05434597
     atom    6 type  1   force =    -2.49702162   -0.60747174  168.54150095
     atom    7 type  1   force =    -6.33834231   -1.54174009 -130.05316616
     atom    8 type  1   force =    -2.49685553   -0.60724686  168.53653134
     atom    9 type  1   force =    -6.34749644   -1.54190052 -130.05831524
     atom   10 type  1   force =    -2.49874378   -0.60791254  168.54739111
     atom   11 type  1   force =    -6.34564117   -1.54277675 -130.05637428
     atom   12 type  1   force =    -2.49876340   -0.60781263  168.54360727
     atom   13 type  1   force =    -6.34384151   -1.54535715 -130.05685958
     atom   14 type  1   force =    -2.49806471   -0.60764650  168.54068595
     atom   15 type  1   force =    -6.34563919   -1.54471336 -130.05880054
     atom   16 type  1   force =    -2.49804154   -0.60774452  168.54438055
     atom   17 type  1   force =     2.42595901    0.59132925 -168.40599350
     atom   18 type  1   force =     6.41345755    1.56003266  129.92149954
     atom   19 type  1   force =     2.42781396    0.58965654 -168.40621580
     atom   20 type  1   force =     6.41323596    1.56023671  129.91748577
     atom   21 type  1   force =     2.42726893    0.58930947 -168.40796893
     atom   22 type  1   force =     6.41256475    1.56010017  129.92262884
     atom   23 type  1   force =     2.42542589    0.59096791 -168.40775550
     atom   24 type  1   force =     6.41277915    1.55991899  129.92660462
     atom   25 type  1   force =     2.42891109    0.59007072 -168.41328217
     atom   26 type  1   force =     6.41053564    1.55957083  129.92596652
     atom   27 type  1   force =     2.42709403    0.59231181 -168.41204633
     atom   28 type  1   force =     6.41079047    1.55952862  129.93109112
     atom   29 type  1   force =     2.42776366    0.59139250 -168.40985414
     atom   30 type  1   force =     6.41134754    1.55956877  129.92826191
     atom   31 type  1   force =     2.42950564    0.58914397 -168.41100785
     atom   32 type  1   force =     6.41111224    1.55961296  129.92314979
     The local contribution  to forces
     atom    1 type  1   force =     6.40912809    1.56062626  130.16281735
     atom    2 type  1   force =     2.47387180    0.60308135 -168.62496687
     atom    3 type  1   force =     6.41097004    1.55969561  130.16411030
     atom    4 type  1   force =     2.47420257    0.60327586 -168.63075515
     atom    5 type  1   force =     6.41297486    1.55827436  130.16363972
     atom    6 type  1   force =     2.47480362    0.60331776 -168.63453113
     atom    7 type  1   force =     6.41114164    1.55917180  130.16234641
     atom    8 type  1   force =     2.47451374    0.60313180 -168.62958338
     atom    9 type  1   force =     6.42048178    1.55946312  130.16750081
     atom   10 type  1   force =     2.47632728    0.60378140 -168.64045771
     atom   11 type  1   force =     6.41849593    1.56037533  130.16554190
     atom   12 type  1   force =     2.47622442    0.60392101 -168.63676569
     atom   13 type  1   force =     6.41651209    1.56292147  130.16604446
     atom   14 type  1   force =     2.47568248    0.60342782 -168.63388520
     atom   15 type  1   force =     6.41844422    1.56223746  130.16801002
     atom   16 type  1   force =     2.47578031    0.60328737 -168.63748809
     atom   17 type  1   force =    -2.40385472   -0.58724235  168.50009582
     atom   18 type  1   force =    -6.48618410   -1.57742723 -130.03108526
     atom   19 type  1   force =    -2.40591480   -0.58533702  168.50038883
     atom   20 type  1   force =    -6.48584548   -1.57756785 -130.02713954
     atom   21 type  1   force =    -2.40532604   -0.58523294  168.50223534
     atom   22 type  1   force =    -6.48498286   -1.57768660 -130.03226488
     atom   23 type  1   force =    -2.40328043   -0.58712494  168.50195958
     atom   24 type  1   force =    -6.48531457   -1.57755934 -130.03617141
     atom   25 type  1   force =    -2.40654842   -0.58575544  168.50744083
     atom   26 type  1   force =    -6.48330652   -1.57728526 -130.03548238
     atom   27 type  1   force =    -2.40452347   -0.58813563  168.50625371
     atom   28 type  1   force =    -6.48368395   -1.57698137 -130.04058903
     atom   29 type  1   force =    -2.40522994   -0.58734088  168.50399389
     atom   30 type  1   force =    -6.48444615   -1.57700873 -130.03781477
     atom   31 type  1   force =    -2.40716706   -0.58494965  168.50512266
     atom   32 type  1   force =    -6.48408721   -1.57731016 -130.03272230
     The core correction contribution to forces
     atom    1 type  1   force =     0.00000000    0.00000000    0.00000000
     atom    2 type  1   force =     0.00000000    0.00000000    0.00000000
     atom    3 type  1   force =     0.00000000    0.00000000    0.00000000
     atom    4 type  1   force =     0.00000000    0.00000000    0.00000000
     atom    5 type  1   force =     0.00000000    0.00000000    0.00000000
     atom    6 type  1   force =     0.00000000    0.00000000    0.00000000
     atom    7 type  1   force =     0.00000000    0.00000000    0.00000000
     atom    8 type  1   force =     0.00000000    0.00000000    0.00000000
     atom    9 type  1   force =     0.00000000    0.00000000    0.00000000
     atom   10 type  1   force =     0.00000000    0.00000000    0.00000000
     atom   11 type  1   force =     0.00000000    0.00000000    0.00000000
     atom   12 type  1   force =     0.00000000    0.00000000    0.00000000
     atom   13 type  1   force =     0.00000000    0.00000000    0.00000000
     atom   14 type  1   force =     0.00000000    0.00000000    0.00000000
     atom   15 type  1   force =     0.00000000    0.00000000    0.00000000
     atom   16 type  1   force =     0.00000000    0.00000000    0.00000000
     atom   17 type  1   force =     0.00000000    0.00000000    0.00000000
     atom   18 type  1   force =     0.00000000    0.00000000    0.00000000
     atom   19 type  1   force =     0.00000000    0.00000000    0.00000000
     atom   20 type  1   force =     0.00000000    0.00000000    0.00000000
     atom   21 type  1   force =     0.00000000    0.00000000    0.00000000
     atom   22 type  1   force =     0.00000000    0.00000000    0.00000000
     atom   23 type  1   force =     0.00000000    0.00000000    0.00000000
     atom   24 type  1   force =     0.00000000    0.00000000    0.00000000
     atom   25 type  1   force =     0.00000000    0.00000000    0.00000000
     atom   26 type  1   force =     0.00000000    0.00000000    0.00000000
     atom   27 type  1   force =     0.00000000    0.00000000    0.00000000
     atom   28 type  1   force =     0.00000000    0.00000000    0.00000000
     atom   29 type  1   force =     0.00000000    0.00000000    0.00000000
     atom   30 type  1   force =     0.00000000    0.00000000    0.00000000
     atom   31 type  1   force =     0.00000000    0.00000000    0.00000000
     atom   32 type  1   force =     0.00000000    0.00000000    0.00000000
     The Hubbard contrib.    to forces
     atom    1 type  1   force =     0.00000000    0.00000000    0.00000000
     atom    2 type  1   force =     0.00000000    0.00000000    0.00000000
     atom    3 type  1   force =     0.00000000    0.00000000    0.00000000
     atom    4 type  1   force =     0.00000000    0.00000000    0.00000000
     atom    5 type  1   force =     0.00000000    0.00000000    0.00000000
     atom    6 type  1   force =     0.00000000    0.00000000    0.00000000
     atom    7 type  1   force =     0.00000000    0.00000000    0.00000000
     atom    8 type  1   force =     0.00000000    0.00000000    0.00000000
     atom    9 type  1   force =     0.00000000    0.00000000    0.00000000
     atom   10 type  1   force =     0.00000000    0.00000000    0.00000000
     atom   11 type  1   force =     0.00000000    0.00000000    0.00000000
     atom   12 type  1   force =     0.00000000    0.00000000    0.00000000
     atom   13 type  1   force =     0.00000000    0.00000000    0.00000000
     atom   14 type  1   force =     0.00000000    0.00000000    0.00000000
     atom   15 type  1   force =     0.00000000    0.00000000    0.00000000
     atom   16 type  1   force =     0.00000000    0.00000000    0.00000000
     atom   17 type  1   force =     0.00000000    0.00000000    0.00000000
     atom   18 type  1   force =     0.00000000    0.00000000    0.00000000
     atom   19 type  1   force =     0.00000000    0.00000000    0.00000000
     atom   20 type  1   force =     0.00000000    0.00000000    0.00000000
     atom   21 type  1   force =     0.00000000    0.00000000    0.00000000
     atom   22 type  1   force =     0.00000000    0.00000000    0.00000000
     atom   23 type  1   force =     0.00000000    0.00000000    0.00000000
     atom   24 type  1   force =     0.00000000    0.00000000    0.00000000
     atom   25 type  1   force =     0.00000000    0.00000000    0.00000000
     atom   26 type  1   force =     0.00000000    0.00000000    0.00000000
     atom   27 type  1   force =     0.00000000    0.00000000    0.00000000
     atom   28 type  1   force =     0.00000000    0.00000000    0.00000000
     atom   29 type  1   force =     0.00000000    0.00000000    0.00000000
     atom   30 type  1   force =     0.00000000    0.00000000    0.00000000
     atom   31 type  1   force =     0.00000000    0.00000000    0.00000000
     atom   32 type  1   force =     0.00000000    0.00000000    0.00000000
     The SCF correction term to forces
     atom    1 type  1   force =     0.00000000   -0.00000000   -0.00000000
     atom    2 type  1   force =    -0.00000000   -0.00000000    0.00008024
     atom    3 type  1   force =     0.00000000   -0.00000000   -0.00000000
     atom    4 type  1   force =    -0.00000000    0.00000000    0.00005028
     atom    5 type  1   force =    -0.00000000    0.00000000   -0.00000000
     atom    6 type  1   force =    -0.00000000    0.00000000    0.00001675
     atom    7 type  1   force =     0.00000000    0.00000000   -0.00000000
     atom    8 type  1   force =     0.00000000   -0.00000000    0.00004282
     atom    9 type  1   force =    -0.00000000    0.00000000   -0.00000000
     atom   10 type  1   force =     0.00000000   -0.00000000    0.00010520
     atom   11 type  1   force =    -0.00000000   -0.00000000   -0.00000000
     atom   12 type  1   force =     0.00000000   -0.00000000    0.00020283
     atom   13 type  1   force =     0.00000000   -0.00000000   -0.00000000
     atom   14 type  1   force =     0.00000000    0.00000000    0.00025210
     atom   15 type  1   force =    -0.00000000    0.00000000   -0.00000000
     atom   16 type  1   force =    -0.00000000    0.00000000    0.00015422
     atom   17 type  1   force =     0.00000000    0.00000000   -0.00000000
     atom   18 type  1   force =    -0.00000000   -0.00000000    0.00002700
     atom   19 type  1   force =     0.00000000   -0.00000000   -0.00000000
     atom   20 type  1   force =    -0.00000000   -0.00000000    0.00009800
     atom   21 type  1   force =     0.00000000    0.00000000   -0.00000000
     atom   22 type  1   force =    -0.00000000    0.00000000    0.00007502
     atom   23 type  1   force =     0.00000000    0.00000000   -0.00000000
     atom   24 type  1   force =    -0.00000000    0.00000000   -0.00000011
     atom   25 type  1   force =    -0.00000000   -0.00000000   -0.00000000
     atom   26 type  1   force =    -0.00000000    0.00000000   -0.00004509
     atom   27 type  1   force =    -0.00000000   -0.00000000   -0.00000000
     atom   28 type  1   force =     0.00000000   -0.00000000   -0.00005829
     atom   29 type  1   force =    -0.00000000    0.00000000   -0.00000000
     atom   30 type  1   force =     0.00000000   -0.00000000    0.00000386
     atom   31 type  1   force =    -0.00000000   -0.00000000   -0.00000000
     atom   32 type  1   force =     0.00000000    0.00000000    0.00002468

     Total force =     0.054705     Total SCF correction =     0.000416


     Computing stress (Cartesian axis) and pressure

          total   stress  (Ry/bohr**3)                   (kbar)     P=       -5.60
  -0.00009756  -0.00000389   0.00003098          -14.35       -0.57        4.56
  -0.00000389  -0.00006760   0.00000732           -0.57       -9.94        1.08
   0.00003098   0.00000732   0.00005092            4.56        1.08        7.49

     kinetic stress (kbar)   9193.00      6.39     -3.22
                                6.39   9170.93     -0.81
                               -3.22     -0.81   9218.01

     local   stress (kbar)-480530.75   2253.73  -1384.07
                             2253.73-489248.60   -336.65
                            -1384.07   -336.65 488342.08

     nonloc. stress (kbar)   -988.57     -3.93      0.01
                               -3.93   -973.18     -0.02
                                0.01     -0.02  -1011.96

     hartree stress (kbar) 260415.27   -970.93    571.86
                             -970.93 264171.28    139.09
                              571.86    139.09-218170.26

     exc-cor stress (kbar)  -4626.48     -0.59      0.34
                               -0.59  -4624.18      0.08
                                0.34      0.08  -4631.32

     corecor stress (kbar)      0.00      0.00      0.00
                                0.00      0.00      0.00
                                0.00      0.00      0.00

     ewald   stress (kbar) 216523.19  -1285.25    819.64
                            -1285.25 221493.81    199.39
                              819.64    199.39-273739.06

     hubbard stress (kbar)      0.00      0.00      0.00
                                0.00      0.00      0.00
                                0.00      0.00      0.00

     DFT-D   stress (kbar)      0.00      0.00      0.00
                                0.00      0.00      0.00
                                0.00      0.00      0.00

     XDM     stress (kbar)      0.00      0.00      0.00
                                0.00      0.00      0.00
                                0.00      0.00      0.00

     dft-nl  stress (kbar)      0.00      0.00      0.00
                                0.00      0.00      0.00
                                0.00      0.00      0.00

     TS-vdW  stress (kbar)      0.00      0.00      0.00
                                0.00      0.00      0.00
                                0.00      0.00      0.00

     MDB     stress (kbar)      0.00      0.00      0.00
                                0.00      0.00      0.00
                                0.00      0.00      0.00

     3D-RISM stress (kbar)      0.00      0.00      0.00
                                0.00      0.00      0.00
                                0.00      0.00      0.00

     Energy error            =      3.8E-03 Ry
     Gradient error          =      1.5E-02 Ry/Bohr

     number of scf cycles    =   3
     number of bfgs steps    =   2

     energy             old  =  -14768.9250307398 Ry
     energy             new  =  -14768.9288356682 Ry

     CASE: energy            _new < energy            _old

     new trust radius        =       0.0285439105 bohr
     new conv_thr            =       0.0000002243 Ry


ATOMIC_POSITIONS (angstrom)
Zn              -1.0735555020        1.0841422740        1.1977638520    0   0   0
Zn              -5.3677772520        0.0395004440        3.2850408297    0   0   1
Zn              -1.6915202180        3.6244172720        1.1977638520    0   0   0
Zn              -5.9857419670        2.5797754420        3.2851233573    0   0   1
Zn              -2.3094849330        6.1646922700        1.1977638520    0   0   0
Zn              -6.6037066830        5.1200504400        3.2851804958    0   0   1
Zn              -2.9274496490        8.7049672680        1.1977638520    0   0   0
Zn              -7.2216713980        7.6603254380        3.2851008011    0   0   1
Zn               4.4565958650        1.0841422740        1.1977638520    0   0   0
Zn               0.1623741150        0.0395004440        3.2853701792    0   0   1
Zn               3.8386311500        3.6244172720        1.1977638520    0   0   0
Zn              -0.4555906000        2.5797754420        3.2853359008    0   0   1
Zn               3.2206664340        6.1646922700        1.1977638520    0   0   0
Zn              -1.0735553160        5.1200504400        3.2852989959    0   0   1
Zn               2.6027017180        8.7049672680        1.1977638520    0   0   0
Zn              -1.6915200310        7.6603254380        3.2853314938    0   0   1
Zn               1.6915204050        0.4114908950        0.8555454680    0   0   0
Zn              -2.6027013440       -0.6331509350        2.9356495118    0   0   1
Zn               1.0735556890        2.9517658930        0.8555454680    0   0   0
Zn              -3.2206660590        1.9071240630        2.9356127961    0   0   1
Zn               0.4555909740        5.4920408910        0.8555454680    0   0   0
Zn              -3.8386307750        4.4473990610        2.9356822367    0   0   1
Zn              -0.1623737420        8.0323158890        0.8555454680    0   0   0
Zn              -4.4565954900        6.9876740590        2.9357156290    0   0   1
Zn               7.2216717720        0.4114908950        0.8555454680    0   0   0
Zn               2.9274500230       -0.6331509350        2.9357086758    0   0   1
Zn               6.6037070570        2.9517658930        0.8555454680    0   0   0
Zn               2.3094853080        1.9071240630        2.9357800188    0   0   1
Zn               5.9857423410        5.4920408910        0.8555454680    0   0   0
Zn               1.6915205920        4.4473990610        2.9357561239    0   0   1
Zn               5.3677776250        8.0323158890        0.8555454680    0   0   0
Zn               1.0735558770        6.9876740590        2.9356907118    0   0   1



     Writing config-only to output data dir ./tmp/Zn101_2x4x2_relax_fix.save/ :
     XML data file
     NEW-OLD atomic charge density approx. for the potential

     negative rho (up, down):  1.479E-03 0.000E+00

     total cpu time spent up to now is    38154.3 secs

     Self-consistent Calculation

     iteration #  1     ecut=    50.00 Ry     beta= 0.70
     Davidson diagonalization with overlap

---- Real-time Memory Report at c_bands before calling an iterative solver
          1461 MiB given to the printing process from OS
             0 MiB allocation reported by mallinfo(arena+hblkhd)
         60873 MiB available memory on the node where the printing process lives
------------------
