
     Program PWSCF v.7.3.1 starts on 10Mar2025 at  3: 8:44 

     This program is part of the open-source Quantum ESPRESSO suite
     for quantum simulation of materials; please cite
         "P. Giannozzi et al., J. Phys.:Condens. Matter 21 395502 (2009);
         "P. Giannozzi et al., J. Phys.:Condens. Matter 29 465901 (2017);
         "P. Giannozzi et al., J. Chem. Phys. 152 154105 (2020);
          URL http://www.quantum-espresso.org", 
     in publications or presentations arising from this work. More details at
     http://www.quantum-espresso.org/quote

     Parallel version (MPI), running on    28 processors

     MPI processes distributed on     1 nodes
     80047 MiB available memory on the printing compute node when the environment starts

     Waiting for input...
     Reading input from standard input
Warning: card &CELL ignored
Warning: card   CELL_DOFREE = 'ALL' ignored
Warning: card / ignored

     Current dimensions of program PWSCF are:
     Max number of different atomic species (ntypx) = 10
     Max number of k-points (npk) =  40000
     Max angular momentum in pseudopotentials (lmaxx) =  4
     Found identity + (  0.0000  0.2500  0.0000) symmetry
     This is a supercell, fractional translations are disabled

     K-points division:     npool     =       4
     R & G space division:  proc/nbgrp/npool/nimage =       7
     Subspace diagonalization in iterative solution of the eigenvalue problem:
     one sub-group per band group will be used
     custom distributed-memory algorithm (size of sub-group:  2*  2 procs)


     Parallelization info
     --------------------
     sticks:   dense  smooth     PW     G-vecs:    dense   smooth      PW
     Min        1652     828    224               245898    86951   12286
     Max        1653     829    225               245901    86953   12290
     Sum       11565    5799   1573              1721291   608663   86009

     Using Slab Decomposition



     bravais-lattice index     =            0
     lattice parameter (alat)  =      18.4179  a.u.
     unit-cell volume          =   12743.7144 (a.u.)^3
     number of atoms/cell      =           32
     number of atomic types    =            1
     number of electrons       =       640.00
     number of Kohn-Sham states=          384
     kinetic-energy cutoff     =      50.0000  Ry
     charge density cutoff     =     400.0000  Ry
     scf convergence threshold =      7.3E-07
     mixing beta               =       0.7000
     number of iterations used =            8  plain     mixing
     energy convergence thresh.=      1.0E-05
     force convergence thresh. =      5.0E-04
     Exchange-correlation= SLA  PW   PBE  PBE
                           (   1   4   3   4   0   0   0)
     nstep                     =          100


     celldm(1)=  18.417879  celldm(2)=   0.000000  celldm(3)=   0.000000
     celldm(4)=   0.000000  celldm(5)=   0.000000  celldm(6)=   0.000000

     crystal axes: (cart. coord. in units of alat)
               a(1) = (   1.000000   0.000000   0.000000 )  
               a(2) = (   0.000000   1.072963   0.000000 )  
               a(3) = (   0.000000  -1.097569   1.901046 )  

     reciprocal axes: (cart. coord. in units 2 pi/alat)
               b(1) = (  1.000000  0.000000 -0.000000 )  
               b(2) = ( -0.000000  0.931999  0.538090 )  
               b(3) = (  0.000000  0.000000  0.526026 )  


     PseudoPot. # 1 for Zn read from file:
     /home/ys/qepseudo/SSSP_1.3.0_PBE_efficiency/Zn_pbe_v1.uspp.F.UPF
     MD5 check sum: df62231357ef9e81f77b2b3087fa5675
     Pseudo is Ultrasoft, Zval = 20.0
     Generated by new atomic code, or converted to UPF format
     Using radial grid of  943 points,  6 beta functions with: 
                l(1) =   0
                l(2) =   0
                l(3) =   1
                l(4) =   1
                l(5) =   2
                l(6) =   2
     Q(r) pseudized with  8 coefficients,  rinner =    1.100   1.100   1.100
                                                       1.100   1.100

     atomic species   valence    mass     pseudopotential
     Zn               20.00    65.38000     Zn( 1.00)

     No symmetry found


                                    s                        frac. trans.

      isym =  1     identity                                     

 cryst.   s( 1) = (     1          0          0      )
                  (     0          1          0      )
                  (     0          0          1      )

 cart.    s( 1) = (  1.0000000  0.0000000  0.0000000 )
                  (  0.0000000  1.0000000  0.0000000 )
                  (  0.0000000  0.0000000  1.0000000 )


   Cartesian axes

     site n.     atom                  positions (alat units)
         1        Zn     tau(   1) = (   0.1250000   0.1341203   0.0774344  )
         2        Zn     tau(   2) = (   0.1250000  -0.0000000   0.3097376  )
         3        Zn     tau(   3) = (   0.1250000   0.4023610   0.0774344  )
         4        Zn     tau(   4) = (   0.1250000   0.2682407   0.3097376  )
         5        Zn     tau(   5) = (   0.1250000   0.6706017   0.0774344  )
         6        Zn     tau(   6) = (   0.1250000   0.5364813   0.3097376  )
         7        Zn     tau(   7) = (   0.1250000   0.9388423   0.0774344  )
         8        Zn     tau(   8) = (   0.1250000   0.8047220   0.3097376  )
         9        Zn     tau(   9) = (   0.6250000   0.1341203   0.0774344  )
        10        Zn     tau(  10) = (   0.6250000  -0.0000000   0.3097376  )
        11        Zn     tau(  11) = (   0.6250000   0.4023610   0.0774344  )
        12        Zn     tau(  12) = (   0.6250000   0.2682407   0.3097376  )
        13        Zn     tau(  13) = (   0.6250000   0.6706017   0.0774344  )
        14        Zn     tau(  14) = (   0.6250000   0.5364813   0.3097376  )
        15        Zn     tau(  15) = (   0.6250000   0.9388423   0.0774344  )
        16        Zn     tau(  16) = (   0.6250000   0.8047220   0.3097376  )
        17        Zn     tau(  17) = (   0.3750000  -0.0000000   0.1548688  )
        18        Zn     tau(  18) = (   0.3750000  -0.1341203   0.3871721  )
        19        Zn     tau(  19) = (   0.3750000   0.2682407   0.1548688  )
        20        Zn     tau(  20) = (   0.3750000   0.1341203   0.3871721  )
        21        Zn     tau(  21) = (   0.3750000   0.5364813   0.1548688  )
        22        Zn     tau(  22) = (   0.3750000   0.4023610   0.3871721  )
        23        Zn     tau(  23) = (   0.3750000   0.8047220   0.1548688  )
        24        Zn     tau(  24) = (   0.3750000   0.6706017   0.3871721  )
        25        Zn     tau(  25) = (   0.8750000  -0.0000000   0.1548688  )
        26        Zn     tau(  26) = (   0.8750000  -0.1341203   0.3871721  )
        27        Zn     tau(  27) = (   0.8750000   0.2682407   0.1548688  )
        28        Zn     tau(  28) = (   0.8750000   0.1341203   0.3871721  )
        29        Zn     tau(  29) = (   0.8750000   0.5364813   0.1548688  )
        30        Zn     tau(  30) = (   0.8750000   0.4023610   0.3871721  )
        31        Zn     tau(  31) = (   0.8750000   0.8047220   0.1548688  )
        32        Zn     tau(  32) = (   0.8750000   0.6706017   0.3871721  )

   Crystallographic axes

     site n.     atom                  positions (cryst. coord.)
         1        Zn     tau(   1) = (  0.1250000  0.1666667  0.0407325  )
         2        Zn     tau(   2) = (  0.1250000  0.1666667  0.1629301  )
         3        Zn     tau(   3) = (  0.1250000  0.4166667  0.0407325  )
         4        Zn     tau(   4) = (  0.1250000  0.4166667  0.1629301  )
         5        Zn     tau(   5) = (  0.1250000  0.6666667  0.0407325  )
         6        Zn     tau(   6) = (  0.1250000  0.6666667  0.1629301  )
         7        Zn     tau(   7) = (  0.1250000  0.9166667  0.0407325  )
         8        Zn     tau(   8) = (  0.1250000  0.9166667  0.1629301  )
         9        Zn     tau(   9) = (  0.6250000  0.1666667  0.0407325  )
        10        Zn     tau(  10) = (  0.6250000  0.1666667  0.1629301  )
        11        Zn     tau(  11) = (  0.6250000  0.4166667  0.0407325  )
        12        Zn     tau(  12) = (  0.6250000  0.4166667  0.1629301  )
        13        Zn     tau(  13) = (  0.6250000  0.6666667  0.0407325  )
        14        Zn     tau(  14) = (  0.6250000  0.6666667  0.1629301  )
        15        Zn     tau(  15) = (  0.6250000  0.9166667  0.0407325  )
        16        Zn     tau(  16) = (  0.6250000  0.9166667  0.1629301  )
        17        Zn     tau(  17) = (  0.3750000  0.0833333  0.0814651  )
        18        Zn     tau(  18) = (  0.3750000  0.0833333  0.2036627  )
        19        Zn     tau(  19) = (  0.3750000  0.3333333  0.0814651  )
        20        Zn     tau(  20) = (  0.3750000  0.3333333  0.2036627  )
        21        Zn     tau(  21) = (  0.3750000  0.5833333  0.0814651  )
        22        Zn     tau(  22) = (  0.3750000  0.5833333  0.2036627  )
        23        Zn     tau(  23) = (  0.3750000  0.8333333  0.0814651  )
        24        Zn     tau(  24) = (  0.3750000  0.8333333  0.2036627  )
        25        Zn     tau(  25) = (  0.8750000  0.0833333  0.0814651  )
        26        Zn     tau(  26) = (  0.8750000  0.0833333  0.2036627  )
        27        Zn     tau(  27) = (  0.8750000  0.3333333  0.0814651  )
        28        Zn     tau(  28) = (  0.8750000  0.3333333  0.2036627  )
        29        Zn     tau(  29) = (  0.8750000  0.5833333  0.0814651  )
        30        Zn     tau(  30) = (  0.8750000  0.5833333  0.2036627  )
        31        Zn     tau(  31) = (  0.8750000  0.8333333  0.0814651  )
        32        Zn     tau(  32) = (  0.8750000  0.8333333  0.2036627  )

     number of k points=    36  Marzari-Vanderbilt smearing, width (Ry)=  0.0200
                       cart. coord. in units 2pi/alat
        k(    1) = (   0.0000000   0.0000000   0.0000000), wk =   0.0312500
        k(    2) = (   0.0000000   0.0000000   0.1315066), wk =   0.0625000
        k(    3) = (   0.0000000   0.0000000  -0.2630131), wk =   0.0312500
        k(    4) = (   0.0000000   0.2329997   0.1345224), wk =   0.0625000
        k(    5) = (   0.0000000   0.2329997   0.2660290), wk =   0.0625000
        k(    6) = (   0.0000000   0.2329997  -0.1284907), wk =   0.0625000
        k(    7) = (   0.0000000   0.2329997   0.0030159), wk =   0.0625000
        k(    8) = (   0.0000000  -0.4659994  -0.2690449), wk =   0.0312500
        k(    9) = (   0.0000000  -0.4659994  -0.1375383), wk =   0.0625000
        k(   10) = (   0.0000000  -0.4659994  -0.5320580), wk =   0.0312500
        k(   11) = (   0.2500000   0.0000000   0.0000000), wk =   0.0625000
        k(   12) = (   0.2500000   0.0000000   0.1315066), wk =   0.0625000
        k(   13) = (   0.2500000   0.0000000  -0.2630131), wk =   0.0625000
        k(   14) = (   0.2500000   0.2329997   0.1345224), wk =   0.0625000
        k(   15) = (   0.2500000   0.2329997   0.2660290), wk =   0.0625000
        k(   16) = (   0.2500000   0.2329997  -0.1284907), wk =   0.0625000
        k(   17) = (   0.2500000   0.2329997   0.0030159), wk =   0.0625000
        k(   18) = (   0.2500000  -0.4659994  -0.2690449), wk =   0.0625000
        k(   19) = (   0.2500000  -0.4659994  -0.1375383), wk =   0.0625000
        k(   20) = (   0.2500000  -0.4659994  -0.5320580), wk =   0.0625000
        k(   21) = (  -0.5000000   0.0000000   0.0000000), wk =   0.0312500
        k(   22) = (  -0.5000000   0.0000000   0.1315066), wk =   0.0625000
        k(   23) = (  -0.5000000   0.0000000  -0.2630131), wk =   0.0312500
        k(   24) = (  -0.5000000   0.2329997   0.1345224), wk =   0.0625000
        k(   25) = (  -0.5000000   0.2329997   0.2660290), wk =   0.0625000
        k(   26) = (  -0.5000000   0.2329997  -0.1284907), wk =   0.0625000
        k(   27) = (  -0.5000000   0.2329997   0.0030159), wk =   0.0625000
        k(   28) = (  -0.5000000  -0.4659994  -0.2690449), wk =   0.0312500
        k(   29) = (  -0.5000000  -0.4659994  -0.1375383), wk =   0.0625000
        k(   30) = (  -0.5000000  -0.4659994  -0.5320580), wk =   0.0312500
        k(   31) = (   0.2500000   0.0000000  -0.1315066), wk =   0.0625000
        k(   32) = (   0.2500000  -0.2329997  -0.1345224), wk =   0.0625000
        k(   33) = (   0.2500000  -0.2329997  -0.2660290), wk =   0.0625000
        k(   34) = (   0.2500000  -0.2329997   0.1284907), wk =   0.0625000
        k(   35) = (   0.2500000  -0.2329997  -0.0030159), wk =   0.0625000
        k(   36) = (   0.2500000   0.4659994   0.1375383), wk =   0.0625000

                       cryst. coord.
        k(    1) = (   0.0000000   0.0000000   0.0000000), wk =   0.0312500
        k(    2) = (   0.0000000   0.0000000   0.2500000), wk =   0.0625000
        k(    3) = (   0.0000000   0.0000000  -0.5000000), wk =   0.0312500
        k(    4) = (   0.0000000   0.2500000   0.0000000), wk =   0.0625000
        k(    5) = (   0.0000000   0.2500000   0.2500000), wk =   0.0625000
        k(    6) = (   0.0000000   0.2500000  -0.5000000), wk =   0.0625000
        k(    7) = (   0.0000000   0.2500000  -0.2500000), wk =   0.0625000
        k(    8) = (   0.0000000  -0.5000000   0.0000000), wk =   0.0312500
        k(    9) = (   0.0000000  -0.5000000   0.2500000), wk =   0.0625000
        k(   10) = (   0.0000000  -0.5000000  -0.5000000), wk =   0.0312500
        k(   11) = (   0.2500000   0.0000000   0.0000000), wk =   0.0625000
        k(   12) = (   0.2500000   0.0000000   0.2500000), wk =   0.0625000
        k(   13) = (   0.2500000   0.0000000  -0.5000000), wk =   0.0625000
        k(   14) = (   0.2500000   0.2500000   0.0000000), wk =   0.0625000
        k(   15) = (   0.2500000   0.2500000   0.2500000), wk =   0.0625000
        k(   16) = (   0.2500000   0.2500000  -0.5000000), wk =   0.0625000
        k(   17) = (   0.2500000   0.2500000  -0.2500000), wk =   0.0625000
        k(   18) = (   0.2500000  -0.5000000   0.0000000), wk =   0.0625000
        k(   19) = (   0.2500000  -0.5000000   0.2500000), wk =   0.0625000
        k(   20) = (   0.2500000  -0.5000000  -0.5000000), wk =   0.0625000
        k(   21) = (  -0.5000000   0.0000000   0.0000000), wk =   0.0312500
        k(   22) = (  -0.5000000   0.0000000   0.2500000), wk =   0.0625000
        k(   23) = (  -0.5000000   0.0000000  -0.5000000), wk =   0.0312500
        k(   24) = (  -0.5000000   0.2500000   0.0000000), wk =   0.0625000
        k(   25) = (  -0.5000000   0.2500000   0.2500000), wk =   0.0625000
        k(   26) = (  -0.5000000   0.2500000  -0.5000000), wk =   0.0625000
        k(   27) = (  -0.5000000   0.2500000  -0.2500000), wk =   0.0625000
        k(   28) = (  -0.5000000  -0.5000000   0.0000000), wk =   0.0312500
        k(   29) = (  -0.5000000  -0.5000000   0.2500000), wk =   0.0625000
        k(   30) = (  -0.5000000  -0.5000000  -0.5000000), wk =   0.0312500
        k(   31) = (   0.2500000   0.0000000  -0.2500000), wk =   0.0625000
        k(   32) = (   0.2500000  -0.2500000   0.0000000), wk =   0.0625000
        k(   33) = (   0.2500000  -0.2500000  -0.2500000), wk =   0.0625000
        k(   34) = (   0.2500000  -0.2500000   0.5000000), wk =   0.0625000
        k(   35) = (   0.2500000  -0.2500000   0.2500000), wk =   0.0625000
        k(   36) = (   0.2500000   0.5000000  -0.2500000), wk =   0.0625000

     Dense  grid:  1721291 G-vectors     FFT dimensions: ( 120, 125, 270)

     Smooth grid:   608663 G-vectors     FFT dimensions: (  90,  90, 192)

     Dynamical RAM for                 wfc:      63.69 MB

     Dynamical RAM for     wfc (w. buffer):     636.86 MB

     Dynamical RAM for           str. fact:       3.75 MB

     Dynamical RAM for           local pot:       0.00 MB

     Dynamical RAM for          nlocal pot:      95.53 MB

     Dynamical RAM for                qrad:       1.61 MB

     Dynamical RAM for          rho,v,vnew:      24.65 MB

     Dynamical RAM for               rhoin:       8.22 MB

     Dynamical RAM for            rho*nmix:      60.03 MB

     Dynamical RAM for           G-vectors:      14.73 MB

     Dynamical RAM for          h,s,v(r/c):       6.75 MB

     Dynamical RAM for          <psi|beta>:       3.38 MB

     Dynamical RAM for                 psi:     127.37 MB

     Dynamical RAM for                hpsi:     127.37 MB

     Dynamical RAM for                spsi:     127.37 MB

     Dynamical RAM for      wfcinit/wfcrot:     141.95 MB

     Dynamical RAM for           addusdens:     207.30 MB

     Dynamical RAM for          addusforce:     264.65 MB

     Dynamical RAM for         addusstress:     189.95 MB

     Estimated static dynamical RAM per process >     815.16 MB

     Estimated max dynamical RAM per process >       1.24 GB

     Estimated total dynamical RAM >      33.43 GB

     Initial potential from superposition of free atoms

     starting charge     639.9955, renormalised to     640.0000

     negative rho (up, down):  1.263E-03 0.000E+00
     Starting wfcs are  416 randomized atomic wfcs

     total cpu time spent up to now is      269.2 secs

     Self-consistent Calculation

     iteration #  1     ecut=    50.00 Ry     beta= 0.70
     Davidson diagonalization with overlap

---- Real-time Memory Report at c_bands before calling an iterative solver
           934 MiB given to the printing process from OS
             0 MiB allocation reported by mallinfo(arena+hblkhd)
         56162 MiB available memory on the node where the printing process lives
------------------
     ethr =  1.00E-02,  avg # of iterations =  8.8

     Threshold (ethr) on eigenvalues was too large:
     Diagonalizing with lowered threshold

     Davidson diagonalization with overlap

---- Real-time Memory Report at c_bands before calling an iterative solver
          1261 MiB given to the printing process from OS
             0 MiB allocation reported by mallinfo(arena+hblkhd)
         55430 MiB available memory on the node where the printing process lives
------------------
     ethr =  1.24E-04,  avg # of iterations = 10.3

     negative rho (up, down):  5.448E-04 0.000E+00

     total cpu time spent up to now is     2263.2 secs

     total energy              =  -14768.67443362 Ry
     estimated scf accuracy    <       0.83625878 Ry

     iteration #  2     ecut=    50.00 Ry     beta= 0.70
     Davidson diagonalization with overlap

---- Real-time Memory Report at c_bands before calling an iterative solver
          1273 MiB given to the printing process from OS
             0 MiB allocation reported by mallinfo(arena+hblkhd)
         55639 MiB available memory on the node where the printing process lives
------------------
     ethr =  1.31E-04,  avg # of iterations =  3.3

     negative rho (up, down):  1.065E-03 0.000E+00

     total cpu time spent up to now is     3465.1 secs

     total energy              =  -14768.82478076 Ry
     estimated scf accuracy    <       1.18019549 Ry

     iteration #  3     ecut=    50.00 Ry     beta= 0.70
     Davidson diagonalization with overlap

---- Real-time Memory Report at c_bands before calling an iterative solver
          1312 MiB given to the printing process from OS
             0 MiB allocation reported by mallinfo(arena+hblkhd)
         55614 MiB available memory on the node where the printing process lives
------------------
     ethr =  1.31E-04,  avg # of iterations =  2.0

     negative rho (up, down):  1.220E-03 0.000E+00

     total cpu time spent up to now is     4446.0 secs

     total energy              =  -14769.05361126 Ry
     estimated scf accuracy    <       0.00653297 Ry

     iteration #  4     ecut=    50.00 Ry     beta= 0.70
     Davidson diagonalization with overlap

---- Real-time Memory Report at c_bands before calling an iterative solver
          1312 MiB given to the printing process from OS
             0 MiB allocation reported by mallinfo(arena+hblkhd)
         55597 MiB available memory on the node where the printing process lives
------------------
     ethr =  1.02E-06,  avg # of iterations =  8.9

     negative rho (up, down):  1.286E-03 0.000E+00

     total cpu time spent up to now is     5646.9 secs

     total energy              =  -14769.05443949 Ry
     estimated scf accuracy    <       0.00846104 Ry

     iteration #  5     ecut=    50.00 Ry     beta= 0.70
     Davidson diagonalization with overlap

---- Real-time Memory Report at c_bands before calling an iterative solver
          1317 MiB given to the printing process from OS
             0 MiB allocation reported by mallinfo(arena+hblkhd)
         55578 MiB available memory on the node where the printing process lives
------------------
     ethr =  1.02E-06,  avg # of iterations =  6.0

     negative rho (up, down):  1.304E-03 0.000E+00

     total cpu time spent up to now is     6563.6 secs

     total energy              =  -14769.05542731 Ry
     estimated scf accuracy    <       0.00104801 Ry

     iteration #  6     ecut=    50.00 Ry     beta= 0.70
     Davidson diagonalization with overlap

---- Real-time Memory Report at c_bands before calling an iterative solver
          1317 MiB given to the printing process from OS
             0 MiB allocation reported by mallinfo(arena+hblkhd)
         55558 MiB available memory on the node where the printing process lives
------------------
     ethr =  1.64E-07,  avg # of iterations =  2.0

     negative rho (up, down):  1.310E-03 0.000E+00

     total cpu time spent up to now is     7538.1 secs

     total energy              =  -14769.05557574 Ry
     estimated scf accuracy    <       0.00010601 Ry

     iteration #  7     ecut=    50.00 Ry     beta= 0.70
     Davidson diagonalization with overlap

---- Real-time Memory Report at c_bands before calling an iterative solver
          1317 MiB given to the printing process from OS
             0 MiB allocation reported by mallinfo(arena+hblkhd)
         55540 MiB available memory on the node where the printing process lives
------------------
     ethr =  1.66E-08,  avg # of iterations =  2.0

     negative rho (up, down):  1.312E-03 0.000E+00

     total cpu time spent up to now is     8543.1 secs

     total energy              =  -14769.05560199 Ry
     estimated scf accuracy    <       0.00010097 Ry

     iteration #  8     ecut=    50.00 Ry     beta= 0.70
     Davidson diagonalization with overlap

---- Real-time Memory Report at c_bands before calling an iterative solver
          1317 MiB given to the printing process from OS
             0 MiB allocation reported by mallinfo(arena+hblkhd)
         55519 MiB available memory on the node where the printing process lives
------------------
     ethr =  1.58E-08,  avg # of iterations =  1.9

     negative rho (up, down):  1.312E-03 0.000E+00

     total cpu time spent up to now is     9372.2 secs

     total energy              =  -14769.05560945 Ry
     estimated scf accuracy    <       0.00002602 Ry

     iteration #  9     ecut=    50.00 Ry     beta= 0.70
     Davidson diagonalization with overlap

---- Real-time Memory Report at c_bands before calling an iterative solver
          1317 MiB given to the printing process from OS
             0 MiB allocation reported by mallinfo(arena+hblkhd)
         55503 MiB available memory on the node where the printing process lives
------------------
     ethr =  4.07E-09,  avg # of iterations =  1.6

     negative rho (up, down):  1.312E-03 0.000E+00

     total cpu time spent up to now is    10186.5 secs

     total energy              =  -14769.05560890 Ry
     estimated scf accuracy    <       0.00000695 Ry

     iteration # 10     ecut=    50.00 Ry     beta= 0.70
     Davidson diagonalization with overlap

---- Real-time Memory Report at c_bands before calling an iterative solver
          1317 MiB given to the printing process from OS
             0 MiB allocation reported by mallinfo(arena+hblkhd)
         55481 MiB available memory on the node where the printing process lives
------------------
     ethr =  1.09E-09,  avg # of iterations =  2.0

     negative rho (up, down):  1.313E-03 0.000E+00

     total cpu time spent up to now is    11088.5 secs

     total energy              =  -14769.05560884 Ry
     estimated scf accuracy    <       0.00000196 Ry

     iteration # 11     ecut=    50.00 Ry     beta= 0.70
     Davidson diagonalization with overlap

---- Real-time Memory Report at c_bands before calling an iterative solver
          1317 MiB given to the printing process from OS
             0 MiB allocation reported by mallinfo(arena+hblkhd)
         55483 MiB available memory on the node where the printing process lives
------------------
     ethr =  3.06E-10,  avg # of iterations =  2.0

     negative rho (up, down):  1.313E-03 0.000E+00

     total cpu time spent up to now is    12066.5 secs

     End of self-consistent calculation

          k = 0.0000 0.0000 0.0000 ( 76139 PWs)   bands (ev):

  -126.0224-126.0222-126.0221-126.0219-126.0216-126.0214-126.0214-126.0213
  -126.0212-126.0211-126.0211-126.0208-126.0206-126.0204-126.0203-126.0200
  -125.9693-125.9690-125.9689-125.9688-125.9684-125.9683-125.9681-125.9681
  -125.9680-125.9680-125.9679-125.9679-125.9675-125.9672-125.9671-125.9670
   -80.1874 -80.1869 -80.1868 -80.1857 -80.1857 -80.1856 -80.1853 -80.1852
   -80.1851 -80.1850 -80.1842 -80.1840 -80.1838 -80.1835 -80.1833 -80.1825
   -80.1814 -80.1809 -80.1808 -80.1801 -80.1739 -80.1727 -80.1725 -80.1711
   -80.1704 -80.1703 -80.1695 -80.1694 -80.1694 -80.1692 -80.1690 -80.1689
   -80.1686 -80.1685 -80.1685 -80.1685 -80.1684 -80.1683 -80.1683 -80.1680
   -80.1678 -80.1672 -80.1670 -80.1660 -80.1560 -80.1557 -80.1555 -80.1552
   -80.1429 -80.1426 -80.1425 -80.1424 -80.1423 -80.1423 -80.1421 -80.1420
   -80.1420 -80.1419 -80.1418 -80.1418 -80.1418 -80.1417 -80.1416 -80.1414
   -80.1167 -80.1164 -80.1162 -80.1161 -80.1161 -80.1158 -80.1157 -80.1153
   -80.1151 -80.1151 -80.1148 -80.1148 -80.1147 -80.1147 -80.1146 -80.1146
   -80.1142 -80.1139 -80.1139 -80.1137 -80.1048 -80.1048 -80.1045 -80.1045
   -80.1044 -80.1044 -80.1043 -80.1043 -80.0928 -80.0925 -80.0924 -80.0923
    -8.9977  -7.9448  -7.9448  -7.8710  -7.8709  -7.7961  -7.7360  -7.6802
    -7.6801  -7.6537  -7.6011  -7.6010  -7.5816  -7.5732  -7.5600  -7.5442
    -7.5301  -7.5301  -7.5300  -7.5300  -7.4927  -7.4926  -7.4891  -7.4890
    -7.4293  -7.4293  -7.4167  -7.4166  -7.4102  -7.4102  -7.3971  -7.3880
    -7.3880  -7.3532  -7.3256  -7.3255  -7.3208  -7.3208  -7.3208  -7.3207
    -7.3173  -7.2901  -7.2901  -7.2900  -7.2900  -7.2014  -7.1762  -7.1686
    -7.1685  -7.1666  -7.1665  -7.1664  -7.1663  -7.1563  -7.1562  -7.1441
    -7.1406  -7.1405  -7.1090  -7.1089  -7.0808  -7.0683  -7.0683  -7.0609
    -7.0239  -7.0239  -7.0027  -6.9857  -6.9857  -6.9856  -6.9856  -6.9848
    -6.9847  -6.9752  -6.9585  -6.9153  -6.9153  -6.8972  -6.8971  -6.8733
    -6.8728  -6.8727  -6.8654  -6.8654  -6.8644  -6.8644  -6.8643  -6.8643
    -6.8631  -6.8631  -6.8631  -6.8567  -6.8406  -6.8174  -6.8119  -6.8118
    -6.7877  -6.7877  -6.7876  -6.7875  -6.7874  -6.7874  -6.7768  -6.7765
    -6.7357  -6.7355  -6.7354  -6.7346  -6.7287  -6.7261  -6.7261  -6.6997
    -6.6827  -6.6827  -6.6827  -6.6826  -6.6630  -6.6407  -6.6407  -6.6357
    -6.6355  -6.6166  -6.6023  -6.6022  -6.5781  -6.5780  -6.5756  -6.5756
    -6.5692  -6.5690  -6.5592  -6.5592  -6.5592  -6.5592  -6.5570  -6.5570
    -6.5351  -6.5350  -6.5349  -6.5348  -6.5346  -6.5073  -6.5060  -6.5059
    -6.4790  -6.4789  -6.4789  -6.4789  -6.4742  -6.4245  -6.4220  -6.4220
    -6.4086  -6.4075  -6.4072  -6.3962  -6.3962  -6.3875  -6.3873  -6.3786
    -6.3785  -6.3597  -6.3377  -6.3374  -6.3348  -5.2719  -5.2719  -5.2718
    -5.2718  -4.8482  -3.6610  -3.6610  -3.3233  -3.3232  -2.6980  -2.5132
    -2.0134  -2.0134  -2.0134  -2.0134  -1.8824  -1.4912  -1.3382  -1.3381
    -1.2554  -1.0438  -1.0438  -0.4847  -0.4847  -0.0544  -0.0544  -0.0194
     0.2421   0.2421   0.4750   0.4751   0.9219   1.4309   1.8916   2.1002
     2.1002   2.1003   2.1003   2.3290   2.3292   2.3609   2.4412   2.4413
     2.9460   3.0671   3.0671   3.1371   3.1371   3.8267   3.8267   3.8680
     4.0707   4.1058   4.2230   4.6198   4.6198   4.6605   4.7606   4.7606
     4.8315   5.0778   5.2257   5.4812   5.4812   5.6742   5.6742   5.9332
     5.9332   5.9332   5.9333   6.0334   6.0795   6.0795   6.2830   6.2830
     6.2830   6.2830   6.3594   6.3595   6.4058   6.4058   6.4529   6.5893
     6.5894   6.6364   6.6364   6.7710   6.7710   6.8184   6.8692   7.0373

     occupation numbers 
     1.0000   1.0000   1.0000   1.0000   1.0000   1.0000   1.0000   1.0000
     1.0000   1.0000   1.0000   1.0000   1.0000   1.0000   1.0000   1.0000
     1.0000   1.0000   1.0000   1.0000   1.0000   1.0000   1.0000   1.0000
     1.0000   1.0000   1.0000   1.0000   1.0000   1.0000   1.0000   1.0000
     1.0000   1.0000   1.0000   1.0000   1.0000   1.0000   1.0000   1.0000
     1.0000   1.0000   1.0000   1.0000   1.0000   1.0000   1.0000   1.0000
     1.0000   1.0000   1.0000   1.0000   1.0000   1.0000   1.0000   1.0000
     1.0000   1.0000   1.0000   1.0000   1.0000   1.0000   1.0000   1.0000
     1.0000   1.0000   1.0000   1.0000   1.0000   1.0000   1.0000   1.0000
     1.0000   1.0000   1.0000   1.0000   1.0000   1.0000   1.0000   1.0000
     1.0000   1.0000   1.0000   1.0000   1.0000   1.0000   1.0000   1.0000
     1.0000   1.0000   1.0000   1.0000   1.0000   1.0000   1.0000   1.0000
     1.0000   1.0000   1.0000   1.0000   1.0000   1.0000   1.0000   1.0000
     1.0000   1.0000   1.0000   1.0000   1.0000   1.0000   1.0000   1.0000
     1.0000   1.0000   1.0000   1.0000   1.0000   1.0000   1.0000   1.0000
     1.0000   1.0000   1.0000   1.0000   1.0000   1.0000   1.0000   1.0000
     1.0000   1.0000   1.0000   1.0000   1.0000   1.0000   1.0000   1.0000
     1.0000   1.0000   1.0000   1.0000   1.0000   1.0000   1.0000   1.0000
     1.0000   1.0000   1.0000   1.0000   1.0000   1.0000   1.0000   1.0000
     1.0000   1.0000   1.0000   1.0000   1.0000   1.0000   1.0000   1.0000
     1.0000   1.0000   1.0000   1.0000   1.0000   1.0000   1.0000   1.0000
     1.0000   1.0000   1.0000   1.0000   1.0000   1.0000   1.0000   1.0000
     1.0000   1.0000   1.0000   1.0000   1.0000   1.0000   1.0000   1.0000
     1.0000   1.0000   1.0000   1.0000   1.0000   1.0000   1.0000   1.0000
     1.0000   1.0000   1.0000   1.0000   1.0000   1.0000   1.0000   1.0000
     1.0000   1.0000   1.0000   1.0000   1.0000   1.0000   1.0000   1.0000
     1.0000   1.0000   1.0000   1.0000   1.0000   1.0000   1.0000   1.0000
     1.0000   1.0000   1.0000   1.0000   1.0000   1.0000   1.0000   1.0000
     1.0000   1.0000   1.0000   1.0000   1.0000   1.0000   1.0000   1.0000
     1.0000   1.0000   1.0000   1.0000   1.0000   1.0000   1.0000   1.0000
     1.0000   1.0000   1.0000   1.0000   1.0000   1.0000   1.0000   1.0000
     1.0000   1.0000   1.0000   1.0000   1.0000   1.0000   1.0000   1.0000
     1.0000   1.0000   1.0000   1.0000   1.0000   1.0000   1.0000   1.0000
     1.0000   1.0000   1.0000   1.0000   1.0000   1.0000   1.0000   1.0000
     1.0000   1.0000   1.0000   1.0000   1.0000   1.0000   1.0000   1.0000
     1.0000   1.0000   1.0000   1.0000   1.0000   1.0000   1.0000   1.0000
     1.0000   1.0000   1.0000   1.0000   1.0000   1.0000   1.0000   1.0000
     1.0000   1.0000   1.0000   1.0000   1.0000   1.0000   1.0000   1.0000
     1.0000   1.0000   1.0000   1.0000   1.0000   1.0000   1.0000   1.0000
     1.0000   1.0000   1.0000   1.0037   1.0037   1.0699   1.0699   1.0460
     0.4785   0.4784   0.0682   0.0681   0.0000   0.0000   0.0000   0.0000
     0.0000   0.0000   0.0000   0.0000   0.0000   0.0000   0.0000   0.0000
     0.0000   0.0000   0.0000   0.0000   0.0000   0.0000   0.0000   0.0000
     0.0000   0.0000   0.0000   0.0000   0.0000   0.0000   0.0000   0.0000
     0.0000   0.0000   0.0000   0.0000   0.0000   0.0000   0.0000   0.0000
     0.0000   0.0000   0.0000   0.0000   0.0000   0.0000   0.0000   0.0000
     0.0000   0.0000   0.0000   0.0000   0.0000   0.0000   0.0000   0.0000
     0.0000   0.0000   0.0000   0.0000   0.0000   0.0000   0.0000   0.0000

          k = 0.0000 0.0000 0.1315 ( 76105 PWs)   bands (ev):

  -126.0224-126.0222-126.0221-126.0219-126.0216-126.0214-126.0214-126.0213
  -126.0212-126.0211-126.0211-126.0208-126.0206-126.0204-126.0203-126.0200
  -125.9693-125.9690-125.9689-125.9688-125.9684-125.9683-125.9681-125.9681
  -125.9680-125.9679-125.9679-125.9679-125.9675-125.9672-125.9671-125.9670
   -80.1874 -80.1869 -80.1868 -80.1857 -80.1857 -80.1855 -80.1853 -80.1852
   -80.1851 -80.1850 -80.1842 -80.1840 -80.1839 -80.1835 -80.1834 -80.1825
   -80.1814 -80.1810 -80.1808 -80.1801 -80.1739 -80.1726 -80.1725 -80.1711
   -80.1704 -80.1703 -80.1695 -80.1694 -80.1694 -80.1692 -80.1690 -80.1688
   -80.1686 -80.1685 -80.1685 -80.1684 -80.1684 -80.1683 -80.1682 -80.1680
   -80.1678 -80.1672 -80.1670 -80.1660 -80.1560 -80.1557 -80.1555 -80.1552
   -80.1429 -80.1426 -80.1425 -80.1424 -80.1423 -80.1423 -80.1421 -80.1420
   -80.1420 -80.1419 -80.1418 -80.1418 -80.1418 -80.1417 -80.1416 -80.1414
   -80.1167 -80.1164 -80.1162 -80.1161 -80.1161 -80.1158 -80.1157 -80.1153
   -80.1151 -80.1151 -80.1148 -80.1148 -80.1147 -80.1147 -80.1146 -80.1146
   -80.1143 -80.1139 -80.1139 -80.1137 -80.1048 -80.1048 -80.1045 -80.1045
   -80.1044 -80.1044 -80.1043 -80.1043 -80.0928 -80.0925 -80.0924 -80.0923
    -8.9977  -7.9448  -7.9448  -7.8709  -7.8709  -7.7961  -7.7360  -7.6802
    -7.6801  -7.6537  -7.6011  -7.6010  -7.5816  -7.5732  -7.5600  -7.5442
    -7.5301  -7.5301  -7.5300  -7.5300  -7.4927  -7.4926  -7.4891  -7.4890
    -7.4293  -7.4293  -7.4167  -7.4166  -7.4102  -7.4102  -7.3971  -7.3880
    -7.3880  -7.3532  -7.3256  -7.3255  -7.3208  -7.3208  -7.3208  -7.3207
    -7.3173  -7.2901  -7.2901  -7.2900  -7.2900  -7.2014  -7.1762  -7.1685
    -7.1685  -7.1666  -7.1665  -7.1664  -7.1663  -7.1563  -7.1562  -7.1441
    -7.1406  -7.1405  -7.1090  -7.1089  -7.0808  -7.0683  -7.0683  -7.0609
    -7.0239  -7.0239  -7.0027  -6.9857  -6.9857  -6.9856  -6.9856  -6.9848
    -6.9847  -6.9752  -6.9585  -6.9153  -6.9153  -6.8972  -6.8971  -6.8732
    -6.8728  -6.8727  -6.8654  -6.8654  -6.8644  -6.8644  -6.8643  -6.8643
    -6.8631  -6.8631  -6.8631  -6.8566  -6.8406  -6.8174  -6.8119  -6.8118
    -6.7878  -6.7877  -6.7876  -6.7875  -6.7874  -6.7874  -6.7768  -6.7765
    -6.7356  -6.7354  -6.7354  -6.7346  -6.7286  -6.7261  -6.7261  -6.6997
    -6.6827  -6.6827  -6.6827  -6.6826  -6.6630  -6.6407  -6.6407  -6.6357
    -6.6355  -6.6166  -6.6023  -6.6022  -6.5781  -6.5780  -6.5756  -6.5756
    -6.5692  -6.5690  -6.5592  -6.5592  -6.5592  -6.5592  -6.5570  -6.5570
    -6.5351  -6.5350  -6.5349  -6.5348  -6.5346  -6.5074  -6.5060  -6.5059
    -6.4790  -6.4789  -6.4789  -6.4789  -6.4742  -6.4245  -6.4220  -6.4220
    -6.4086  -6.4075  -6.4072  -6.3962  -6.3962  -6.3875  -6.3873  -6.3786
    -6.3785  -6.3597  -6.3377  -6.3374  -6.3348  -5.2719  -5.2719  -5.2718
    -5.2718  -4.8482  -3.6610  -3.6610  -3.3233  -3.3232  -2.6980  -2.5132
    -2.0134  -2.0134  -2.0134  -2.0134  -1.8824  -1.4912  -1.3382  -1.3381
    -1.2554  -1.0438  -1.0438  -0.4847  -0.4847  -0.0544  -0.0544  -0.0194
     0.2421   0.2421   0.4750   0.4751   0.9219   1.4309   1.8917   2.1002
     2.1002   2.1003   2.1003   2.3290   2.3292   2.3601   2.4412   2.4413
     2.9460   3.0671   3.0671   3.1371   3.1372   3.8255   3.8258   3.8680
     4.0707   4.1632   4.2230   4.5364   4.6198   4.6198   4.7541   4.7541
     4.8315   5.0778   5.2669   5.5308   5.5526   5.7502   5.7502   5.9182
     5.9304   5.9304   5.9311   5.9311   5.9597   6.1888   6.2787   6.2787
     6.2798   6.2798   6.3006   6.3006   6.3594   6.3595   6.4529   6.5695
     6.5695   6.6342   6.6364   6.6364   6.6452   6.8184   6.8692   7.1194

     occupation numbers 
     1.0000   1.0000   1.0000   1.0000   1.0000   1.0000   1.0000   1.0000
     1.0000   1.0000   1.0000   1.0000   1.0000   1.0000   1.0000   1.0000
     1.0000   1.0000   1.0000   1.0000   1.0000   1.0000   1.0000   1.0000
     1.0000   1.0000   1.0000   1.0000   1.0000   1.0000   1.0000   1.0000
     1.0000   1.0000   1.0000   1.0000   1.0000   1.0000   1.0000   1.0000
     1.0000   1.0000   1.0000   1.0000   1.0000   1.0000   1.0000   1.0000
     1.0000   1.0000   1.0000   1.0000   1.0000   1.0000   1.0000   1.0000
     1.0000   1.0000   1.0000   1.0000   1.0000   1.0000   1.0000   1.0000
     1.0000   1.0000   1.0000   1.0000   1.0000   1.0000   1.0000   1.0000
     1.0000   1.0000   1.0000   1.0000   1.0000   1.0000   1.0000   1.0000
     1.0000   1.0000   1.0000   1.0000   1.0000   1.0000   1.0000   1.0000
     1.0000   1.0000   1.0000   1.0000   1.0000   1.0000   1.0000   1.0000
     1.0000   1.0000   1.0000   1.0000   1.0000   1.0000   1.0000   1.0000
     1.0000   1.0000   1.0000   1.0000   1.0000   1.0000   1.0000   1.0000
     1.0000   1.0000   1.0000   1.0000   1.0000   1.0000   1.0000   1.0000
     1.0000   1.0000   1.0000   1.0000   1.0000   1.0000   1.0000   1.0000
     1.0000   1.0000   1.0000   1.0000   1.0000   1.0000   1.0000   1.0000
     1.0000   1.0000   1.0000   1.0000   1.0000   1.0000   1.0000   1.0000
     1.0000   1.0000   1.0000   1.0000   1.0000   1.0000   1.0000   1.0000
     1.0000   1.0000   1.0000   1.0000   1.0000   1.0000   1.0000   1.0000
     1.0000   1.0000   1.0000   1.0000   1.0000   1.0000   1.0000   1.0000
     1.0000   1.0000   1.0000   1.0000   1.0000   1.0000   1.0000   1.0000
     1.0000   1.0000   1.0000   1.0000   1.0000   1.0000   1.0000   1.0000
     1.0000   1.0000   1.0000   1.0000   1.0000   1.0000   1.0000   1.0000
     1.0000   1.0000   1.0000   1.0000   1.0000   1.0000   1.0000   1.0000
     1.0000   1.0000   1.0000   1.0000   1.0000   1.0000   1.0000   1.0000
     1.0000   1.0000   1.0000   1.0000   1.0000   1.0000   1.0000   1.0000
     1.0000   1.0000   1.0000   1.0000   1.0000   1.0000   1.0000   1.0000
     1.0000   1.0000   1.0000   1.0000   1.0000   1.0000   1.0000   1.0000
     1.0000   1.0000   1.0000   1.0000   1.0000   1.0000   1.0000   1.0000
     1.0000   1.0000   1.0000   1.0000   1.0000   1.0000   1.0000   1.0000
     1.0000   1.0000   1.0000   1.0000   1.0000   1.0000   1.0000   1.0000
     1.0000   1.0000   1.0000   1.0000   1.0000   1.0000   1.0000   1.0000
     1.0000   1.0000   1.0000   1.0000   1.0000   1.0000   1.0000   1.0000
     1.0000   1.0000   1.0000   1.0000   1.0000   1.0000   1.0000   1.0000
     1.0000   1.0000   1.0000   1.0000   1.0000   1.0000   1.0000   1.0000
     1.0000   1.0000   1.0000   1.0000   1.0000   1.0000   1.0000   1.0000
     1.0000   1.0000   1.0000   1.0000   1.0000   1.0000   1.0000   1.0000
     1.0000   1.0000   1.0000   1.0000   1.0000   1.0000   1.0000   1.0000
     1.0000   1.0000   1.0000   1.0037   1.0037   1.0699   1.0699   1.0460
     0.4784   0.4784   0.0682   0.0681   0.0000   0.0000   0.0000   0.0000
     0.0000   0.0000   0.0000   0.0000   0.0000   0.0000   0.0000   0.0000
     0.0000   0.0000   0.0000   0.0000   0.0000   0.0000   0.0000   0.0000
     0.0000   0.0000   0.0000   0.0000   0.0000   0.0000   0.0000   0.0000
     0.0000   0.0000   0.0000   0.0000   0.0000   0.0000   0.0000   0.0000
     0.0000   0.0000   0.0000   0.0000   0.0000   0.0000   0.0000   0.0000
     0.0000   0.0000   0.0000   0.0000   0.0000   0.0000   0.0000   0.0000
     0.0000   0.0000   0.0000   0.0000   0.0000   0.0000   0.0000   0.0000

          k = 0.0000 0.0000-0.2630 ( 76046 PWs)   bands (ev):

  -126.0224-126.0222-126.0221-126.0219-126.0216-126.0214-126.0214-126.0213
  -126.0212-126.0211-126.0211-126.0208-126.0206-126.0204-126.0203-126.0200
  -125.9693-125.9690-125.9689-125.9688-125.9684-125.9683-125.9681-125.9681
  -125.9680-125.9679-125.9679-125.9679-125.9675-125.9672-125.9671-125.9670
   -80.1874 -80.1869 -80.1868 -80.1857 -80.1857 -80.1855 -80.1853 -80.1851
   -80.1851 -80.1850 -80.1841 -80.1840 -80.1839 -80.1835 -80.1834 -80.1825
   -80.1814 -80.1810 -80.1808 -80.1801 -80.1739 -80.1726 -80.1725 -80.1711
   -80.1704 -80.1703 -80.1695 -80.1694 -80.1694 -80.1692 -80.1690 -80.1688
   -80.1686 -80.1685 -80.1685 -80.1684 -80.1684 -80.1683 -80.1682 -80.1680
   -80.1678 -80.1672 -80.1670 -80.1660 -80.1560 -80.1557 -80.1555 -80.1552
   -80.1429 -80.1426 -80.1425 -80.1424 -80.1423 -80.1422 -80.1421 -80.1420
   -80.1420 -80.1418 -80.1418 -80.1418 -80.1417 -80.1417 -80.1416 -80.1414
   -80.1167 -80.1164 -80.1162 -80.1161 -80.1161 -80.1158 -80.1157 -80.1153
   -80.1151 -80.1151 -80.1148 -80.1148 -80.1147 -80.1147 -80.1146 -80.1146
   -80.1142 -80.1139 -80.1139 -80.1137 -80.1048 -80.1048 -80.1045 -80.1045
   -80.1044 -80.1044 -80.1043 -80.1043 -80.0928 -80.0925 -80.0924 -80.0923
    -8.9977  -7.9448  -7.9448  -7.8709  -7.8709  -7.7961  -7.7360  -7.6802
    -7.6801  -7.6537  -7.6011  -7.6010  -7.5816  -7.5732  -7.5600  -7.5442
    -7.5301  -7.5301  -7.5300  -7.5300  -7.4927  -7.4926  -7.4891  -7.4890
    -7.4293  -7.4293  -7.4167  -7.4166  -7.4102  -7.4102  -7.3971  -7.3880
    -7.3880  -7.3532  -7.3256  -7.3255  -7.3208  -7.3208  -7.3208  -7.3207
    -7.3173  -7.2901  -7.2900  -7.2900  -7.2900  -7.2014  -7.1762  -7.1685
    -7.1685  -7.1666  -7.1665  -7.1664  -7.1663  -7.1562  -7.1562  -7.1441
    -7.1405  -7.1405  -7.1090  -7.1089  -7.0808  -7.0683  -7.0683  -7.0609
    -7.0239  -7.0239  -7.0027  -6.9857  -6.9857  -6.9856  -6.9856  -6.9848
    -6.9847  -6.9752  -6.9585  -6.9153  -6.9153  -6.8972  -6.8971  -6.8732
    -6.8728  -6.8727  -6.8654  -6.8654  -6.8644  -6.8644  -6.8643  -6.8643
    -6.8631  -6.8631  -6.8631  -6.8566  -6.8406  -6.8174  -6.8119  -6.8118
    -6.7878  -6.7877  -6.7876  -6.7875  -6.7874  -6.7873  -6.7768  -6.7765
    -6.7356  -6.7354  -6.7354  -6.7346  -6.7286  -6.7261  -6.7261  -6.6997
    -6.6827  -6.6827  -6.6827  -6.6826  -6.6630  -6.6407  -6.6407  -6.6357
    -6.6355  -6.6166  -6.6023  -6.6022  -6.5781  -6.5780  -6.5756  -6.5756
    -6.5692  -6.5690  -6.5592  -6.5592  -6.5592  -6.5592  -6.5570  -6.5569
    -6.5351  -6.5350  -6.5349  -6.5348  -6.5346  -6.5074  -6.5060  -6.5059
    -6.4790  -6.4789  -6.4789  -6.4789  -6.4742  -6.4245  -6.4220  -6.4220
    -6.4086  -6.4075  -6.4072  -6.3962  -6.3962  -6.3875  -6.3873  -6.3786
    -6.3785  -6.3597  -6.3377  -6.3374  -6.3348  -5.2719  -5.2719  -5.2718
    -5.2718  -4.8482  -3.6610  -3.6610  -3.3233  -3.3232  -2.6980  -2.5132
    -2.0134  -2.0134  -2.0134  -2.0134  -1.8824  -1.4912  -1.3382  -1.3381
    -1.2554  -1.0438  -1.0438  -0.4847  -0.4847  -0.0544  -0.0544  -0.0194
     0.2421   0.2421   0.4750   0.4751   0.9219   1.4309   1.8917   2.1002
     2.1003   2.1003   2.1003   2.3290   2.3292   2.3593   2.4412   2.4413
     2.9460   3.0671   3.0671   3.1372   3.1372   3.8246   3.8246   3.8680
     4.0707   4.2230   4.3073   4.3393   4.6198   4.6198   4.7478   4.7478
     4.8315   5.0778   5.2941   5.6905   5.6906   5.7294   5.7294   5.8884
     5.8884   5.9283   5.9283   5.9283   5.9283   6.0987   6.0987   6.2757
     6.2757   6.2758   6.2758   6.3594   6.3595   6.4529   6.4624   6.5252
     6.5252   6.6364   6.6364   6.6700   6.6701   6.8184   6.8671   6.8692

     occupation numbers 
     1.0000   1.0000   1.0000   1.0000   1.0000   1.0000   1.0000   1.0000
     1.0000   1.0000   1.0000   1.0000   1.0000   1.0000   1.0000   1.0000
     1.0000   1.0000   1.0000   1.0000   1.0000   1.0000   1.0000   1.0000
     1.0000   1.0000   1.0000   1.0000   1.0000   1.0000   1.0000   1.0000
     1.0000   1.0000   1.0000   1.0000   1.0000   1.0000   1.0000   1.0000
     1.0000   1.0000   1.0000   1.0000   1.0000   1.0000   1.0000   1.0000
     1.0000   1.0000   1.0000   1.0000   1.0000   1.0000   1.0000   1.0000
     1.0000   1.0000   1.0000   1.0000   1.0000   1.0000   1.0000   1.0000
     1.0000   1.0000   1.0000   1.0000   1.0000   1.0000   1.0000   1.0000
     1.0000   1.0000   1.0000   1.0000   1.0000   1.0000   1.0000   1.0000
     1.0000   1.0000   1.0000   1.0000   1.0000   1.0000   1.0000   1.0000
     1.0000   1.0000   1.0000   1.0000   1.0000   1.0000   1.0000   1.0000
     1.0000   1.0000   1.0000   1.0000   1.0000   1.0000   1.0000   1.0000
     1.0000   1.0000   1.0000   1.0000   1.0000   1.0000   1.0000   1.0000
     1.0000   1.0000   1.0000   1.0000   1.0000   1.0000   1.0000   1.0000
     1.0000   1.0000   1.0000   1.0000   1.0000   1.0000   1.0000   1.0000
     1.0000   1.0000   1.0000   1.0000   1.0000   1.0000   1.0000   1.0000
     1.0000   1.0000   1.0000   1.0000   1.0000   1.0000   1.0000   1.0000
     1.0000   1.0000   1.0000   1.0000   1.0000   1.0000   1.0000   1.0000
     1.0000   1.0000   1.0000   1.0000   1.0000   1.0000   1.0000   1.0000
     1.0000   1.0000   1.0000   1.0000   1.0000   1.0000   1.0000   1.0000
     1.0000   1.0000   1.0000   1.0000   1.0000   1.0000   1.0000   1.0000
     1.0000   1.0000   1.0000   1.0000   1.0000   1.0000   1.0000   1.0000
     1.0000   1.0000   1.0000   1.0000   1.0000   1.0000   1.0000   1.0000
     1.0000   1.0000   1.0000   1.0000   1.0000   1.0000   1.0000   1.0000
     1.0000   1.0000   1.0000   1.0000   1.0000   1.0000   1.0000   1.0000
     1.0000   1.0000   1.0000   1.0000   1.0000   1.0000   1.0000   1.0000
     1.0000   1.0000   1.0000   1.0000   1.0000   1.0000   1.0000   1.0000
     1.0000   1.0000   1.0000   1.0000   1.0000   1.0000   1.0000   1.0000
     1.0000   1.0000   1.0000   1.0000   1.0000   1.0000   1.0000   1.0000
     1.0000   1.0000   1.0000   1.0000   1.0000   1.0000   1.0000   1.0000
     1.0000   1.0000   1.0000   1.0000   1.0000   1.0000   1.0000   1.0000
     1.0000   1.0000   1.0000   1.0000   1.0000   1.0000   1.0000   1.0000
     1.0000   1.0000   1.0000   1.0000   1.0000   1.0000   1.0000   1.0000
     1.0000   1.0000   1.0000   1.0000   1.0000   1.0000   1.0000   1.0000
     1.0000   1.0000   1.0000   1.0000   1.0000   1.0000   1.0000   1.0000
     1.0000   1.0000   1.0000   1.0000   1.0000   1.0000   1.0000   1.0000
     1.0000   1.0000   1.0000   1.0000   1.0000   1.0000   1.0000   1.0000
     1.0000   1.0000   1.0000   1.0000   1.0000   1.0000   1.0000   1.0000
     1.0000   1.0000   1.0000   1.0037   1.0037   1.0699   1.0699   1.0460
     0.4784   0.4784   0.0682   0.0681   0.0000   0.0000   0.0000   0.0000
     0.0000   0.0000   0.0000   0.0000   0.0000   0.0000   0.0000   0.0000
     0.0000   0.0000   0.0000   0.0000   0.0000   0.0000   0.0000   0.0000
     0.0000   0.0000   0.0000   0.0000   0.0000   0.0000   0.0000   0.0000
     0.0000   0.0000   0.0000   0.0000   0.0000   0.0000   0.0000   0.0000
     0.0000   0.0000   0.0000   0.0000   0.0000   0.0000   0.0000   0.0000
     0.0000   0.0000   0.0000   0.0000   0.0000   0.0000   0.0000   0.0000
     0.0000   0.0000   0.0000   0.0000   0.0000   0.0000   0.0000   0.0000

          k = 0.0000 0.2330 0.1345 ( 76084 PWs)   bands (ev):

  -126.0223-126.0222-126.0221-126.0218-126.0218-126.0217-126.0216-126.0213
  -126.0211-126.0210-126.0209-126.0206-126.0206-126.0205-126.0203-126.0201
  -125.9692-125.9689-125.9688-125.9687-125.9687-125.9684-125.9683-125.9682
  -125.9680-125.9678-125.9676-125.9676-125.9676-125.9673-125.9672-125.9671
   -80.1872 -80.1868 -80.1866 -80.1863 -80.1859 -80.1857 -80.1856 -80.1850
   -80.1847 -80.1846 -80.1844 -80.1840 -80.1836 -80.1835 -80.1834 -80.1826
   -80.1804 -80.1800 -80.1799 -80.1792 -80.1738 -80.1737 -80.1733 -80.1732
   -80.1731 -80.1726 -80.1720 -80.1712 -80.1704 -80.1702 -80.1698 -80.1696
   -80.1691 -80.1689 -80.1686 -80.1684 -80.1682 -80.1675 -80.1667 -80.1660
   -80.1641 -80.1637 -80.1636 -80.1631 -80.1570 -80.1567 -80.1566 -80.1562
   -80.1428 -80.1425 -80.1424 -80.1424 -80.1423 -80.1422 -80.1421 -80.1421
   -80.1420 -80.1419 -80.1419 -80.1418 -80.1417 -80.1416 -80.1416 -80.1414
   -80.1160 -80.1158 -80.1157 -80.1156 -80.1155 -80.1155 -80.1153 -80.1152
   -80.1152 -80.1151 -80.1151 -80.1148 -80.1148 -80.1145 -80.1144 -80.1143
   -80.1143 -80.1140 -80.1139 -80.1138 -80.1094 -80.1091 -80.1090 -80.1089
   -80.1002 -80.0999 -80.0998 -80.0997 -80.0937 -80.0934 -80.0933 -80.0932
    -8.9105  -8.2720  -7.8849  -7.8848  -7.7554  -7.7016  -7.6454  -7.6374
    -7.6373  -7.6092  -7.5914  -7.5914  -7.5873  -7.5873  -7.5802  -7.5580
    -7.5499  -7.5416  -7.5366  -7.5366  -7.5279  -7.4948  -7.4757  -7.4756
    -7.4736  -7.4595  -7.4250  -7.4167  -7.4166  -7.4066  -7.4065  -7.3937
    -7.3872  -7.3715  -7.3714  -7.3627  -7.3626  -7.3369  -7.3360  -7.3359
    -7.3137  -7.3136  -7.3124  -7.3123  -7.3057  -7.3014  -7.2226  -7.2224
    -7.2215  -7.1890  -7.1879  -7.1878  -7.1575  -7.1378  -7.1356  -7.1356
    -7.1132  -7.1130  -7.0799  -7.0709  -7.0467  -7.0381  -7.0353  -7.0253
    -7.0253  -7.0185  -7.0091  -7.0063  -6.9826  -6.9825  -6.9803  -6.9787
    -6.9752  -6.9717  -6.9587  -6.9518  -6.9493  -6.9445  -6.9370  -6.9233
    -6.9231  -6.9149  -6.9148  -6.8903  -6.8803  -6.8735  -6.8709  -6.8708
    -6.8707  -6.8637  -6.8541  -6.8435  -6.8434  -6.8403  -6.8143  -6.7772
    -6.7770  -6.7597  -6.7510  -6.7510  -6.7510  -6.7509  -6.7464  -6.7373
    -6.7354  -6.7274  -6.7188  -6.7187  -6.7073  -6.6931  -6.6861  -6.6780
    -6.6780  -6.6541  -6.6541  -6.6521  -6.6356  -6.6356  -6.6331  -6.6236
    -6.6224  -6.6184  -6.6182  -6.6166  -6.5971  -6.5971  -6.5822  -6.5759
    -6.5729  -6.5581  -6.5580  -6.5463  -6.5362  -6.5361  -6.5337  -6.5336
    -6.5282  -6.5282  -6.5240  -6.5144  -6.5088  -6.5079  -6.5077  -6.4938
    -6.4854  -6.4854  -6.4780  -6.4780  -6.4753  -6.4552  -6.4388  -6.4376
    -6.4239  -6.4222  -6.4222  -6.4193  -6.4191  -6.4191  -6.3975  -6.3669
    -6.3542  -6.3540  -6.2785  -6.2785  -6.0179  -5.7519  -5.7519  -4.7759
    -4.5659  -4.5659  -4.1935  -3.9691  -3.2393  -3.2392  -2.9406  -2.5816
    -2.5816  -2.4893  -2.4892  -1.7546  -1.4331  -1.2874  -1.2873  -1.1568
    -1.0673  -0.9451  -0.9303  -0.8084  -0.3958  -0.0602  -0.0602   0.1457
     0.5822   0.5822   0.8520   1.0249   1.4104   1.4104   1.4817   1.4818
     1.5386   1.6265   1.9711   2.3715   2.4551   2.5162   2.5405   2.6060
     2.9413   2.9413   3.0247   3.1845   3.1987   3.7677   3.7677   3.9263
     3.9871   4.2024   4.2024   4.2521   4.5699   4.6204   4.8347   4.8348
     4.9315   5.0584   5.2616   5.2617   5.3462   5.3554   5.4803   5.4803
     5.7653   5.7866   5.8399   5.8399   6.0300   6.0310   6.0441   6.0555
     6.2791   6.3303   6.3807   6.3808   6.5172   6.5173   6.6493   6.6493
     6.6544   6.7083   6.7193   6.7977   6.7977   6.9169   6.9458   7.0565

     occupation numbers 
     1.0000   1.0000   1.0000   1.0000   1.0000   1.0000   1.0000   1.0000
     1.0000   1.0000   1.0000   1.0000   1.0000   1.0000   1.0000   1.0000
     1.0000   1.0000   1.0000   1.0000   1.0000   1.0000   1.0000   1.0000
     1.0000   1.0000   1.0000   1.0000   1.0000   1.0000   1.0000   1.0000
     1.0000   1.0000   1.0000   1.0000   1.0000   1.0000   1.0000   1.0000
     1.0000   1.0000   1.0000   1.0000   1.0000   1.0000   1.0000   1.0000
     1.0000   1.0000   1.0000   1.0000   1.0000   1.0000   1.0000   1.0000
     1.0000   1.0000   1.0000   1.0000   1.0000   1.0000   1.0000   1.0000
     1.0000   1.0000   1.0000   1.0000   1.0000   1.0000   1.0000   1.0000
     1.0000   1.0000   1.0000   1.0000   1.0000   1.0000   1.0000   1.0000
     1.0000   1.0000   1.0000   1.0000   1.0000   1.0000   1.0000   1.0000
     1.0000   1.0000   1.0000   1.0000   1.0000   1.0000   1.0000   1.0000
     1.0000   1.0000   1.0000   1.0000   1.0000   1.0000   1.0000   1.0000
     1.0000   1.0000   1.0000   1.0000   1.0000   1.0000   1.0000   1.0000
     1.0000   1.0000   1.0000   1.0000   1.0000   1.0000   1.0000   1.0000
     1.0000   1.0000   1.0000   1.0000   1.0000   1.0000   1.0000   1.0000
     1.0000   1.0000   1.0000   1.0000   1.0000   1.0000   1.0000   1.0000
     1.0000   1.0000   1.0000   1.0000   1.0000   1.0000   1.0000   1.0000
     1.0000   1.0000   1.0000   1.0000   1.0000   1.0000   1.0000   1.0000
     1.0000   1.0000   1.0000   1.0000   1.0000   1.0000   1.0000   1.0000
     1.0000   1.0000   1.0000   1.0000   1.0000   1.0000   1.0000   1.0000
     1.0000   1.0000   1.0000   1.0000   1.0000   1.0000   1.0000   1.0000
     1.0000   1.0000   1.0000   1.0000   1.0000   1.0000   1.0000   1.0000
     1.0000   1.0000   1.0000   1.0000   1.0000   1.0000   1.0000   1.0000
     1.0000   1.0000   1.0000   1.0000   1.0000   1.0000   1.0000   1.0000
     1.0000   1.0000   1.0000   1.0000   1.0000   1.0000   1.0000   1.0000
     1.0000   1.0000   1.0000   1.0000   1.0000   1.0000   1.0000   1.0000
     1.0000   1.0000   1.0000   1.0000   1.0000   1.0000   1.0000   1.0000
     1.0000   1.0000   1.0000   1.0000   1.0000   1.0000   1.0000   1.0000
     1.0000   1.0000   1.0000   1.0000   1.0000   1.0000   1.0000   1.0000
     1.0000   1.0000   1.0000   1.0000   1.0000   1.0000   1.0000   1.0000
     1.0000   1.0000   1.0000   1.0000   1.0000   1.0000   1.0000   1.0000
     1.0000   1.0000   1.0000   1.0000   1.0000   1.0000   1.0000   1.0000
     1.0000   1.0000   1.0000   1.0000   1.0000   1.0000   1.0000   1.0000
     1.0000   1.0000   1.0000   1.0000   1.0000   1.0000   1.0000   1.0000
     1.0000   1.0000   1.0000   1.0000   1.0000   1.0000   1.0000   1.0000
     1.0000   1.0000   1.0000   1.0000   1.0000   1.0000   1.0000   1.0000
     1.0000   1.0000   1.0000   1.0000   1.0000   1.0000   1.0000   1.0000
     1.0000   1.0000   1.0000   1.0000   1.0000   1.0000   1.0000   1.0000
     1.0000   1.0000   1.0000   1.0000   1.0121   1.0726   1.0726   0.7414
     0.0177   0.0176   0.0002   0.0000   0.0000   0.0000   0.0000   0.0000
     0.0000   0.0000   0.0000   0.0000   0.0000   0.0000   0.0000   0.0000
     0.0000   0.0000   0.0000   0.0000   0.0000   0.0000   0.0000   0.0000
     0.0000   0.0000   0.0000   0.0000   0.0000   0.0000   0.0000   0.0000
     0.0000   0.0000   0.0000   0.0000   0.0000   0.0000   0.0000   0.0000
     0.0000   0.0000   0.0000   0.0000   0.0000   0.0000   0.0000   0.0000
     0.0000   0.0000   0.0000   0.0000   0.0000   0.0000   0.0000   0.0000
     0.0000   0.0000   0.0000   0.0000   0.0000   0.0000   0.0000   0.0000

          k = 0.0000 0.2330 0.2660 ( 76086 PWs)   bands (ev):

  -126.0223-126.0222-126.0221-126.0218-126.0218-126.0217-126.0216-126.0213
  -126.0211-126.0210-126.0209-126.0206-126.0206-126.0205-126.0203-126.0201
  -125.9692-125.9689-125.9688-125.9687-125.9687-125.9684-125.9683-125.9682
  -125.9680-125.9677-125.9676-125.9676-125.9676-125.9673-125.9672-125.9671
   -80.1873 -80.1868 -80.1867 -80.1863 -80.1859 -80.1857 -80.1856 -80.1850
   -80.1847 -80.1845 -80.1844 -80.1840 -80.1836 -80.1835 -80.1834 -80.1826
   -80.1804 -80.1800 -80.1799 -80.1792 -80.1738 -80.1737 -80.1733 -80.1732
   -80.1731 -80.1726 -80.1720 -80.1712 -80.1704 -80.1702 -80.1698 -80.1697
   -80.1691 -80.1689 -80.1686 -80.1684 -80.1681 -80.1675 -80.1667 -80.1660
   -80.1641 -80.1637 -80.1636 -80.1631 -80.1570 -80.1567 -80.1566 -80.1562
   -80.1428 -80.1425 -80.1424 -80.1424 -80.1423 -80.1422 -80.1421 -80.1421
   -80.1420 -80.1419 -80.1419 -80.1418 -80.1417 -80.1416 -80.1416 -80.1414
   -80.1160 -80.1158 -80.1157 -80.1156 -80.1155 -80.1155 -80.1153 -80.1152
   -80.1152 -80.1151 -80.1151 -80.1149 -80.1148 -80.1145 -80.1144 -80.1143
   -80.1143 -80.1140 -80.1139 -80.1138 -80.1094 -80.1091 -80.1089 -80.1088
   -80.1002 -80.0999 -80.0998 -80.0997 -80.0937 -80.0935 -80.0933 -80.0932
    -8.9105  -8.2720  -7.8849  -7.8848  -7.7554  -7.7016  -7.6454  -7.6374
    -7.6373  -7.6092  -7.5914  -7.5914  -7.5873  -7.5873  -7.5802  -7.5580
    -7.5499  -7.5416  -7.5366  -7.5366  -7.5279  -7.4948  -7.4757  -7.4756
    -7.4736  -7.4595  -7.4250  -7.4167  -7.4166  -7.4066  -7.4065  -7.3937
    -7.3872  -7.3715  -7.3714  -7.3626  -7.3626  -7.3369  -7.3360  -7.3359
    -7.3137  -7.3136  -7.3124  -7.3123  -7.3057  -7.3015  -7.2226  -7.2224
    -7.2215  -7.1890  -7.1879  -7.1878  -7.1575  -7.1379  -7.1356  -7.1356
    -7.1132  -7.1130  -7.0799  -7.0709  -7.0467  -7.0381  -7.0353  -7.0253
    -7.0253  -7.0185  -7.0091  -7.0063  -6.9826  -6.9825  -6.9803  -6.9787
    -6.9752  -6.9717  -6.9587  -6.9518  -6.9493  -6.9445  -6.9370  -6.9233
    -6.9231  -6.9149  -6.9148  -6.8903  -6.8803  -6.8735  -6.8709  -6.8708
    -6.8707  -6.8637  -6.8541  -6.8435  -6.8434  -6.8403  -6.8143  -6.7772
    -6.7770  -6.7597  -6.7510  -6.7510  -6.7510  -6.7508  -6.7464  -6.7373
    -6.7354  -6.7274  -6.7187  -6.7187  -6.7074  -6.6931  -6.6861  -6.6781
    -6.6780  -6.6541  -6.6541  -6.6520  -6.6356  -6.6355  -6.6331  -6.6235
    -6.6224  -6.6184  -6.6183  -6.6166  -6.5971  -6.5971  -6.5822  -6.5759
    -6.5729  -6.5581  -6.5580  -6.5463  -6.5362  -6.5361  -6.5337  -6.5336
    -6.5282  -6.5282  -6.5240  -6.5144  -6.5089  -6.5079  -6.5077  -6.4938
    -6.4854  -6.4854  -6.4780  -6.4779  -6.4753  -6.4552  -6.4388  -6.4376
    -6.4239  -6.4223  -6.4223  -6.4193  -6.4191  -6.4191  -6.3975  -6.3669
    -6.3542  -6.3540  -6.2785  -6.2785  -6.0179  -5.7519  -5.7519  -4.7759
    -4.5659  -4.5659  -4.1935  -3.9691  -3.2393  -3.2393  -2.9406  -2.5816
    -2.5816  -2.4893  -2.4892  -1.7546  -1.4331  -1.2874  -1.2873  -1.1568
    -1.0673  -0.9451  -0.9303  -0.8084  -0.3958  -0.0602  -0.0602   0.1457
     0.5822   0.5822   0.8520   1.0249   1.4104   1.4104   1.4817   1.4818
     1.5386   1.6265   1.9711   2.3715   2.4543   2.5162   2.5405   2.6060
     2.9413   2.9413   3.0247   3.1845   3.1976   3.7677   3.7677   3.9263
     3.9871   4.2024   4.2024   4.3950   4.4260   4.5692   4.8287   4.8288
     5.0584   5.0901   5.1214   5.2616   5.2617   5.3824   5.4740   5.4741
     5.7640   5.7866   5.9752   5.9752   6.0300   6.0310   6.0555   6.0833
     6.1840   6.1840   6.4635   6.5238   6.5465   6.6073   6.6073   6.6532
     6.6676   6.6676   6.7192   6.7938   6.7938   6.8584   6.8584   6.9487

     occupation numbers 
     1.0000   1.0000   1.0000   1.0000   1.0000   1.0000   1.0000   1.0000
     1.0000   1.0000   1.0000   1.0000   1.0000   1.0000   1.0000   1.0000
     1.0000   1.0000   1.0000   1.0000   1.0000   1.0000   1.0000   1.0000
     1.0000   1.0000   1.0000   1.0000   1.0000   1.0000   1.0000   1.0000
     1.0000   1.0000   1.0000   1.0000   1.0000   1.0000   1.0000   1.0000
     1.0000   1.0000   1.0000   1.0000   1.0000   1.0000   1.0000   1.0000
     1.0000   1.0000   1.0000   1.0000   1.0000   1.0000   1.0000   1.0000
     1.0000   1.0000   1.0000   1.0000   1.0000   1.0000   1.0000   1.0000
     1.0000   1.0000   1.0000   1.0000   1.0000   1.0000   1.0000   1.0000
     1.0000   1.0000   1.0000   1.0000   1.0000   1.0000   1.0000   1.0000
     1.0000   1.0000   1.0000   1.0000   1.0000   1.0000   1.0000   1.0000
     1.0000   1.0000   1.0000   1.0000   1.0000   1.0000   1.0000   1.0000
     1.0000   1.0000   1.0000   1.0000   1.0000   1.0000   1.0000   1.0000
     1.0000   1.0000   1.0000   1.0000   1.0000   1.0000   1.0000   1.0000
     1.0000   1.0000   1.0000   1.0000   1.0000   1.0000   1.0000   1.0000
     1.0000   1.0000   1.0000   1.0000   1.0000   1.0000   1.0000   1.0000
     1.0000   1.0000   1.0000   1.0000   1.0000   1.0000   1.0000   1.0000
     1.0000   1.0000   1.0000   1.0000   1.0000   1.0000   1.0000   1.0000
     1.0000   1.0000   1.0000   1.0000   1.0000   1.0000   1.0000   1.0000
     1.0000   1.0000   1.0000   1.0000   1.0000   1.0000   1.0000   1.0000
     1.0000   1.0000   1.0000   1.0000   1.0000   1.0000   1.0000   1.0000
     1.0000   1.0000   1.0000   1.0000   1.0000   1.0000   1.0000   1.0000
     1.0000   1.0000   1.0000   1.0000   1.0000   1.0000   1.0000   1.0000
     1.0000   1.0000   1.0000   1.0000   1.0000   1.0000   1.0000   1.0000
     1.0000   1.0000   1.0000   1.0000   1.0000   1.0000   1.0000   1.0000
     1.0000   1.0000   1.0000   1.0000   1.0000   1.0000   1.0000   1.0000
     1.0000   1.0000   1.0000   1.0000   1.0000   1.0000   1.0000   1.0000
     1.0000   1.0000   1.0000   1.0000   1.0000   1.0000   1.0000   1.0000
     1.0000   1.0000   1.0000   1.0000   1.0000   1.0000   1.0000   1.0000
     1.0000   1.0000   1.0000   1.0000   1.0000   1.0000   1.0000   1.0000
     1.0000   1.0000   1.0000   1.0000   1.0000   1.0000   1.0000   1.0000
     1.0000   1.0000   1.0000   1.0000   1.0000   1.0000   1.0000   1.0000
     1.0000   1.0000   1.0000   1.0000   1.0000   1.0000   1.0000   1.0000
     1.0000   1.0000   1.0000   1.0000   1.0000   1.0000   1.0000   1.0000
     1.0000   1.0000   1.0000   1.0000   1.0000   1.0000   1.0000   1.0000
     1.0000   1.0000   1.0000   1.0000   1.0000   1.0000   1.0000   1.0000
     1.0000   1.0000   1.0000   1.0000   1.0000   1.0000   1.0000   1.0000
     1.0000   1.0000   1.0000   1.0000   1.0000   1.0000   1.0000   1.0000
     1.0000   1.0000   1.0000   1.0000   1.0000   1.0000   1.0000   1.0000
     1.0000   1.0000   1.0000   1.0000   1.0121   1.0726   1.0726   0.7414
     0.0177   0.0176   0.0002   0.0000   0.0000   0.0000   0.0000   0.0000
     0.0000   0.0000   0.0000   0.0000   0.0000   0.0000   0.0000   0.0000
     0.0000   0.0000   0.0000   0.0000   0.0000   0.0000   0.0000   0.0000
     0.0000   0.0000   0.0000   0.0000   0.0000   0.0000   0.0000   0.0000
     0.0000   0.0000   0.0000   0.0000   0.0000   0.0000   0.0000   0.0000
     0.0000   0.0000   0.0000   0.0000   0.0000   0.0000   0.0000   0.0000
     0.0000   0.0000   0.0000   0.0000   0.0000   0.0000   0.0000   0.0000
     0.0000   0.0000   0.0000   0.0000   0.0000   0.0000   0.0000   0.0000

          k = 0.0000 0.2330-0.1285 ( 76101 PWs)   bands (ev):

  -126.0223-126.0222-126.0221-126.0218-126.0218-126.0217-126.0216-126.0213
  -126.0211-126.0210-126.0209-126.0206-126.0206-126.0205-126.0203-126.0201
  -125.9692-125.9689-125.9688-125.9687-125.9687-125.9684-125.9683-125.9682
  -125.9680-125.9677-125.9676-125.9676-125.9676-125.9673-125.9672-125.9671
   -80.1872 -80.1868 -80.1867 -80.1863 -80.1858 -80.1857 -80.1856 -80.1850
   -80.1847 -80.1845 -80.1844 -80.1840 -80.1836 -80.1835 -80.1835 -80.1826
   -80.1804 -80.1800 -80.1799 -80.1792 -80.1738 -80.1737 -80.1733 -80.1732
   -80.1731 -80.1726 -80.1720 -80.1712 -80.1704 -80.1702 -80.1698 -80.1696
   -80.1691 -80.1689 -80.1686 -80.1684 -80.1682 -80.1675 -80.1667 -80.1660
   -80.1641 -80.1637 -80.1636 -80.1631 -80.1570 -80.1567 -80.1566 -80.1562
   -80.1428 -80.1425 -80.1424 -80.1424 -80.1423 -80.1422 -80.1421 -80.1421
   -80.1420 -80.1419 -80.1419 -80.1418 -80.1417 -80.1416 -80.1416 -80.1414
   -80.1160 -80.1158 -80.1157 -80.1156 -80.1155 -80.1155 -80.1153 -80.1153
   -80.1152 -80.1151 -80.1151 -80.1149 -80.1148 -80.1145 -80.1144 -80.1143
   -80.1143 -80.1140 -80.1139 -80.1138 -80.1094 -80.1091 -80.1089 -80.1088
   -80.1002 -80.0999 -80.0998 -80.0997 -80.0937 -80.0935 -80.0933 -80.0932
    -8.9105  -8.2720  -7.8849  -7.8848  -7.7554  -7.7016  -7.6454  -7.6374
    -7.6373  -7.6092  -7.5914  -7.5914  -7.5873  -7.5873  -7.5802  -7.5580
    -7.5499  -7.5416  -7.5366  -7.5366  -7.5279  -7.4948  -7.4757  -7.4756
    -7.4736  -7.4595  -7.4250  -7.4167  -7.4166  -7.4066  -7.4065  -7.3937
    -7.3872  -7.3715  -7.3714  -7.3627  -7.3626  -7.3369  -7.3360  -7.3359
    -7.3137  -7.3136  -7.3124  -7.3123  -7.3057  -7.3015  -7.2226  -7.2224
    -7.2215  -7.1891  -7.1879  -7.1878  -7.1575  -7.1379  -7.1357  -7.1356
    -7.1132  -7.1130  -7.0799  -7.0709  -7.0467  -7.0381  -7.0353  -7.0253
    -7.0253  -7.0185  -7.0090  -7.0063  -6.9826  -6.9825  -6.9803  -6.9787
    -6.9752  -6.9717  -6.9587  -6.9518  -6.9493  -6.9445  -6.9370  -6.9233
    -6.9231  -6.9149  -6.9148  -6.8903  -6.8803  -6.8736  -6.8709  -6.8708
    -6.8707  -6.8637  -6.8541  -6.8435  -6.8434  -6.8403  -6.8143  -6.7772
    -6.7770  -6.7597  -6.7510  -6.7510  -6.7510  -6.7509  -6.7464  -6.7373
    -6.7354  -6.7274  -6.7187  -6.7187  -6.7074  -6.6931  -6.6861  -6.6780
    -6.6780  -6.6541  -6.6541  -6.6521  -6.6356  -6.6355  -6.6331  -6.6235
    -6.6224  -6.6184  -6.6183  -6.6166  -6.5971  -6.5971  -6.5821  -6.5759
    -6.5729  -6.5581  -6.5580  -6.5463  -6.5362  -6.5361  -6.5337  -6.5336
    -6.5282  -6.5282  -6.5240  -6.5144  -6.5089  -6.5079  -6.5077  -6.4938
    -6.4854  -6.4853  -6.4780  -6.4779  -6.4753  -6.4551  -6.4388  -6.4376
    -6.4239  -6.4223  -6.4222  -6.4193  -6.4191  -6.4191  -6.3975  -6.3669
    -6.3542  -6.3540  -6.2785  -6.2785  -6.0179  -5.7519  -5.7519  -4.7758
    -4.5659  -4.5659  -4.1935  -3.9691  -3.2393  -3.2393  -2.9406  -2.5816
    -2.5816  -2.4893  -2.4892  -1.7546  -1.4331  -1.2874  -1.2873  -1.1568
    -1.0673  -0.9451  -0.9303  -0.8084  -0.3958  -0.0602  -0.0602   0.1457
     0.5822   0.5822   0.8520   1.0249   1.4104   1.4104   1.4817   1.4818
     1.5386   1.6265   1.9711   2.3715   2.4552   2.5162   2.5405   2.6060
     2.9413   2.9413   3.0247   3.1845   3.1985   3.7677   3.7677   3.9263
     3.9870   4.2024   4.2024   4.2469   4.5703   4.6299   4.8352   4.8352
     4.9476   5.0584   5.2616   5.2617   5.3157   5.3530   5.4790   5.4791
     5.7659   5.7866   5.8333   5.8333   6.0300   6.0310   6.0532   6.0555
     6.2658   6.3016   6.3913   6.3913   6.5371   6.5371   6.6539   6.6552
     6.6552   6.7193   6.7636   6.7995   6.7995   6.9457   6.9573   7.0313

     occupation numbers 
     1.0000   1.0000   1.0000   1.0000   1.0000   1.0000   1.0000   1.0000
     1.0000   1.0000   1.0000   1.0000   1.0000   1.0000   1.0000   1.0000
     1.0000   1.0000   1.0000   1.0000   1.0000   1.0000   1.0000   1.0000
     1.0000   1.0000   1.0000   1.0000   1.0000   1.0000   1.0000   1.0000
     1.0000   1.0000   1.0000   1.0000   1.0000   1.0000   1.0000   1.0000
     1.0000   1.0000   1.0000   1.0000   1.0000   1.0000   1.0000   1.0000
     1.0000   1.0000   1.0000   1.0000   1.0000   1.0000   1.0000   1.0000
     1.0000   1.0000   1.0000   1.0000   1.0000   1.0000   1.0000   1.0000
     1.0000   1.0000   1.0000   1.0000   1.0000   1.0000   1.0000   1.0000
     1.0000   1.0000   1.0000   1.0000   1.0000   1.0000   1.0000   1.0000
     1.0000   1.0000   1.0000   1.0000   1.0000   1.0000   1.0000   1.0000
     1.0000   1.0000   1.0000   1.0000   1.0000   1.0000   1.0000   1.0000
     1.0000   1.0000   1.0000   1.0000   1.0000   1.0000   1.0000   1.0000
     1.0000   1.0000   1.0000   1.0000   1.0000   1.0000   1.0000   1.0000
     1.0000   1.0000   1.0000   1.0000   1.0000   1.0000   1.0000   1.0000
     1.0000   1.0000   1.0000   1.0000   1.0000   1.0000   1.0000   1.0000
     1.0000   1.0000   1.0000   1.0000   1.0000   1.0000   1.0000   1.0000
     1.0000   1.0000   1.0000   1.0000   1.0000   1.0000   1.0000   1.0000
     1.0000   1.0000   1.0000   1.0000   1.0000   1.0000   1.0000   1.0000
     1.0000   1.0000   1.0000   1.0000   1.0000   1.0000   1.0000   1.0000
     1.0000   1.0000   1.0000   1.0000   1.0000   1.0000   1.0000   1.0000
     1.0000   1.0000   1.0000   1.0000   1.0000   1.0000   1.0000   1.0000
     1.0000   1.0000   1.0000   1.0000   1.0000   1.0000   1.0000   1.0000
     1.0000   1.0000   1.0000   1.0000   1.0000   1.0000   1.0000   1.0000
     1.0000   1.0000   1.0000   1.0000   1.0000   1.0000   1.0000   1.0000
     1.0000   1.0000   1.0000   1.0000   1.0000   1.0000   1.0000   1.0000
     1.0000   1.0000   1.0000   1.0000   1.0000   1.0000   1.0000   1.0000
     1.0000   1.0000   1.0000   1.0000   1.0000   1.0000   1.0000   1.0000
     1.0000   1.0000   1.0000   1.0000   1.0000   1.0000   1.0000   1.0000
     1.0000   1.0000   1.0000   1.0000   1.0000   1.0000   1.0000   1.0000
     1.0000   1.0000   1.0000   1.0000   1.0000   1.0000   1.0000   1.0000
     1.0000   1.0000   1.0000   1.0000   1.0000   1.0000   1.0000   1.0000
     1.0000   1.0000   1.0000   1.0000   1.0000   1.0000   1.0000   1.0000
     1.0000   1.0000   1.0000   1.0000   1.0000   1.0000   1.0000   1.0000
     1.0000   1.0000   1.0000   1.0000   1.0000   1.0000   1.0000   1.0000
     1.0000   1.0000   1.0000   1.0000   1.0000   1.0000   1.0000   1.0000
     1.0000   1.0000   1.0000   1.0000   1.0000   1.0000   1.0000   1.0000
     1.0000   1.0000   1.0000   1.0000   1.0000   1.0000   1.0000   1.0000
     1.0000   1.0000   1.0000   1.0000   1.0000   1.0000   1.0000   1.0000
     1.0000   1.0000   1.0000   1.0000   1.0121   1.0726   1.0726   0.7414
     0.0177   0.0176   0.0002   0.0000   0.0000   0.0000   0.0000   0.0000
     0.0000   0.0000   0.0000   0.0000   0.0000   0.0000   0.0000   0.0000
     0.0000   0.0000   0.0000   0.0000   0.0000   0.0000   0.0000   0.0000
     0.0000   0.0000   0.0000   0.0000   0.0000   0.0000   0.0000   0.0000
     0.0000   0.0000   0.0000   0.0000   0.0000   0.0000   0.0000   0.0000
     0.0000   0.0000   0.0000   0.0000   0.0000   0.0000   0.0000   0.0000
     0.0000   0.0000   0.0000   0.0000   0.0000   0.0000   0.0000   0.0000
     0.0000   0.0000   0.0000   0.0000   0.0000   0.0000   0.0000   0.0000

          k = 0.0000 0.2330 0.0030 ( 76107 PWs)   bands (ev):

  -126.0223-126.0222-126.0221-126.0218-126.0218-126.0217-126.0216-126.0213
  -126.0211-126.0210-126.0209-126.0206-126.0206-126.0205-126.0203-126.0201
  -125.9692-125.9689-125.9688-125.9687-125.9687-125.9684-125.9683-125.9682
  -125.9680-125.9678-125.9676-125.9676-125.9676-125.9673-125.9672-125.9671
   -80.1872 -80.1868 -80.1867 -80.1863 -80.1859 -80.1857 -80.1856 -80.1850
   -80.1847 -80.1846 -80.1844 -80.1840 -80.1836 -80.1835 -80.1835 -80.1826
   -80.1804 -80.1800 -80.1799 -80.1792 -80.1738 -80.1737 -80.1733 -80.1732
   -80.1731 -80.1726 -80.1721 -80.1712 -80.1704 -80.1702 -80.1698 -80.1696
   -80.1691 -80.1689 -80.1686 -80.1684 -80.1682 -80.1675 -80.1667 -80.1660
   -80.1641 -80.1637 -80.1636 -80.1631 -80.1570 -80.1567 -80.1566 -80.1562
   -80.1428 -80.1425 -80.1424 -80.1424 -80.1423 -80.1422 -80.1421 -80.1421
   -80.1420 -80.1419 -80.1419 -80.1418 -80.1417 -80.1416 -80.1416 -80.1414
   -80.1160 -80.1158 -80.1157 -80.1156 -80.1155 -80.1155 -80.1153 -80.1152
   -80.1152 -80.1151 -80.1151 -80.1148 -80.1148 -80.1145 -80.1144 -80.1143
   -80.1143 -80.1140 -80.1139 -80.1138 -80.1094 -80.1091 -80.1090 -80.1089
   -80.1002 -80.0999 -80.0998 -80.0997 -80.0937 -80.0934 -80.0933 -80.0932
    -8.9105  -8.2720  -7.8849  -7.8848  -7.7554  -7.7016  -7.6454  -7.6374
    -7.6373  -7.6092  -7.5914  -7.5914  -7.5873  -7.5873  -7.5802  -7.5580
    -7.5499  -7.5416  -7.5366  -7.5366  -7.5279  -7.4948  -7.4757  -7.4756
    -7.4736  -7.4595  -7.4250  -7.4167  -7.4166  -7.4066  -7.4065  -7.3937
    -7.3872  -7.3715  -7.3714  -7.3627  -7.3626  -7.3369  -7.3360  -7.3359
    -7.3137  -7.3136  -7.3124  -7.3123  -7.3057  -7.3015  -7.2226  -7.2224
    -7.2215  -7.1890  -7.1879  -7.1878  -7.1575  -7.1379  -7.1356  -7.1356
    -7.1132  -7.1130  -7.0799  -7.0709  -7.0467  -7.0381  -7.0353  -7.0253
    -7.0253  -7.0185  -7.0090  -7.0063  -6.9826  -6.9825  -6.9803  -6.9787
    -6.9752  -6.9717  -6.9587  -6.9518  -6.9493  -6.9445  -6.9370  -6.9233
    -6.9231  -6.9149  -6.9148  -6.8903  -6.8803  -6.8735  -6.8709  -6.8708
    -6.8707  -6.8637  -6.8541  -6.8435  -6.8434  -6.8403  -6.8143  -6.7772
    -6.7770  -6.7597  -6.7510  -6.7510  -6.7510  -6.7509  -6.7464  -6.7373
    -6.7354  -6.7274  -6.7188  -6.7187  -6.7074  -6.6931  -6.6861  -6.6781
    -6.6781  -6.6541  -6.6541  -6.6521  -6.6356  -6.6355  -6.6331  -6.6235
    -6.6224  -6.6184  -6.6182  -6.6166  -6.5971  -6.5971  -6.5822  -6.5759
    -6.5729  -6.5581  -6.5580  -6.5463  -6.5362  -6.5361  -6.5337  -6.5336
    -6.5282  -6.5282  -6.5240  -6.5144  -6.5089  -6.5079  -6.5077  -6.4938
    -6.4854  -6.4854  -6.4780  -6.4780  -6.4753  -6.4552  -6.4388  -6.4376
    -6.4239  -6.4223  -6.4222  -6.4193  -6.4191  -6.4191  -6.3975  -6.3668
    -6.3542  -6.3540  -6.2785  -6.2785  -6.0179  -5.7519  -5.7519  -4.7758
    -4.5659  -4.5659  -4.1935  -3.9691  -3.2393  -3.2393  -2.9406  -2.5816
    -2.5816  -2.4893  -2.4892  -1.7546  -1.4331  -1.2874  -1.2873  -1.1568
    -1.0673  -0.9451  -0.9303  -0.8084  -0.3958  -0.0602  -0.0602   0.1457
     0.5822   0.5822   0.8520   1.0249   1.4104   1.4104   1.4817   1.4818
     1.5386   1.6265   1.9711   2.3715   2.4560   2.5162   2.5405   2.6060
     2.9413   2.9413   3.0247   3.1845   3.1995   3.7677   3.7677   3.9263
     3.9870   4.1918   4.2024   4.2024   4.5710   4.7509   4.8414   4.8414
     4.8799   5.0584   5.2616   5.2617   5.3111   5.4684   5.4854   5.4855
     5.7606   5.7607   5.7673   5.7865   5.9940   6.0300   6.0310   6.0555
     6.1172   6.2519   6.4515   6.4515   6.4899   6.4899   6.6551   6.7196
     6.7817   6.8035   6.8036   6.8570   6.8570   6.8876   6.9456   7.1171

     occupation numbers 
     1.0000   1.0000   1.0000   1.0000   1.0000   1.0000   1.0000   1.0000
     1.0000   1.0000   1.0000   1.0000   1.0000   1.0000   1.0000   1.0000
     1.0000   1.0000   1.0000   1.0000   1.0000   1.0000   1.0000   1.0000
     1.0000   1.0000   1.0000   1.0000   1.0000   1.0000   1.0000   1.0000
     1.0000   1.0000   1.0000   1.0000   1.0000   1.0000   1.0000   1.0000
     1.0000   1.0000   1.0000   1.0000   1.0000   1.0000   1.0000   1.0000
     1.0000   1.0000   1.0000   1.0000   1.0000   1.0000   1.0000   1.0000
     1.0000   1.0000   1.0000   1.0000   1.0000   1.0000   1.0000   1.0000
     1.0000   1.0000   1.0000   1.0000   1.0000   1.0000   1.0000   1.0000
     1.0000   1.0000   1.0000   1.0000   1.0000   1.0000   1.0000   1.0000
     1.0000   1.0000   1.0000   1.0000   1.0000   1.0000   1.0000   1.0000
     1.0000   1.0000   1.0000   1.0000   1.0000   1.0000   1.0000   1.0000
     1.0000   1.0000   1.0000   1.0000   1.0000   1.0000   1.0000   1.0000
     1.0000   1.0000   1.0000   1.0000   1.0000   1.0000   1.0000   1.0000
     1.0000   1.0000   1.0000   1.0000   1.0000   1.0000   1.0000   1.0000
     1.0000   1.0000   1.0000   1.0000   1.0000   1.0000   1.0000   1.0000
     1.0000   1.0000   1.0000   1.0000   1.0000   1.0000   1.0000   1.0000
     1.0000   1.0000   1.0000   1.0000   1.0000   1.0000   1.0000   1.0000
     1.0000   1.0000   1.0000   1.0000   1.0000   1.0000   1.0000   1.0000
     1.0000   1.0000   1.0000   1.0000   1.0000   1.0000   1.0000   1.0000
     1.0000   1.0000   1.0000   1.0000   1.0000   1.0000   1.0000   1.0000
     1.0000   1.0000   1.0000   1.0000   1.0000   1.0000   1.0000   1.0000
     1.0000   1.0000   1.0000   1.0000   1.0000   1.0000   1.0000   1.0000
     1.0000   1.0000   1.0000   1.0000   1.0000   1.0000   1.0000   1.0000
     1.0000   1.0000   1.0000   1.0000   1.0000   1.0000   1.0000   1.0000
     1.0000   1.0000   1.0000   1.0000   1.0000   1.0000   1.0000   1.0000
     1.0000   1.0000   1.0000   1.0000   1.0000   1.0000   1.0000   1.0000
     1.0000   1.0000   1.0000   1.0000   1.0000   1.0000   1.0000   1.0000
     1.0000   1.0000   1.0000   1.0000   1.0000   1.0000   1.0000   1.0000
     1.0000   1.0000   1.0000   1.0000   1.0000   1.0000   1.0000   1.0000
     1.0000   1.0000   1.0000   1.0000   1.0000   1.0000   1.0000   1.0000
     1.0000   1.0000   1.0000   1.0000   1.0000   1.0000   1.0000   1.0000
     1.0000   1.0000   1.0000   1.0000   1.0000   1.0000   1.0000   1.0000
     1.0000   1.0000   1.0000   1.0000   1.0000   1.0000   1.0000   1.0000
     1.0000   1.0000   1.0000   1.0000   1.0000   1.0000   1.0000   1.0000
     1.0000   1.0000   1.0000   1.0000   1.0000   1.0000   1.0000   1.0000
     1.0000   1.0000   1.0000   1.0000   1.0000   1.0000   1.0000   1.0000
     1.0000   1.0000   1.0000   1.0000   1.0000   1.0000   1.0000   1.0000
     1.0000   1.0000   1.0000   1.0000   1.0000   1.0000   1.0000   1.0000
     1.0000   1.0000   1.0000   1.0000   1.0121   1.0726   1.0726   0.7414
     0.0177   0.0176   0.0002   0.0000   0.0000   0.0000   0.0000   0.0000
     0.0000   0.0000   0.0000   0.0000   0.0000   0.0000   0.0000   0.0000
     0.0000   0.0000   0.0000   0.0000   0.0000   0.0000   0.0000   0.0000
     0.0000   0.0000   0.0000   0.0000   0.0000   0.0000   0.0000   0.0000
     0.0000   0.0000   0.0000   0.0000   0.0000   0.0000   0.0000   0.0000
     0.0000   0.0000   0.0000   0.0000   0.0000   0.0000   0.0000   0.0000
     0.0000   0.0000   0.0000   0.0000   0.0000   0.0000   0.0000   0.0000
     0.0000   0.0000   0.0000   0.0000   0.0000   0.0000   0.0000   0.0000

          k = 0.0000-0.4660-0.2690 ( 76072 PWs)   bands (ev):

  -126.0222-126.0221-126.0221-126.0219-126.0219-126.0218-126.0217-126.0215
  -126.0209-126.0208-126.0207-126.0207-126.0206-126.0205-126.0204-126.0202
  -125.9690-125.9690-125.9687-125.9687-125.9687-125.9685-125.9685-125.9685
  -125.9678-125.9677-125.9675-125.9674-125.9674-125.9673-125.9673-125.9672
   -80.1869 -80.1868 -80.1865 -80.1863 -80.1863 -80.1862 -80.1853 -80.1851
   -80.1845 -80.1843 -80.1841 -80.1839 -80.1839 -80.1838 -80.1830 -80.1828
   -80.1778 -80.1777 -80.1774 -80.1773 -80.1773 -80.1771 -80.1767 -80.1765
   -80.1736 -80.1734 -80.1717 -80.1715 -80.1702 -80.1701 -80.1701 -80.1699
   -80.1689 -80.1687 -80.1687 -80.1685 -80.1680 -80.1678 -80.1664 -80.1662
   -80.1600 -80.1598 -80.1596 -80.1595 -80.1595 -80.1593 -80.1591 -80.1589
   -80.1426 -80.1426 -80.1423 -80.1423 -80.1423 -80.1422 -80.1422 -80.1422
   -80.1421 -80.1421 -80.1419 -80.1418 -80.1417 -80.1416 -80.1415 -80.1414
   -80.1158 -80.1158 -80.1155 -80.1154 -80.1154 -80.1154 -80.1151 -80.1150
   -80.1145 -80.1145 -80.1142 -80.1142 -80.1142 -80.1141 -80.1140 -80.1140
   -80.1133 -80.1132 -80.1130 -80.1129 -80.1128 -80.1127 -80.1127 -80.1126
   -80.0964 -80.0963 -80.0961 -80.0960 -80.0960 -80.0959 -80.0959 -80.0958
    -8.6568  -8.6568  -7.7336  -7.7336  -7.7335  -7.7335  -7.6516  -7.6516
    -7.6057  -7.6057  -7.5853  -7.5853  -7.5657  -7.5657  -7.5657  -7.5657
    -7.5237  -7.5236  -7.5179  -7.5178  -7.5177  -7.5177  -7.5161  -7.5160
    -7.4842  -7.4842  -7.4835  -7.4834  -7.4282  -7.4282  -7.4281  -7.4281
    -7.3869  -7.3869  -7.3822  -7.3822  -7.3821  -7.3821  -7.3739  -7.3738
    -7.3738  -7.3737  -7.2904  -7.2903  -7.2756  -7.2756  -7.2755  -7.2755
    -7.2561  -7.2561  -7.1698  -7.1698  -7.1175  -7.1175  -7.1174  -7.1174
    -7.1145  -7.1144  -7.1034  -7.1033  -7.0555  -7.0555  -7.0238  -7.0237
    -7.0072  -7.0071  -6.9999  -6.9998  -6.9998  -6.9997  -6.9949  -6.9949
    -6.9343  -6.9342  -6.9295  -6.9295  -6.9247  -6.9247  -6.9246  -6.9246
    -6.9233  -6.9233  -6.9183  -6.9183  -6.9068  -6.9068  -6.8985  -6.8984
    -6.8856  -6.8855  -6.8855  -6.8854  -6.8091  -6.8091  -6.7952  -6.7951
    -6.7522  -6.7521  -6.7434  -6.7433  -6.7265  -6.7264  -6.7264  -6.7263
    -6.7058  -6.7057  -6.7056  -6.7055  -6.6851  -6.6851  -6.6654  -6.6654
    -6.6654  -6.6654  -6.6466  -6.6466  -6.6263  -6.6263  -6.6236  -6.6236
    -6.6236  -6.6236  -6.6017  -6.6016  -6.6006  -6.6006  -6.6006  -6.6005
    -6.5567  -6.5566  -6.5145  -6.5145  -6.5144  -6.5144  -6.5113  -6.5112
    -6.5085  -6.5085  -6.5035  -6.5034  -6.4887  -6.4887  -6.4719  -6.4719
    -6.4718  -6.4718  -6.4676  -6.4676  -6.4668  -6.4668  -6.4668  -6.4668
    -6.4640  -6.4640  -6.4503  -6.4503  -6.4419  -6.4418  -6.4240  -6.4240
    -6.4239  -6.4238  -6.0666  -6.0666  -6.0666  -6.0666  -5.1263  -5.1263
    -4.5593  -4.5593  -3.6277  -3.6277  -3.6276  -3.6276  -2.9904  -2.9904
    -2.9904  -2.9904  -2.0230  -2.0230  -1.3858  -1.3858  -1.2550  -1.2550
    -0.8662  -0.8662  -0.4462  -0.4462  -0.4462  -0.4462   0.6070   0.6070
     0.8985   0.8985   0.8985   0.8985   0.9455   0.9455   1.8564   1.8564
     1.8909   1.8909   2.0792   2.0792   2.2095   2.2095   2.4253   2.4253
     2.4254   2.4254   2.7365   2.7365   3.8446   3.8446   3.9377   3.9377
     3.9377   3.9377   4.6569   4.6569   4.6863   4.6863   4.8346   4.8346
     4.9295   4.9295   5.0714   5.0714   5.0715   5.0715   5.5966   5.5966
     5.5966   5.5966   5.6348   5.6348   5.6467   5.6467   6.2351   6.2351
     6.2352   6.2352   6.4394   6.4394   6.4395   6.4395   6.5911   6.5911
     6.7985   6.7985   6.8503   6.8503   6.8504   6.8504   7.1928   7.1929

     occupation numbers 
     1.0000   1.0000   1.0000   1.0000   1.0000   1.0000   1.0000   1.0000
     1.0000   1.0000   1.0000   1.0000   1.0000   1.0000   1.0000   1.0000
     1.0000   1.0000   1.0000   1.0000   1.0000   1.0000   1.0000   1.0000
     1.0000   1.0000   1.0000   1.0000   1.0000   1.0000   1.0000   1.0000
     1.0000   1.0000   1.0000   1.0000   1.0000   1.0000   1.0000   1.0000
[...]
    -6.5506  -6.5480  -6.5322  -6.5314  -6.5273  -6.5262  -6.5254  -6.5239
    -6.5221  -6.5194  -6.5116  -6.5062  -6.5012  -6.4980  -6.4951  -6.4941
    -6.4836  -6.4775  -6.4722  -6.4625  -6.4604  -6.4587  -6.4565  -6.4425
    -6.4355  -6.4294  -6.4099  -6.4065  -6.4004  -6.3956  -6.3676  -6.3655
    -6.3501  -6.3476  -6.3251  -6.2088  -5.9122  -5.5805  -5.2036  -4.9101
    -4.7391  -4.1553  -3.9038  -3.8226  -3.6110  -3.2628  -3.0912  -3.0549
    -2.8998  -2.4337  -2.3286  -1.9688  -1.7714  -1.5783  -1.1300  -0.9843
    -0.9246  -0.8923  -0.4865  -0.3994  -0.3306  -0.1306  -0.0608   0.1899
     0.2352   0.7811   0.8973   0.9111   0.9688   1.0313   1.3296   1.8078
     1.9261   2.1467   2.2965   2.3364   2.3569   2.3635   2.4037   2.9606
     3.1251   3.1508   3.1586   3.4257   3.6080   3.6497   3.7025   3.9927
     4.1281   4.2784   4.3054   4.5023   4.5492   4.5760   4.6544   4.7158
     4.7744   4.9193   5.0006   5.0242   5.1524   5.1906   5.1922   5.2198
     5.5014   5.6183   5.8116   5.8172   5.8369   5.8537   5.8884   5.9643
     6.0834   6.1094   6.2637   6.3750   6.4625   6.5152   6.5737   6.6140
     6.6652   6.7471   6.7900   6.8467   6.8875   6.9326   7.1250   7.2034

     occupation numbers 
     1.0000   1.0000   1.0000   1.0000   1.0000   1.0000   1.0000   1.0000
     1.0000   1.0000   1.0000   1.0000   1.0000   1.0000   1.0000   1.0000
     1.0000   1.0000   1.0000   1.0000   1.0000   1.0000   1.0000   1.0000
     1.0000   1.0000   1.0000   1.0000   1.0000   1.0000   1.0000   1.0000
     1.0000   1.0000   1.0000   1.0000   1.0000   1.0000   1.0000   1.0000
     1.0000   1.0000   1.0000   1.0000   1.0000   1.0000   1.0000   1.0000
     1.0000   1.0000   1.0000   1.0000   1.0000   1.0000   1.0000   1.0000
     1.0000   1.0000   1.0000   1.0000   1.0000   1.0000   1.0000   1.0000
     1.0000   1.0000   1.0000   1.0000   1.0000   1.0000   1.0000   1.0000
     1.0000   1.0000   1.0000   1.0000   1.0000   1.0000   1.0000   1.0000
     1.0000   1.0000   1.0000   1.0000   1.0000   1.0000   1.0000   1.0000
     1.0000   1.0000   1.0000   1.0000   1.0000   1.0000   1.0000   1.0000
     1.0000   1.0000   1.0000   1.0000   1.0000   1.0000   1.0000   1.0000
     1.0000   1.0000   1.0000   1.0000   1.0000   1.0000   1.0000   1.0000
     1.0000   1.0000   1.0000   1.0000   1.0000   1.0000   1.0000   1.0000
     1.0000   1.0000   1.0000   1.0000   1.0000   1.0000   1.0000   1.0000
     1.0000   1.0000   1.0000   1.0000   1.0000   1.0000   1.0000   1.0000
     1.0000   1.0000   1.0000   1.0000   1.0000   1.0000   1.0000   1.0000
     1.0000   1.0000   1.0000   1.0000   1.0000   1.0000   1.0000   1.0000
     1.0000   1.0000   1.0000   1.0000   1.0000   1.0000   1.0000   1.0000
     1.0000   1.0000   1.0000   1.0000   1.0000   1.0000   1.0000   1.0000
     1.0000   1.0000   1.0000   1.0000   1.0000   1.0000   1.0000   1.0000
     1.0000   1.0000   1.0000   1.0000   1.0000   1.0000   1.0000   1.0000
     1.0000   1.0000   1.0000   1.0000   1.0000   1.0000   1.0000   1.0000
     1.0000   1.0000   1.0000   1.0000   1.0000   1.0000   1.0000   1.0000
     1.0000   1.0000   1.0000   1.0000   1.0000   1.0000   1.0000   1.0000
     1.0000   1.0000   1.0000   1.0000   1.0000   1.0000   1.0000   1.0000
     1.0000   1.0000   1.0000   1.0000   1.0000   1.0000   1.0000   1.0000
     1.0000   1.0000   1.0000   1.0000   1.0000   1.0000   1.0000   1.0000
     1.0000   1.0000   1.0000   1.0000   1.0000   1.0000   1.0000   1.0000
     1.0000   1.0000   1.0000   1.0000   1.0000   1.0000   1.0000   1.0000
     1.0000   1.0000   1.0000   1.0000   1.0000   1.0000   1.0000   1.0000
     1.0000   1.0000   1.0000   1.0000   1.0000   1.0000   1.0000   1.0000
     1.0000   1.0000   1.0000   1.0000   1.0000   1.0000   1.0000   1.0000
     1.0000   1.0000   1.0000   1.0000   1.0000   1.0000   1.0000   1.0000
     1.0000   1.0000   1.0000   1.0000   1.0000   1.0000   1.0000   1.0000
     1.0000   1.0000   1.0000   1.0000   1.0000   1.0000   1.0000   1.0000
     1.0000   1.0000   1.0000   1.0000   1.0000   1.0000   1.0000   1.0000
     1.0000   1.0000   1.0000   1.0000   1.0000   1.0000   1.0000   1.0000
     1.0000   1.0000   1.0037   1.0118   1.0250   1.0825   1.0723   0.6178
     0.4931   0.0006   0.0001   0.0000   0.0000   0.0000   0.0000   0.0000
     0.0000   0.0000   0.0000   0.0000   0.0000   0.0000   0.0000   0.0000
     0.0000   0.0000   0.0000   0.0000   0.0000   0.0000   0.0000   0.0000
     0.0000   0.0000   0.0000   0.0000   0.0000   0.0000   0.0000   0.0000
     0.0000   0.0000   0.0000   0.0000   0.0000   0.0000   0.0000   0.0000
     0.0000   0.0000   0.0000   0.0000   0.0000   0.0000   0.0000   0.0000
     0.0000   0.0000   0.0000   0.0000   0.0000   0.0000   0.0000   0.0000
     0.0000   0.0000   0.0000   0.0000   0.0000   0.0000   0.0000   0.0000

          k = 0.2500-0.2330-0.0030 ( 76072 PWs)   bands (ev):

  -125.9979-125.9977-125.9974-125.9972-125.9968-125.9965-125.9963-125.9960
  -125.9875-125.9870-125.9868-125.9863-125.9863-125.9858-125.9856-125.9851
  -125.9619-125.9617-125.9614-125.9612-125.9608-125.9606-125.9603-125.9601
  -125.9320-125.9315-125.9313-125.9308-125.9308-125.9303-125.9302-125.9297
   -80.1631 -80.1628 -80.1620 -80.1618 -80.1605 -80.1603 -80.1594 -80.1592
   -80.1563 -80.1561 -80.1505 -80.1498 -80.1497 -80.1496 -80.1495 -80.1489
   -80.1487 -80.1479 -80.1478 -80.1471 -80.1468 -80.1461 -80.1456 -80.1452
   -80.1452 -80.1450 -80.1446 -80.1445 -80.1442 -80.1437 -80.1405 -80.1403
   -80.1386 -80.1379 -80.1374 -80.1368 -80.1366 -80.1360 -80.1358 -80.1351
   -80.1350 -80.1345 -80.1343 -80.1341 -80.1335 -80.1333 -80.1332 -80.1330
   -80.1329 -80.1326 -80.1321 -80.1319 -80.1291 -80.1283 -80.1222 -80.1215
   -80.1087 -80.1086 -80.1084 -80.1080 -80.1080 -80.1076 -80.1074 -80.1072
   -80.1071 -80.1068 -80.1055 -80.1051 -80.1049 -80.1047 -80.1045 -80.1043
   -80.1040 -80.1037 -80.1024 -80.1021 -80.0933 -80.0931 -80.0868 -80.0866
   -80.0803 -80.0798 -80.0796 -80.0791 -80.0791 -80.0786 -80.0785 -80.0783
   -80.0780 -80.0777 -80.0719 -80.0713 -80.0627 -80.0621 -80.0561 -80.0555
    -8.7323  -8.1171  -8.1065  -7.7049  -7.6803  -7.6739  -7.6467  -7.6277
    -7.5889  -7.5887  -7.5715  -7.5586  -7.5313  -7.5306  -7.5262  -7.5224
    -7.4937  -7.4809  -7.4727  -7.4646  -7.4596  -7.4505  -7.4256  -7.4155
    -7.4154  -7.4117  -7.3647  -7.3607  -7.3606  -7.3585  -7.3518  -7.3508
    -7.3413  -7.3397  -7.3226  -7.3037  -7.3015  -7.2831  -7.2725  -7.2697
    -7.2612  -7.2467  -7.2396  -7.2196  -7.2189  -7.2076  -7.1925  -7.1635
    -7.1615  -7.1560  -7.1546  -7.1522  -7.1502  -7.1256  -7.1128  -7.1075
    -7.1070  -7.0981  -7.0928  -7.0841  -7.0675  -7.0555  -7.0471  -7.0369
    -7.0214  -7.0109  -7.0105  -6.9934  -6.9767  -6.9627  -6.9603  -6.9465
    -6.9393  -6.9374  -6.9311  -6.9189  -6.9117  -6.9077  -6.8948  -6.8935
    -6.8840  -6.8807  -6.8765  -6.8562  -6.8512  -6.8417  -6.8367  -6.8325
    -6.8070  -6.8046  -6.8031  -6.7932  -6.7837  -6.7784  -6.7748  -6.7744
    -6.7662  -6.7533  -6.7501  -6.7434  -6.7403  -6.7380  -6.7056  -6.7012
    -6.6957  -6.6899  -6.6866  -6.6829  -6.6743  -6.6733  -6.6650  -6.6558
    -6.6392  -6.6361  -6.6341  -6.6192  -6.6176  -6.6079  -6.6072  -6.6054
    -6.6020  -6.6010  -6.5923  -6.5889  -6.5670  -6.5655  -6.5650  -6.5620
    -6.5506  -6.5480  -6.5322  -6.5314  -6.5273  -6.5262  -6.5254  -6.5239
    -6.5221  -6.5194  -6.5116  -6.5062  -6.5012  -6.4980  -6.4951  -6.4941
    -6.4836  -6.4775  -6.4722  -6.4625  -6.4604  -6.4587  -6.4565  -6.4426
    -6.4356  -6.4294  -6.4099  -6.4065  -6.4004  -6.3956  -6.3676  -6.3655
    -6.3501  -6.3476  -6.3251  -6.2088  -5.9122  -5.5805  -5.2036  -4.9101
    -4.7391  -4.1553  -3.9038  -3.8226  -3.6110  -3.2628  -3.0912  -3.0549
    -2.8998  -2.4337  -2.3286  -1.9688  -1.7714  -1.5783  -1.1300  -0.9843
    -0.9246  -0.8923  -0.4865  -0.3994  -0.3306  -0.1306  -0.0608   0.1899
     0.2352   0.7811   0.8973   0.9111   0.9688   1.0313   1.3296   1.8078
     1.9261   2.1467   2.2965   2.3364   2.3569   2.3635   2.4042   2.9606
     3.1251   3.1508   3.1593   3.4256   3.6080   3.6497   3.7025   3.9949
     4.1280   4.2784   4.2832   4.4951   4.5497   4.5863   4.6568   4.7158
     4.7744   4.9193   4.9714   5.0242   5.0716   5.1853   5.2296   5.4005
     5.5013   5.6236   5.7572   5.7603   5.8131   5.8884   5.9643   6.0806
     6.1121   6.1896   6.2692   6.2971   6.3430   6.4092   6.5188   6.5760
     6.6147   6.6847   6.7476   6.8678   6.8871   6.9326   6.9804   7.1254

     occupation numbers 
     1.0000   1.0000   1.0000   1.0000   1.0000   1.0000   1.0000   1.0000
     1.0000   1.0000   1.0000   1.0000   1.0000   1.0000   1.0000   1.0000
     1.0000   1.0000   1.0000   1.0000   1.0000   1.0000   1.0000   1.0000
     1.0000   1.0000   1.0000   1.0000   1.0000   1.0000   1.0000   1.0000
     1.0000   1.0000   1.0000   1.0000   1.0000   1.0000   1.0000   1.0000
     1.0000   1.0000   1.0000   1.0000   1.0000   1.0000   1.0000   1.0000
     1.0000   1.0000   1.0000   1.0000   1.0000   1.0000   1.0000   1.0000
     1.0000   1.0000   1.0000   1.0000   1.0000   1.0000   1.0000   1.0000
     1.0000   1.0000   1.0000   1.0000   1.0000   1.0000   1.0000   1.0000
     1.0000   1.0000   1.0000   1.0000   1.0000   1.0000   1.0000   1.0000
     1.0000   1.0000   1.0000   1.0000   1.0000   1.0000   1.0000   1.0000
     1.0000   1.0000   1.0000   1.0000   1.0000   1.0000   1.0000   1.0000
     1.0000   1.0000   1.0000   1.0000   1.0000   1.0000   1.0000   1.0000
     1.0000   1.0000   1.0000   1.0000   1.0000   1.0000   1.0000   1.0000
     1.0000   1.0000   1.0000   1.0000   1.0000   1.0000   1.0000   1.0000
     1.0000   1.0000   1.0000   1.0000   1.0000   1.0000   1.0000   1.0000
     1.0000   1.0000   1.0000   1.0000   1.0000   1.0000   1.0000   1.0000
     1.0000   1.0000   1.0000   1.0000   1.0000   1.0000   1.0000   1.0000
     1.0000   1.0000   1.0000   1.0000   1.0000   1.0000   1.0000   1.0000
     1.0000   1.0000   1.0000   1.0000   1.0000   1.0000   1.0000   1.0000
     1.0000   1.0000   1.0000   1.0000   1.0000   1.0000   1.0000   1.0000
     1.0000   1.0000   1.0000   1.0000   1.0000   1.0000   1.0000   1.0000
     1.0000   1.0000   1.0000   1.0000   1.0000   1.0000   1.0000   1.0000
     1.0000   1.0000   1.0000   1.0000   1.0000   1.0000   1.0000   1.0000
     1.0000   1.0000   1.0000   1.0000   1.0000   1.0000   1.0000   1.0000
     1.0000   1.0000   1.0000   1.0000   1.0000   1.0000   1.0000   1.0000
     1.0000   1.0000   1.0000   1.0000   1.0000   1.0000   1.0000   1.0000
     1.0000   1.0000   1.0000   1.0000   1.0000   1.0000   1.0000   1.0000
     1.0000   1.0000   1.0000   1.0000   1.0000   1.0000   1.0000   1.0000
     1.0000   1.0000   1.0000   1.0000   1.0000   1.0000   1.0000   1.0000
     1.0000   1.0000   1.0000   1.0000   1.0000   1.0000   1.0000   1.0000
     1.0000   1.0000   1.0000   1.0000   1.0000   1.0000   1.0000   1.0000
     1.0000   1.0000   1.0000   1.0000   1.0000   1.0000   1.0000   1.0000
     1.0000   1.0000   1.0000   1.0000   1.0000   1.0000   1.0000   1.0000
     1.0000   1.0000   1.0000   1.0000   1.0000   1.0000   1.0000   1.0000
     1.0000   1.0000   1.0000   1.0000   1.0000   1.0000   1.0000   1.0000
     1.0000   1.0000   1.0000   1.0000   1.0000   1.0000   1.0000   1.0000
     1.0000   1.0000   1.0000   1.0000   1.0000   1.0000   1.0000   1.0000
     1.0000   1.0000   1.0000   1.0000   1.0000   1.0000   1.0000   1.0000
     1.0000   1.0000   1.0037   1.0118   1.0250   1.0825   1.0723   0.6178
     0.4931   0.0006   0.0001   0.0000   0.0000   0.0000   0.0000   0.0000
     0.0000   0.0000   0.0000   0.0000   0.0000   0.0000   0.0000   0.0000
     0.0000   0.0000   0.0000   0.0000   0.0000   0.0000   0.0000   0.0000
     0.0000   0.0000   0.0000   0.0000   0.0000   0.0000   0.0000   0.0000
     0.0000   0.0000   0.0000   0.0000   0.0000   0.0000   0.0000   0.0000
     0.0000   0.0000   0.0000   0.0000   0.0000   0.0000   0.0000   0.0000
     0.0000   0.0000   0.0000   0.0000   0.0000   0.0000   0.0000   0.0000
     0.0000   0.0000   0.0000   0.0000   0.0000   0.0000   0.0000   0.0000

          k = 0.2500 0.4660 0.1375 ( 76063 PWs)   bands (ev):

  -125.9978-125.9977-125.9976-125.9975-125.9965-125.9964-125.9963-125.9962
  -125.9874-125.9873-125.9866-125.9865-125.9861-125.9860-125.9854-125.9853
  -125.9618-125.9617-125.9616-125.9615-125.9605-125.9604-125.9603-125.9602
  -125.9318-125.9317-125.9312-125.9311-125.9306-125.9304-125.9299-125.9298
   -80.1627 -80.1626 -80.1625 -80.1624 -80.1599 -80.1598 -80.1597 -80.1596
   -80.1537 -80.1536 -80.1535 -80.1534 -80.1502 -80.1501 -80.1494 -80.1493
   -80.1483 -80.1482 -80.1474 -80.1473 -80.1466 -80.1465 -80.1454 -80.1453
   -80.1449 -80.1448 -80.1439 -80.1438 -80.1426 -80.1425 -80.1419 -80.1418
   -80.1373 -80.1373 -80.1369 -80.1369 -80.1365 -80.1365 -80.1360 -80.1359
   -80.1354 -80.1353 -80.1347 -80.1346 -80.1334 -80.1333 -80.1332 -80.1331
   -80.1326 -80.1326 -80.1324 -80.1323 -80.1250 -80.1249 -80.1243 -80.1242
   -80.1084 -80.1083 -80.1079 -80.1078 -80.1072 -80.1071 -80.1070 -80.1069
   -80.1062 -80.1061 -80.1060 -80.1059 -80.1054 -80.1053 -80.1048 -80.1046
   -80.1045 -80.1044 -80.1039 -80.1038 -80.0894 -80.0893 -80.0892 -80.0892
   -80.0801 -80.0800 -80.0795 -80.0794 -80.0789 -80.0787 -80.0782 -80.0781
   -80.0758 -80.0757 -80.0752 -80.0751 -80.0588 -80.0587 -80.0582 -80.0581
    -8.4810  -8.4808  -7.9122  -7.9121  -7.5980  -7.5979  -7.5724  -7.5723
    -7.5487  -7.5485  -7.5334  -7.5333  -7.5309  -7.5309  -7.5122  -7.5121
    -7.5065  -7.5064  -7.4783  -7.4782  -7.4755  -7.4754  -7.4731  -7.4730
    -7.4572  -7.4571  -7.4195  -7.4195  -7.4099  -7.4099  -7.3788  -7.3787
    -7.3213  -7.3212  -7.3124  -7.3123  -7.3033  -7.3032  -7.2696  -7.2694
    -7.2662  -7.2661  -7.2464  -7.2463  -7.2259  -7.2258  -7.2166  -7.2165
    -7.2091  -7.2090  -7.1365  -7.1364  -7.1154  -7.1153  -7.1023  -7.1022
    -7.0929  -7.0928  -7.0890  -7.0889  -7.0745  -7.0744  -7.0676  -7.0675
    -7.0233  -7.0232  -6.9905  -6.9905  -6.9733  -6.9733  -6.9639  -6.9638
    -6.9503  -6.9503  -6.9421  -6.9420  -6.9067  -6.9066  -6.8864  -6.8863
    -6.8557  -6.8556  -6.8556  -6.8556  -6.8436  -6.8435  -6.8425  -6.8425
    -6.8074  -6.8073  -6.7954  -6.7953  -6.7845  -6.7845  -6.7686  -6.7686
    -6.7322  -6.7322  -6.7268  -6.7267  -6.7215  -6.7215  -6.7069  -6.7069
    -6.6845  -6.6844  -6.6694  -6.6694  -6.6681  -6.6681  -6.6286  -6.6285
    -6.6170  -6.6169  -6.6114  -6.6114  -6.6084  -6.6083  -6.6062  -6.6061
    -6.6017  -6.6017  -6.5935  -6.5935  -6.5712  -6.5711  -6.5603  -6.5603
    -6.5445  -6.5444  -6.5315  -6.5315  -6.5035  -6.5034  -6.5010  -6.5009
    -6.4982  -6.4982  -6.4778  -6.4778  -6.4727  -6.4727  -6.4711  -6.4711
    -6.4708  -6.4707  -6.4638  -6.4638  -6.4545  -6.4544  -6.4468  -6.4468
    -6.4341  -6.4340  -6.4331  -6.4330  -6.4289  -6.4288  -6.4200  -6.4200
    -6.4088  -6.4088  -6.3680  -6.3680  -5.3141  -5.3140  -4.9916  -4.9916
    -4.5221  -4.5221  -4.2567  -4.2567  -3.6622  -3.6621  -2.7726  -2.7725
    -2.6778  -2.6778  -2.1830  -2.1830  -1.9824  -1.9823  -1.0723  -1.0723
    -0.8513  -0.8512  -0.0768  -0.0768   0.2399   0.2399   0.2610   0.2611
     0.4549   0.4551   0.5384   0.5385   0.7235   0.7235   1.6414   1.6415
     1.9311   1.9311   2.0539   2.0539   2.6904   2.6905   3.2009   3.2009
     3.2650   3.2650   3.3753   3.3753   3.5980   3.5980   3.6908   3.6909
     3.8973   3.8973   4.2422   4.2425   4.4529   4.4529   4.5640   4.5677
     4.7610   4.7622   4.8179   4.8192   5.1216   5.1217   5.4067   5.4210
     5.4250   5.4476   5.6056   5.6060   5.7802   5.7803   5.8626   5.8633
     6.0462   6.0810   6.3059   6.3060   6.3201   6.3658   6.3658   6.3659
     6.9170   6.9427   6.9578   6.9589   7.0902   7.1293   7.3443   7.3456

     occupation numbers 
     1.0000   1.0000   1.0000   1.0000   1.0000   1.0000   1.0000   1.0000
     1.0000   1.0000   1.0000   1.0000   1.0000   1.0000   1.0000   1.0000
     1.0000   1.0000   1.0000   1.0000   1.0000   1.0000   1.0000   1.0000
     1.0000   1.0000   1.0000   1.0000   1.0000   1.0000   1.0000   1.0000
     1.0000   1.0000   1.0000   1.0000   1.0000   1.0000   1.0000   1.0000
     1.0000   1.0000   1.0000   1.0000   1.0000   1.0000   1.0000   1.0000
     1.0000   1.0000   1.0000   1.0000   1.0000   1.0000   1.0000   1.0000
     1.0000   1.0000   1.0000   1.0000   1.0000   1.0000   1.0000   1.0000
     1.0000   1.0000   1.0000   1.0000   1.0000   1.0000   1.0000   1.0000
     1.0000   1.0000   1.0000   1.0000   1.0000   1.0000   1.0000   1.0000
     1.0000   1.0000   1.0000   1.0000   1.0000   1.0000   1.0000   1.0000
     1.0000   1.0000   1.0000   1.0000   1.0000   1.0000   1.0000   1.0000
     1.0000   1.0000   1.0000   1.0000   1.0000   1.0000   1.0000   1.0000
     1.0000   1.0000   1.0000   1.0000   1.0000   1.0000   1.0000   1.0000
     1.0000   1.0000   1.0000   1.0000   1.0000   1.0000   1.0000   1.0000
     1.0000   1.0000   1.0000   1.0000   1.0000   1.0000   1.0000   1.0000
     1.0000   1.0000   1.0000   1.0000   1.0000   1.0000   1.0000   1.0000
     1.0000   1.0000   1.0000   1.0000   1.0000   1.0000   1.0000   1.0000
     1.0000   1.0000   1.0000   1.0000   1.0000   1.0000   1.0000   1.0000
     1.0000   1.0000   1.0000   1.0000   1.0000   1.0000   1.0000   1.0000
     1.0000   1.0000   1.0000   1.0000   1.0000   1.0000   1.0000   1.0000
     1.0000   1.0000   1.0000   1.0000   1.0000   1.0000   1.0000   1.0000
     1.0000   1.0000   1.0000   1.0000   1.0000   1.0000   1.0000   1.0000
     1.0000   1.0000   1.0000   1.0000   1.0000   1.0000   1.0000   1.0000
     1.0000   1.0000   1.0000   1.0000   1.0000   1.0000   1.0000   1.0000
     1.0000   1.0000   1.0000   1.0000   1.0000   1.0000   1.0000   1.0000
     1.0000   1.0000   1.0000   1.0000   1.0000   1.0000   1.0000   1.0000
     1.0000   1.0000   1.0000   1.0000   1.0000   1.0000   1.0000   1.0000
     1.0000   1.0000   1.0000   1.0000   1.0000   1.0000   1.0000   1.0000
     1.0000   1.0000   1.0000   1.0000   1.0000   1.0000   1.0000   1.0000
     1.0000   1.0000   1.0000   1.0000   1.0000   1.0000   1.0000   1.0000
     1.0000   1.0000   1.0000   1.0000   1.0000   1.0000   1.0000   1.0000
     1.0000   1.0000   1.0000   1.0000   1.0000   1.0000   1.0000   1.0000
     1.0000   1.0000   1.0000   1.0000   1.0000   1.0000   1.0000   1.0000
     1.0000   1.0000   1.0000   1.0000   1.0000   1.0000   1.0000   1.0000
     1.0000   1.0000   1.0000   1.0000   1.0000   1.0000   1.0000   1.0000
     1.0000   1.0000   1.0000   1.0000   1.0000   1.0000   1.0000   1.0000
     1.0000   1.0000   1.0000   1.0000   1.0000   1.0000   1.0000   1.0000
     1.0000   1.0000   1.0000   1.0000   1.0000   1.0000   1.0000   1.0000
     1.0000   1.0000   1.0781   1.0781   0.4804   0.4804   0.4249   0.4247
     0.0837   0.0836   0.0312   0.0312   0.0018   0.0018   0.0000   0.0000
     0.0000   0.0000   0.0000   0.0000   0.0000   0.0000   0.0000   0.0000
     0.0000   0.0000   0.0000   0.0000   0.0000   0.0000   0.0000   0.0000
     0.0000   0.0000   0.0000   0.0000   0.0000   0.0000   0.0000   0.0000
     0.0000   0.0000   0.0000   0.0000   0.0000   0.0000   0.0000   0.0000
     0.0000   0.0000   0.0000   0.0000   0.0000   0.0000   0.0000   0.0000
     0.0000   0.0000   0.0000   0.0000   0.0000   0.0000   0.0000   0.0000
     0.0000   0.0000   0.0000   0.0000   0.0000   0.0000   0.0000   0.0000

     the Fermi energy is     0.2705 ev

!    total energy              =  -14769.08544122 Ry
     estimated scf accuracy    <       0.00000015 Ry
     smearing contrib. (-TS)   =       0.00243535 Ry
     internal energy E=F+TS    =  -14769.08787657 Ry

     The total energy is F=E-TS. E is the sum of the following terms:
     one-electron contribution =  -60272.47148574 Ry
     hartree contribution      =   30067.07595165 Ry
     xc contribution           =   -1348.26319175 Ry
     ewald contribution        =   16784.57084927 Ry

     convergence has been achieved in   8 iterations
