--------------------------------------------------------------------------
WARNING: There was an error initializing an OpenFabrics device.

  Local host:   ga01
  Local device: mlx5_0
--------------------------------------------------------------------------

     Program PWSCF v.7.3.1 starts on  5Apr2025 at 22:23:33 

     This program is part of the open-source Quantum ESPRESSO suite
     for quantum simulation of materials; please cite
         "P. Giannozzi et al., J. Phys.:Condens. Matter 21 395502 (2009);
         "P. Giannozzi et al., J. Phys.:Condens. Matter 29 465901 (2017);
         "P. Giannozzi et al., J. Chem. Phys. 152 154105 (2020);
          URL http://www.quantum-espresso.org", 
     in publications or presentations arising from this work. More details at
     http://www.quantum-espresso.org/quote

     Parallel version (MPI), running on    28 processors

     MPI processes distributed on     1 nodes
     186265 MiB available memory on the printing compute node when the environment starts

     Waiting for input...
     Reading input from standard input
Warning: card &CELL ignored
Warning: card   CELL_DOFREE = 'ALL' ignored
Warning: card / ignored

     Current dimensions of program PWSCF are:
     Max number of different atomic species (ntypx) = 10
     Max number of k-points (npk) =  40000
     Max angular momentum in pseudopotentials (lmaxx) =  4
     Presently stress not available with electric field and gates


     File ./tmp/Zn002_3layer_relax.update deleted, as requested

     File ./tmp/Zn002_3layer_relax.bfgs deleted, as requested

     R & G space division:  proc/nbgrp/npool/nimage =      28
     Subspace diagonalization in iterative solution of the eigenvalue problem:
     one sub-group per band group will be used
     custom distributed-memory algorithm (size of sub-group:  5*  5 procs)


     Parallelization info
     --------------------
     sticks:   dense  smooth     PW     G-vecs:    dense   smooth      PW
     Min         269     153     41                42893    18525    2555
     Max         271     154     43                42896    18536    2560
     Sum        7555    4303   1159              1201061   518755   71619

     Using Slab Decomposition



     bravais-lattice index     =            0
     lattice parameter (alat)  =      19.7617  a.u.
     unit-cell volume          =   15176.5939 (a.u.)^3
     number of atoms/cell      =           48
     number of atomic types    =            1
     number of electrons       =       960.00
     number of Kohn-Sham states=          576
     kinetic-energy cutoff     =      40.0000  Ry
     charge density cutoff     =     280.0000  Ry
     scf convergence threshold =      1.0E-06
     mixing beta               =       0.4000
     number of iterations used =            8  plain     mixing
     energy convergence thresh.=      1.0E-05
     force convergence thresh. =      5.0E-04
     Exchange-correlation= SLA  PW   PBE  PBE
                           (   1   4   3   4   0   0   0)
     nstep                     =          500


     celldm(1)=  19.761696  celldm(2)=   0.000000  celldm(3)=   0.000000
     celldm(4)=   0.000000  celldm(5)=   0.000000  celldm(6)=   0.000000

     crystal axes: (cart. coord. in units of alat)
               a(1) = (   1.000000   0.000000   0.000000 )  
               a(2) = (  -0.500000   0.866025   0.000000 )  
               a(3) = (   0.000000   0.000000   2.270759 )  

     reciprocal axes: (cart. coord. in units 2 pi/alat)
               b(1) = (  1.000000  0.577350 -0.000000 )  
               b(2) = (  0.000000  1.154701  0.000000 )  
               b(3) = (  0.000000 -0.000000  0.440381 )  


     PseudoPot. # 1 for Zn read from file:
     /home/yongsang/Research/PSID_server_room/qe/[00]QE/qepseudo/SSSP_1.3.0_PBE_efficiency/Zn_pbe_v1.uspp.F.UPF
     MD5 check sum: df62231357ef9e81f77b2b3087fa5675
     Pseudo is Ultrasoft, Zval = 20.0
     Generated by new atomic code, or converted to UPF format
     Using radial grid of  943 points,  6 beta functions with: 
                l(1) =   0
                l(2) =   0
                l(3) =   1
                l(4) =   1
                l(5) =   2
                l(6) =   2
     Q(r) pseudized with  8 coefficients,  rinner =    1.100   1.100   1.100
                                                       1.100   1.100

     atomic species   valence    mass     pseudopotential
     Zn               20.00    65.38000     Zn( 1.00)

     No symmetry found


                                    s                        frac. trans.

      isym =  1     identity                                     

 cryst.   s( 1) = (     1          0          0      )
                  (     0          1          0      )
                  (     0          0          1      )

 cart.    s( 1) = (  1.0000000  0.0000000  0.0000000 )
                  (  0.0000000  1.0000000  0.0000000 )
                  (  0.0000000  0.0000000  1.0000000 )


   Cartesian axes

     site n.     atom                  positions (alat units)
         1        Zn     tau(   1) = (   0.0000000   0.1443375   0.1164998  )
         2        Zn     tau(   2) = (   0.5000000   0.1443375   0.1164998  )
         3        Zn     tau(   3) = (  -0.0020855   0.1431244   0.5996847  )
         4        Zn     tau(   4) = (   0.5097769   0.1500105   0.5996335  )
         5        Zn     tau(   5) = (  -0.1250000   0.3608439   0.1164998  )
         6        Zn     tau(   6) = (   0.3750000   0.3608439   0.1164998  )
         7        Zn     tau(   7) = (  -0.1270877   0.3596321   0.5995739  )
         8        Zn     tau(   8) = (   0.3847897   0.3665079   0.5995135  )
         9        Zn     tau(   9) = (  -0.2500000   0.5773502   0.1164998  )
        10        Zn     tau(  10) = (   0.2500000   0.5773502   0.1164998  )
        11        Zn     tau(  11) = (  -0.2521151   0.5761402   0.5994627  )
        12        Zn     tau(  12) = (   0.2598079   0.5829859   0.5995948  )
        13        Zn     tau(  13) = (  -0.3750000   0.7938567   0.1164998  )
        14        Zn     tau(  14) = (   0.1250000   0.7938567   0.1164998  )
        15        Zn     tau(  15) = (  -0.3771052   0.7926459   0.5995626  )
        16        Zn     tau(  16) = (   0.1347999   0.7995007   0.5997166  )
        17        Zn     tau(  17) = (   0.2500000   0.1443375   0.1164998  )
        18        Zn     tau(  18) = (   0.7500000   0.1443375   0.1164998  )
        19        Zn     tau(  19) = (   0.2479505   0.1431672   0.5997340  )
        20        Zn     tau(  20) = (   0.7479396   0.1431463   0.5995877  )
        21        Zn     tau(  21) = (   0.1250000   0.3608439   0.1164998  )
        22        Zn     tau(  22) = (   0.6250000   0.3608439   0.1164998  )
        23        Zn     tau(  23) = (   0.1229663   0.3596613   0.5997188  )
        24        Zn     tau(  24) = (   0.6229097   0.3596646   0.5993776  )
        25        Zn     tau(  25) = (   0.0000000   0.5773502   0.1164998  )
        26        Zn     tau(  26) = (   0.5000000   0.5773502   0.1164998  )
        27        Zn     tau(  27) = (  -0.0020354   0.5761562   0.5997133  )
        28        Zn     tau(  28) = (   0.4979232   0.5761481   0.5993579  )
        29        Zn     tau(  29) = (  -0.1250000   0.7938567   0.1164998  )
        30        Zn     tau(  30) = (   0.3750000   0.7938567   0.1164998  )
        31        Zn     tau(  31) = (  -0.1270612   0.7926827   0.5997227  )
        32        Zn     tau(  32) = (   0.3729460   0.7926508   0.5995637  )
        33        Zn     tau(  33) = (   0.1228962   0.0709700   0.3581390  )
        34        Zn     tau(  34) = (   0.6236411   0.0714242   0.3581048  )
        35        Zn     tau(  35) = (  -0.0020791   0.2874383   0.3581387  )
        36        Zn     tau(  36) = (   0.4986160   0.2879246   0.3580490  )
        37        Zn     tau(  37) = (  -0.1271200   0.5039363   0.3580712  )
        38        Zn     tau(  38) = (   0.3736601   0.5043675   0.3580209  )
        39        Zn     tau(  39) = (  -0.2521434   0.7204945   0.3580708  )
        40        Zn     tau(  40) = (   0.2486851   0.7208856   0.3580819  )
        41        Zn     tau(  41) = (   0.3733303   0.0712698   0.3581428  )
        42        Zn     tau(  42) = (   0.8729618   0.0709789   0.3581001  )
        43        Zn     tau(  43) = (   0.2483799   0.2877344   0.3581306  )
        44        Zn     tau(  44) = (   0.7479170   0.2874848   0.3580461  )
        45        Zn     tau(  45) = (   0.1234041   0.5041902   0.3581190  )
        46        Zn     tau(  46) = (   0.6228851   0.5039708   0.3579784  )
        47        Zn     tau(  47) = (  -0.0016421   0.7207501   0.3581396  )
        48        Zn     tau(  48) = (   0.4979317   0.7204821   0.3580222  )

     --------------------------------------------
     DFT-D3 Dispersion Correction (3-body terms):
     --------------------------------------------
       Reference C6 values for interpolation: 

         atom   Coordination number   C6
         Zn         0.000           681.04
         Zn         1.942           306.91

       Values used:

         atom   Coordination number  R0_AB[au]  C6      C8
         Zn         6.586            3.053    306.91  23930.67
         Zn         6.584            3.053    306.91  23930.67
         Zn         6.588            3.053    306.91  23930.67
         Zn         6.481            3.053    306.91  23930.67
         Zn         6.587            3.053    306.91  23930.67
         Zn         6.586            3.053    306.91  23930.67
         Zn         6.590            3.053    306.91  23930.67
         Zn         6.486            3.053    306.91  23930.67
         Zn         6.588            3.053    306.91  23930.67
         Zn         6.585            3.053    306.91  23930.67
         Zn         6.592            3.053    306.91  23930.67
         Zn         6.482            3.053    306.91  23930.67
         Zn         6.587            3.053    306.91  23930.67
         Zn         6.583            3.053    306.91  23930.67
         Zn         6.591            3.053    306.91  23930.67
         Zn         6.477            3.053    306.91  23930.67
         Zn         6.581            3.053    306.91  23930.67
         Zn         6.593            3.053    306.91  23930.67
         Zn         6.321            3.053    306.91  23930.67
         Zn         6.753            3.053    306.91  23930.67
         Zn         6.581            3.053    306.91  23930.67
         Zn         6.595            3.053    306.91  23930.67
         Zn         6.321            3.053    306.91  23930.67
         Zn         6.760            3.053    306.91  23930.67
         Zn         6.581            3.053    306.91  23930.67
         Zn         6.596            3.053    306.91  23930.67
         Zn         6.319            3.053    306.91  23930.67
         Zn         6.761            3.053    306.91  23930.67
         Zn         6.581            3.053    306.91  23930.67
         Zn         6.593            3.053    306.91  23930.67
         Zn         6.319            3.053    306.91  23930.67
         Zn         6.755            3.053    306.91  23930.67
         Zn         7.987            3.053    306.91  23930.67
         Zn         8.093            3.053    306.91  23930.67
         Zn         7.987            3.053    306.91  23930.67
         Zn         8.101            3.053    306.91  23930.67
         Zn         7.987            3.053    306.91  23930.67
         Zn         8.102            3.053    306.91  23930.67
         Zn         7.988            3.053    306.91  23930.67
         Zn         8.094            3.053    306.91  23930.67
         Zn         7.881            3.053    306.91  23930.67
         Zn         8.017            3.053    306.91  23930.67
         Zn         7.884            3.053    306.91  23930.67
         Zn         8.020            3.053    306.91  23930.67
         Zn         7.881            3.053    306.91  23930.67
         Zn         8.025            3.053    306.91  23930.67
         Zn         7.877            3.053    306.91  23930.67
         Zn         8.022            3.053    306.91  23930.67

         Molecular C6 ( Ry / a.u.^6 ) =    707110.50


   Crystallographic axes

     site n.     atom                  positions (cryst. coord.)
         1        Zn     tau(   1) = (  0.0833333  0.1666666  0.0513044  )
         2        Zn     tau(   2) = (  0.5833333  0.1666666  0.0513044  )
         3        Zn     tau(   3) = (  0.0805475  0.1652659  0.2640900  )
         4        Zn     tau(   4) = (  0.5963855  0.1732172  0.2640674  )
         5        Zn     tau(   5) = (  0.0833333  0.4166666  0.0513044  )
         6        Zn     tau(   6) = (  0.5833333  0.4166666  0.0513044  )
         7        Zn     tau(   7) = (  0.0805460  0.4152674  0.2640412  )
         8        Zn     tau(   8) = (  0.5963931  0.4232068  0.2640146  )
         9        Zn     tau(   9) = (  0.0833333  0.6666666  0.0513044  )
        10        Zn     tau(  10) = (  0.5833333  0.6666666  0.0513044  )
        11        Zn     tau(  11) = (  0.0805196  0.6652694  0.2639923  )
        12        Zn     tau(  12) = (  0.5963950  0.6731741  0.2640504  )
        13        Zn     tau(  13) = (  0.0833333  0.9166667  0.0513044  )
        14        Zn     tau(  14) = (  0.5833334  0.9166667  0.0513044  )
        15        Zn     tau(  15) = (  0.0805291  0.9152686  0.2640362  )
        16        Zn     tau(  16) = (  0.5963918  0.9231839  0.2641041  )
        17        Zn     tau(  17) = (  0.3333333  0.1666666  0.0513044  )
        18        Zn     tau(  18) = (  0.8333334  0.1666666  0.0513044  )
        19        Zn     tau(  19) = (  0.3306081  0.1653152  0.2641117  )
        20        Zn     tau(  20) = (  0.8305852  0.1652911  0.2640473  )
        21        Zn     tau(  21) = (  0.3333333  0.4166666  0.0513044  )
        22        Zn     tau(  22) = (  0.8333333  0.4166666  0.0513044  )
        23        Zn     tau(  23) = (  0.3306168  0.4153011  0.2641050  )
        24        Zn     tau(  24) = (  0.8305622  0.4153049  0.2639548  )
        25        Zn     tau(  25) = (  0.3333333  0.6666666  0.0513044  )
        26        Zn     tau(  26) = (  0.8333333  0.6666666  0.0513044  )
        27        Zn     tau(  27) = (  0.3306085  0.6652879  0.2641026  )
        28        Zn     tau(  28) = (  0.8305624  0.6652785  0.2639461  )
        29        Zn     tau(  29) = (  0.3333334  0.9166667  0.0513044  )
        30        Zn     tau(  30) = (  0.8333334  0.9166667  0.0513044  )
        31        Zn     tau(  31) = (  0.3305944  0.9153111  0.2641067  )
        32        Zn     tau(  32) = (  0.8305831  0.9152743  0.2640367  )
        33        Zn     tau(  33) = (  0.1638707  0.0819492  0.1577178  )
        34        Zn     tau(  34) = (  0.6648778  0.0824736  0.1577027  )
        35        Zn     tau(  35) = (  0.1638735  0.3319052  0.1577176  )
        36        Zn     tau(  36) = (  0.6648494  0.3324667  0.1576781  )
        37        Zn     tau(  37) = (  0.1638278  0.5818955  0.1576879  )
        38        Zn     tau(  38) = (  0.6648568  0.5823934  0.1576657  )
        39        Zn     tau(  39) = (  0.1638343  0.8319554  0.1576877  )
        40        Zn     tau(  40) = (  0.6648886  0.8324070  0.1576926  )
        41        Zn     tau(  41) = (  0.4144780  0.0822953  0.1577195  )
        42        Zn     tau(  42) = (  0.9139415  0.0819594  0.1577006  )
        43        Zn     tau(  43) = (  0.4145035  0.3322471  0.1577141  )
        44        Zn     tau(  44) = (  0.9138964  0.3319588  0.1576768  )
        45        Zn     tau(  45) = (  0.4144985  0.5821887  0.1577090  )
        46        Zn     tau(  46) = (  0.9138528  0.5819354  0.1576470  )
        47        Zn     tau(  47) = (  0.4144831  0.8322505  0.1577180  )
        48        Zn     tau(  48) = (  0.9139023  0.8319410  0.1576663  )

     number of k points=     5  Marzari-Vanderbilt smearing, width (Ry)=  0.0200
                       cart. coord. in units 2pi/alat
        k(    1) = (   0.0000000   0.0000000   0.0000000), wk =   0.2222222
        k(    2) = (   0.0000000   0.3849002   0.0000000), wk =   0.4444444
        k(    3) = (   0.3333333   0.1924501   0.0000000), wk =   0.4444444
        k(    4) = (   0.3333333   0.5773503   0.0000000), wk =   0.4444444
        k(    5) = (   0.3333333  -0.1924501   0.0000000), wk =   0.4444444

                       cryst. coord.
        k(    1) = (   0.0000000   0.0000000   0.0000000), wk =   0.2222222
        k(    2) = (   0.0000000   0.3333333   0.0000000), wk =   0.4444444
        k(    3) = (   0.3333333   0.0000000   0.0000000), wk =   0.4444444
        k(    4) = (   0.3333333   0.3333333   0.0000000), wk =   0.4444444
        k(    5) = (   0.3333333  -0.3333333   0.0000000), wk =   0.4444444

     Dense  grid:  1201061 G-vectors     FFT dimensions: ( 108, 108, 240)

     Smooth grid:   518755 G-vectors     FFT dimensions: (  80,  80, 192)

     Dynamical RAM for                 wfc:      20.35 MB

     Dynamical RAM for     wfc (w. buffer):     122.08 MB

     Dynamical RAM for           str. fact:       0.65 MB

     Dynamical RAM for           local pot:       0.00 MB

     Dynamical RAM for          nlocal pot:      30.52 MB

     Dynamical RAM for                qrad:       1.34 MB

     Dynamical RAM for          rho,v,vnew:       4.37 MB

     Dynamical RAM for               rhoin:       1.46 MB

     Dynamical RAM for            rho*nmix:      10.47 MB

     Dynamical RAM for           G-vectors:       2.60 MB

     Dynamical RAM for          h,s,v(r/c):       2.42 MB

     Dynamical RAM for          <psi|beta>:       7.59 MB

     Dynamical RAM for                 psi:      40.69 MB

     Dynamical RAM for                hpsi:      40.69 MB

     Dynamical RAM for                spsi:      40.69 MB

     Dynamical RAM for      wfcinit/wfcrot:      53.00 MB

     Dynamical RAM for           addusdens:     153.16 MB

     Dynamical RAM for          addusforce:     215.20 MB

     Estimated static dynamical RAM per process >     168.33 MB

     Estimated max dynamical RAM per process >     394.00 MB

     Estimated total dynamical RAM >      10.77 GB

     Initial potential from superposition of free atoms

     starting charge     959.9932, renormalised to     960.0000

     negative rho (up, down):  4.013E-03 0.000E+00

     Adding external electric field

     Computed dipole along edir(1) : 
        Elec. dipole         -0.4292 Ry au,         -1.0910 Debye
        Ion. dipole          -0.6447 Ry au,         -1.6387 Debye
        Dipole             -260.2130 Ry au,       -661.3955 Debye
        Dipole field         -0.2155 Ry au, 

        Potential amp.        7.6641 Ry
        Total length         17.7855 bohr

     Starting wfcs are  624 randomized atomic wfcs
[ga01:3025653] 27 more processes have sent help message help-mpi-btl-openib.txt / error in device init
[ga01:3025653] Set MCA parameter "orte_base_help_aggregate" to 0 to see all help / error messages

     total cpu time spent up to now is       24.6 secs

     Self-consistent Calculation

     iteration #  1     ecut=    40.00 Ry     beta= 0.40
     Davidson diagonalization with overlap

---- Real-time Memory Report at c_bands before calling an iterative solver
           405 MiB given to the printing process from OS
             0 MiB allocation reported by mallinfo(arena+hblkhd)
        179814 MiB available memory on the node where the printing process lives
------------------
     ethr =  1.00E-02,  avg # of iterations = 12.4

     negative rho (up, down):  1.105E-03 0.000E+00

     Adding external electric field

     Computed dipole along edir(1) : 
        Elec. dipole         -1.3237 Ry au,         -3.3644 Debye
        Ion. dipole          -0.6447 Ry au,         -1.6387 Debye
        Dipole              819.9815 Ry au,       2084.1851 Debye
        Dipole field          0.6790 Ry au, 

        Potential amp.      -24.1511 Ry
        Total length         17.7855 bohr


     total cpu time spent up to now is      277.1 secs

     total energy              =  -13672.63090014 Ry
     estimated scf accuracy    <   14510.14469723 Ry

     iteration #  2     ecut=    40.00 Ry     beta= 0.40
     Davidson diagonalization with overlap

---- Real-time Memory Report at c_bands before calling an iterative solver
           529 MiB given to the printing process from OS
             0 MiB allocation reported by mallinfo(arena+hblkhd)
        179846 MiB available memory on the node where the printing process lives
------------------
     ethr =  1.00E-02,  avg # of iterations = 32.0

     negative rho (up, down):  1.815E-03 0.000E+00

     Adding external electric field

     Computed dipole along edir(1) : 
        Elec. dipole         -0.7591 Ry au,         -1.9296 Debye
        Ion. dipole          -0.6447 Ry au,         -1.6387 Debye
        Dipole              138.2084 Ry au,        351.2907 Debye
        Dipole field          0.1144 Ry au, 

        Potential amp.       -4.0707 Ry
        Total length         17.7855 bohr


     total cpu time spent up to now is     1210.1 secs

     total energy              =  -20148.91263841 Ry
     estimated scf accuracy    <   60769.60726784 Ry

     iteration #  3     ecut=    40.00 Ry     beta= 0.40
     Davidson diagonalization with overlap

---- Real-time Memory Report at c_bands before calling an iterative solver
           542 MiB given to the printing process from OS
             0 MiB allocation reported by mallinfo(arena+hblkhd)
        179787 MiB available memory on the node where the printing process lives
------------------
     ethr =  1.00E-02,  avg # of iterations = 13.2

     negative rho (up, down):  3.146E-03 0.000E+00

     Adding external electric field

     Computed dipole along edir(1) : 
        Elec. dipole         -0.7071 Ry au,         -1.7972 Debye
        Ion. dipole          -0.6447 Ry au,         -1.6387 Debye
        Dipole               75.3051 Ry au,        191.4065 Debye
        Dipole field          0.0624 Ry au, 

        Potential amp.       -2.2180 Ry
        Total length         17.7855 bohr


     total cpu time spent up to now is     1601.6 secs

     total energy              =  -22191.81342787 Ry
     estimated scf accuracy    <    7025.94739130 Ry

     iteration #  4     ecut=    40.00 Ry     beta= 0.40
     Davidson diagonalization with overlap

---- Real-time Memory Report at c_bands before calling an iterative solver
           543 MiB given to the printing process from OS
             0 MiB allocation reported by mallinfo(arena+hblkhd)
        179757 MiB available memory on the node where the printing process lives
------------------
     ethr =  1.00E-02,  avg # of iterations = 11.8

     negative rho (up, down):  3.172E-03 0.000E+00

     Adding external electric field

     Computed dipole along edir(1) : 
        Elec. dipole         -0.6424 Ry au,         -1.6328 Debye
        Ion. dipole          -0.6447 Ry au,         -1.6387 Debye
        Dipole               -2.7856 Ry au,         -7.0804 Debye
        Dipole field         -0.0023 Ry au, 

        Potential amp.        0.0820 Ry
        Total length         17.7855 bohr


     total cpu time spent up to now is     1841.6 secs

     total energy              =  -22242.35573763 Ry
     estimated scf accuracy    <    3874.48015252 Ry

     iteration #  5     ecut=    40.00 Ry     beta= 0.40
     Davidson diagonalization with overlap

---- Real-time Memory Report at c_bands before calling an iterative solver
           544 MiB given to the printing process from OS
             0 MiB allocation reported by mallinfo(arena+hblkhd)
        179725 MiB available memory on the node where the printing process lives
------------------
     ethr =  1.00E-02,  avg # of iterations =  6.2

     negative rho (up, down):  2.991E-03 0.000E+00

     Adding external electric field

     Computed dipole along edir(1) : 
        Elec. dipole         -0.6520 Ry au,         -1.6572 Debye
        Ion. dipole          -0.6447 Ry au,         -1.6387 Debye
        Dipole                8.8150 Ry au,         22.4054 Debye
        Dipole field          0.0073 Ry au, 

        Potential amp.       -0.2596 Ry
        Total length         17.7855 bohr


     total cpu time spent up to now is     1970.9 secs

     total energy              =  -22436.02998371 Ry
     estimated scf accuracy    <     727.83866059 Ry

     iteration #  6     ecut=    40.00 Ry     beta= 0.40
     Davidson diagonalization with overlap

---- Real-time Memory Report at c_bands before calling an iterative solver
           545 MiB given to the printing process from OS
             0 MiB allocation reported by mallinfo(arena+hblkhd)
        179707 MiB available memory on the node where the printing process lives
------------------
     ethr =  1.00E-02,  avg # of iterations =  2.4

     negative rho (up, down):  3.215E-03 0.000E+00

     Adding external electric field

     Computed dipole along edir(1) : 
        Elec. dipole         -0.6478 Ry au,         -1.6465 Debye
        Ion. dipole          -0.6447 Ry au,         -1.6387 Debye
        Dipole                3.7120 Ry au,          9.4351 Debye
        Dipole field          0.0031 Ry au, 

        Potential amp.       -0.1093 Ry
        Total length         17.7855 bohr


     total cpu time spent up to now is     2054.3 secs

     total energy              =  -22406.00017208 Ry
     estimated scf accuracy    <     693.85506823 Ry

     iteration #  7     ecut=    40.00 Ry     beta= 0.40
     Davidson diagonalization with overlap

---- Real-time Memory Report at c_bands before calling an iterative solver
           545 MiB given to the printing process from OS
             0 MiB allocation reported by mallinfo(arena+hblkhd)
        179690 MiB available memory on the node where the printing process lives
------------------
     ethr =  1.00E-02,  avg # of iterations =  1.0

     negative rho (up, down):  3.250E-03 0.000E+00

     Adding external electric field

     Computed dipole along edir(1) : 
        Elec. dipole         -0.6246 Ry au,         -1.5876 Debye
        Ion. dipole          -0.6447 Ry au,         -1.6387 Debye
        Dipole              -24.2576 Ry au,        -61.6566 Debye
        Dipole field         -0.0201 Ry au, 

        Potential amp.        0.7145 Ry
        Total length         17.7855 bohr


     total cpu time spent up to now is     2115.6 secs

     total energy              =  -22273.01078813 Ry
     estimated scf accuracy    <     612.35160878 Ry

     iteration #  8     ecut=    40.00 Ry     beta= 0.40
     Davidson diagonalization with overlap

---- Real-time Memory Report at c_bands before calling an iterative solver
           546 MiB given to the printing process from OS
             0 MiB allocation reported by mallinfo(arena+hblkhd)
        179664 MiB available memory on the node where the printing process lives
------------------
     ethr =  1.00E-02,  avg # of iterations =  2.0

     negative rho (up, down):  4.533E-03 0.000E+00

     Adding external electric field

     Computed dipole along edir(1) : 
        Elec. dipole         -0.6182 Ry au,         -1.5714 Debye
        Ion. dipole          -0.6447 Ry au,         -1.6387 Debye
        Dipole              -31.9904 Ry au,        -81.3114 Debye
        Dipole field         -0.0265 Ry au, 

        Potential amp.        0.9422 Ry
        Total length         17.7855 bohr


     total cpu time spent up to now is     2197.1 secs

     total energy              =  -22254.25595079 Ry
     estimated scf accuracy    <     811.02979156 Ry

     iteration #  9     ecut=    40.00 Ry     beta= 0.40
     Davidson diagonalization with overlap

---- Real-time Memory Report at c_bands before calling an iterative solver
           546 MiB given to the printing process from OS
             0 MiB allocation reported by mallinfo(arena+hblkhd)
        179640 MiB available memory on the node where the printing process lives
------------------
     ethr =  1.00E-02,  avg # of iterations =  1.0

     negative rho (up, down):  4.772E-03 0.000E+00

     Adding external electric field

     Computed dipole along edir(1) : 
        Elec. dipole         -0.6124 Ry au,         -1.5566 Debye
        Ion. dipole          -0.6447 Ry au,         -1.6387 Debye
        Dipole              -39.0120 Ry au,        -99.1585 Debye
        Dipole field         -0.0323 Ry au, 

        Potential amp.        1.1490 Ry
        Total length         17.7855 bohr


     total cpu time spent up to now is     2258.5 secs

     total energy              =  -22237.89966931 Ry
     estimated scf accuracy    <     608.67270849 Ry

     iteration # 10     ecut=    40.00 Ry     beta= 0.40
     Davidson diagonalization with overlap

---- Real-time Memory Report at c_bands before calling an iterative solver
           547 MiB given to the printing process from OS
             0 MiB allocation reported by mallinfo(arena+hblkhd)
        179621 MiB available memory on the node where the printing process lives
------------------
     ethr =  1.00E-02,  avg # of iterations =  1.0

     negative rho (up, down):  4.135E-03 0.000E+00

     Adding external electric field

     Computed dipole along edir(1) : 
        Elec. dipole         -0.5539 Ry au,         -1.4079 Debye
        Ion. dipole          -0.6447 Ry au,         -1.6387 Debye
        Dipole             -109.6344 Ry au,       -278.6629 Debye
        Dipole field         -0.0908 Ry au, 

        Potential amp.        3.2291 Ry
        Total length         17.7855 bohr


     total cpu time spent up to now is     2320.0 secs

     total energy              =  -22116.60205072 Ry
     estimated scf accuracy    <     306.62744810 Ry

     iteration # 11     ecut=    40.00 Ry     beta= 0.40
     Davidson diagonalization with overlap

---- Real-time Memory Report at c_bands before calling an iterative solver
           548 MiB given to the printing process from OS
             0 MiB allocation reported by mallinfo(arena+hblkhd)
        179619 MiB available memory on the node where the printing process lives
------------------
     ethr =  1.00E-02,  avg # of iterations =  6.8

     negative rho (up, down):  3.544E-03 0.000E+00

     Adding external electric field

     Computed dipole along edir(1) : 
        Elec. dipole         -0.5775 Ry au,         -1.4679 Debye
        Ion. dipole          -0.6447 Ry au,         -1.6387 Debye
        Dipole              -81.1646 Ry au,       -206.2998 Debye
        Dipole field         -0.0672 Ry au, 

        Potential amp.        2.3906 Ry
        Total length         17.7855 bohr


     total cpu time spent up to now is     2466.6 secs

     total energy              =  -22097.69768551 Ry
     estimated scf accuracy    <     873.38261835 Ry

     iteration # 12     ecut=    40.00 Ry     beta= 0.40
     Davidson diagonalization with overlap

---- Real-time Memory Report at c_bands before calling an iterative solver
           548 MiB given to the printing process from OS
             0 MiB allocation reported by mallinfo(arena+hblkhd)
        179611 MiB available memory on the node where the printing process lives
------------------
     ethr =  1.00E-02,  avg # of iterations =  5.0

     negative rho (up, down):  3.545E-03 0.000E+00

     Adding external electric field

     Computed dipole along edir(1) : 
        Elec. dipole         -0.6000 Ry au,         -1.5250 Debye
        Ion. dipole          -0.6447 Ry au,         -1.6387 Debye
        Dipole              -54.0301 Ry au,       -137.3309 Debye
        Dipole field         -0.0447 Ry au, 

        Potential amp.        1.5914 Ry
        Total length         17.7855 bohr


     total cpu time spent up to now is     2565.5 secs

     total energy              =  -22131.30148489 Ry
     estimated scf accuracy    <     155.04372581 Ry

     iteration # 13     ecut=    40.00 Ry     beta= 0.40
     Davidson diagonalization with overlap

---- Real-time Memory Report at c_bands before calling an iterative solver
           548 MiB given to the printing process from OS
             0 MiB allocation reported by mallinfo(arena+hblkhd)
        179605 MiB available memory on the node where the printing process lives
------------------
     ethr =  1.00E-02,  avg # of iterations =  4.0

     negative rho (up, down):  3.825E-03 0.000E+00

     Adding external electric field

     Computed dipole along edir(1) : 
        Elec. dipole         -0.5734 Ry au,         -1.4574 Debye
        Ion. dipole          -0.6447 Ry au,         -1.6387 Debye
        Dipole              -86.1282 Ry au,       -218.9160 Debye
        Dipole field         -0.0713 Ry au, 

        Potential amp.        2.5367 Ry
        Total length         17.7855 bohr


     total cpu time spent up to now is     2668.5 secs

     total energy              =  -22143.63976396 Ry
     estimated scf accuracy    <     154.41588839 Ry

     iteration # 14     ecut=    40.00 Ry     beta= 0.40
     Davidson diagonalization with overlap

---- Real-time Memory Report at c_bands before calling an iterative solver
           548 MiB given to the printing process from OS
             0 MiB allocation reported by mallinfo(arena+hblkhd)
        179605 MiB available memory on the node where the printing process lives
------------------
     ethr =  1.00E-02,  avg # of iterations =  3.0

     negative rho (up, down):  3.952E-03 0.000E+00

     Adding external electric field

     Computed dipole along edir(1) : 
        Elec. dipole         -0.5717 Ry au,         -1.4532 Debye
        Ion. dipole          -0.6447 Ry au,         -1.6387 Debye
        Dipole              -88.1419 Ry au,       -224.0345 Debye
        Dipole field         -0.0730 Ry au, 

        Potential amp.        2.5961 Ry
        Total length         17.7855 bohr


     total cpu time spent up to now is     2747.3 secs

     total energy              =  -22140.86099754 Ry
     estimated scf accuracy    <      82.13829118 Ry

     iteration # 15     ecut=    40.00 Ry     beta= 0.40
     Davidson diagonalization with overlap

---- Real-time Memory Report at c_bands before calling an iterative solver
           548 MiB given to the printing process from OS
             0 MiB allocation reported by mallinfo(arena+hblkhd)
        179603 MiB available memory on the node where the printing process lives
------------------
     ethr =  8.56E-03,  avg # of iterations =  1.4

     negative rho (up, down):  3.871E-03 0.000E+00

     Adding external electric field

     Computed dipole along edir(1) : 
        Elec. dipole         -0.5679 Ry au,         -1.4433 Debye
        Ion. dipole          -0.6447 Ry au,         -1.6387 Debye
        Dipole              -92.8194 Ry au,       -235.9235 Debye
        Dipole field         -0.0769 Ry au, 

        Potential amp.        2.7338 Ry
        Total length         17.7855 bohr


     total cpu time spent up to now is     2814.1 secs

     total energy              =  -22139.08343942 Ry
     estimated scf accuracy    <      37.02679075 Ry

     iteration # 16     ecut=    40.00 Ry     beta= 0.40
     Davidson diagonalization with overlap

---- Real-time Memory Report at c_bands before calling an iterative solver
           548 MiB given to the printing process from OS
             0 MiB allocation reported by mallinfo(arena+hblkhd)
        179599 MiB available memory on the node where the printing process lives
------------------
     ethr =  3.86E-03,  avg # of iterations =  3.6

     negative rho (up, down):  3.749E-03 0.000E+00

     Adding external electric field

     Computed dipole along edir(1) : 
        Elec. dipole         -0.5680 Ry au,         -1.4438 Debye
        Ion. dipole          -0.6447 Ry au,         -1.6387 Debye
        Dipole              -92.5816 Ry au,       -235.3189 Debye
        Dipole field         -0.0767 Ry au, 

        Potential amp.        2.7268 Ry
        Total length         17.7855 bohr


     total cpu time spent up to now is     2891.0 secs

     total energy              =  -22138.06941892 Ry
     estimated scf accuracy    <      21.70364714 Ry

     iteration # 17     ecut=    40.00 Ry     beta= 0.40
     Davidson diagonalization with overlap

---- Real-time Memory Report at c_bands before calling an iterative solver
           548 MiB given to the printing process from OS
             0 MiB allocation reported by mallinfo(arena+hblkhd)
        179592 MiB available memory on the node where the printing process lives
------------------
     ethr =  2.26E-03,  avg # of iterations =  6.8

     negative rho (up, down):  4.641E-03 0.000E+00

     Adding external electric field

     Computed dipole along edir(1) : 
        Elec. dipole         -0.5645 Ry au,         -1.4347 Debye
        Ion. dipole          -0.6447 Ry au,         -1.6387 Debye
        Dipole              -96.9250 Ry au,       -246.3589 Debye
        Dipole field         -0.0803 Ry au, 

        Potential amp.        2.8548 Ry
        Total length         17.7855 bohr


     total cpu time spent up to now is     2973.9 secs

     total energy              =  -22132.57266892 Ry
     estimated scf accuracy    <      17.17374208 Ry

     iteration # 18     ecut=    40.00 Ry     beta= 0.40
     Davidson diagonalization with overlap

---- Real-time Memory Report at c_bands before calling an iterative solver
           548 MiB given to the printing process from OS
             0 MiB allocation reported by mallinfo(arena+hblkhd)
        179590 MiB available memory on the node where the printing process lives
------------------
     ethr =  1.79E-03,  avg # of iterations =  9.4

     negative rho (up, down):  3.789E-03 0.000E+00

     Adding external electric field

     Computed dipole along edir(1) : 
        Elec. dipole         -0.5669 Ry au,         -1.4410 Debye
        Ion. dipole          -0.6447 Ry au,         -1.6387 Debye
        Dipole              -93.9359 Ry au,       -238.7612 Debye
        Dipole field         -0.0778 Ry au, 

        Potential amp.        2.7667 Ry
        Total length         17.7855 bohr


     total cpu time spent up to now is     3091.2 secs

     total energy              =  -22132.98392948 Ry
     estimated scf accuracy    <      20.36502063 Ry

     iteration # 19     ecut=    40.00 Ry     beta= 0.40
     Davidson diagonalization with overlap

---- Real-time Memory Report at c_bands before calling an iterative solver
           548 MiB given to the printing process from OS
             0 MiB allocation reported by mallinfo(arena+hblkhd)
        179589 MiB available memory on the node where the printing process lives
------------------
     ethr =  1.79E-03,  avg # of iterations =  4.0

     negative rho (up, down):  3.770E-03 0.000E+00

     Adding external electric field

     Computed dipole along edir(1) : 
        Elec. dipole         -0.5670 Ry au,         -1.4411 Debye
        Ion. dipole          -0.6447 Ry au,         -1.6387 Debye
        Dipole              -93.8862 Ry au,       -238.6350 Debye
        Dipole field         -0.0777 Ry au, 

        Potential amp.        2.7652 Ry
        Total length         17.7855 bohr


     total cpu time spent up to now is     3169.7 secs

     total energy              =  -22134.72456432 Ry
     estimated scf accuracy    <       3.13660950 Ry

     iteration # 20     ecut=    40.00 Ry     beta= 0.40
     Davidson diagonalization with overlap

---- Real-time Memory Report at c_bands before calling an iterative solver
           548 MiB given to the printing process from OS
             0 MiB allocation reported by mallinfo(arena+hblkhd)
        179585 MiB available memory on the node where the printing process lives
------------------
     ethr =  3.27E-04,  avg # of iterations =  3.6

     negative rho (up, down):  3.962E-03 0.000E+00

     Adding external electric field

     Computed dipole along edir(1) : 
        Elec. dipole         -0.5662 Ry au,         -1.4391 Debye
        Ion. dipole          -0.6447 Ry au,         -1.6387 Debye
        Dipole              -94.8267 Ry au,       -241.0253 Debye
        Dipole field         -0.0785 Ry au, 

        Potential amp.        2.7929 Ry
        Total length         17.7855 bohr


     total cpu time spent up to now is     3247.6 secs

     total energy              =  -22133.86128738 Ry
     estimated scf accuracy    <       2.24399224 Ry

     iteration # 21     ecut=    40.00 Ry     beta= 0.40
     Davidson diagonalization with overlap

---- Real-time Memory Report at c_bands before calling an iterative solver
           548 MiB given to the printing process from OS
             0 MiB allocation reported by mallinfo(arena+hblkhd)
        179576 MiB available memory on the node where the printing process lives
------------------
     ethr =  2.34E-04,  avg # of iterations =  7.2

     negative rho (up, down):  3.814E-03 0.000E+00

     Adding external electric field

     Computed dipole along edir(1) : 
        Elec. dipole         -0.5663 Ry au,         -1.4395 Debye
        Ion. dipole          -0.6447 Ry au,         -1.6387 Debye
        Dipole              -94.6570 Ry au,       -240.5941 Debye
        Dipole field         -0.0784 Ry au, 

        Potential amp.        2.7880 Ry
        Total length         17.7855 bohr


     total cpu time spent up to now is     3341.5 secs

     total energy              =  -22134.19699543 Ry
     estimated scf accuracy    <       0.45700683 Ry

     iteration # 22     ecut=    40.00 Ry     beta= 0.40
     Davidson diagonalization with overlap

---- Real-time Memory Report at c_bands before calling an iterative solver
           548 MiB given to the printing process from OS
             0 MiB allocation reported by mallinfo(arena+hblkhd)
        179573 MiB available memory on the node where the printing process lives
------------------
     ethr =  4.76E-05,  avg # of iterations = 10.8

     negative rho (up, down):  3.769E-03 0.000E+00

     Adding external electric field

     Computed dipole along edir(1) : 
        Elec. dipole         -0.5661 Ry au,         -1.4390 Debye
        Ion. dipole          -0.6447 Ry au,         -1.6387 Debye
        Dipole              -94.8759 Ry au,       -241.1504 Debye
        Dipole field         -0.0786 Ry au, 

        Potential amp.        2.7944 Ry
        Total length         17.7855 bohr


     total cpu time spent up to now is     3431.4 secs

     total energy              =  -22134.21486865 Ry
     estimated scf accuracy    <       0.15231194 Ry

     iteration # 23     ecut=    40.00 Ry     beta= 0.40
     Davidson diagonalization with overlap

---- Real-time Memory Report at c_bands before calling an iterative solver
           548 MiB given to the printing process from OS
             0 MiB allocation reported by mallinfo(arena+hblkhd)
        179574 MiB available memory on the node where the printing process lives
------------------
     ethr =  1.59E-05,  avg # of iterations = 14.2

     negative rho (up, down):  3.654E-03 0.000E+00

     Adding external electric field

     Computed dipole along edir(1) : 
        Elec. dipole         -0.5665 Ry au,         -1.4400 Debye
        Ion. dipole          -0.6447 Ry au,         -1.6387 Debye
        Dipole              -94.4108 Ry au,       -239.9683 Debye
        Dipole field         -0.0782 Ry au, 

        Potential amp.        2.7807 Ry
        Total length         17.7855 bohr


     total cpu time spent up to now is     3526.0 secs

     total energy              =  -22134.20464930 Ry
     estimated scf accuracy    <       0.33042487 Ry

     iteration # 24     ecut=    40.00 Ry     beta= 0.40
     Davidson diagonalization with overlap

---- Real-time Memory Report at c_bands before calling an iterative solver
           548 MiB given to the printing process from OS
             0 MiB allocation reported by mallinfo(arena+hblkhd)
        179571 MiB available memory on the node where the printing process lives
------------------
     c_bands:  1 eigenvalues not converged
     ethr =  1.59E-05,  avg # of iterations = 10.6

     negative rho (up, down):  3.614E-03 0.000E+00

     Adding external electric field

     Computed dipole along edir(1) : 
        Elec. dipole         -0.5663 Ry au,         -1.4393 Debye
        Ion. dipole          -0.6447 Ry au,         -1.6387 Debye
        Dipole              -94.7370 Ry au,       -240.7974 Debye
        Dipole field         -0.0784 Ry au, 

        Potential amp.        2.7903 Ry
        Total length         17.7855 bohr


     total cpu time spent up to now is     3612.1 secs

     total energy              =  -22134.22681097 Ry
     estimated scf accuracy    <       0.07993529 Ry

     iteration # 25     ecut=    40.00 Ry     beta= 0.40
     Davidson diagonalization with overlap

---- Real-time Memory Report at c_bands before calling an iterative solver
           548 MiB given to the printing process from OS
             0 MiB allocation reported by mallinfo(arena+hblkhd)
        179561 MiB available memory on the node where the printing process lives
------------------
     ethr =  8.33E-06,  avg # of iterations =  7.4

     negative rho (up, down):  3.623E-03 0.000E+00

     Adding external electric field

     Computed dipole along edir(1) : 
        Elec. dipole         -0.5665 Ry au,         -1.4400 Debye
        Ion. dipole          -0.6447 Ry au,         -1.6387 Debye
        Dipole              -94.4084 Ry au,       -239.9623 Debye
        Dipole field         -0.0782 Ry au, 

        Potential amp.        2.7806 Ry
        Total length         17.7855 bohr


     total cpu time spent up to now is     3692.7 secs

     total energy              =  -22134.23008229 Ry
     estimated scf accuracy    <       0.01784376 Ry

     iteration # 26     ecut=    40.00 Ry     beta= 0.40
     Davidson diagonalization with overlap

---- Real-time Memory Report at c_bands before calling an iterative solver
           548 MiB given to the printing process from OS
             0 MiB allocation reported by mallinfo(arena+hblkhd)
        179560 MiB available memory on the node where the printing process lives
------------------
     c_bands:  1 eigenvalues not converged
     c_bands:  1 eigenvalues not converged
     ethr =  1.86E-06,  avg # of iterations = 13.0

     negative rho (up, down):  3.621E-03 0.000E+00

     Adding external electric field

     Computed dipole along edir(1) : 
        Elec. dipole         -0.5664 Ry au,         -1.4397 Debye
        Ion. dipole          -0.6447 Ry au,         -1.6387 Debye
        Dipole              -94.5636 Ry au,       -240.3567 Debye
        Dipole field         -0.0783 Ry au, 

        Potential amp.        2.7852 Ry
        Total length         17.7855 bohr


     total cpu time spent up to now is     3785.4 secs

     total energy              =  -22134.23149361 Ry
     estimated scf accuracy    <       0.00943395 Ry

     iteration # 27     ecut=    40.00 Ry     beta= 0.40
     Davidson diagonalization with overlap

---- Real-time Memory Report at c_bands before calling an iterative solver
           548 MiB given to the printing process from OS
             0 MiB allocation reported by mallinfo(arena+hblkhd)
        179560 MiB available memory on the node where the printing process lives
------------------
     ethr =  9.83E-07,  avg # of iterations =  5.0

     negative rho (up, down):  3.626E-03 0.000E+00

     Adding external electric field

     Computed dipole along edir(1) : 
        Elec. dipole         -0.5664 Ry au,         -1.4397 Debye
        Ion. dipole          -0.6447 Ry au,         -1.6387 Debye
        Dipole              -94.5228 Ry au,       -240.2530 Debye
        Dipole field         -0.0783 Ry au, 

        Potential amp.        2.7840 Ry
        Total length         17.7855 bohr


     total cpu time spent up to now is     3863.7 secs

     total energy              =  -22134.23225233 Ry
     estimated scf accuracy    <       0.00415938 Ry

     iteration # 28     ecut=    40.00 Ry     beta= 0.40
     Davidson diagonalization with overlap

---- Real-time Memory Report at c_bands before calling an iterative solver
           548 MiB given to the printing process from OS
             0 MiB allocation reported by mallinfo(arena+hblkhd)
        179559 MiB available memory on the node where the printing process lives
------------------
     ethr =  4.33E-07,  avg # of iterations =  2.0

     negative rho (up, down):  3.631E-03 0.000E+00

     Adding external electric field

     Computed dipole along edir(1) : 
        Elec. dipole         -0.5665 Ry au,         -1.4398 Debye
        Ion. dipole          -0.6447 Ry au,         -1.6387 Debye
        Dipole              -94.4952 Ry au,       -240.1828 Debye
        Dipole field         -0.0782 Ry au, 

        Potential amp.        2.7832 Ry
        Total length         17.7855 bohr


     total cpu time spent up to now is     3938.7 secs

     total energy              =  -22134.23267007 Ry
     estimated scf accuracy    <       0.00067417 Ry

     iteration # 29     ecut=    40.00 Ry     beta= 0.40
     Davidson diagonalization with overlap

---- Real-time Memory Report at c_bands before calling an iterative solver
           548 MiB given to the printing process from OS
             0 MiB allocation reported by mallinfo(arena+hblkhd)
        179550 MiB available memory on the node where the printing process lives
------------------
     ethr =  7.02E-08,  avg # of iterations =  2.8

     negative rho (up, down):  3.633E-03 0.000E+00

     Adding external electric field

     Computed dipole along edir(1) : 
        Elec. dipole         -0.5664 Ry au,         -1.4397 Debye
        Ion. dipole          -0.6447 Ry au,         -1.6387 Debye
        Dipole              -94.5243 Ry au,       -240.2568 Debye
        Dipole field         -0.0783 Ry au, 

        Potential amp.        2.7840 Ry
        Total length         17.7855 bohr


     total cpu time spent up to now is     4014.6 secs

     total energy              =  -22134.23269140 Ry
     estimated scf accuracy    <       0.00081639 Ry

     iteration # 30     ecut=    40.00 Ry     beta= 0.40
     Davidson diagonalization with overlap

---- Real-time Memory Report at c_bands before calling an iterative solver
           548 MiB given to the printing process from OS
             0 MiB allocation reported by mallinfo(arena+hblkhd)
        179546 MiB available memory on the node where the printing process lives
------------------
     ethr =  7.02E-08,  avg # of iterations =  1.6

     negative rho (up, down):  3.640E-03 0.000E+00

     Adding external electric field

     Computed dipole along edir(1) : 
        Elec. dipole         -0.5664 Ry au,         -1.4398 Debye
        Ion. dipole          -0.6447 Ry au,         -1.6387 Debye
        Dipole              -94.5134 Ry au,       -240.2291 Debye
        Dipole field         -0.0783 Ry au, 

        Potential amp.        2.7837 Ry
        Total length         17.7855 bohr


     total cpu time spent up to now is     4084.0 secs

     total energy              =  -22134.23277633 Ry
     estimated scf accuracy    <       0.00018222 Ry

     iteration # 31     ecut=    40.00 Ry     beta= 0.40
     Davidson diagonalization with overlap

---- Real-time Memory Report at c_bands before calling an iterative solver
           548 MiB given to the printing process from OS
             0 MiB allocation reported by mallinfo(arena+hblkhd)
        179545 MiB available memory on the node where the printing process lives
------------------
     ethr =  1.90E-08,  avg # of iterations =  2.8

     negative rho (up, down):  3.645E-03 0.000E+00

     Adding external electric field

     Computed dipole along edir(1) : 
        Elec. dipole         -0.5664 Ry au,         -1.4398 Debye
        Ion. dipole          -0.6447 Ry au,         -1.6387 Debye
        Dipole              -94.5190 Ry au,       -240.2434 Debye
        Dipole field         -0.0783 Ry au, 

        Potential amp.        2.7839 Ry
        Total length         17.7855 bohr


     total cpu time spent up to now is     4159.8 secs

     total energy              =  -22134.23280466 Ry
     estimated scf accuracy    <       0.00004337 Ry

     iteration # 32     ecut=    40.00 Ry     beta= 0.40
     Davidson diagonalization with overlap

---- Real-time Memory Report at c_bands before calling an iterative solver
           548 MiB given to the printing process from OS
             0 MiB allocation reported by mallinfo(arena+hblkhd)
        179544 MiB available memory on the node where the printing process lives
------------------
     ethr =  4.52E-09,  avg # of iterations =  3.4

     negative rho (up, down):  3.648E-03 0.000E+00

     Adding external electric field

     Computed dipole along edir(1) : 
        Elec. dipole         -0.5664 Ry au,         -1.4398 Debye
        Ion. dipole          -0.6447 Ry au,         -1.6387 Debye
        Dipole              -94.5211 Ry au,       -240.2488 Debye
        Dipole field         -0.0783 Ry au, 

        Potential amp.        2.7839 Ry
        Total length         17.7855 bohr


     total cpu time spent up to now is     4236.4 secs

     total energy              =  -22134.23281307 Ry
     estimated scf accuracy    <       0.00002114 Ry

     iteration # 33     ecut=    40.00 Ry     beta= 0.40
     Davidson diagonalization with overlap

---- Real-time Memory Report at c_bands before calling an iterative solver
           548 MiB given to the printing process from OS
             0 MiB allocation reported by mallinfo(arena+hblkhd)
        179535 MiB available memory on the node where the printing process lives
------------------
     ethr =  2.20E-09,  avg # of iterations =  2.6

     negative rho (up, down):  3.651E-03 0.000E+00

     Adding external electric field

     Computed dipole along edir(1) : 
        Elec. dipole         -0.5664 Ry au,         -1.4398 Debye
        Ion. dipole          -0.6447 Ry au,         -1.6387 Debye
        Dipole              -94.5187 Ry au,       -240.2426 Debye
        Dipole field         -0.0783 Ry au, 

        Potential amp.        2.7839 Ry
        Total length         17.7855 bohr


     total cpu time spent up to now is     4312.3 secs

     total energy              =  -22134.23281745 Ry
     estimated scf accuracy    <       0.00002993 Ry

     iteration # 34     ecut=    40.00 Ry     beta= 0.40
     Davidson diagonalization with overlap

---- Real-time Memory Report at c_bands before calling an iterative solver
           548 MiB given to the printing process from OS
             0 MiB allocation reported by mallinfo(arena+hblkhd)
        179530 MiB available memory on the node where the printing process lives
------------------
     ethr =  2.20E-09,  avg # of iterations =  3.4

     negative rho (up, down):  3.653E-03 0.000E+00

     Adding external electric field

     Computed dipole along edir(1) : 
        Elec. dipole         -0.5664 Ry au,         -1.4398 Debye
        Ion. dipole          -0.6447 Ry au,         -1.6387 Debye
        Dipole              -94.5200 Ry au,       -240.2458 Debye
        Dipole field         -0.0783 Ry au, 

        Potential amp.        2.7839 Ry
        Total length         17.7855 bohr


     total cpu time spent up to now is     4388.6 secs

     total energy              =  -22134.23282079 Ry
     estimated scf accuracy    <       0.00000199 Ry

     iteration # 35     ecut=    40.00 Ry     beta= 0.40
     Davidson diagonalization with overlap

---- Real-time Memory Report at c_bands before calling an iterative solver
           548 MiB given to the printing process from OS
             0 MiB allocation reported by mallinfo(arena+hblkhd)
        179530 MiB available memory on the node where the printing process lives
------------------
     ethr =  2.07E-10,  avg # of iterations =  3.4

     negative rho (up, down):  3.654E-03 0.000E+00

     Adding external electric field

     Computed dipole along edir(1) : 
        Elec. dipole         -0.5664 Ry au,         -1.4398 Debye
        Ion. dipole          -0.6447 Ry au,         -1.6387 Debye
        Dipole              -94.5190 Ry au,       -240.2434 Debye
        Dipole field         -0.0783 Ry au, 

        Potential amp.        2.7839 Ry
        Total length         17.7855 bohr


     total cpu time spent up to now is     4465.4 secs

     total energy              =  -22134.23282118 Ry
     estimated scf accuracy    <       0.00000232 Ry

     iteration # 36     ecut=    40.00 Ry     beta= 0.40
     Davidson diagonalization with overlap

---- Real-time Memory Report at c_bands before calling an iterative solver
           549 MiB given to the printing process from OS
             0 MiB allocation reported by mallinfo(arena+hblkhd)
        179529 MiB available memory on the node where the printing process lives
------------------
     ethr =  2.07E-10,  avg # of iterations =  3.2

     negative rho (up, down):  3.655E-03 0.000E+00

     Adding external electric field

     Computed dipole along edir(1) : 
        Elec. dipole         -0.5664 Ry au,         -1.4397 Debye
        Ion. dipole          -0.6447 Ry au,         -1.6387 Debye
        Dipole              -94.5271 Ry au,       -240.2639 Debye
        Dipole field         -0.0783 Ry au, 

        Potential amp.        2.7841 Ry
        Total length         17.7855 bohr


     total cpu time spent up to now is     4541.4 secs

     End of self-consistent calculation

          k = 0.0000 0.0000 0.0000 ( 64855 PWs)   bands (ev):

  -132.0661-132.0652-132.0649-132.0639-131.6947-131.6938-131.6920-131.6911
  -131.4497-131.4488-131.4488-131.4479-129.3820-129.3811-129.3811-129.3802
  -129.3344-129.3334-129.3333-129.3323-129.2584-129.2576-129.2576-129.2567
  -129.2147-129.2138-129.2138-129.2129-129.0424-129.0416-129.0415-129.0407
  -129.0063-129.0054-129.0054-129.0046-128.2350-128.2341-128.2341-128.2332
  -128.2254-128.2245-128.2245-128.2236-126.9849-126.9840-126.9835-126.9825
   -86.8741 -86.8659 -86.8649 -86.8646 -86.8636 -86.8611 -86.8610 -86.8480
   -86.0994 -86.0984 -86.0967 -86.0956 -86.0288 -86.0158 -86.0158 -86.0108
   -86.0098 -86.0097 -86.0088 -86.0029 -85.7523 -85.7406 -85.7396 -85.7393
   -85.7391 -85.7378 -85.7368 -85.7262 -84.7769 -84.7759 -84.7756 -84.7746
   -84.3851 -84.3841 -84.3841 -84.3832 -83.5514 -83.5504 -83.5503 -83.5493
   -83.5415 -83.5291 -83.5290 -83.5245 -83.5235 -83.5234 -83.5224 -83.5167
   -83.5019 -83.5007 -83.5005 -83.4993 -83.4865 -83.4786 -83.4776 -83.4775
   -83.4765 -83.4741 -83.4740 -83.4616 -83.4218 -83.4208 -83.4208 -83.4197
   -83.4186 -83.4078 -83.4068 -83.4068 -83.4062 -83.4062 -83.4059 -83.3938
   -83.3740 -83.3674 -83.3664 -83.3664 -83.3658 -83.3654 -83.3649 -83.3649
   -83.3640 -83.3618 -83.3618 -83.3495 -83.2119 -83.1996 -83.1996 -83.1962
   -83.1953 -83.1952 -83.1943 -83.1881 -83.1873 -83.1872 -83.1871 -83.1862
   -83.1760 -83.1637 -83.1637 -83.1590 -83.1581 -83.1580 -83.1571 -83.1528
   -83.1518 -83.1518 -83.1514 -83.1509 -82.4711 -82.4586 -82.4586 -82.4535
   -82.4462 -82.4410 -82.4410 -82.4286 -82.3844 -82.3835 -82.3834 -82.3825
   -82.3747 -82.3738 -82.3738 -82.3728 -82.3443 -82.3433 -82.3433 -82.3424
   -82.3392 -82.3383 -82.3383 -82.3373 -81.2242 -81.2123 -81.2121 -81.2003
   -81.1682 -81.1673 -81.1668 -81.1658 -80.8740 -80.8730 -80.8725 -80.8715
   -14.5503 -14.2155 -14.0425 -14.0150 -14.0149 -13.9695 -13.9694 -13.7013
   -13.6511 -13.6369 -13.3194 -13.3116 -13.2176 -13.2175 -13.1355 -13.1304
   -13.1304 -13.0471 -13.0470 -13.0143 -13.0095 -12.9182 -12.9182 -12.8158
   -12.8156 -12.8141 -12.7806 -12.7303 -12.7227 -12.7227 -12.6945 -12.6651
   -12.6651 -12.6114 -12.5602 -12.4949 -12.4654 -12.4642 -12.4640 -12.2437
   -12.2192 -12.1172 -12.1073 -12.1072 -12.0674 -12.0673 -11.9780 -11.9436
   -11.9160 -11.8669 -11.8668 -11.8242 -11.7381 -11.7005 -11.5657 -11.5376
   -11.5376 -11.4922 -11.4922 -11.3770 -11.3244 -11.3161 -11.3160 -11.2734
   -11.2554 -11.0399 -10.9606 -10.9086 -10.8645 -10.8424 -10.8336 -10.8336
   -10.8317 -10.8011 -10.8011 -10.7867 -10.7481 -10.6917 -10.6466 -10.6450
   -10.6450 -10.6262 -10.6176 -10.6176 -10.6111 -10.6095 -10.6095 -10.5977
   -10.5590 -10.5424 -10.5251 -10.5251 -10.5057 -10.4651 -10.4633 -10.4632
   -10.4488 -10.4395 -10.4395 -10.4208 -10.4207 -10.4081 -10.3984 -10.3978
   -10.3977 -10.3767 -10.3766 -10.3711 -10.3276 -10.3084 -10.3084 -10.3010
   -10.2861 -10.2861 -10.2698 -10.2698 -10.2603 -10.2294 -10.2293 -10.2113
   -10.2113 -10.1714 -10.1687 -10.1654 -10.1622 -10.1622 -10.1412 -10.1165
   -10.1136 -10.1132 -10.0984 -10.0947 -10.0946 -10.0590 -10.0590 -10.0559
   -10.0487 -10.0487 -10.0457 -10.0166 -10.0059  -9.9937  -9.9895  -9.9895
    -9.9834  -9.9706  -9.9654  -9.9503  -9.9498  -9.9498  -9.9346  -9.9346
    -9.9260  -9.9012  -9.8995  -9.8994  -9.8993  -9.8838  -9.8838  -9.8769
    -9.8681  -9.8681  -9.8626  -9.8563  -9.8518  -9.8518  -9.8470  -9.8273
    -9.8006  -9.8006  -9.7958  -9.7958  -9.7957  -9.7594  -9.7570  -9.7523
    -9.7516  -9.7516  -9.7244  -9.7073  -9.6694  -9.6575  -9.6575  -9.6408
    -9.6219  -9.5864  -9.5785  -9.5669  -9.5172  -9.4501  -9.4501  -9.3929
    -9.3756  -9.3428  -9.2405  -9.2404  -9.2178  -9.2178  -9.2163  -9.2142
    -9.1954  -9.1772  -9.1772  -9.1604  -9.1604  -9.1100  -9.1099  -9.0587
    -9.0587  -9.0501  -9.0362  -9.0049  -9.0049  -8.9996  -8.9995  -8.9889
    -8.9762  -8.9523  -8.9411  -8.9411  -8.9402  -8.9378  -8.9378  -8.9255
    -8.9062  -8.8793  -8.8594  -8.8141  -8.8068  -8.7475  -8.7342  -8.7168
    -8.3091  -8.2375  -8.2375  -8.0501  -8.0418  -8.0246  -8.0245  -7.9398
    -7.9397  -7.8563  -7.7402  -7.7040  -7.7039  -7.6982  -7.6834  -7.6833
    -7.6171  -7.5802  -7.5095  -7.5094  -7.4937  -7.3977  -7.3976  -7.3295
    -7.3002  -6.9355  -6.9074  -6.7693  -6.5328  -6.5328  -5.9862  -5.9508
    -5.7575  -5.7574  -5.5661  -5.3166  -5.2242  -5.2241  -5.2191  -5.1932
    -5.0508  -5.0507  -4.9864  -4.3562  -4.3561  -4.2047  -4.0340  -3.7314
    -3.2881  -3.2646  -3.2543  -3.1846  -3.1845  -3.1523  -3.1522  -2.9158
    -2.8671  -2.8601  -2.6461  -2.4713  -2.3679  -2.2789  -1.9363  -1.9363
    -1.8762  -1.8761  -1.8403  -1.5222  -1.3051  -1.2762  -1.2762  -1.2283
    -1.2259  -1.2259  -1.1864  -1.1059  -1.0169  -0.9981  -0.9981  -0.6820
    -0.1732   0.0281   0.0964   0.0965   0.2599   0.2599   0.3005   0.3005
     0.3168   0.3808   0.4542   0.7087   0.8254   0.8254   0.9597   1.0211
     1.0626   1.1326   1.1642   1.1642   1.5489   1.5490   1.5802   1.5802
     1.8805   1.8806   1.9639   2.1023   2.2829   2.2829   2.2922   2.2987
     2.2987   2.3686   2.3775   2.4794   2.4794   2.4822   2.5425   2.6809
     2.6918   2.6918   2.8055   2.9001   2.9382   3.0923   3.1161   3.1530
     3.1531   3.1834   3.4338   3.4339   3.4579   3.5811   3.5811   3.7385
     3.7982   4.0437   4.1322   4.1322   4.1634   4.1914   4.1914   4.2731
     4.3176   4.3366   4.3805   4.5234   4.6531   4.6533   4.6822   4.7179

     occupation numbers 
     1.0000   1.0000   1.0000   1.0000   1.0000   1.0000   1.0000   1.0000
     1.0000   1.0000   1.0000   1.0000   1.0000   1.0000   1.0000   1.0000
     1.0000   1.0000   1.0000   1.0000   1.0000   1.0000   1.0000   1.0000
     1.0000   1.0000   1.0000   1.0000   1.0000   1.0000   1.0000   1.0000
     1.0000   1.0000   1.0000   1.0000   1.0000   1.0000   1.0000   1.0000
     1.0000   1.0000   1.0000   1.0000   1.0000   1.0000   1.0000   1.0000
     1.0000   1.0000   1.0000   1.0000   1.0000   1.0000   1.0000   1.0000
     1.0000   1.0000   1.0000   1.0000   1.0000   1.0000   1.0000   1.0000
     1.0000   1.0000   1.0000   1.0000   1.0000   1.0000   1.0000   1.0000
     1.0000   1.0000   1.0000   1.0000   1.0000   1.0000   1.0000   1.0000
     1.0000   1.0000   1.0000   1.0000   1.0000   1.0000   1.0000   1.0000
     1.0000   1.0000   1.0000   1.0000   1.0000   1.0000   1.0000   1.0000
     1.0000   1.0000   1.0000   1.0000   1.0000   1.0000   1.0000   1.0000
     1.0000   1.0000   1.0000   1.0000   1.0000   1.0000   1.0000   1.0000
     1.0000   1.0000   1.0000   1.0000   1.0000   1.0000   1.0000   1.0000
     1.0000   1.0000   1.0000   1.0000   1.0000   1.0000   1.0000   1.0000
     1.0000   1.0000   1.0000   1.0000   1.0000   1.0000   1.0000   1.0000
     1.0000   1.0000   1.0000   1.0000   1.0000   1.0000   1.0000   1.0000
     1.0000   1.0000   1.0000   1.0000   1.0000   1.0000   1.0000   1.0000
     1.0000   1.0000   1.0000   1.0000   1.0000   1.0000   1.0000   1.0000
     1.0000   1.0000   1.0000   1.0000   1.0000   1.0000   1.0000   1.0000
     1.0000   1.0000   1.0000   1.0000   1.0000   1.0000   1.0000   1.0000
     1.0000   1.0000   1.0000   1.0000   1.0000   1.0000   1.0000   1.0000
     1.0000   1.0000   1.0000   1.0000   1.0000   1.0000   1.0000   1.0000
     1.0000   1.0000   1.0000   1.0000   1.0000   1.0000   1.0000   1.0000
     1.0000   1.0000   1.0000   1.0000   1.0000   1.0000   1.0000   1.0000
     1.0000   1.0000   1.0000   1.0000   1.0000   1.0000   1.0000   1.0000
     1.0000   1.0000   1.0000   1.0000   1.0000   1.0000   1.0000   1.0000
     1.0000   1.0000   1.0000   1.0000   1.0000   1.0000   1.0000   1.0000
     1.0000   1.0000   1.0000   1.0000   1.0000   1.0000   1.0000   1.0000
     1.0000   1.0000   1.0000   1.0000   1.0000   1.0000   1.0000   1.0000
     1.0000   1.0000   1.0000   1.0000   1.0000   1.0000   1.0000   1.0000
     1.0000   1.0000   1.0000   1.0000   1.0000   1.0000   1.0000   1.0000
     1.0000   1.0000   1.0000   1.0000   1.0000   1.0000   1.0000   1.0000
     1.0000   1.0000   1.0000   1.0000   1.0000   1.0000   1.0000   1.0000
     1.0000   1.0000   1.0000   1.0000   1.0000   1.0000   1.0000   1.0000
     1.0000   1.0000   1.0000   1.0000   1.0000   1.0000   1.0000   1.0000
     1.0000   1.0000   1.0000   1.0000   1.0000   1.0000   1.0000   1.0000
     1.0000   1.0000   1.0000   1.0000   1.0000   1.0000   1.0000   1.0000
     1.0000   1.0000   1.0000   1.0000   1.0000   1.0000   1.0000   1.0000
     1.0000   1.0000   1.0000   1.0000   1.0000   1.0000   1.0000   1.0000
     1.0000   1.0000   1.0000   1.0000   1.0000   1.0000   1.0000   1.0000
     1.0000   1.0000   1.0000   1.0000   1.0000   1.0000   1.0000   1.0000
     1.0000   1.0000   1.0000   1.0000   1.0000   1.0000   1.0000   1.0000
     1.0000   1.0000   1.0000   1.0000   1.0000   1.0000   1.0000   1.0000
     1.0000   1.0000   1.0000   1.0000   1.0000   1.0000   1.0000   1.0000
     1.0000   1.0000   1.0000   1.0000   1.0000   1.0000   1.0000   1.0000
     1.0000   1.0000   1.0000   1.0000   1.0000   1.0000   1.0000   1.0000
     1.0000   1.0000   1.0000   1.0000   1.0000   1.0000   1.0000   1.0000
     1.0000   1.0000   1.0000   1.0000   1.0000   1.0000   1.0000   1.0000
     1.0000   1.0000   1.0000   1.0000   1.0000   1.0000   1.0000   1.0000
     1.0000   1.0000   1.0000   1.0000   1.0000   1.0000   1.0000   1.0000
     1.0000   1.0000   1.0000   1.0000   1.0000   1.0000   1.0000   1.0000
     1.0000   1.0000   1.0000   1.0000   1.0000   1.0000   1.0000   1.0000
     1.0000   1.0000   1.0000   1.0000   1.0000   1.0000   1.0000   1.0000
     1.0000   1.0000   1.0000   1.0000   1.0000   1.0000   1.0000   1.0000
     1.0000   1.0000   1.0000   1.0000   1.0000   1.0000   1.0000   1.0000
     1.0000   1.0000   1.0000   1.0000   1.0000   1.0000   1.0000   1.0000
     1.0000   1.0000   1.0000   1.0000   1.0000   1.0000   1.0000   1.0000
     1.0174   1.0223   1.0247   1.0451   1.0451   1.0562   1.0562   1.0170
     0.9429   0.9299   0.3857   0.0870   0.0252   0.0069   0.0000   0.0000
     0.0000   0.0000   0.0000   0.0000   0.0000   0.0000   0.0000   0.0000
     0.0000   0.0000   0.0000   0.0000   0.0000   0.0000   0.0000   0.0000
     0.0000   0.0000   0.0000   0.0000   0.0000   0.0000   0.0000   0.0000
     0.0000   0.0000   0.0000   0.0000   0.0000   0.0000   0.0000   0.0000
     0.0000   0.0000   0.0000   0.0000   0.0000   0.0000   0.0000   0.0000
     0.0000   0.0000   0.0000   0.0000   0.0000   0.0000   0.0000   0.0000
     0.0000   0.0000   0.0000   0.0000   0.0000   0.0000   0.0000   0.0000
     0.0000   0.0000   0.0000   0.0000   0.0000   0.0000   0.0000   0.0000
     0.0000   0.0000   0.0000   0.0000   0.0000   0.0000   0.0000   0.0000
     0.0000   0.0000   0.0000   0.0000   0.0000   0.0000   0.0000   0.0000
     0.0000   0.0000   0.0000   0.0000   0.0000   0.0000   0.0000   0.0000

          k = 0.0000 0.3849 0.0000 ( 64840 PWs)   bands (ev):

  -132.0661-132.0654-132.0646-132.0640-131.6947-131.6939-131.6920-131.6911
  -131.4496-131.4493-131.4484-131.4480-129.3820-129.3815-129.3807-129.3802
  -129.3343-129.3337-129.3330-129.3324-129.2583-129.2580-129.2571-129.2568
  -129.2146-129.2142-129.2134-129.2130-129.0423-129.0420-129.0411-129.0408
  -129.0062-129.0059-129.0050-129.0047-128.2349-128.2345-128.2337-128.2333
  -128.2253-128.2249-128.2241-128.2237-126.9848-126.9841-126.9834-126.9825
   -86.8723 -86.8675 -86.8659 -86.8652 -86.8643 -86.8637 -86.8546 -86.8498
   -86.0994 -86.0984 -86.0966 -86.0956 -86.0271 -86.0223 -86.0106 -86.0103
   -86.0093 -86.0093 -86.0089 -86.0046 -85.7506 -85.7455 -85.7406 -85.7396
   -85.7378 -85.7368 -85.7328 -85.7278 -84.7769 -84.7762 -84.7753 -84.7747
   -84.3849 -84.3846 -84.3836 -84.3833 -83.5513 -83.5508 -83.5499 -83.5494
   -83.5398 -83.5353 -83.5244 -83.5239 -83.5230 -83.5229 -83.5225 -83.5183
   -83.5018 -83.5011 -83.5001 -83.4994 -83.4848 -83.4803 -83.4786 -83.4779
   -83.4771 -83.4765 -83.4678 -83.4632 -83.4217 -83.4213 -83.4203 -83.4199
   -83.4169 -83.4124 -83.4076 -83.4073 -83.4063 -83.4060 -83.4000 -83.3954
   -83.3724 -83.3679 -83.3673 -83.3668 -83.3659 -83.3657 -83.3655 -83.3653
   -83.3645 -83.3641 -83.3557 -83.3512 -83.2103 -83.2057 -83.1961 -83.1957
   -83.1948 -83.1944 -83.1934 -83.1889 -83.1880 -83.1876 -83.1867 -83.1863
   -83.1744 -83.1699 -83.1589 -83.1585 -83.1576 -83.1575 -83.1572 -83.1530
   -83.1526 -83.1523 -83.1513 -83.1510 -82.4694 -82.4648 -82.4524 -82.4518
   -82.4478 -82.4473 -82.4348 -82.4302 -82.3843 -82.3839 -82.3830 -82.3826
   -82.3746 -82.3743 -82.3733 -82.3730 -82.3441 -82.3438 -82.3428 -82.3425
   -82.3391 -82.3387 -82.3378 -82.3375 -81.2226 -81.2182 -81.2063 -81.2018
   -81.1682 -81.1674 -81.1667 -81.1658 -80.8739 -80.8732 -80.8724 -80.8715
   -14.4657 -14.2551 -14.1841 -14.0960 -13.9264 -13.8447 -13.8293 -13.7297
   -13.6688 -13.5680 -13.5132 -13.3543 -13.2962 -13.2768 -13.2324 -13.1883
   -13.0994 -13.0399 -13.0017 -13.0008 -12.9931 -12.9555 -12.8195 -12.7996
   -12.7897 -12.7706 -12.7697 -12.7469 -12.7406 -12.7254 -12.7175 -12.6762
   -12.6601 -12.6043 -12.5802 -12.5156 -12.5062 -12.4646 -12.2918 -12.2778
   -12.2408 -12.2351 -12.0780 -12.0267 -12.0063 -11.9897 -11.9516 -11.9248
   -11.9150 -11.9109 -11.8487 -11.8332 -11.7644 -11.6597 -11.5874 -11.5337
   -11.4892 -11.4559 -11.4530 -11.4058 -11.3913 -11.3417 -11.3006 -11.2015
   -11.1322 -11.0733 -11.0388 -10.9694 -10.8981 -10.8962 -10.8454 -10.8190
   -10.7881 -10.7854 -10.7725 -10.7718 -10.7546 -10.7293 -10.7264 -10.6969
   -10.6950 -10.6855 -10.6610 -10.6342 -10.6254 -10.6232 -10.6166 -10.5915
   -10.5772 -10.5729 -10.5358 -10.5348 -10.5292 -10.5093 -10.5040 -10.4886
   -10.4734 -10.4699 -10.4468 -10.4427 -10.4411 -10.4002 -10.3963 -10.3946
   -10.3630 -10.3564 -10.3522 -10.3505 -10.3467 -10.3194 -10.3011 -10.2941
   -10.2835 -10.2697 -10.2683 -10.2479 -10.2478 -10.2185 -10.2128 -10.2070
   -10.2014 -10.1912 -10.1777 -10.1702 -10.1644 -10.1534 -10.1522 -10.1156
   -10.1093 -10.1047 -10.1018 -10.1001 -10.0613 -10.0564 -10.0527 -10.0487
   -10.0360 -10.0304 -10.0232 -10.0213 -10.0092 -10.0048  -9.9938  -9.9828
    -9.9712  -9.9626  -9.9619  -9.9570  -9.9558  -9.9407  -9.9346  -9.9242
    -9.9216  -9.9200  -9.9038  -9.8981  -9.8915  -9.8829  -9.8797  -9.8608
    -9.8595  -9.8545  -9.8502  -9.8356  -9.8331  -9.8261  -9.8218  -9.8122
    -9.7936  -9.7825  -9.7784  -9.7576  -9.7561  -9.7554  -9.7321  -9.7253
    -9.7169  -9.7022  -9.6934  -9.6762  -9.6726  -9.6669  -9.6668  -9.6558
    -9.6380  -9.6206  -9.6167  -9.6056  -9.5496  -9.4915  -9.4718  -9.3604
    -9.3224  -9.3102  -9.2683  -9.2580  -9.2490  -9.2417  -9.2108  -9.1922
    -9.1913  -9.1521  -9.1370  -9.0286  -9.0220  -9.0150  -9.0130  -9.0087
    -9.0000  -8.9996  -8.9912  -8.9834  -8.9814  -8.9726  -8.9715  -8.9642
    -8.9485  -8.9470  -8.9391  -8.9284  -8.9254  -8.9177  -8.9171  -8.9075
    -8.8925  -8.8638  -8.8059  -8.8028  -8.7847  -8.7106  -8.6524  -8.6288
    -8.5775  -8.5712  -8.4057  -8.2385  -8.1889  -8.0534  -8.0208  -7.9948
    -7.9288  -7.8896  -7.7433  -7.7055  -7.6995  -7.6804  -7.6528  -7.6193
    -7.5885  -7.5719  -7.5420  -7.5365  -7.4671  -7.4617  -7.3661  -7.3399
    -7.2716  -7.0344  -6.9252  -6.8345  -6.6593  -6.6528  -6.3352  -6.2260
    -5.8969  -5.7557  -5.5965  -5.5128  -5.4672  -5.3082  -5.2077  -5.1554
    -4.8777  -4.8578  -4.8034  -4.4859  -4.1298  -4.0441  -3.6314  -3.5761
    -3.5010  -3.2337  -3.1950  -3.1323  -3.0201  -2.9995  -2.8998  -2.6974
    -2.6673  -2.6257  -2.4775  -2.2666  -2.2036  -2.0300  -2.0099  -1.9329
    -1.7856  -1.7686  -1.7588  -1.6579  -1.6219  -1.3788  -1.0540  -1.0252
    -1.0247  -0.9586  -0.9397  -0.8955  -0.8736  -0.7070  -0.6884  -0.6341
    -0.6097  -0.5609  -0.4604  -0.2717  -0.1988  -0.1399   0.0611   0.1778
     0.2473   0.3925   0.4302   0.5503   0.7631   0.7952   0.8424   0.8993
     0.9733   1.0151   1.0781   1.2661   1.2797   1.2871   1.3380   1.3906
     1.4108   1.5258   1.5271   1.6822   1.7243   1.7696   1.7898   1.8243
     2.3179   2.4674   2.4778   2.5456   2.5458   2.5951   2.6461   2.7123
     2.7567   2.8056   2.9155   2.9303   3.0357   3.0635   3.1441   3.1792
     3.1988   3.3429   3.5401   3.5637   3.6006   3.8700   3.8897   3.9031
     3.9463   3.9789   4.0809   4.0939   4.1331   4.2382   4.2707   4.3763
     4.4320   4.5167   4.5557   4.6048   4.6299   4.7287   4.7663   4.8132

     occupation numbers 
     1.0000   1.0000   1.0000   1.0000   1.0000   1.0000   1.0000   1.0000
     1.0000   1.0000   1.0000   1.0000   1.0000   1.0000   1.0000   1.0000
     1.0000   1.0000   1.0000   1.0000   1.0000   1.0000   1.0000   1.0000
     1.0000   1.0000   1.0000   1.0000   1.0000   1.0000   1.0000   1.0000
     1.0000   1.0000   1.0000   1.0000   1.0000   1.0000   1.0000   1.0000
     1.0000   1.0000   1.0000   1.0000   1.0000   1.0000   1.0000   1.0000
     1.0000   1.0000   1.0000   1.0000   1.0000   1.0000   1.0000   1.0000
     1.0000   1.0000   1.0000   1.0000   1.0000   1.0000   1.0000   1.0000
     1.0000   1.0000   1.0000   1.0000   1.0000   1.0000   1.0000   1.0000
     1.0000   1.0000   1.0000   1.0000   1.0000   1.0000   1.0000   1.0000
     1.0000   1.0000   1.0000   1.0000   1.0000   1.0000   1.0000   1.0000
     1.0000   1.0000   1.0000   1.0000   1.0000   1.0000   1.0000   1.0000
     1.0000   1.0000   1.0000   1.0000   1.0000   1.0000   1.0000   1.0000
     1.0000   1.0000   1.0000   1.0000   1.0000   1.0000   1.0000   1.0000
     1.0000   1.0000   1.0000   1.0000   1.0000   1.0000   1.0000   1.0000
     1.0000   1.0000   1.0000   1.0000   1.0000   1.0000   1.0000   1.0000
     1.0000   1.0000   1.0000   1.0000   1.0000   1.0000   1.0000   1.0000
     1.0000   1.0000   1.0000   1.0000   1.0000   1.0000   1.0000   1.0000
     1.0000   1.0000   1.0000   1.0000   1.0000   1.0000   1.0000   1.0000
     1.0000   1.0000   1.0000   1.0000   1.0000   1.0000   1.0000   1.0000
     1.0000   1.0000   1.0000   1.0000   1.0000   1.0000   1.0000   1.0000
     1.0000   1.0000   1.0000   1.0000   1.0000   1.0000   1.0000   1.0000
     1.0000   1.0000   1.0000   1.0000   1.0000   1.0000   1.0000   1.0000
     1.0000   1.0000   1.0000   1.0000   1.0000   1.0000   1.0000   1.0000
     1.0000   1.0000   1.0000   1.0000   1.0000   1.0000   1.0000   1.0000
     1.0000   1.0000   1.0000   1.0000   1.0000   1.0000   1.0000   1.0000
     1.0000   1.0000   1.0000   1.0000   1.0000   1.0000   1.0000   1.0000
     1.0000   1.0000   1.0000   1.0000   1.0000   1.0000   1.0000   1.0000
     1.0000   1.0000   1.0000   1.0000   1.0000   1.0000   1.0000   1.0000
     1.0000   1.0000   1.0000   1.0000   1.0000   1.0000   1.0000   1.0000
     1.0000   1.0000   1.0000   1.0000   1.0000   1.0000   1.0000   1.0000
     1.0000   1.0000   1.0000   1.0000   1.0000   1.0000   1.0000   1.0000
     1.0000   1.0000   1.0000   1.0000   1.0000   1.0000   1.0000   1.0000
     1.0000   1.0000   1.0000   1.0000   1.0000   1.0000   1.0000   1.0000
     1.0000   1.0000   1.0000   1.0000   1.0000   1.0000   1.0000   1.0000
     1.0000   1.0000   1.0000   1.0000   1.0000   1.0000   1.0000   1.0000
     1.0000   1.0000   1.0000   1.0000   1.0000   1.0000   1.0000   1.0000
     1.0000   1.0000   1.0000   1.0000   1.0000   1.0000   1.0000   1.0000
     1.0000   1.0000   1.0000   1.0000   1.0000   1.0000   1.0000   1.0000
     1.0000   1.0000   1.0000   1.0000   1.0000   1.0000   1.0000   1.0000
     1.0000   1.0000   1.0000   1.0000   1.0000   1.0000   1.0000   1.0000
     1.0000   1.0000   1.0000   1.0000   1.0000   1.0000   1.0000   1.0000
     1.0000   1.0000   1.0000   1.0000   1.0000   1.0000   1.0000   1.0000
     1.0000   1.0000   1.0000   1.0000   1.0000   1.0000   1.0000   1.0000
     1.0000   1.0000   1.0000   1.0000   1.0000   1.0000   1.0000   1.0000
     1.0000   1.0000   1.0000   1.0000   1.0000   1.0000   1.0000   1.0000
     1.0000   1.0000   1.0000   1.0000   1.0000   1.0000   1.0000   1.0000
     1.0000   1.0000   1.0000   1.0000   1.0000   1.0000   1.0000   1.0000
     1.0000   1.0000   1.0000   1.0000   1.0000   1.0000   1.0000   1.0000
     1.0000   1.0000   1.0000   1.0000   1.0000   1.0000   1.0000   1.0000
     1.0000   1.0000   1.0000   1.0000   1.0000   1.0000   1.0000   1.0000
     1.0000   1.0000   1.0000   1.0000   1.0000   1.0000   1.0000   1.0000
     1.0000   1.0000   1.0000   1.0000   1.0000   1.0000   1.0000   1.0000
     1.0000   1.0000   1.0000   1.0000   1.0000   1.0000   1.0000   1.0000
     1.0000   1.0000   1.0000   1.0000   1.0000   1.0000   1.0000   1.0000
     1.0000   1.0000   1.0000   1.0000   1.0000   1.0000   1.0000   1.0000
     1.0000   1.0000   1.0000   1.0000   1.0000   1.0000   1.0000   1.0000
     1.0000   1.0000   1.0000   1.0000   1.0000   1.0000   1.0000   1.0000
     1.0000   1.0000   1.0000   1.0000   1.0000   1.0000   1.0001   1.0002
     1.0009   1.0300   1.0417   1.0630   1.0823   1.0781   0.9958   0.5202
     0.4395   0.3367   0.0929   0.0057   0.0020   0.0001   0.0000   0.0000
     0.0000   0.0000   0.0000   0.0000   0.0000   0.0000   0.0000   0.0000
     0.0000   0.0000   0.0000   0.0000   0.0000   0.0000   0.0000   0.0000
     0.0000   0.0000   0.0000   0.0000   0.0000   0.0000   0.0000   0.0000
     0.0000   0.0000   0.0000   0.0000   0.0000   0.0000   0.0000   0.0000
     0.0000   0.0000   0.0000   0.0000   0.0000   0.0000   0.0000   0.0000
     0.0000   0.0000   0.0000   0.0000   0.0000   0.0000   0.0000   0.0000
     0.0000   0.0000   0.0000   0.0000   0.0000   0.0000   0.0000   0.0000
     0.0000   0.0000   0.0000   0.0000   0.0000   0.0000   0.0000   0.0000
     0.0000   0.0000   0.0000   0.0000   0.0000   0.0000   0.0000   0.0000
     0.0000   0.0000   0.0000   0.0000   0.0000   0.0000   0.0000   0.0000
     0.0000   0.0000   0.0000   0.0000   0.0000   0.0000   0.0000   0.0000

          k = 0.3333 0.1925 0.0000 ( 64840 PWs)   bands (ev):

  -132.0661-132.0652-132.0649-132.0639-131.6947-131.6938-131.6920-131.6911
  -131.4497-131.4488-131.4488-131.4479-129.3820-129.3811-129.3811-129.3802
  -129.3344-129.3334-129.3333-129.3323-129.2584-129.2576-129.2576-129.2567
  -129.2147-129.2138-129.2138-129.2129-129.0424-129.0416-129.0415-129.0407
  -129.0063-129.0054-129.0054-129.0046-128.2350-128.2341-128.2341-128.2332
[...]
     atom   46 type  1   force =     0.00021900    0.00004600   -0.00130881
     atom   47 type  1   force =    -0.00009354   -0.00008858   -0.00143422
     atom   48 type  1   force =     0.00024246   -0.00009387   -0.00129673

     DFT-D3 dispersion contribution to forces:
     atom    1 type  1   force =     0.00008058    0.00004646    0.00206501
     atom    2 type  1   force =     0.00007361    0.00004355    0.00174619
     atom    3 type  1   force =    -0.00040052   -0.00023195   -0.00242062
     atom    4 type  1   force =     0.00147612    0.00085295   -0.00140846
     atom    5 type  1   force =     0.00007952    0.00004733    0.00206589
     atom    6 type  1   force =     0.00007213    0.00004204    0.00174695
     atom    7 type  1   force =    -0.00040016   -0.00023213   -0.00242313
     atom    8 type  1   force =     0.00147885    0.00085439   -0.00141009
     atom    9 type  1   force =     0.00007982    0.00004614    0.00206773
     atom   10 type  1   force =     0.00007427    0.00004179    0.00174711
     atom   11 type  1   force =    -0.00040164   -0.00023101   -0.00242544
     atom   12 type  1   force =     0.00147826    0.00085274   -0.00140866
     atom   13 type  1   force =     0.00008055    0.00004507    0.00206657
     atom   14 type  1   force =     0.00007585    0.00004335    0.00174645
     atom   15 type  1   force =    -0.00040140   -0.00023091   -0.00242340
     atom   16 type  1   force =     0.00147536    0.00085115   -0.00140649
     atom   17 type  1   force =     0.00045575    0.00026311    0.00193429
     atom   18 type  1   force =    -0.00004357   -0.00002409    0.00219048
     atom   19 type  1   force =    -0.00087271   -0.00050319   -0.00214625
     atom   20 type  1   force =    -0.00050302   -0.00029079   -0.00242382
     atom   21 type  1   force =     0.00045548    0.00026333    0.00193423
     atom   22 type  1   force =    -0.00004600   -0.00002523    0.00219208
     atom   23 type  1   force =    -0.00087279   -0.00050431   -0.00214660
     atom   24 type  1   force =    -0.00050399   -0.00028919   -0.00242623
     atom   25 type  1   force =     0.00045581    0.00026314    0.00193372
     atom   26 type  1   force =    -0.00004499   -0.00002697    0.00219338
     atom   27 type  1   force =    -0.00087112   -0.00050401   -0.00214508
     atom   28 type  1   force =    -0.00050279   -0.00029024   -0.00242611
     atom   29 type  1   force =     0.00045597    0.00026291    0.00193375
     atom   30 type  1   force =    -0.00004262   -0.00002600    0.00219152
     atom   31 type  1   force =    -0.00087142   -0.00050227   -0.00214513
     atom   32 type  1   force =    -0.00050233   -0.00029132   -0.00242396
     atom   33 type  1   force =    -0.00147116   -0.00084840    0.00041048
     atom   34 type  1   force =     0.00081585    0.00047353    0.00034857
     atom   35 type  1   force =    -0.00146921   -0.00085152    0.00041056
     atom   36 type  1   force =     0.00081599    0.00047437    0.00035177
     atom   37 type  1   force =    -0.00147103   -0.00085089    0.00041032
     atom   38 type  1   force =     0.00081887    0.00047027    0.00035110
     atom   39 type  1   force =    -0.00147293   -0.00084631    0.00041022
     atom   40 type  1   force =     0.00081868    0.00046973    0.00034835
     atom   41 type  1   force =     0.00000928    0.00001308    0.00021994
     atom   42 type  1   force =     0.00037478    0.00021487   -0.00051844
     atom   43 type  1   force =     0.00001276    0.00000701    0.00021664
     atom   44 type  1   force =     0.00037202    0.00021715   -0.00051589
     atom   45 type  1   force =     0.00001801    0.00000200    0.00021813
     atom   46 type  1   force =     0.00037188    0.00021583   -0.00051288
     atom   47 type  1   force =     0.00001446    0.00000926    0.00022120
     atom   48 type  1   force =     0.00037493    0.00021419   -0.00051595

     Total force =     6.165834     Total SCF correction =     0.005838

     DFT-D3 dispersion Force =     0.013197
     Energy error            =      9.7E-01 Ry
     Gradient error          =      1.2E+00 Ry/Bohr

     number of scf cycles    =  36
     number of bfgs steps    =   3

     energy             old  =  -22146.7355183969 Ry
     energy             new  =  -22145.7704816223 Ry

     CASE: energy            _new > energy            _old

     new trust radius        =       0.0866941745 bohr
     new conv_thr            =       0.0000010000 Ry


ATOMIC_POSITIONS (angstrom)
Zn               0.0000000000        1.5094010000        1.2182900000    0   0   0
Zn               5.2287200000        1.5094010000        1.2182900000    0   0   0
Zn              -0.3019098436        1.3350118507        6.2719107248
Zn               5.7635250159        1.8183733587        6.2732266774
Zn              -1.3071800000        3.7735030000        1.2182900000    0   0   0
Zn               3.9215400000        3.7735030000        1.2182900000    0   0   0
Zn              -1.6090731511        3.5990884956        6.2707673572
Zn               4.4563284447        4.0823736283        6.2719951804
Zn              -2.6143600000        6.0376050000        1.2182900000    0   0   0
Zn               2.6143600000        6.0376050000        1.2182900000    0   0   0
Zn              -2.9165240638        5.8632526216        6.2696265052
Zn               3.1493042035        6.3462643727        6.2728240847
Zn              -3.9215400000        8.3017080000        1.2182900000    0   0   0
Zn               1.3071800000        8.3017080000        1.2182900000    0   0   0
Zn              -4.2236460496        8.1273851479        6.2706563706
Zn               1.8421399575        8.6104414565        6.2740763892
Zn               2.6143600000        1.5094010000        1.2182900000    0   0   0
Zn               7.8430800000        1.5094010000        1.2182900000    0   0   0
Zn               2.3270768075        1.3436750983        6.2783783191
Zn               7.5731137836        1.3534902281        6.2724813957
Zn               1.3071800000        3.7735030000        1.2182900000    0   0   0
Zn               6.5359000000        3.7735030000        1.2182900000    0   0   0
Zn               1.0200561132        3.6076431302        6.2782185447
Zn               6.2656938530        3.6177157743        6.2702992806
Zn               0.0000000000        6.0376050000        1.2182900000    0   0   0
Zn               5.2287200000        6.0376050000        1.2182900000    0   0   0
Zn              -0.2871065171        5.8716495227        6.2781576922
Zn               4.9586160775        5.8816649310        6.2701003482
Zn              -1.3071800000        8.3017080000        1.2182900000    0   0   0
Zn               3.9215400000        8.3017080000        1.2182900000    0   0   0
Zn              -1.5945465273        8.1359613370        6.2782561319
Zn               3.6516161344        8.1457195843        6.2722365871
Zn               1.0060128299        0.5810241727        3.7449591973
Zn               6.4126760210        0.6839118845        3.7447246271
Zn              -0.3008961341        2.8446850317        3.7449554186
Zn               5.1053660672        2.9480006123        3.7441324774
Zn              -1.6084398186        5.1087193562        3.7442519204
Zn               3.7985415495        5.2115354028        3.7438374213
Zn              -2.9158756396        7.3733969141        3.7442474965
Zn               2.4914759025        7.4756980221        3.7444843327
Zn               3.6979533500        0.6262482758        3.7462400689
Zn               8.8517174113        0.5822221530        3.7443304203
Zn               2.3912616548        2.8899393973        3.7461137397
Zn               7.5441461938        2.8462516734        3.7437619816
Zn               1.0843381118        5.1535652119        3.7459924550
Zn               6.2366361517        5.1102134224        3.7430490206
Zn              -0.2232785236        7.4182027005        3.7462056646
Zn               4.9298655142        7.3744298103        3.7435111437



     Writing config-only to output data dir ./tmp/Zn002_3layer_relax.save/ :
     XML data file
     NEW-OLD atomic charge density approx. for the potential

     negative rho (up, down):  2.977E-03 0.000E+00

     Adding external electric field

     Computed dipole along edir(1) : 
        Elec. dipole         -0.8196 Ry au,         -2.0831 Debye
        Ion. dipole          -0.8639 Ry au,         -2.1958 Debye
        Dipole              -53.5146 Ry au,       -136.0205 Debye
        Dipole field         -0.0443 Ry au, 

        Potential amp.        1.5762 Ry
        Total length         17.7855 bohr


     total cpu time spent up to now is    58811.1 secs

     Self-consistent Calculation

     iteration #  1     ecut=    40.00 Ry     beta= 0.40
     Davidson diagonalization with overlap

---- Real-time Memory Report at c_bands before calling an iterative solver
           670 MiB given to the printing process from OS
             0 MiB allocation reported by mallinfo(arena+hblkhd)
        178730 MiB available memory on the node where the printing process lives
------------------
     ethr =  1.00E-06,  avg # of iterations = 13.8

     negative rho (up, down):  3.241E-03 0.000E+00

     Adding external electric field

     Computed dipole along edir(1) : 
        Elec. dipole         -0.8044 Ry au,         -2.0446 Debye
        Ion. dipole          -0.8639 Ry au,         -2.1958 Debye
        Dipole              -71.8258 Ry au,       -182.5631 Debye
        Dipole field         -0.0595 Ry au, 

        Potential amp.        2.1155 Ry
        Total length         17.7855 bohr


     total cpu time spent up to now is    59075.8 secs

     total energy              =  -22144.65108229 Ry
     estimated scf accuracy    <       3.09822736 Ry

     iteration #  2     ecut=    40.00 Ry     beta= 0.40
     Davidson diagonalization with overlap

---- Real-time Memory Report at c_bands before calling an iterative solver
           670 MiB given to the printing process from OS
             0 MiB allocation reported by mallinfo(arena+hblkhd)
        178727 MiB available memory on the node where the printing process lives
------------------
     ethr =  3.23E-04,  avg # of iterations = 10.8

     negative rho (up, down):  2.905E-03 0.000E+00

     Adding external electric field

     Computed dipole along edir(1) : 
        Elec. dipole         -0.8156 Ry au,         -2.0732 Debye
        Ion. dipole          -0.8639 Ry au,         -2.1958 Debye
        Dipole              -58.2485 Ry au,       -148.0530 Debye
        Dipole field         -0.0482 Ry au, 

        Potential amp.        1.7156 Ry
        Total length         17.7855 bohr


     total cpu time spent up to now is    59210.0 secs

     total energy              =  -22141.90219129 Ry
     estimated scf accuracy    <      78.78885445 Ry

     iteration #  3     ecut=    40.00 Ry     beta= 0.40
     Davidson diagonalization with overlap

---- Real-time Memory Report at c_bands before calling an iterative solver
           670 MiB given to the printing process from OS
             0 MiB allocation reported by mallinfo(arena+hblkhd)
        178724 MiB available memory on the node where the printing process lives
------------------
     ethr =  3.23E-04,  avg # of iterations =  8.0

     negative rho (up, down):  3.036E-03 0.000E+00

     Adding external electric field

     Computed dipole along edir(1) : 
        Elec. dipole         -0.8164 Ry au,         -2.0752 Debye
        Ion. dipole          -0.8639 Ry au,         -2.1958 Debye
        Dipole              -57.2958 Ry au,       -145.6315 Debye
        Dipole field         -0.0474 Ry au, 

        Potential amp.        1.6875 Ry
        Total length         17.7855 bohr


     total cpu time spent up to now is    59314.5 secs

     total energy              =  -22146.26847944 Ry
     estimated scf accuracy    <       1.14463653 Ry

     iteration #  4     ecut=    40.00 Ry     beta= 0.40
     Davidson diagonalization with overlap

---- Real-time Memory Report at c_bands before calling an iterative solver
           670 MiB given to the printing process from OS
             0 MiB allocation reported by mallinfo(arena+hblkhd)
        178723 MiB available memory on the node where the printing process lives
------------------
     ethr =  1.19E-04,  avg # of iterations =  7.2

     negative rho (up, down):  3.107E-03 0.000E+00

     Adding external electric field

     Computed dipole along edir(1) : 
        Elec. dipole         -0.8165 Ry au,         -2.0754 Debye
        Ion. dipole          -0.8639 Ry au,         -2.1958 Debye
        Dipole              -57.2059 Ry au,       -145.4028 Debye
        Dipole field         -0.0474 Ry au, 

        Potential amp.        1.6849 Ry
        Total length         17.7855 bohr


     total cpu time spent up to now is    59399.4 secs

     total energy              =  -22146.33723404 Ry
     estimated scf accuracy    <       0.24488399 Ry

     iteration #  5     ecut=    40.00 Ry     beta= 0.40
     Davidson diagonalization with overlap

---- Real-time Memory Report at c_bands before calling an iterative solver
           670 MiB given to the printing process from OS
             0 MiB allocation reported by mallinfo(arena+hblkhd)
        178721 MiB available memory on the node where the printing process lives
------------------
     c_bands:  1 eigenvalues not converged
     ethr =  2.55E-05,  avg # of iterations = 13.8

     negative rho (up, down):  3.144E-03 0.000E+00

     Adding external electric field

     Computed dipole along edir(1) : 
        Elec. dipole         -0.8165 Ry au,         -2.0754 Debye
        Ion. dipole          -0.8639 Ry au,         -2.1958 Debye
        Dipole              -57.2081 Ry au,       -145.4086 Debye
        Dipole field         -0.0474 Ry au, 

        Potential amp.        1.6850 Ry
        Total length         17.7855 bohr


     total cpu time spent up to now is    59494.2 secs

     total energy              =  -22146.35220830 Ry
     estimated scf accuracy    <       0.16960034 Ry

     iteration #  6     ecut=    40.00 Ry     beta= 0.40
     Davidson diagonalization with overlap

---- Real-time Memory Report at c_bands before calling an iterative solver
           670 MiB given to the printing process from OS
             0 MiB allocation reported by mallinfo(arena+hblkhd)
        178717 MiB available memory on the node where the printing process lives
------------------
     ethr =  1.77E-05,  avg # of iterations =  2.6

     negative rho (up, down):  3.150E-03 0.000E+00

     Adding external electric field

     Computed dipole along edir(1) : 
        Elec. dipole         -0.8165 Ry au,         -2.0753 Debye
        Ion. dipole          -0.8639 Ry au,         -2.1958 Debye
        Dipole              -57.2473 Ry au,       -145.5082 Debye
        Dipole field         -0.0474 Ry au, 

        Potential amp.        1.6861 Ry
        Total length         17.7855 bohr


     total cpu time spent up to now is    59570.9 secs

     total energy              =  -22146.35397080 Ry
     estimated scf accuracy    <       0.03559255 Ry

     iteration #  7     ecut=    40.00 Ry     beta= 0.40
     Davidson diagonalization with overlap

---- Real-time Memory Report at c_bands before calling an iterative solver
           670 MiB given to the printing process from OS
             0 MiB allocation reported by mallinfo(arena+hblkhd)
        178715 MiB available memory on the node where the printing process lives
------------------
     c_bands:  1 eigenvalues not converged
     ethr =  3.71E-06,  avg # of iterations = 16.4

     negative rho (up, down):  3.157E-03 0.000E+00

     Adding external electric field

     Computed dipole along edir(1) : 
        Elec. dipole         -0.8165 Ry au,         -2.0753 Debye
        Ion. dipole          -0.8639 Ry au,         -2.1958 Debye
        Dipole              -57.2592 Ry au,       -145.5384 Debye
        Dipole field         -0.0474 Ry au, 

        Potential amp.        1.6865 Ry
        Total length         17.7855 bohr


     total cpu time spent up to now is    59668.2 secs

     total energy              =  -22146.35321295 Ry
     estimated scf accuracy    <       0.01138132 Ry

     iteration #  8     ecut=    40.00 Ry     beta= 0.40
     Davidson diagonalization with overlap

---- Real-time Memory Report at c_bands before calling an iterative solver
           670 MiB given to the printing process from OS
             0 MiB allocation reported by mallinfo(arena+hblkhd)
        178690 MiB available memory on the node where the printing process lives
------------------
     ethr =  1.19E-06,  avg # of iterations =  9.8

     negative rho (up, down):  3.150E-03 0.000E+00

     Adding external electric field

     Computed dipole along edir(1) : 
        Elec. dipole         -0.8165 Ry au,         -2.0753 Debye
        Ion. dipole          -0.8639 Ry au,         -2.1958 Debye
        Dipole              -57.2353 Ry au,       -145.4776 Debye
        Dipole field         -0.0474 Ry au, 

        Potential amp.        1.6858 Ry
        Total length         17.7855 bohr


     total cpu time spent up to now is    59753.8 secs

     total energy              =  -22146.35331791 Ry
     estimated scf accuracy    <       0.00328318 Ry

     iteration #  9     ecut=    40.00 Ry     beta= 0.40
     Davidson diagonalization with overlap

---- Real-time Memory Report at c_bands before calling an iterative solver
           670 MiB given to the printing process from OS
             0 MiB allocation reported by mallinfo(arena+hblkhd)
        178686 MiB available memory on the node where the printing process lives
------------------
     ethr =  3.42E-07,  avg # of iterations =  5.4

     negative rho (up, down):  3.149E-03 0.000E+00

     Adding external electric field

     Computed dipole along edir(1) : 
        Elec. dipole         -0.8165 Ry au,         -2.0753 Debye
        Ion. dipole          -0.8639 Ry au,         -2.1958 Debye
        Dipole              -57.2328 Ry au,       -145.4714 Debye
        Dipole field         -0.0474 Ry au, 

        Potential amp.        1.6857 Ry
        Total length         17.7855 bohr


     total cpu time spent up to now is    59832.8 secs

     total energy              =  -22146.35322003 Ry
     estimated scf accuracy    <       0.00154397 Ry

     iteration # 10     ecut=    40.00 Ry     beta= 0.40
     Davidson diagonalization with overlap

---- Real-time Memory Report at c_bands before calling an iterative solver
           670 MiB given to the printing process from OS
             0 MiB allocation reported by mallinfo(arena+hblkhd)
        178682 MiB available memory on the node where the printing process lives
------------------
     ethr =  1.61E-07,  avg # of iterations =  8.2

     negative rho (up, down):  3.152E-03 0.000E+00

     Adding external electric field

     Computed dipole along edir(1) : 
        Elec. dipole         -0.8165 Ry au,         -2.0753 Debye
        Ion. dipole          -0.8639 Ry au,         -2.1958 Debye
        Dipole              -57.2388 Ry au,       -145.4866 Debye
        Dipole field         -0.0474 Ry au, 

        Potential amp.        1.6859 Ry
        Total length         17.7855 bohr


     total cpu time spent up to now is    59915.5 secs

     total energy              =  -22146.35328011 Ry
     estimated scf accuracy    <       0.00024862 Ry

     iteration # 11     ecut=    40.00 Ry     beta= 0.40
     Davidson diagonalization with overlap

---- Real-time Memory Report at c_bands before calling an iterative solver
           670 MiB given to the printing process from OS
             0 MiB allocation reported by mallinfo(arena+hblkhd)
        178677 MiB available memory on the node where the printing process lives
------------------
