--------------------------------------------------------------------------
By default, for Open MPI 4.0 and later, infiniband ports on a device
are not used by default.  The intent is to use UCX for these devices.
You can override this policy by setting the btl_openib_allow_ib MCA parameter
to true.

  Local host:              psid06
  Local adapter:           mlx4_0
  Local port:              1

--------------------------------------------------------------------------
--------------------------------------------------------------------------
WARNING: There was an error initializing an OpenFabrics device.

  Local host:   psid06
  Local device: mlx4_0
--------------------------------------------------------------------------

     Program PWSCF v.7.3.1 starts on 20Mar2025 at 11:13:56 

     This program is part of the open-source Quantum ESPRESSO suite
     for quantum simulation of materials; please cite
         "P. Giannozzi et al., J. Phys.:Condens. Matter 21 395502 (2009);
         "P. Giannozzi et al., J. Phys.:Condens. Matter 29 465901 (2017);
         "P. Giannozzi et al., J. Chem. Phys. 152 154105 (2020);
          URL http://www.quantum-espresso.org", 
     in publications or presentations arising from this work. More details at
     http://www.quantum-espresso.org/quote

     Parallel version (MPI), running on    32 processors

     MPI processes distributed on     1 nodes
     182451 MiB available memory on the printing compute node when the environment starts

     Waiting for input...
     Reading input from standard input
Warning: card &CELL ignored
Warning: card   CELL_DOFREE = 'ALL' ignored
Warning: card / ignored

     Current dimensions of program PWSCF are:
     Max number of different atomic species (ntypx) = 10
     Max number of k-points (npk) =  40000
     Max angular momentum in pseudopotentials (lmaxx) =  4
     file C.pbe-n-kjpaw_psl.1.0.0.UPF: wavefunction(s)  2S 2P renormalized

     R & G space division:  proc/nbgrp/npool/nimage =      32
     Subspace diagonalization in iterative solution of the eigenvalue problem:
     one sub-group per band group will be used
     custom distributed-memory algorithm (size of sub-group:  5*  5 procs)


     Parallelization info
     --------------------
     sticks:   dense  smooth     PW     G-vecs:    dense   smooth      PW
     Min         101     101     26                10531    10531    1466
     Max         102     102     27                10543    10543    1481
     Sum        3241    3241    859               337189   337189   47187

     Using Slab Decomposition



     bravais-lattice index     =            0
     lattice parameter (alat)  =      19.7617  a.u.
     unit-cell volume          =   15176.5939 (a.u.)^3
     number of atoms/cell      =           79
     number of atomic types    =            4
     number of electrons       =      1324.00
     number of Kohn-Sham states=          794
     kinetic-energy cutoff     =      30.0000  Ry
     charge density cutoff     =     120.0000  Ry
     scf convergence threshold =      7.3E-07
     mixing beta               =       0.7000
     number of iterations used =            8  plain     mixing
     energy convergence thresh.=      1.0E-05
     force convergence thresh. =      5.0E-04
     Exchange-correlation= PBE
                           (   1   4   3   4   0   0   0)
     nstep                     =          100


     celldm(1)=  19.761696  celldm(2)=   0.000000  celldm(3)=   0.000000
     celldm(4)=   0.000000  celldm(5)=   0.000000  celldm(6)=   0.000000

     crystal axes: (cart. coord. in units of alat)
               a(1) = (   1.000000   0.000000   0.000000 )  
               a(2) = (  -0.500000   0.866025   0.000000 )  
               a(3) = (   0.000000   0.000000   2.270759 )  

     reciprocal axes: (cart. coord. in units 2 pi/alat)
               b(1) = (  1.000000  0.577350 -0.000000 )  
               b(2) = (  0.000000  1.154701  0.000000 )  
               b(3) = (  0.000000 -0.000000  0.440381 )  


     PseudoPot. # 1 for Zn read from file:
     /home/ys/qepseudo/SSSP_1.3.0_PBE_efficiency/Zn_pbe_v1.uspp.F.UPF
     MD5 check sum: df62231357ef9e81f77b2b3087fa5675
     Pseudo is Ultrasoft, Zval = 20.0
     Generated by new atomic code, or converted to UPF format
     Using radial grid of  943 points,  6 beta functions with: 
                l(1) =   0
                l(2) =   0
                l(3) =   1
                l(4) =   1
                l(5) =   2
                l(6) =   2
     Q(r) pseudized with  8 coefficients,  rinner =    1.100   1.100   1.100
                                                       1.100   1.100

     PseudoPot. # 2 for C  read from file:
     /home/ys/qepseudo/SSSP_1.3.0_PBE_efficiency/C.pbe-n-kjpaw_psl.1.0.0.UPF
     MD5 check sum: 5d2aebdfa2cae82b50a7e79e9516da0f
     Pseudo is Projector augmented-wave + core cor, Zval =  4.0
     Generated using "atomic" code by A. Dal Corso  v.5.1
     Shape of augmentation charge: PSQ
     Using radial grid of 1073 points,  4 beta functions with: 
                l(1) =   0
                l(2) =   0
                l(3) =   1
                l(4) =   1
     Q(r) pseudized with 0 coefficients 


     PseudoPot. # 3 for N  read from file:
     /home/ys/qepseudo/SSSP_1.3.0_PBE_efficiency/N.pbe-n-radius_5.UPF
     MD5 check sum: 16739722b17309cd8fe442a2ace49922
     Pseudo is Ultrasoft + core correction, Zval =  5.0
     Generated using "atomic" code by A. Dal Corso  v.5.1
     Using radial grid of 1085 points,  4 beta functions with: 
                l(1) =   0
                l(2) =   0
                l(3) =   1
                l(4) =   1
     Q(r) pseudized with 0 coefficients 


     PseudoPot. # 4 for H  read from file:
     /home/ys/qepseudo/SSSP_1.3.0_PBE_efficiency/H.pbe-rrkjus_psl.1.0.0.UPF
     MD5 check sum: f52b6d4d1c606e5624b1dc7b2218f220
     Pseudo is Ultrasoft, Zval =  1.0
     Generated using "atomic" code by A. Dal Corso  v.5.1
     Using radial grid of  929 points,  2 beta functions with: 
                l(1) =   0
                l(2) =   0
     Q(r) pseudized with 0 coefficients 


     atomic species   valence    mass     pseudopotential
     Zn               20.00    65.38000     Zn( 1.00)
     C                 4.00    12.01070     C ( 1.00)
     N                 5.00    14.00670     N ( 1.00)
     H                 1.00     1.00800     H ( 1.00)

     No symmetry found


                                    s                        frac. trans.

      isym =  1     identity                                     

 cryst.   s( 1) = (     1          0          0      )
                  (     0          1          0      )
                  (     0          0          1      )

 cart.    s( 1) = (  1.0000000  0.0000000  0.0000000 )
                  (  0.0000000  1.0000000  0.0000000 )
                  (  0.0000000  0.0000000  1.0000000 )


   Cartesian axes

     site n.     atom                  positions (alat units)
         1        Zn     tau(   1) = (   0.1164999   0.1250000   0.0721688  )
         2        Zn     tau(   2) = (   0.1164999   0.6250000   0.0721688  )
         3        Zn     tau(   3) = (   0.1164999   0.0000000   0.2886751  )
         4        Zn     tau(   4) = (   0.1164999   0.5000000   0.2886751  )
         5        Zn     tau(   5) = (   0.1165269  -0.1250199   0.5424778  )
         6        Zn     tau(   6) = (   0.1165376   0.3750005   0.5423904  )
         7        Zn     tau(   7) = (   0.1165378  -0.2500279   0.7948841  )
         8        Zn     tau(   8) = (   0.1165433   0.2500373   0.7948360  )
         9        Zn     tau(   9) = (   0.1164999   0.3750000   0.0721688  )
        10        Zn     tau(  10) = (   0.1164999   0.8750000   0.0721688  )
        11        Zn     tau(  11) = (   0.1164999   0.2500000   0.2886751  )
        12        Zn     tau(  12) = (   0.1164999   0.7500000   0.2886751  )
        13        Zn     tau(  13) = (   0.1165379   0.1250101   0.5424217  )
        14        Zn     tau(  14) = (   0.1165259   0.6249881   0.5424569  )
        15        Zn     tau(  15) = (   0.1165411  -0.0000343   0.7948854  )
        16        Zn     tau(  16) = (   0.1165396   0.5000422   0.7948274  )
        17        Zn     tau(  17) = (   0.5824993   0.1250000   0.0721688  )
        18        Zn     tau(  18) = (   0.5824993   0.6250000   0.0721688  )
        19        Zn     tau(  19) = (   0.5824993   0.0000000   0.2886751  )
        20        Zn     tau(  20) = (   0.5824993   0.5000000   0.2886751  )
        21        Zn     tau(  21) = (   0.5824690  -0.1250042   0.5426620  )
        22        Zn     tau(  22) = (   0.5824644   0.3749865   0.5425939  )
        23        Zn     tau(  23) = (   0.5824664  -0.2500343   0.7948659  )
        24        Zn     tau(  24) = (   0.5824526   0.2500446   0.7948269  )
        25        Zn     tau(  25) = (   0.5824993   0.3750000   0.0721688  )
        26        Zn     tau(  26) = (   0.5824993   0.8750000   0.0721688  )
        27        Zn     tau(  27) = (   0.5824993   0.2500000   0.2886751  )
        28        Zn     tau(  28) = (   0.5824993   0.7500000   0.2886751  )
        29        Zn     tau(  29) = (   0.5824660   0.1250408   0.5426223  )
        30        Zn     tau(  30) = (   0.5824687   0.6249568   0.5426409  )
        31        Zn     tau(  31) = (   0.5824611  -0.0000148   0.7948754  )
        32        Zn     tau(  32) = (   0.5824595   0.5000225   0.7948139  )
        33        Zn     tau(  33) = (   0.3494996  -0.0000000   0.1443376  )
        34        Zn     tau(  34) = (   0.3494996   0.5000000   0.1443376  )
        35        Zn     tau(  35) = (   0.3494996  -0.1250000   0.3608439  )
        36        Zn     tau(  36) = (   0.3494996   0.3750000   0.3608439  )
        37        Zn     tau(  37) = (   0.3494805  -0.2500392   0.5811976  )
        38        Zn     tau(  38) = (   0.3630076   0.2705207   0.4088327  )
        39        Zn     tau(  39) = (   0.3496055  -0.3750142   0.8096682  )
        40        Zn     tau(  40) = (   0.3496104   0.1250017   0.8096945  )
        41        Zn     tau(  41) = (   0.3494996   0.2500000   0.1443376  )
        42        Zn     tau(  42) = (   0.3494996   0.7500000   0.1443376  )
        43        Zn     tau(  43) = (   0.3494996   0.1250000   0.3608439  )
        44        Zn     tau(  44) = (   0.3494996   0.6250000   0.3608439  )
        45        Zn     tau(  45) = (   0.3494874   0.0000160   0.5811509  )
        46        Zn     tau(  46) = (   0.3494915   0.4999712   0.5811725  )
        47        Zn     tau(  47) = (   0.3496025  -0.1250491   0.8096982  )
        48        Zn     tau(  48) = (   0.3496124   0.3750343   0.8096633  )
        49        Zn     tau(  49) = (   0.8154990  -0.0000000   0.1443376  )
        50        Zn     tau(  50) = (   0.8154990   0.5000000   0.1443376  )
        51        Zn     tau(  51) = (   0.8154990  -0.1250000   0.3608439  )
        52        Zn     tau(  52) = (   0.8154990   0.3750000   0.3608439  )
        53        Zn     tau(  53) = (   0.8155118  -0.2500381   0.5812063  )
        54        Zn     tau(  54) = (   0.8155126   0.2500275   0.5811366  )
        55        Zn     tau(  55) = (   0.8153993  -0.3750032   0.8097699  )
        56        Zn     tau(  56) = (   0.8153901   0.1249881   0.8097965  )
        57        Zn     tau(  57) = (   0.8154990   0.2500000   0.1443376  )
        58        Zn     tau(  58) = (   0.8154990   0.7500000   0.1443376  )
        59        Zn     tau(  59) = (   0.8154990   0.1250000   0.3608439  )
        60        Zn     tau(  60) = (   0.8154990   0.6250000   0.3608439  )
        61        Zn     tau(  61) = (   0.8155168  -0.0000013   0.5811587  )
        62        Zn     tau(  62) = (   0.8155126   0.4999899   0.5811798  )
        63        Zn     tau(  63) = (   0.8154033  -0.1250559   0.8097984  )
        64        Zn     tau(  64) = (   0.8153872   0.3750442   0.8097656  )
        65        C      tau(  65) = (   0.4698250   0.1320681   1.6341688  )
        66        C      tau(  66) = (   0.4864640   0.1487327   1.4994088  )
        67        C      tau(  67) = (   0.4971118   0.0422090   1.4176194  )
        68        C      tau(  68) = (   0.4925617   0.2720471   1.4454961  )
        69        C      tau(  69) = (   0.5086878   0.2883910   1.3148851  )
        70        C      tau(  70) = (   0.5132451   0.0581828   1.2869634  )
        71        C      tau(  71) = (   0.5194135   0.1817615   1.2324709  )
        72        N      tau(  72) = (   0.4563121   0.1185188   1.7436743  )
        73        N      tau(  73) = (   0.5353263   0.1976792   1.1037514  )
        74        H      tau(  74) = (   0.5396069   0.2858904   1.0648317  )
        75        H      tau(  75) = (   0.5428601   0.1215603   1.0449003  )
        76        H      tau(  76) = (   0.4925745  -0.0539964   1.4579063  )
        77        H      tau(  77) = (   0.4844672   0.3555866   1.5075745  )
        78        H      tau(  78) = (   0.5131888   0.3848698   1.2748799  )
        79        H      tau(  79) = (   0.5213154  -0.0256908   1.2250931  )

   Crystallographic axes

     site n.     atom                  positions (cryst. coord.)
         1        Zn     tau(   1) = (  0.1886686  0.1443376  0.0317818  )
         2        Zn     tau(   2) = (  0.4773438  0.7216878  0.0317818  )
         3        Zn     tau(   3) = (  0.1164999  0.0000000  0.1271272  )
         4        Zn     tau(   4) = (  0.4051750  0.5773503  0.1271272  )
         5        Zn     tau(   5) = (  0.0443466 -0.1443606  0.2388971  )
         6        Zn     tau(   6) = (  0.3330443  0.4330133  0.2388587  )
         7        Zn     tau(   7) = ( -0.0278158 -0.2887073  0.3500522  )
         8        Zn     tau(   8) = (  0.2609024  0.2887182  0.3500310  )
         9        Zn     tau(   9) = (  0.3330062  0.4330127  0.0317818  )
        10        Zn     tau(  10) = (  0.6216813  1.0103630  0.0317818  )
        11        Zn     tau(  11) = (  0.2608374  0.2886751  0.1271272  )
        12        Zn     tau(  12) = (  0.5495126  0.8660254  0.1271272  )
        13        Zn     tau(  13) = (  0.1887125  0.1443492  0.2388725  )
        14        Zn     tau(  14) = (  0.4773629  0.7216740  0.2388879  )
        15        Zn     tau(  15) = (  0.1165213 -0.0000396  0.3500528  )
        16        Zn     tau(  16) = (  0.4052391  0.5773990  0.3500272  )
        17        Zn     tau(  17) = (  0.6546681  0.1443376  0.0317818  )
        18        Zn     tau(  18) = (  0.9433432  0.7216878  0.0317818  )
        19        Zn     tau(  19) = (  0.5824993  0.0000000  0.1271272  )
        20        Zn     tau(  20) = (  0.8711744  0.5773503  0.1271272  )
        21        Zn     tau(  21) = (  0.5102977 -0.1443425  0.2389783  )
        22        Zn     tau(  22) = (  0.7989629  0.4329972  0.2389483  )
        23        Zn     tau(  23) = (  0.4381090 -0.2887148  0.3500442  )
        24        Zn     tau(  24) = (  0.7268159  0.2887266  0.3500270  )
        25        Zn     tau(  25) = (  0.7990056  0.4330127  0.0317818  )
        26        Zn     tau(  26) = (  1.0876808  1.0103630  0.0317818  )
        27        Zn     tau(  27) = (  0.7268369  0.2886751  0.1271272  )
        28        Zn     tau(  28) = (  1.0155120  0.8660254  0.1271272  )
        29        Zn     tau(  29) = (  0.6546583  0.1443847  0.2389608  )
        30        Zn     tau(  30) = (  0.9432877  0.7216380  0.2389690  )
        31        Zn     tau(  31) = (  0.5824526 -0.0000171  0.3500484  )
        32        Zn     tau(  32) = (  0.8711477  0.5773763  0.3500213  )
        33        Zn     tau(  33) = (  0.3494996 -0.0000000  0.0635636  )
        34        Zn     tau(  34) = (  0.6381747  0.5773503  0.0635636  )
        35        Zn     tau(  35) = (  0.2773308 -0.1443376  0.1589090  )
        36        Zn     tau(  36) = (  0.5660059  0.4330127  0.1589090  )
        37        Zn     tau(  37) = (  0.2051203 -0.2887204  0.2559486  )
        38        Zn     tau(  38) = (  0.5191928  0.3123703  0.1800423  )
        39        Zn     tau(  39) = (  0.1330909 -0.4330291  0.3565628  )
        40        Zn     tau(  40) = (  0.4217802  0.1443395  0.3565744  )
        41        Zn     tau(  41) = (  0.4938371  0.2886751  0.0635636  )
        42        Zn     tau(  42) = (  0.7825123  0.8660254  0.0635636  )
        43        Zn     tau(  43) = (  0.4216684  0.1443376  0.1589090  )
        44        Zn     tau(  44) = (  0.7103435  0.7216878  0.1589090  )
        45        Zn     tau(  45) = (  0.3494967  0.0000184  0.2559281  )
        46        Zn     tau(  46) = (  0.6381500  0.5773170  0.2559376  )
        47        Zn     tau(  47) = (  0.2774054 -0.1443943  0.3565760  )
        48        Zn     tau(  48) = (  0.5661385  0.4330523  0.3565607  )
        49        Zn     tau(  49) = (  0.8154990 -0.0000000  0.0635636  )
        50        Zn     tau(  50) = (  1.1041741  0.5773503  0.0635636  )
        51        Zn     tau(  51) = (  0.7433302 -0.1443376  0.1589090  )
        52        Zn     tau(  52) = (  1.0320054  0.4330127  0.1589090  )
        53        Zn     tau(  53) = (  0.6711522 -0.2887192  0.2559525  )
        54        Zn     tau(  54) = (  0.9598660  0.2887069  0.2559218  )
        55        Zn     tau(  55) = (  0.5988911 -0.4330164  0.3566076  )
        56        Zn     tau(  56) = (  0.8875520  0.1443239  0.3566193  )
        57        Zn     tau(  57) = (  0.9598366  0.2886751  0.0635636  )
        58        Zn     tau(  58) = (  1.2485117  0.8660254  0.0635636  )
        59        Zn     tau(  59) = (  0.8876678  0.1443376  0.1589090  )
        60        Zn     tau(  60) = (  1.1763429  0.7216878  0.1589090  )
        61        Zn     tau(  61) = (  0.8155160 -0.0000015  0.2559315  )
        62        Zn     tau(  62) = (  1.1041819  0.5773386  0.2559408  )
        63        Zn     tau(  63) = (  0.7432023 -0.1444021  0.3566202  )
        64        Zn     tau(  64) = (  1.0319191  0.4330637  0.3566058  )
        65        C      tau(  65) = (  0.5460746  0.1524991  0.7196576  )
        66        C      tau(  66) = (  0.5723348  0.1717417  0.6603118  )
        67        C      tau(  67) = (  0.5214811  0.0487387  0.6242932  )
        68        C      tau(  68) = (  0.6496281  0.3141329  0.6365697  )
        69        C      tau(  69) = (  0.6751904  0.3330053  0.5790510  )
        70        C      tau(  70) = (  0.5468370  0.0671837  0.5667548  )
        71        C      tau(  71) = (  0.6243536  0.2098801  0.5427573  )
        72        N      tau(  72) = (  0.5247390  0.1368537  0.7678818  )
        73        N      tau(  73) = (  0.6494565  0.2282602  0.4860716  )
        74        H      tau(  74) = (  0.7046658  0.3301178  0.4689321  )
        75        H      tau(  75) = (  0.6130430  0.1403657  0.4601547  )
        76        H      tau(  76) = (  0.4613996 -0.0623497  0.6420348  )
        77        H      tau(  77) = (  0.6897652  0.4105960  0.6639078  )
        78        H      tau(  78) = (  0.7353935  0.4444093  0.5614334  )
        79        H      tau(  79) = (  0.5064828 -0.0296652  0.5395083  )

     number of k points=     5  Marzari-Vanderbilt smearing, width (Ry)=  0.0200
                       cart. coord. in units 2pi/alat
        k(    1) = (   0.0000000   0.0000000   0.0000000), wk =   0.2222222
        k(    2) = (   0.0000000   0.3849002   0.0000000), wk =   0.4444444
        k(    3) = (   0.3333333   0.1924501   0.0000000), wk =   0.4444444
        k(    4) = (   0.3333333   0.5773503   0.0000000), wk =   0.4444444
        k(    5) = (   0.3333333  -0.1924501   0.0000000), wk =   0.4444444

                       cryst. coord.
        k(    1) = (   0.0000000   0.0000000   0.0000000), wk =   0.2222222
        k(    2) = (   0.0000000   0.3333333   0.0000000), wk =   0.4444444
        k(    3) = (   0.3333333   0.0000000   0.0000000), wk =   0.4444444
        k(    4) = (   0.3333333   0.3333333   0.0000000), wk =   0.4444444
        k(    5) = (   0.3333333  -0.3333333   0.0000000), wk =   0.4444444

     Dense  grid:   337189 G-vectors     FFT dimensions: (  72,  72, 160)

     Dynamical RAM for                 wfc:      15.94 MB

     Dynamical RAM for     wfc (w. buffer):      95.66 MB

     Dynamical RAM for           str. fact:       0.64 MB

     Dynamical RAM for           local pot:       0.00 MB

     Dynamical RAM for          nlocal pot:      24.82 MB

     Dynamical RAM for                qrad:       3.52 MB

     Dynamical RAM for          rho,v,vnew:       1.08 MB

     Dynamical RAM for               rhoin:       0.36 MB

     Dynamical RAM for            rho*nmix:       2.57 MB

     Dynamical RAM for           G-vectors:       0.68 MB

     Dynamical RAM for          h,s,v(r/c):       4.60 MB

     Dynamical RAM for          <psi|beta>:      14.97 MB

     Dynamical RAM for                 psi:      31.89 MB

     Dynamical RAM for                hpsi:      31.89 MB

     Dynamical RAM for                spsi:      31.89 MB

     Dynamical RAM for      wfcinit/wfcrot:      52.59 MB

     Dynamical RAM for           addusdens:      40.19 MB

     Dynamical RAM for          addusforce:      60.78 MB

     Dynamical RAM for         addusstress:      32.31 MB

     Estimated static dynamical RAM per process >     128.56 MB

     Estimated max dynamical RAM per process >     246.37 MB

     Estimated total dynamical RAM >       7.70 GB

     Check: negative core charge=   -0.000055

     Initial potential from superposition of free atoms

     starting charge    1323.9906, renormalised to    1324.0000

     negative rho (up, down):  7.199E-03 0.000E+00
     Starting wfcs are  874 randomized atomic wfcs
[psid06:122600] 31 more processes have sent help message help-mpi-btl-openib.txt / ib port not selected
[psid06:122600] Set MCA parameter "orte_base_help_aggregate" to 0 to see all help / error messages
[psid06:122600] 31 more processes have sent help message help-mpi-btl-openib.txt / error in device init
     Checking if some PAW data can be deallocated... 
       PAW data deallocated on   28 nodes for type:  2

     total cpu time spent up to now is       70.6 secs

     Self-consistent Calculation

     iteration #  1     ecut=    30.00 Ry     beta= 0.70
     Davidson diagonalization with overlap

---- Real-time Memory Report at c_bands before calling an iterative solver
           216 MiB given to the printing process from OS
             0 MiB allocation reported by mallinfo(arena+hblkhd)
        177718 MiB available memory on the node where the printing process lives
------------------
     ethr =  1.00E-02,  avg # of iterations =  6.8

     Threshold (ethr) on eigenvalues was too large:
     Diagonalizing with lowered threshold

     Davidson diagonalization with overlap

---- Real-time Memory Report at c_bands before calling an iterative solver
           290 MiB given to the printing process from OS
             0 MiB allocation reported by mallinfo(arena+hblkhd)
        176537 MiB available memory on the node where the printing process lives
------------------
     ethr =  8.16E-04,  avg # of iterations =  2.0

     negative rho (up, down):  3.741E-02 0.000E+00

     total cpu time spent up to now is      616.2 secs

     total energy              =  -29665.37267231 Ry
     estimated scf accuracy    <      10.91278278 Ry

     iteration #  2     ecut=    30.00 Ry     beta= 0.70
     Davidson diagonalization with overlap

---- Real-time Memory Report at c_bands before calling an iterative solver
           290 MiB given to the printing process from OS
             0 MiB allocation reported by mallinfo(arena+hblkhd)
        176496 MiB available memory on the node where the printing process lives
------------------
     ethr =  8.24E-04,  avg # of iterations =  8.2

     negative rho (up, down):  3.508E-02 0.000E+00

     total cpu time spent up to now is      986.6 secs

     total energy              =  -29629.74122330 Ry
     estimated scf accuracy    <     811.83117384 Ry

     iteration #  3     ecut=    30.00 Ry     beta= 0.70
     Davidson diagonalization with overlap

---- Real-time Memory Report at c_bands before calling an iterative solver
           291 MiB given to the printing process from OS
             0 MiB allocation reported by mallinfo(arena+hblkhd)
        176473 MiB available memory on the node where the printing process lives
------------------
     ethr =  8.24E-04,  avg # of iterations = 10.0

     negative rho (up, down):  2.950E-02 0.000E+00

     total cpu time spent up to now is     1641.1 secs

     total energy              =  -29664.22240843 Ry
     estimated scf accuracy    <     141.30347366 Ry

     iteration #  4     ecut=    30.00 Ry     beta= 0.70
     Davidson diagonalization with overlap

---- Real-time Memory Report at c_bands before calling an iterative solver
           291 MiB given to the printing process from OS
             0 MiB allocation reported by mallinfo(arena+hblkhd)
        176461 MiB available memory on the node where the printing process lives
------------------
     ethr =  8.24E-04,  avg # of iterations =  7.0

     negative rho (up, down):  2.260E-02 0.000E+00

     total cpu time spent up to now is     1927.7 secs

     total energy              =  -29668.79919812 Ry
     estimated scf accuracy    <      82.03706102 Ry

     iteration #  5     ecut=    30.00 Ry     beta= 0.70
     Davidson diagonalization with overlap

---- Real-time Memory Report at c_bands before calling an iterative solver
           292 MiB given to the printing process from OS
             0 MiB allocation reported by mallinfo(arena+hblkhd)
        176449 MiB available memory on the node where the printing process lives
------------------
     ethr =  8.24E-04,  avg # of iterations =  4.4

     negative rho (up, down):  2.267E-02 0.000E+00

     total cpu time spent up to now is     2182.5 secs

     total energy              =  -29672.60384406 Ry
     estimated scf accuracy    <       3.93427521 Ry

     iteration #  6     ecut=    30.00 Ry     beta= 0.70
     Davidson diagonalization with overlap

---- Real-time Memory Report at c_bands before calling an iterative solver
           292 MiB given to the printing process from OS
             0 MiB allocation reported by mallinfo(arena+hblkhd)
        176428 MiB available memory on the node where the printing process lives
------------------
     ethr =  2.97E-04,  avg # of iterations =  7.0

     negative rho (up, down):  2.722E-02 0.000E+00

     total cpu time spent up to now is     2431.8 secs

     total energy              =  -29672.96367448 Ry
     estimated scf accuracy    <       0.46707283 Ry

     iteration #  7     ecut=    30.00 Ry     beta= 0.70
     Davidson diagonalization with overlap

---- Real-time Memory Report at c_bands before calling an iterative solver
           293 MiB given to the printing process from OS
             0 MiB allocation reported by mallinfo(arena+hblkhd)
        176412 MiB available memory on the node where the printing process lives
------------------
     ethr =  3.53E-05,  avg # of iterations = 12.2

     negative rho (up, down):  3.049E-02 0.000E+00

     total cpu time spent up to now is     2726.8 secs

     total energy              =  -29672.98252282 Ry
     estimated scf accuracy    <       0.19023534 Ry

     iteration #  8     ecut=    30.00 Ry     beta= 0.70
     Davidson diagonalization with overlap

---- Real-time Memory Report at c_bands before calling an iterative solver
           294 MiB given to the printing process from OS
             0 MiB allocation reported by mallinfo(arena+hblkhd)
        176392 MiB available memory on the node where the printing process lives
------------------
     ethr =  1.44E-05,  avg # of iterations =  3.0

     negative rho (up, down):  3.346E-02 0.000E+00

     total cpu time spent up to now is     2974.2 secs

     total energy              =  -29672.99683397 Ry
     estimated scf accuracy    <       0.15366271 Ry

     iteration #  9     ecut=    30.00 Ry     beta= 0.70
     Davidson diagonalization with overlap

---- Real-time Memory Report at c_bands before calling an iterative solver
           294 MiB given to the printing process from OS
             0 MiB allocation reported by mallinfo(arena+hblkhd)
        176374 MiB available memory on the node where the printing process lives
------------------
     ethr =  1.16E-05,  avg # of iterations =  3.0

     negative rho (up, down):  3.502E-02 0.000E+00

     total cpu time spent up to now is     3217.4 secs

     total energy              =  -29673.00803133 Ry
     estimated scf accuracy    <       0.08173326 Ry

     iteration # 10     ecut=    30.00 Ry     beta= 0.70
     Davidson diagonalization with overlap

---- Real-time Memory Report at c_bands before calling an iterative solver
           295 MiB given to the printing process from OS
             0 MiB allocation reported by mallinfo(arena+hblkhd)
        176359 MiB available memory on the node where the printing process lives
------------------
     ethr =  6.17E-06,  avg # of iterations =  3.0

     negative rho (up, down):  3.543E-02 0.000E+00

     total cpu time spent up to now is     3455.5 secs

     total energy              =  -29673.01494037 Ry
     estimated scf accuracy    <       0.02773933 Ry

     iteration # 11     ecut=    30.00 Ry     beta= 0.70
     Davidson diagonalization with overlap

---- Real-time Memory Report at c_bands before calling an iterative solver
           295 MiB given to the printing process from OS
             0 MiB allocation reported by mallinfo(arena+hblkhd)
        176340 MiB available memory on the node where the printing process lives
------------------
     ethr =  2.10E-06,  avg # of iterations = 15.0

     negative rho (up, down):  3.844E-02 0.000E+00

     total cpu time spent up to now is     3725.0 secs

     total energy              =  -29673.00825278 Ry
     estimated scf accuracy    <       0.01470951 Ry

     iteration # 12     ecut=    30.00 Ry     beta= 0.70
     Davidson diagonalization with overlap

---- Real-time Memory Report at c_bands before calling an iterative solver
           295 MiB given to the printing process from OS
             0 MiB allocation reported by mallinfo(arena+hblkhd)
        176339 MiB available memory on the node where the printing process lives
------------------
     ethr =  1.11E-06,  avg # of iterations = 17.6

     negative rho (up, down):  3.760E-02 0.000E+00

     total cpu time spent up to now is     4065.5 secs

     total energy              =  -29673.00740438 Ry
     estimated scf accuracy    <       0.02375321 Ry

     iteration # 13     ecut=    30.00 Ry     beta= 0.70
     Davidson diagonalization with overlap

---- Real-time Memory Report at c_bands before calling an iterative solver
           295 MiB given to the printing process from OS
             0 MiB allocation reported by mallinfo(arena+hblkhd)
        176338 MiB available memory on the node where the printing process lives
------------------
     ethr =  1.11E-06,  avg # of iterations =  2.8

     negative rho (up, down):  3.632E-02 0.000E+00

     total cpu time spent up to now is     4309.1 secs

     total energy              =  -29673.00469598 Ry
     estimated scf accuracy    <       0.01436694 Ry

     iteration # 14     ecut=    30.00 Ry     beta= 0.70
     Davidson diagonalization with overlap

---- Real-time Memory Report at c_bands before calling an iterative solver
           295 MiB given to the printing process from OS
             0 MiB allocation reported by mallinfo(arena+hblkhd)
        176339 MiB available memory on the node where the printing process lives
------------------
     c_bands:  1 eigenvalues not converged
     ethr =  1.09E-06,  avg # of iterations = 16.6

     negative rho (up, down):  3.637E-02 0.000E+00

     total cpu time spent up to now is     4642.8 secs

     total energy              =  -29672.99457906 Ry
     estimated scf accuracy    <       0.37642816 Ry

     iteration # 15     ecut=    30.00 Ry     beta= 0.70
     Davidson diagonalization with overlap

---- Real-time Memory Report at c_bands before calling an iterative solver
           295 MiB given to the printing process from OS
             0 MiB allocation reported by mallinfo(arena+hblkhd)
        176335 MiB available memory on the node where the printing process lives
------------------
     c_bands:  1 eigenvalues not converged
     ethr =  1.09E-06,  avg # of iterations = 14.6

     negative rho (up, down):  3.664E-02 0.000E+00

     total cpu time spent up to now is     4942.2 secs

     total energy              =  -29673.00846821 Ry
     estimated scf accuracy    <       0.00866651 Ry

     iteration # 16     ecut=    30.00 Ry     beta= 0.70
     Davidson diagonalization with overlap

---- Real-time Memory Report at c_bands before calling an iterative solver
           295 MiB given to the printing process from OS
             0 MiB allocation reported by mallinfo(arena+hblkhd)
        176336 MiB available memory on the node where the printing process lives
------------------
     ethr =  6.55E-07,  avg # of iterations =  4.6

     negative rho (up, down):  3.636E-02 0.000E+00

     total cpu time spent up to now is     5180.5 secs

     total energy              =  -29673.00928334 Ry
     estimated scf accuracy    <       0.00482027 Ry

     iteration # 17     ecut=    30.00 Ry     beta= 0.70
     Davidson diagonalization with overlap

---- Real-time Memory Report at c_bands before calling an iterative solver
           295 MiB given to the printing process from OS
             0 MiB allocation reported by mallinfo(arena+hblkhd)
        176336 MiB available memory on the node where the printing process lives
------------------
     ethr =  3.64E-07,  avg # of iterations =  2.0

     negative rho (up, down):  3.624E-02 0.000E+00

     total cpu time spent up to now is     5404.7 secs

     total energy              =  -29673.00969631 Ry
     estimated scf accuracy    <       0.00009519 Ry

     iteration # 18     ecut=    30.00 Ry     beta= 0.70
     Davidson diagonalization with overlap

---- Real-time Memory Report at c_bands before calling an iterative solver
           295 MiB given to the printing process from OS
             0 MiB allocation reported by mallinfo(arena+hblkhd)
        176334 MiB available memory on the node where the printing process lives
------------------
     ethr =  7.19E-09,  avg # of iterations =  2.8

     negative rho (up, down):  3.616E-02 0.000E+00

     total cpu time spent up to now is     5649.5 secs

     total energy              =  -29673.00970618 Ry
     estimated scf accuracy    <       0.00008090 Ry

     iteration # 19     ecut=    30.00 Ry     beta= 0.70
     Davidson diagonalization with overlap

---- Real-time Memory Report at c_bands before calling an iterative solver
           295 MiB given to the printing process from OS
             0 MiB allocation reported by mallinfo(arena+hblkhd)
        176336 MiB available memory on the node where the printing process lives
------------------
     ethr =  6.11E-09,  avg # of iterations =  2.0

     negative rho (up, down):  3.612E-02 0.000E+00

     total cpu time spent up to now is     5875.7 secs

     total energy              =  -29673.00971628 Ry
     estimated scf accuracy    <       0.00002929 Ry

     iteration # 20     ecut=    30.00 Ry     beta= 0.70
     Davidson diagonalization with overlap

---- Real-time Memory Report at c_bands before calling an iterative solver
           295 MiB given to the printing process from OS
             0 MiB allocation reported by mallinfo(arena+hblkhd)
        176335 MiB available memory on the node where the printing process lives
------------------
     ethr =  2.21E-09,  avg # of iterations =  2.0

     negative rho (up, down):  3.611E-02 0.000E+00

     total cpu time spent up to now is     6102.8 secs

     total energy              =  -29673.00971967 Ry
     estimated scf accuracy    <       0.00000476 Ry

     iteration # 21     ecut=    30.00 Ry     beta= 0.70
     Davidson diagonalization with overlap

---- Real-time Memory Report at c_bands before calling an iterative solver
           295 MiB given to the printing process from OS
             0 MiB allocation reported by mallinfo(arena+hblkhd)
        176335 MiB available memory on the node where the printing process lives
------------------
     ethr =  3.60E-10,  avg # of iterations =  2.0

     negative rho (up, down):  3.610E-02 0.000E+00

     total cpu time spent up to now is     6331.3 secs

     total energy              =  -29673.00972034 Ry
     estimated scf accuracy    <       0.00000113 Ry

     iteration # 22     ecut=    30.00 Ry     beta= 0.70
     Davidson diagonalization with overlap

---- Real-time Memory Report at c_bands before calling an iterative solver
           295 MiB given to the printing process from OS
             0 MiB allocation reported by mallinfo(arena+hblkhd)
        176334 MiB available memory on the node where the printing process lives
------------------
     ethr =  8.51E-11,  avg # of iterations =  2.0

     negative rho (up, down):  3.609E-02 0.000E+00

     total cpu time spent up to now is     6560.7 secs

     End of self-consistent calculation

          k = 0.0000 0.0000 0.0000 ( 42115 PWs)   bands (ev):

  -129.8541-128.2280-128.1530-128.1517-128.0943-128.0192-127.9881-127.9839
  -127.9608-127.9003-127.8753-127.8224-127.7789-127.7708-127.6612-127.6112
  -127.5856-124.9165-124.7089-124.6338-124.6191-124.5759-124.4991-124.4638
  -124.4585-124.4421-124.3615-124.3389-124.3128-124.3022-124.2599-124.2559
  -124.1366-124.0924-124.0721-123.1403-123.0495-122.9646-122.9434-122.9219
  -122.9210-122.8901-122.8684-122.8635-122.8623-122.8528-122.8505-122.8280
  -122.8213-122.8042-122.7947-122.7370-122.7314-122.7227-122.7157-122.7029
  -122.6909-122.6762-122.6738-122.6578-122.6336-122.6257-122.5469-122.5040
   -87.7901 -85.6982 -85.6219 -85.6138 -85.5630 -85.4897 -85.4598 -85.4486
   -85.4279 -85.3697 -85.3386 -85.2920 -85.2601 -85.2396 -85.1350 -85.0907
   -85.0713 -81.9753 -81.7562 -80.8059 -80.7886 -80.7367 -80.7100 -80.7096
   -80.7048 -80.6677 -80.6403 -80.5760 -80.5672 -80.5420 -80.5387 -80.5377
   -80.5369 -80.5334 -80.5079 -80.5019 -80.4465 -80.4368 -80.4222 -80.3767
   -80.3681 -80.3507 -80.3330 -80.3290 -80.3207 -80.2180 -80.1976 -80.1722
   -80.1544 -80.1540 -80.1258 -79.6474 -79.4466 -79.1735 -79.1610 -79.0912
   -79.0869 -79.0821 -79.0660 -79.0449 -79.0242 -78.9579 -78.9513 -78.9219
   -78.9212 -78.9163 -78.9113 -78.9000 -78.8789 -78.8287 -78.8084 -78.7672
   -78.7603 -78.7593 -78.7527 -78.7174 -78.7040 -78.7025 -78.7005 -78.6836
   -78.5986 -78.5790 -78.5426 -78.5283 -78.5261 -78.5038 -78.2770 -78.2734
   -77.2365 -77.2282 -77.2215 -77.1465 -77.1387 -77.1289 -77.0699 -77.0643
   -77.0559 -77.0458 -77.0432 -77.0291 -77.0253 -77.0200 -77.0177 -77.0098
   -77.0067 -77.0033 -76.9997 -76.9942 -76.9903 -76.9770 -76.9765 -76.9691
   -76.9653 -76.9623 -76.9621 -76.9567 -76.9544 -76.9531 -76.9508 -76.9491
   -76.9483 -76.9446 -76.9432 -76.9405 -76.9394 -76.9356 -76.9348 -76.9337
   -76.9311 -76.9302 -76.9223 -76.9064 -76.9020 -76.8996 -76.8946 -76.8942
   -76.8884 -76.8872 -76.8853 -76.8713 -76.8610 -76.8416 -76.8396 -76.8324
   -76.8286 -76.8244 -76.8214 -76.8186 -76.8178 -76.8165 -76.8164 -76.8142
   -76.8096 -76.8072 -76.8057 -76.8045 -76.8034 -76.7962 -76.7938 -76.7884
   -76.7869 -76.7827 -76.7812 -76.7772 -76.7716 -76.7623 -76.7614 -76.7589
   -76.7557 -76.7549 -76.7510 -76.7396 -76.7382 -76.7239 -76.7220 -76.7190
   -76.7164 -76.7116 -76.7116 -76.7102 -76.6641 -76.6489 -76.6365 -76.6332
   -76.6307 -76.6268 -76.6014 -76.5984 -76.5873 -76.4991 -76.4660 -76.4458
   -15.5895 -14.1480 -13.5327 -13.2790 -13.1933 -12.3724 -11.9647 -11.8615
   -11.8118 -11.7871 -11.7756 -11.6937 -11.6743 -11.6410 -11.6032 -11.5961
   -11.5773 -11.5667 -11.5389 -11.5227 -11.4936 -11.4724 -11.4653 -11.3971
   -11.3862 -11.3808 -11.3483 -11.3194 -11.3165 -11.3100 -11.2974 -11.2832
   -11.2682 -11.2478 -11.2222 -11.1882 -11.1607 -11.1500 -11.1075 -11.1031
   -11.0956 -11.0825 -11.0722 -11.0444 -10.9959 -10.9761 -10.9097 -10.8662
   -10.8613 -10.8235 -10.8142 -10.8111 -10.8000 -10.7171 -10.6290 -10.6116
    -9.1126  -9.0269  -8.3876  -8.3231  -8.2027  -8.1547  -8.1002  -8.0464
    -8.0178  -7.9161  -7.9038  -7.8914  -7.8595  -7.7797  -7.7700  -7.6964
    -7.6582  -7.6345  -7.6133  -7.5563  -7.4906  -7.4673  -7.4173  -7.3817
    -7.3576  -7.3085  -7.2530  -7.2355  -7.2182  -7.1775  -7.1616  -7.1322
    -7.1094  -7.0082  -6.9715  -6.9642  -6.9190  -6.6329  -6.4294  -6.2967
    -6.2284  -6.0056  -5.6725  -5.6691  -5.5814  -5.5414  -5.4681  -5.4287
    -5.3657  -5.3312  -5.3214  -5.2814  -5.2682  -5.2457  -5.2374  -5.2056
    -5.1957  -5.1832  -5.1487  -5.1441  -5.1341  -5.1040  -5.0868  -5.0665
    -5.0569  -5.0264  -5.0240  -4.9828  -4.9599  -4.9158  -4.8721  -4.8685
    -4.8543  -4.8510  -4.8281  -4.8070  -4.7997  -4.7913  -4.7747  -4.7603
    -4.7149  -4.6894  -4.6581  -4.6336  -4.6177  -4.6100  -4.5748  -4.5354
    -4.4668  -4.4229  -4.4079  -4.3743  -4.3473  -4.3323  -4.3101  -4.2949
    -4.2534  -4.2428  -4.2203  -4.2004  -4.1929  -4.1783  -4.1595  -4.1559
    -4.1510  -4.1274  -4.1052  -4.0994  -4.0913  -4.0706  -4.0603  -4.0538
    -4.0452  -4.0293  -4.0196  -4.0046  -4.0012  -3.9931  -3.9805  -3.9715
    -3.9627  -3.9529  -3.9480  -3.9330  -3.9189  -3.9165  -3.9029  -3.8967
    -3.8851  -3.8771  -3.8660  -3.8632  -3.8610  -3.8476  -3.8404  -3.8272
    -3.8220  -3.8177  -3.8127  -3.8108  -3.8008  -3.7835  -3.7786  -3.7745
    -3.7677  -3.7609  -3.7514  -3.7442  -3.7386  -3.7276  -3.7237  -3.7139
    -3.7053  -3.6967  -3.6882  -3.6863  -3.6823  -3.6759  -3.6701  -3.6595
    -3.6587  -3.6553  -3.6489  -3.6405  -3.6307  -3.6295  -3.6275  -3.6112
    -3.6095  -3.5969  -3.5915  -3.5874  -3.5814  -3.5796  -3.5678  -3.5662
    -3.5588  -3.5577  -3.5510  -3.5455  -3.5393  -3.5296  -3.5265  -3.5204
    -3.5162  -3.5091  -3.5044  -3.4945  -3.4845  -3.4803  -3.4715  -3.4687
    -3.4615  -3.4582  -3.4537  -3.4502  -3.4381  -3.4326  -3.4324  -3.4257
    -3.4176  -3.4169  -3.4107  -3.4043  -3.3955  -3.3911  -3.3858  -3.3808
    -3.3751  -3.3678  -3.3632  -3.3595  -3.3588  -3.3513  -3.3479  -3.3421
    -3.3385  -3.3373  -3.3250  -3.3199  -3.3179  -3.3107  -3.3068  -3.3044
    -3.2961  -3.2890  -3.2789  -3.2750  -3.2683  -3.2650  -3.2632  -3.2577
    -3.2485  -3.2454  -3.2339  -3.2307  -3.2239  -3.2216  -3.2123  -3.2071
    -3.2017  -3.1843  -3.1741  -3.1669  -3.1596  -3.1457  -3.1325  -3.1240
    -3.1143  -3.1012  -3.0967  -3.0860  -3.0701  -3.0640  -3.0487  -3.0394
    -3.0262  -3.0120  -2.9923  -2.9817  -2.9593  -2.9544  -2.9498  -2.9362
    -2.9146  -2.8798  -2.8555  -2.8429  -2.8349  -2.8208  -2.8058  -2.7859
    -2.7527  -2.7409  -2.7152  -2.6932  -2.6881  -2.6460  -2.6213  -2.5499
    -2.5385  -2.5194  -2.4987  -2.4802  -2.4444  -2.3930  -2.3655  -2.3443
    -2.3062  -2.2826  -2.1853  -2.1701  -2.1471  -2.0726  -2.0261  -1.7891
    -1.7099  -1.6544  -1.5095  -1.1266  -0.9784  -0.8785  -0.8466  -0.7346
    -0.6932  -0.6622  -0.5727  -0.3965  -0.1554  -0.1467  -0.1032  -0.0429
     0.0129   0.1656   0.3080   0.3347   0.4044   0.4475   0.5369   0.5655
     0.5890   0.7812   1.0073   1.1139   1.1885   1.2607   1.3147   1.3441
     1.6247   1.6642   1.7747   1.8220   1.8326   1.9771   2.0977   2.1334
     2.3426   2.4205   2.4495   2.5431   2.5893   2.7070   2.7495   2.8023
     2.8955   2.9810   3.1461   3.2763   3.3670   3.4658   3.5690   3.6575
     3.8369   3.8965   3.9742   4.1194   4.1564   4.2561   4.3738   4.4602
     4.4833   4.7139   4.9720   5.0819   5.1577   5.2864   5.4027   5.7317
     5.7524   5.8136   5.8880   5.9723   6.1078   6.1906   6.2555   6.2967
     6.3968   6.4372   6.4702   6.5345   6.5633   6.6637   6.8146   6.8997
     6.9044   6.9685   6.9988   7.0334   7.1487   7.1830   7.2346   7.2477
     7.3972   7.4298   7.4978   7.5072   7.6368   7.6999   7.7782   7.8160
     7.8877   8.0145   8.0390   8.0548   8.1097   8.1442   8.1786   8.2482
     8.2664   8.3024   8.3894   8.4073   8.4261   8.4708   8.5282   8.5637
     8.6447   8.6741   8.7236   8.8084   8.8414   8.8731   8.8797   8.8901
     8.9129   8.9260   8.9833   9.0078   9.0703   9.0823   9.1015   9.1309
     9.2324   9.3058   9.3251   9.3811   9.4234   9.4616   9.4787   9.5494
     9.5837   9.6300   9.6657   9.7299   9.7600   9.7966   9.8594   9.9835
    10.0350  10.0836  10.1250  10.1576  10.2655  10.3083  10.3728  10.3835
    10.4652  10.4782  10.5739  10.5901  10.6207  10.6363  10.6935  10.7062
    10.7770  10.8158  10.8358  10.8746  10.8922  10.9300  10.9706  11.0103
    11.0365  11.0581  11.0676  11.1080  11.1557  11.2255  11.2762  11.3193
    11.3932  11.4431

     occupation numbers 
     1.0000   1.0000   1.0000   1.0000   1.0000   1.0000   1.0000   1.0000
     1.0000   1.0000   1.0000   1.0000   1.0000   1.0000   1.0000   1.0000
     1.0000   1.0000   1.0000   1.0000   1.0000   1.0000   1.0000   1.0000
     1.0000   1.0000   1.0000   1.0000   1.0000   1.0000   1.0000   1.0000
     1.0000   1.0000   1.0000   1.0000   1.0000   1.0000   1.0000   1.0000
     1.0000   1.0000   1.0000   1.0000   1.0000   1.0000   1.0000   1.0000
     1.0000   1.0000   1.0000   1.0000   1.0000   1.0000   1.0000   1.0000
     1.0000   1.0000   1.0000   1.0000   1.0000   1.0000   1.0000   1.0000
     1.0000   1.0000   1.0000   1.0000   1.0000   1.0000   1.0000   1.0000
     1.0000   1.0000   1.0000   1.0000   1.0000   1.0000   1.0000   1.0000
     1.0000   1.0000   1.0000   1.0000   1.0000   1.0000   1.0000   1.0000
     1.0000   1.0000   1.0000   1.0000   1.0000   1.0000   1.0000   1.0000
     1.0000   1.0000   1.0000   1.0000   1.0000   1.0000   1.0000   1.0000
     1.0000   1.0000   1.0000   1.0000   1.0000   1.0000   1.0000   1.0000
     1.0000   1.0000   1.0000   1.0000   1.0000   1.0000   1.0000   1.0000
     1.0000   1.0000   1.0000   1.0000   1.0000   1.0000   1.0000   1.0000
     1.0000   1.0000   1.0000   1.0000   1.0000   1.0000   1.0000   1.0000
     1.0000   1.0000   1.0000   1.0000   1.0000   1.0000   1.0000   1.0000
     1.0000   1.0000   1.0000   1.0000   1.0000   1.0000   1.0000   1.0000
     1.0000   1.0000   1.0000   1.0000   1.0000   1.0000   1.0000   1.0000
     1.0000   1.0000   1.0000   1.0000   1.0000   1.0000   1.0000   1.0000
     1.0000   1.0000   1.0000   1.0000   1.0000   1.0000   1.0000   1.0000
     1.0000   1.0000   1.0000   1.0000   1.0000   1.0000   1.0000   1.0000
     1.0000   1.0000   1.0000   1.0000   1.0000   1.0000   1.0000   1.0000
     1.0000   1.0000   1.0000   1.0000   1.0000   1.0000   1.0000   1.0000
     1.0000   1.0000   1.0000   1.0000   1.0000   1.0000   1.0000   1.0000
     1.0000   1.0000   1.0000   1.0000   1.0000   1.0000   1.0000   1.0000
     1.0000   1.0000   1.0000   1.0000   1.0000   1.0000   1.0000   1.0000
     1.0000   1.0000   1.0000   1.0000   1.0000   1.0000   1.0000   1.0000
     1.0000   1.0000   1.0000   1.0000   1.0000   1.0000   1.0000   1.0000
     1.0000   1.0000   1.0000   1.0000   1.0000   1.0000   1.0000   1.0000
     1.0000   1.0000   1.0000   1.0000   1.0000   1.0000   1.0000   1.0000
     1.0000   1.0000   1.0000   1.0000   1.0000   1.0000   1.0000   1.0000
     1.0000   1.0000   1.0000   1.0000   1.0000   1.0000   1.0000   1.0000
     1.0000   1.0000   1.0000   1.0000   1.0000   1.0000   1.0000   1.0000
     1.0000   1.0000   1.0000   1.0000   1.0000   1.0000   1.0000   1.0000
     1.0000   1.0000   1.0000   1.0000   1.0000   1.0000   1.0000   1.0000
     1.0000   1.0000   1.0000   1.0000   1.0000   1.0000   1.0000   1.0000
     1.0000   1.0000   1.0000   1.0000   1.0000   1.0000   1.0000   1.0000
     1.0000   1.0000   1.0000   1.0000   1.0000   1.0000   1.0000   1.0000
     1.0000   1.0000   1.0000   1.0000   1.0000   1.0000   1.0000   1.0000
     1.0000   1.0000   1.0000   1.0000   1.0000   1.0000   1.0000   1.0000
     1.0000   1.0000   1.0000   1.0000   1.0000   1.0000   1.0000   1.0000
     1.0000   1.0000   1.0000   1.0000   1.0000   1.0000   1.0000   1.0000
     1.0000   1.0000   1.0000   1.0000   1.0000   1.0000   1.0000   1.0000
     1.0000   1.0000   1.0000   1.0000   1.0000   1.0000   1.0000   1.0000
     1.0000   1.0000   1.0000   1.0000   1.0000   1.0000   1.0000   1.0000
     1.0000   1.0000   1.0000   1.0000   1.0000   1.0000   1.0000   1.0000
     1.0000   1.0000   1.0000   1.0000   1.0000   1.0000   1.0000   1.0000
     1.0000   1.0000   1.0000   1.0000   1.0000   1.0000   1.0000   1.0000
     1.0000   1.0000   1.0000   1.0000   1.0000   1.0000   1.0000   1.0000
     1.0000   1.0000   1.0000   1.0000   1.0000   1.0000   1.0000   1.0000
     1.0000   1.0000   1.0000   1.0000   1.0000   1.0000   1.0000   1.0000
     1.0000   1.0000   1.0000   1.0000   1.0000   1.0000   1.0000   1.0000
     1.0000   1.0000   1.0000   1.0000   1.0000   1.0000   1.0000   1.0000
     1.0000   1.0000   1.0000   1.0000   1.0000   1.0000   1.0000   1.0000
     1.0000   1.0000   1.0000   1.0000   1.0000   1.0000   1.0000   1.0000
     1.0000   1.0000   1.0000   1.0000   1.0000   1.0000   1.0000   1.0000
     1.0000   1.0000   1.0000   1.0000   1.0000   1.0000   1.0000   1.0000
     1.0000   1.0000   1.0000   1.0000   1.0000   1.0000   1.0000   1.0000
     1.0000   1.0000   1.0000   1.0000   1.0000   1.0000   1.0000   1.0000
     1.0000   1.0000   1.0000   1.0000   1.0000   1.0000   1.0000   1.0000
     1.0000   1.0000   1.0000   1.0000   1.0000   1.0000   1.0000   1.0000
     1.0000   1.0000   1.0000   1.0000   1.0000   1.0000   1.0000   1.0000
     1.0000   1.0000   1.0000   1.0000   1.0000   1.0000   1.0000   1.0000
     1.0000   1.0000   1.0000   1.0000   1.0000   1.0000   1.0000   1.0000
     1.0000   1.0000   1.0000   1.0000   1.0000   1.0000   1.0000   1.0000
     1.0000   1.0000   1.0000   1.0000   1.0000   1.0000   1.0000   1.0000
     1.0000   1.0000   1.0000   1.0000   1.0000   1.0000   1.0000   1.0000
     1.0000   1.0000   1.0000   1.0000   1.0000   1.0000   1.0000   1.0000
     1.0000   1.0000   1.0000   1.0000   1.0000   1.0000   1.0000   1.0000
     1.0000   1.0000   1.0000   1.0000   1.0000   1.0000   1.0000   1.0000
     1.0000   1.0000   1.0000   1.0000   1.0000   1.0000   1.0000   1.0000
     1.0000   1.0000   1.0000   1.0000   1.0000   1.0000   1.0000   1.0000
     1.0000   1.0000   1.0000   1.0000   1.0000   1.0000   1.0000   1.0000
     1.0000   1.0000   1.0000   1.0000   1.0000   1.0000   1.0000   1.0000
     1.0000   1.0000   1.0000   1.0000   1.0000   1.0000   1.0000   1.0000
     1.0000   1.0000   1.0000   1.0000   1.0000   1.0000   1.0000   1.0000
     1.0000   1.0000   1.0000   1.0000   1.0000   1.0000   1.0000   1.0000
     1.0000   1.0000   1.0000   1.0000   1.0000   1.0000   1.0000   1.0000
     1.0000   1.0000   1.0000   1.0000   1.0000   1.0000   1.0000   1.0000
     1.0000   1.0000   1.0000   1.0000   1.0000   1.0000   1.0001   1.0002
     1.0009   1.0036   1.0268   1.0684   1.0828   1.0291   0.8523   0.6230
     0.1953   0.1120   0.0475   0.0063   0.0035   0.0006   0.0000   0.0000
     0.0000   0.0000   0.0000   0.0000   0.0000   0.0000   0.0000   0.0000
     0.0000   0.0000   0.0000   0.0000   0.0000   0.0000   0.0000   0.0000
     0.0000   0.0000   0.0000   0.0000   0.0000   0.0000   0.0000   0.0000
     0.0000   0.0000   0.0000   0.0000   0.0000   0.0000   0.0000   0.0000
     0.0000   0.0000   0.0000   0.0000   0.0000   0.0000   0.0000   0.0000
     0.0000   0.0000   0.0000   0.0000   0.0000   0.0000   0.0000   0.0000
     0.0000   0.0000   0.0000   0.0000   0.0000   0.0000   0.0000   0.0000
     0.0000   0.0000   0.0000   0.0000   0.0000   0.0000   0.0000   0.0000
     0.0000   0.0000   0.0000   0.0000   0.0000   0.0000   0.0000   0.0000
     0.0000   0.0000   0.0000   0.0000   0.0000   0.0000   0.0000   0.0000
     0.0000   0.0000   0.0000   0.0000   0.0000   0.0000   0.0000   0.0000
     0.0000   0.0000   0.0000   0.0000   0.0000   0.0000   0.0000   0.0000
     0.0000   0.0000   0.0000   0.0000   0.0000   0.0000   0.0000   0.0000
     0.0000   0.0000   0.0000   0.0000   0.0000   0.0000   0.0000   0.0000
     0.0000   0.0000   0.0000   0.0000   0.0000   0.0000   0.0000   0.0000
     0.0000   0.0000

          k = 0.0000 0.3849 0.0000 ( 42150 PWs)   bands (ev):

  -129.8542-128.2280-128.1530-128.1517-128.0944-128.0192-127.9882-127.9840
  -127.9608-127.9003-127.8754-127.8224-127.7789-127.7708-127.6612-127.6112
  -127.5856-124.9167-124.7091-124.6340-124.6193-124.5761-124.4993-124.4640
  -124.4587-124.4422-124.3618-124.3390-124.3130-124.3024-124.2601-124.2561
  -124.1368-124.0926-124.0722-123.1405-123.0496-122.9648-122.9436-122.9221
  -122.9211-122.8903-122.8685-122.8636-122.8625-122.8530-122.8506-122.8282
  -122.8214-122.8044-122.7949-122.7372-122.7315-122.7228-122.7160-122.7031
  -122.6911-122.6763-122.6740-122.6579-122.6338-122.6259-122.5471-122.5042
   -87.7910 -85.6989 -85.6225 -85.6145 -85.5636 -85.4904 -85.4605 -85.4492
   -85.4286 -85.3702 -85.3395 -85.2927 -85.2608 -85.2403 -85.1356 -85.0914
   -85.0719 -81.9752 -81.7566 -80.8056 -80.7885 -80.7366 -80.7103 -80.7099
   -80.7047 -80.6674 -80.6406 -80.5758 -80.5673 -80.5420 -80.5391 -80.5381
   -80.5372 -80.5332 -80.5078 -80.5020 -80.4462 -80.4369 -80.4226 -80.3767
   -80.3685 -80.3507 -80.3334 -80.3291 -80.3206 -80.2179 -80.1979 -80.1721
   -80.1546 -80.1541 -80.1261 -79.6479 -79.4473 -79.1740 -79.1617 -79.0921
   -79.0873 -79.0827 -79.0664 -79.0453 -79.0250 -78.9585 -78.9520 -78.9226
   -78.9218 -78.9167 -78.9119 -78.9012 -78.8794 -78.8286 -78.8087 -78.7678
   -78.7610 -78.7608 -78.7535 -78.7182 -78.7045 -78.7028 -78.7015 -78.6845
   -78.5990 -78.5797 -78.5431 -78.5289 -78.5268 -78.5047 -78.2772 -78.2739
   -77.2372 -77.2287 -77.2219 -77.1472 -77.1389 -77.1294 -77.0710 -77.0650
   -77.0563 -77.0464 -77.0439 -77.0295 -77.0259 -77.0206 -77.0183 -77.0102
   -77.0068 -77.0039 -77.0000 -76.9948 -76.9910 -76.9778 -76.9770 -76.9697
   -76.9655 -76.9635 -76.9628 -76.9566 -76.9552 -76.9534 -76.9513 -76.9495
   -76.9485 -76.9460 -76.9436 -76.9412 -76.9403 -76.9360 -76.9349 -76.9337
   -76.9320 -76.9306 -76.9231 -76.9071 -76.9028 -76.9000 -76.8952 -76.8945
   -76.8889 -76.8873 -76.8859 -76.8719 -76.8617 -76.8421 -76.8398 -76.8331
   -76.8298 -76.8248 -76.8223 -76.8192 -76.8180 -76.8169 -76.8166 -76.8148
   -76.8097 -76.8080 -76.8061 -76.8051 -76.8043 -76.7974 -76.7946 -76.7890
   -76.7874 -76.7833 -76.7815 -76.7775 -76.7720 -76.7633 -76.7616 -76.7593
   -76.7564 -76.7556 -76.7516 -76.7401 -76.7385 -76.7241 -76.7227 -76.7208
   -76.7169 -76.7130 -76.7120 -76.7105 -76.6650 -76.6494 -76.6372 -76.6337
   -76.6315 -76.6278 -76.6016 -76.5991 -76.5880 -76.5000 -76.4669 -76.4467
   -15.5896 -14.1481 -13.5330 -13.2790 -13.1940 -12.3723 -11.9649 -11.8619
   -11.8118 -11.7875 -11.7760 -11.6944 -11.6754 -11.6417 -11.6045 -11.5963
   -11.5787 -11.5669 -11.5387 -11.5235 -11.4942 -11.4735 -11.4655 -11.3978
   -11.3869 -11.3814 -11.3493 -11.3203 -11.3166 -11.3102 -11.2977 -11.2843
   -11.2687 -11.2480 -11.2228 -11.1905 -11.1618 -11.1501 -11.1077 -11.1041
   -11.0950 -11.0828 -11.0727 -11.0449 -10.9960 -10.9761 -10.9108 -10.8663
   -10.8619 -10.8227 -10.8142 -10.8115 -10.8001 -10.7170 -10.6294 -10.6124
    -9.1127  -9.0269  -8.3874  -8.3236  -8.2016  -8.1548  -8.0997  -8.0465
    -8.0167  -7.9159  -7.9038  -7.8918  -7.8594  -7.7803  -7.7688  -7.6957
    -7.6586  -7.6230  -7.6131  -7.5565  -7.4867  -7.4570  -7.4130  -7.3670
    -7.3216  -7.3064  -7.2519  -7.2367  -7.2168  -7.1751  -7.1584  -7.1324
    -7.1065  -7.0120  -6.9700  -6.9629  -6.9197  -6.7379  -6.4515  -6.2973
    -6.2720  -5.9944  -5.8464  -5.6717  -5.6143  -5.5438  -5.4387  -5.3647
    -5.3580  -5.3297  -5.3130  -5.2749  -5.2668  -5.2440  -5.2265  -5.2126
    -5.2015  -5.1842  -5.1498  -5.1482  -5.1276  -5.1037  -5.0951  -5.0767
    -5.0566  -5.0287  -5.0198  -4.9860  -4.9632  -4.8972  -4.8802  -4.8716
    -4.8569  -4.8457  -4.8301  -4.8144  -4.8016  -4.7925  -4.7761  -4.7623
    -4.7149  -4.6781  -4.6564  -4.6429  -4.6276  -4.6084  -4.5930  -4.4973
    -4.4784  -4.4271  -4.3851  -4.3660  -4.3500  -4.3186  -4.3024  -4.2803
    -4.2611  -4.2415  -4.2257  -4.2116  -4.1973  -4.1747  -4.1573  -4.1480
    -4.1271  -4.1206  -4.1105  -4.0920  -4.0882  -4.0743  -4.0654  -4.0527
    -4.0240  -4.0178  -4.0084  -3.9981  -3.9932  -3.9907  -3.9852  -3.9711
    -3.9630  -3.9555  -3.9489  -3.9392  -3.9315  -3.9166  -3.9065  -3.9025
    -3.8884  -3.8807  -3.8682  -3.8609  -3.8571  -3.8481  -3.8362  -3.8323
    -3.8239  -3.8210  -3.8075  -3.8002  -3.7941  -3.7852  -3.7778  -3.7764
    -3.7665  -3.7583  -3.7554  -3.7404  -3.7381  -3.7296  -3.7173  -3.7128
    -3.7065  -3.7033  -3.6940  -3.6905  -3.6854  -3.6757  -3.6687  -3.6589
    -3.6545  -3.6474  -3.6428  -3.6345  -3.6311  -3.6291  -3.6227  -3.6137
    -3.6100  -3.6018  -3.5984  -3.5892  -3.5857  -3.5757  -3.5712  -3.5643
    -3.5567  -3.5543  -3.5487  -3.5413  -3.5295  -3.5250  -3.5147  -3.5119
    -3.5111  -3.5053  -3.4934  -3.4885  -3.4856  -3.4777  -3.4742  -3.4643
    -3.4594  -3.4515  -3.4461  -3.4393  -3.4336  -3.4289  -3.4214  -3.4168
    -3.4134  -3.4083  -3.4020  -3.3966  -3.3896  -3.3846  -3.3800  -3.3749
    -3.3670  -3.3600  -3.3580  -3.3533  -3.3478  -3.3461  -3.3380  -3.3336
    -3.3273  -3.3242  -3.3179  -3.3145  -3.3116  -3.3063  -3.3004  -3.2938
    -3.2883  -3.2862  -3.2804  -3.2717  -3.2648  -3.2612  -3.2588  -3.2528
    -3.2482  -3.2431  -3.2329  -3.2291  -3.2232  -3.2149  -3.2079  -3.1991
    -3.1957  -3.1896  -3.1860  -3.1697  -3.1642  -3.1486  -3.1314  -3.1277
    -3.1142  -3.1102  -3.0979  -3.0813  -3.0743  -3.0616  -3.0516  -3.0325
    -3.0205  -3.0087  -3.0024  -2.9867  -2.9788  -2.9606  -2.9526  -2.9438
    -2.9186  -2.8769  -2.8667  -2.8492  -2.8377  -2.8245  -2.7948  -2.7844
    -2.7705  -2.7341  -2.7042  -2.6840  -2.6484  -2.5972  -2.5555  -2.5255
    -2.5205  -2.4917  -2.4673  -2.4489  -2.4128  -2.3705  -2.3464  -2.3251
    -2.2896  -2.2239  -2.1864  -2.1660  -2.1238  -2.0305  -2.0010  -1.8052
    -1.7355  -1.6606  -1.3800  -1.3195  -1.1861  -1.0800  -0.8907  -0.8811
    -0.8210  -0.6872  -0.6601  -0.5539  -0.5122  -0.4289  -0.3270  -0.1162
     0.0122   0.0253   0.2386   0.3334   0.3621   0.4110   0.4575   0.5671
     0.6627   0.8387   0.8755   1.0305   1.1629   1.3035   1.3453   1.4378
     1.5122   1.6595   1.7406   1.8413   2.0279   2.0752   2.0984   2.2138
     2.4399   2.5224   2.6249   2.6807   2.7279   2.8109   2.9231   3.0668
     3.1653   3.3772   3.4210   3.5444   3.7134   3.8412   3.8953   3.9634
     4.0354   4.0993   4.1632   4.1913   4.3533   4.4020   4.4993   4.5605
     4.6379   4.6992   4.9363   4.9655   5.1728   5.2306   5.3433   5.4298
     5.5159   5.5671   5.6398   5.7084   5.7261   5.8584   5.9186   6.0542
     6.1427   6.2838   6.3397   6.4113   6.4596   6.4867   6.5262   6.6154
     6.6806   6.7768   6.8388   6.9162   6.9630   7.0580   7.1238   7.1535
     7.2224   7.3027   7.3170   7.3728   7.4077   7.4552   7.5201   7.5932
     7.6581   7.7524   7.8433   7.9130   7.9646   8.0031   8.0610   8.1143
     8.1686   8.2327   8.2638   8.3667   8.4576   8.4824   8.5680   8.5992
     8.6498   8.7171   8.7544   8.7879   8.8144   8.8513   8.9193   8.9677
     9.0174   9.0599   9.1042   9.1634   9.1947   9.2456   9.2700   9.3205
     9.3590   9.3718   9.4290   9.5148   9.5687   9.6161   9.6391   9.6787
     9.7635   9.7884   9.8170   9.8450   9.8929   9.9119   9.9579  10.0082
    10.0753  10.1200  10.1721  10.1980  10.2285  10.2624  10.2914  10.3320
    10.3661  10.3938  10.4431  10.4752  10.5242  10.6038  10.6399  10.6747
    10.7292  10.7715  10.8704  10.9019  10.9473  10.9896  11.0602  11.1459
    11.1688  11.2299  11.2631  11.3166  11.3369  11.3853  11.4394  11.4658
    11.5002  11.5420

     occupation numbers 
     1.0000   1.0000   1.0000   1.0000   1.0000   1.0000   1.0000   1.0000
     1.0000   1.0000   1.0000   1.0000   1.0000   1.0000   1.0000   1.0000
     1.0000   1.0000   1.0000   1.0000   1.0000   1.0000   1.0000   1.0000
     1.0000   1.0000   1.0000   1.0000   1.0000   1.0000   1.0000   1.0000
     1.0000   1.0000   1.0000   1.0000   1.0000   1.0000   1.0000   1.0000
     1.0000   1.0000   1.0000   1.0000   1.0000   1.0000   1.0000   1.0000
     1.0000   1.0000   1.0000   1.0000   1.0000   1.0000   1.0000   1.0000
     1.0000   1.0000   1.0000   1.0000   1.0000   1.0000   1.0000   1.0000
     1.0000   1.0000   1.0000   1.0000   1.0000   1.0000   1.0000   1.0000
     1.0000   1.0000   1.0000   1.0000   1.0000   1.0000   1.0000   1.0000
     1.0000   1.0000   1.0000   1.0000   1.0000   1.0000   1.0000   1.0000
     1.0000   1.0000   1.0000   1.0000   1.0000   1.0000   1.0000   1.0000
     1.0000   1.0000   1.0000   1.0000   1.0000   1.0000   1.0000   1.0000
     1.0000   1.0000   1.0000   1.0000   1.0000   1.0000   1.0000   1.0000
     1.0000   1.0000   1.0000   1.0000   1.0000   1.0000   1.0000   1.0000
     1.0000   1.0000   1.0000   1.0000   1.0000   1.0000   1.0000   1.0000
     1.0000   1.0000   1.0000   1.0000   1.0000   1.0000   1.0000   1.0000
     1.0000   1.0000   1.0000   1.0000   1.0000   1.0000   1.0000   1.0000
     1.0000   1.0000   1.0000   1.0000   1.0000   1.0000   1.0000   1.0000
     1.0000   1.0000   1.0000   1.0000   1.0000   1.0000   1.0000   1.0000
     1.0000   1.0000   1.0000   1.0000   1.0000   1.0000   1.0000   1.0000
     1.0000   1.0000   1.0000   1.0000   1.0000   1.0000   1.0000   1.0000
     1.0000   1.0000   1.0000   1.0000   1.0000   1.0000   1.0000   1.0000
     1.0000   1.0000   1.0000   1.0000   1.0000   1.0000   1.0000   1.0000
     1.0000   1.0000   1.0000   1.0000   1.0000   1.0000   1.0000   1.0000
     1.0000   1.0000   1.0000   1.0000   1.0000   1.0000   1.0000   1.0000
     1.0000   1.0000   1.0000   1.0000   1.0000   1.0000   1.0000   1.0000
     1.0000   1.0000   1.0000   1.0000   1.0000   1.0000   1.0000   1.0000
     1.0000   1.0000   1.0000   1.0000   1.0000   1.0000   1.0000   1.0000
     1.0000   1.0000   1.0000   1.0000   1.0000   1.0000   1.0000   1.0000
     1.0000   1.0000   1.0000   1.0000   1.0000   1.0000   1.0000   1.0000
     1.0000   1.0000   1.0000   1.0000   1.0000   1.0000   1.0000   1.0000
     1.0000   1.0000   1.0000   1.0000   1.0000   1.0000   1.0000   1.0000
     1.0000   1.0000   1.0000   1.0000   1.0000   1.0000   1.0000   1.0000
     1.0000   1.0000   1.0000   1.0000   1.0000   1.0000   1.0000   1.0000
     1.0000   1.0000   1.0000   1.0000   1.0000   1.0000   1.0000   1.0000
     1.0000   1.0000   1.0000   1.0000   1.0000   1.0000   1.0000   1.0000
     1.0000   1.0000   1.0000   1.0000   1.0000   1.0000   1.0000   1.0000
     1.0000   1.0000   1.0000   1.0000   1.0000   1.0000   1.0000   1.0000
     1.0000   1.0000   1.0000   1.0000   1.0000   1.0000   1.0000   1.0000
     1.0000   1.0000   1.0000   1.0000   1.0000   1.0000   1.0000   1.0000
     1.0000   1.0000   1.0000   1.0000   1.0000   1.0000   1.0000   1.0000
     1.0000   1.0000   1.0000   1.0000   1.0000   1.0000   1.0000   1.0000
     1.0000   1.0000   1.0000   1.0000   1.0000   1.0000   1.0000   1.0000
     1.0000   1.0000   1.0000   1.0000   1.0000   1.0000   1.0000   1.0000
     1.0000   1.0000   1.0000   1.0000   1.0000   1.0000   1.0000   1.0000
     1.0000   1.0000   1.0000   1.0000   1.0000   1.0000   1.0000   1.0000
     1.0000   1.0000   1.0000   1.0000   1.0000   1.0000   1.0000   1.0000
     1.0000   1.0000   1.0000   1.0000   1.0000   1.0000   1.0000   1.0000
     1.0000   1.0000   1.0000   1.0000   1.0000   1.0000   1.0000   1.0000
     1.0000   1.0000   1.0000   1.0000   1.0000   1.0000   1.0000   1.0000
     1.0000   1.0000   1.0000   1.0000   1.0000   1.0000   1.0000   1.0000
     1.0000   1.0000   1.0000   1.0000   1.0000   1.0000   1.0000   1.0000
     1.0000   1.0000   1.0000   1.0000   1.0000   1.0000   1.0000   1.0000
     1.0000   1.0000   1.0000   1.0000   1.0000   1.0000   1.0000   1.0000
     1.0000   1.0000   1.0000   1.0000   1.0000   1.0000   1.0000   1.0000
     1.0000   1.0000   1.0000   1.0000   1.0000   1.0000   1.0000   1.0000
     1.0000   1.0000   1.0000   1.0000   1.0000   1.0000   1.0000   1.0000
     1.0000   1.0000   1.0000   1.0000   1.0000   1.0000   1.0000   1.0000
     1.0000   1.0000   1.0000   1.0000   1.0000   1.0000   1.0000   1.0000
     1.0000   1.0000   1.0000   1.0000   1.0000   1.0000   1.0000   1.0000
     1.0000   1.0000   1.0000   1.0000   1.0000   1.0000   1.0000   1.0000
     1.0000   1.0000   1.0000   1.0000   1.0000   1.0000   1.0000   1.0000
     1.0000   1.0000   1.0000   1.0000   1.0000   1.0000   1.0000   1.0000
     1.0000   1.0000   1.0000   1.0000   1.0000   1.0000   1.0000   1.0000
     1.0000   1.0000   1.0000   1.0000   1.0000   1.0000   1.0000   1.0000
     1.0000   1.0000   1.0000   1.0000   1.0000   1.0000   1.0000   1.0000
     1.0000   1.0000   1.0000   1.0000   1.0000   1.0000   1.0000   1.0000
     1.0000   1.0000   1.0000   1.0000   1.0000   1.0000   1.0000   1.0000
     1.0000   1.0000   1.0000   1.0000   1.0000   1.0000   1.0000   1.0000
     1.0000   1.0000   1.0000   1.0000   1.0000   1.0000   1.0000   1.0000
     1.0000   1.0000   1.0000   1.0000   1.0000   1.0000   1.0000   1.0000
     1.0000   1.0000   1.0000   1.0000   1.0000   1.0000   1.0000   1.0000
     1.0000   1.0000   1.0000   1.0000   1.0000   1.0000   1.0000   1.0000
     1.0000   1.0000   1.0000   1.0000   1.0000   1.0000   1.0000   1.0000
     1.0000   1.0000   1.0000   1.0000   1.0000   1.0000   1.0000   1.0000
     1.0000   1.0000   1.0000   1.0000   1.0000   1.0000   1.0000   1.0000
     1.0000   1.0000   1.0000   1.0000   1.0000   1.0000   1.0000   1.0000
     1.0000   1.0000   1.0000   1.0000   1.0000   1.0000   1.0000   1.0000
     1.0000   1.0000   1.0000   1.0000   1.0000   1.0000   1.0000   1.0000
     1.0000   1.0000   1.0000   1.0000   1.0000   1.0000   1.0000   1.0000
     1.0000   1.0000   1.0000   1.0000   1.0000   1.0002   1.0015   1.0113
     1.0319   1.0816   1.0661   0.9057   0.4699   0.1881   0.1134   0.0540
     0.0217   0.0086   0.0031   0.0019   0.0001   0.0000   0.0000   0.0000
     0.0000   0.0000   0.0000   0.0000   0.0000   0.0000   0.0000   0.0000
     0.0000   0.0000   0.0000   0.0000   0.0000   0.0000   0.0000   0.0000
     0.0000   0.0000   0.0000   0.0000   0.0000   0.0000   0.0000   0.0000
     0.0000   0.0000   0.0000   0.0000   0.0000   0.0000   0.0000   0.0000
     0.0000   0.0000   0.0000   0.0000   0.0000   0.0000   0.0000   0.0000
     0.0000   0.0000   0.0000   0.0000   0.0000   0.0000   0.0000   0.0000
     0.0000   0.0000   0.0000   0.0000   0.0000   0.0000   0.0000   0.0000
     0.0000   0.0000   0.0000   0.0000   0.0000   0.0000   0.0000   0.0000
     0.0000   0.0000   0.0000   0.0000   0.0000   0.0000   0.0000   0.0000
     0.0000   0.0000   0.0000   0.0000   0.0000   0.0000   0.0000   0.0000
     0.0000   0.0000   0.0000   0.0000   0.0000   0.0000   0.0000   0.0000
     0.0000   0.0000   0.0000   0.0000   0.0000   0.0000   0.0000   0.0000
     0.0000   0.0000   0.0000   0.0000   0.0000   0.0000   0.0000   0.0000
     0.0000   0.0000   0.0000   0.0000   0.0000   0.0000   0.0000   0.0000
     0.0000   0.0000   0.0000   0.0000   0.0000   0.0000   0.0000   0.0000
     0.0000   0.0000

          k = 0.3333 0.1925 0.0000 ( 42150 PWs)   bands (ev):

  -129.8542-128.2281-128.1531-128.1517-128.0945-128.0193-127.9883-127.9840
  -127.9609-127.9003-127.8755-127.8225-127.7790-127.7709-127.6613-127.6113
  -127.5857-124.9166-124.7092-124.6340-124.6193-124.5761-124.4993-124.4640
  -124.4587-124.4423-124.3618-124.3391-124.3130-124.3024-124.2601-124.2561
  -124.1368-124.0926-124.0723-123.1405-123.0496-122.9648-122.9436-122.9220
  -122.9212-122.8903-122.8685-122.8636-122.8625-122.8530-122.8506-122.8282
  -122.8214-122.8044-122.7949-122.7372-122.7315-122.7228-122.7160-122.7031
  -122.6911-122.6763-122.6740-122.6579-122.6338-122.6259-122.5471-122.5042
   -87.7908 -85.6987 -85.6224 -85.6143 -85.5637 -85.4905 -85.4606 -85.4491
   -85.4285 -85.3700 -85.3394 -85.2928 -85.2607 -85.2404 -85.1357 -85.0915
   -85.0721 -81.9754 -81.7568 -80.8052 -80.7896 -80.7376 -80.7107 -80.7095
   -80.7043 -80.6673 -80.6411 -80.5759 -80.5677 -80.5420 -80.5397 -80.5384
   -80.5368 -80.5343 -80.5074 -80.5034 -80.4458 -80.4365 -80.4226 -80.3767
   -80.3689 -80.3504 -80.3338 -80.3300 -80.3205 -80.2179 -80.1983 -80.1720
   -80.1550 -80.1542 -80.1266 -79.6477 -79.4473 -79.1744 -79.1612 -79.0921
   -79.0876 -79.0823 -79.0668 -79.0454 -79.0248 -78.9585 -78.9519 -78.9226
   -78.9218 -78.9168 -78.9117 -78.9011 -78.8797 -78.8280 -78.8091 -78.7681
   -78.7612 -78.7607 -78.7533 -78.7180 -78.7044 -78.7032 -78.7012 -78.6844
   -78.5990 -78.5796 -78.5431 -78.5288 -78.5268 -78.5045 -78.2772 -78.2740
   -77.2370 -77.2287 -77.2220 -77.1472 -77.1389 -77.1294 -77.0704 -77.0647
   -77.0563 -77.0465 -77.0438 -77.0294 -77.0261 -77.0204 -77.0183 -77.0101
   -77.0069 -77.0040 -77.0000 -76.9944 -76.9909 -76.9772 -76.9768 -76.9701
   -76.9656 -76.9631 -76.9627 -76.9568 -76.9548 -76.9535 -76.9514 -76.9497
   -76.9486 -76.9454 -76.9438 -76.9413 -76.9401 -76.9362 -76.9352 -76.9336
   -76.9319 -76.9304 -76.9229 -76.9071 -76.9028 -76.9002 -76.8951 -76.8947
   -76.8891 -76.8874 -76.8859 -76.8719 -76.8614 -76.8420 -76.8403 -76.8329
   -76.8293 -76.8248 -76.8221 -76.8192 -76.8181 -76.8168 -76.8164 -76.8150
   -76.8097 -76.8078 -76.8062 -76.8050 -76.8040 -76.7973 -76.7945 -76.7888
   -76.7876 -76.7836 -76.7815 -76.7777 -76.7720 -76.7634 -76.7617 -76.7591
   -76.7565 -76.7557 -76.7520 -76.7401 -76.7385 -76.7243 -76.7225 -76.7201
   -76.7166 -76.7128 -76.7121 -76.7104 -76.6649 -76.6493 -76.6373 -76.6337
   -76.6310 -76.6277 -76.6016 -76.5991 -76.5880 -76.4999 -76.4668 -76.4465
   -15.5895 -14.1481 -13.5328 -13.2790 -13.1939 -12.3724 -11.9658 -11.8618
   -11.8127 -11.7876 -11.7766 -11.6898 -11.6726 -11.6402 -11.6155 -11.5959
   -11.5737 -11.5625 -11.5348 -11.5266 -11.5009 -11.4749 -11.4669 -11.3923
   -11.3809 -11.3777 -11.3557 -11.3185 -11.3171 -11.3123 -11.2993 -11.2871
   -11.2687 -11.2459 -11.2212 -11.2012 -11.1621 -11.1515 -11.1071 -11.1027
   -11.0877 -11.0816 -11.0730 -11.0441 -10.9981 -10.9734 -10.9106 -10.8663
   -10.8625 -10.8233 -10.8141 -10.8116 -10.8000 -10.7170 -10.6294 -10.6124
    -9.1129  -9.0272  -8.3880  -8.3273  -8.2016  -8.1601  -8.1029  -8.0374
    -8.0164  -7.9079  -7.9036  -7.8798  -7.8508  -7.8173  -7.7519  -7.6820
    -7.6618  -7.6264  -7.6133  -7.5571  -7.4887  -7.4572  -7.4030  -7.3835
    -7.3287  -7.3137  -7.2745  -7.2376  -7.2245  -7.1639  -7.1591  -7.1076
    -7.0783  -7.0136  -6.9768  -6.9601  -6.9275  -6.7109  -6.5022  -6.3539
    -6.2797  -6.0791  -5.7815  -5.6722  -5.6305  -5.5408  -5.4381  -5.3804
    -5.3464  -5.3302  -5.3169  -5.2764  -5.2647  -5.2488  -5.2220  -5.2038
    -5.1965  -5.1844  -5.1460  -5.1444  -5.1219  -5.1075  -5.0767  -5.0583
    -5.0478  -5.0297  -4.9746  -4.9650  -4.9238  -4.9043  -4.8775  -4.8609
    -4.8502  -4.8300  -4.8282  -4.7991  -4.7914  -4.7864  -4.7684  -4.7574
    -4.7167  -4.6616  -4.6437  -4.6332  -4.6149  -4.6116  -4.5659  -4.5020
    -4.4599  -4.4243  -4.4007  -4.3647  -4.3422  -4.3245  -4.3068  -4.2671
    -4.2530  -4.2357  -4.2294  -4.2067  -4.1907  -4.1788  -4.1561  -4.1455
    -4.1417  -4.1279  -4.1146  -4.1017  -4.0783  -4.0703  -4.0625  -4.0498
    -4.0312  -4.0191  -4.0162  -4.0071  -3.9980  -3.9855  -3.9766  -3.9740
    -3.9683  -3.9546  -3.9465  -3.9413  -3.9306  -3.9247  -3.9063  -3.8988
    -3.8846  -3.8805  -3.8700  -3.8663  -3.8553  -3.8493  -3.8455  -3.8371
    -3.8272  -3.8233  -3.8071  -3.8038  -3.7991  -3.7910  -3.7854  -3.7797
    -3.7746  -3.7594  -3.7527  -3.7495  -3.7417  -3.7327  -3.7183  -3.7148
    -3.7076  -3.7031  -3.6908  -3.6852  -3.6792  -3.6749  -3.6663  -3.6588
    -3.6525  -3.6463  -3.6430  -3.6381  -3.6305  -3.6226  -3.6191  -3.6138
    -3.6065  -3.5992  -3.5934  -3.5841  -3.5742  -3.5718  -3.5686  -3.5642
    -3.5523  -3.5487  -3.5417  -3.5376  -3.5336  -3.5260  -3.5214  -3.5161
    -3.5083  -3.5016  -3.4953  -3.4845  -3.4806  -3.4741  -3.4693  -3.4632
    -3.4572  -3.4513  -3.4471  -3.4426  -3.4359  -3.4318  -3.4261  -3.4201
    -3.4168  -3.4102  -3.4063  -3.3996  -3.3905  -3.3899  -3.3810  -3.3759
    -3.3721  -3.3681  -3.3613  -3.3557  -3.3495  -3.3466  -3.3403  -3.3390
    -3.3327  -3.3279  -3.3245  -3.3182  -3.3124  -3.3098  -3.3000  -3.2979
    -3.2958  -3.2872  -3.2834  -3.2814  -3.2761  -3.2652  -3.2598  -3.2501
    -3.2447  -3.2412  -3.2335  -3.2296  -3.2277  -3.2166  -3.2094  -3.2010
    -3.1951  -3.1864  -3.1842  -3.1722  -3.1651  -3.1362  -3.1291  -3.1205
    -3.1167  -3.1077  -3.0983  -3.0877  -3.0752  -3.0678  -3.0474  -3.0296
    -3.0145  -3.0032  -2.9890  -2.9801  -2.9653  -2.9577  -2.9525  -2.9383
    -2.8986  -2.8788  -2.8624  -2.8458  -2.8358  -2.8230  -2.8084  -2.7989
    -2.7746  -2.7164  -2.7023  -2.6713  -2.6484  -2.6182  -2.5609  -2.5400
    -2.5202  -2.5060  -2.4862  -2.4551  -2.4198  -2.3774  -2.3385  -2.3209
    -2.2953  -2.2107  -2.1925  -2.1766  -2.1361  -2.0293  -2.0061  -1.9176
    -1.8422  -1.7689  -1.7157  -1.5419  -1.1819  -1.0794  -0.8834  -0.8377
    -0.7643  -0.6717  -0.6423  -0.4649  -0.3273  -0.2753  -0.1876  -0.0698
     0.0126   0.1118   0.1145   0.3337   0.3958   0.5481   0.5802   0.7254
     0.7797   0.8855   0.9482   1.0719   1.1432   1.3261   1.3441   1.3607
     1.5583   1.6967   1.7585   1.7900   1.8750   1.9321   2.1236   2.2378
     2.3793   2.4947   2.6422   2.7150   2.7747   2.8620   2.9082   3.1253
     3.1886   3.2406   3.3832   3.4646   3.5710   3.7097   3.8174   3.9148
     4.0347   4.0949   4.1405   4.1918   4.3281   4.4118   4.5113   4.5512
     4.6644   4.7668   4.8704   4.9438   5.0169   5.0992   5.1699   5.2801
     5.3869   5.6059   5.6643   5.6776   5.7811   5.8366   5.8789   6.0067
     6.1922   6.2420   6.3158   6.4458   6.4835   6.5494   6.5937   6.6329
     6.7179   6.8349   6.9145   6.9670   7.0354   7.0674   7.1360   7.1807
     7.2829   7.3558   7.3969   7.4832   7.5032   7.5932   7.6685   7.7184
     7.8003   7.8759   7.8999   7.9401   7.9839   8.0236   8.0718   8.1200
     8.1577   8.2188   8.2889   8.3278   8.4026   8.4530   8.4956   8.5682
     8.5902   8.6222   8.6580   8.7305   8.7884   8.8426   8.9432   8.9827
     9.0137   9.0604   9.1016   9.1390   9.2004   9.2369   9.3037   9.3379
     9.3641   9.4032   9.4434   9.5125   9.5555   9.5991   9.6153   9.6614
     9.6950   9.7644   9.8117   9.8236   9.8539   9.8929   9.9440   9.9850
    10.0718  10.1308  10.1394  10.1950  10.2262  10.2597  10.3029  10.3612
    10.4244  10.4445  10.4607  10.5336  10.5667  10.5884  10.6668  10.6954
    10.7804  10.8290  10.8583  10.9019  10.9463  10.9890  11.0303  11.1127
    11.1400  11.1683  11.2496  11.3023  11.3229  11.3561  11.4187  11.4584
    11.4773  11.5437

     occupation numbers 
     1.0000   1.0000   1.0000   1.0000   1.0000   1.0000   1.0000   1.0000
     1.0000   1.0000   1.0000   1.0000   1.0000   1.0000   1.0000   1.0000
     1.0000   1.0000   1.0000   1.0000   1.0000   1.0000   1.0000   1.0000
     1.0000   1.0000   1.0000   1.0000   1.0000   1.0000   1.0000   1.0000
     1.0000   1.0000   1.0000   1.0000   1.0000   1.0000   1.0000   1.0000
     1.0000   1.0000   1.0000   1.0000   1.0000   1.0000   1.0000   1.0000
     1.0000   1.0000   1.0000   1.0000   1.0000   1.0000   1.0000   1.0000
     1.0000   1.0000   1.0000   1.0000   1.0000   1.0000   1.0000   1.0000
     1.0000   1.0000   1.0000   1.0000   1.0000   1.0000   1.0000   1.0000
     1.0000   1.0000   1.0000   1.0000   1.0000   1.0000   1.0000   1.0000
     1.0000   1.0000   1.0000   1.0000   1.0000   1.0000   1.0000   1.0000
     1.0000   1.0000   1.0000   1.0000   1.0000   1.0000   1.0000   1.0000
     1.0000   1.0000   1.0000   1.0000   1.0000   1.0000   1.0000   1.0000
     1.0000   1.0000   1.0000   1.0000   1.0000   1.0000   1.0000   1.0000
     1.0000   1.0000   1.0000   1.0000   1.0000   1.0000   1.0000   1.0000
     1.0000   1.0000   1.0000   1.0000   1.0000   1.0000   1.0000   1.0000
     1.0000   1.0000   1.0000   1.0000   1.0000   1.0000   1.0000   1.0000
     1.0000   1.0000   1.0000   1.0000   1.0000   1.0000   1.0000   1.0000
     1.0000   1.0000   1.0000   1.0000   1.0000   1.0000   1.0000   1.0000
     1.0000   1.0000   1.0000   1.0000   1.0000   1.0000   1.0000   1.0000
     1.0000   1.0000   1.0000   1.0000   1.0000   1.0000   1.0000   1.0000
     1.0000   1.0000   1.0000   1.0000   1.0000   1.0000   1.0000   1.0000
     1.0000   1.0000   1.0000   1.0000   1.0000   1.0000   1.0000   1.0000
     1.0000   1.0000   1.0000   1.0000   1.0000   1.0000   1.0000   1.0000
     1.0000   1.0000   1.0000   1.0000   1.0000   1.0000   1.0000   1.0000
     1.0000   1.0000   1.0000   1.0000   1.0000   1.0000   1.0000   1.0000
     1.0000   1.0000   1.0000   1.0000   1.0000   1.0000   1.0000   1.0000
     1.0000   1.0000   1.0000   1.0000   1.0000   1.0000   1.0000   1.0000
     1.0000   1.0000   1.0000   1.0000   1.0000   1.0000   1.0000   1.0000
     1.0000   1.0000   1.0000   1.0000   1.0000   1.0000   1.0000   1.0000
     1.0000   1.0000   1.0000   1.0000   1.0000   1.0000   1.0000   1.0000
     1.0000   1.0000   1.0000   1.0000   1.0000   1.0000   1.0000   1.0000
     1.0000   1.0000   1.0000   1.0000   1.0000   1.0000   1.0000   1.0000
     1.0000   1.0000   1.0000   1.0000   1.0000   1.0000   1.0000   1.0000
     1.0000   1.0000   1.0000   1.0000   1.0000   1.0000   1.0000   1.0000
     1.0000   1.0000   1.0000   1.0000   1.0000   1.0000   1.0000   1.0000
     1.0000   1.0000   1.0000   1.0000   1.0000   1.0000   1.0000   1.0000
     1.0000   1.0000   1.0000   1.0000   1.0000   1.0000   1.0000   1.0000
     1.0000   1.0000   1.0000   1.0000   1.0000   1.0000   1.0000   1.0000
     1.0000   1.0000   1.0000   1.0000   1.0000   1.0000   1.0000   1.0000
     1.0000   1.0000   1.0000   1.0000   1.0000   1.0000   1.0000   1.0000
     1.0000   1.0000   1.0000   1.0000   1.0000   1.0000   1.0000   1.0000
     1.0000   1.0000   1.0000   1.0000   1.0000   1.0000   1.0000   1.0000
     1.0000   1.0000   1.0000   1.0000   1.0000   1.0000   1.0000   1.0000
     1.0000   1.0000   1.0000   1.0000   1.0000   1.0000   1.0000   1.0000
     1.0000   1.0000   1.0000   1.0000   1.0000   1.0000   1.0000   1.0000
     1.0000   1.0000   1.0000   1.0000   1.0000   1.0000   1.0000   1.0000
     1.0000   1.0000   1.0000   1.0000   1.0000   1.0000   1.0000   1.0000
     1.0000   1.0000   1.0000   1.0000   1.0000   1.0000   1.0000   1.0000
     1.0000   1.0000   1.0000   1.0000   1.0000   1.0000   1.0000   1.0000
     1.0000   1.0000   1.0000   1.0000   1.0000   1.0000   1.0000   1.0000
     1.0000   1.0000   1.0000   1.0000   1.0000   1.0000   1.0000   1.0000
     1.0000   1.0000   1.0000   1.0000   1.0000   1.0000   1.0000   1.0000
     1.0000   1.0000   1.0000   1.0000   1.0000   1.0000   1.0000   1.0000
     1.0000   1.0000   1.0000   1.0000   1.0000   1.0000   1.0000   1.0000
     1.0000   1.0000   1.0000   1.0000   1.0000   1.0000   1.0000   1.0000
     1.0000   1.0000   1.0000   1.0000   1.0000   1.0000   1.0000   1.0000
     1.0000   1.0000   1.0000   1.0000   1.0000   1.0000   1.0000   1.0000
     1.0000   1.0000   1.0000   1.0000   1.0000   1.0000   1.0000   1.0000
     1.0000   1.0000   1.0000   1.0000   1.0000   1.0000   1.0000   1.0000
     1.0000   1.0000   1.0000   1.0000   1.0000   1.0000   1.0000   1.0000
     1.0000   1.0000   1.0000   1.0000   1.0000   1.0000   1.0000   1.0000
     1.0000   1.0000   1.0000   1.0000   1.0000   1.0000   1.0000   1.0000
     1.0000   1.0000   1.0000   1.0000   1.0000   1.0000   1.0000   1.0000
     1.0000   1.0000   1.0000   1.0000   1.0000   1.0000   1.0000   1.0000
     1.0000   1.0000   1.0000   1.0000   1.0000   1.0000   1.0000   1.0000
     1.0000   1.0000   1.0000   1.0000   1.0000   1.0000   1.0000   1.0000
     1.0000   1.0000   1.0000   1.0000   1.0000   1.0000   1.0000   1.0000
[...]
     atom   59 type  1   force =     0.00000000    0.00000000    0.00000000
     atom   60 type  1   force =     0.00000000    0.00000000    0.00000000
     atom   61 type  1   force =     0.00000000    0.00000000    0.00000000
     atom   62 type  1   force =     0.00000000    0.00000000    0.00000000
     atom   63 type  1   force =     0.00000000    0.00000000    0.00000000
     atom   64 type  1   force =     0.00000000    0.00000000    0.00000000
     atom   65 type  2   force =     0.00000000    0.00000000    0.00000000
     atom   66 type  2   force =     0.00000000    0.00000000    0.00000000
     atom   67 type  2   force =     0.00000000    0.00000000    0.00000000
     atom   68 type  2   force =     0.00000000    0.00000000    0.00000000
     atom   69 type  2   force =     0.00000000    0.00000000    0.00000000
     atom   70 type  2   force =     0.00000000    0.00000000    0.00000000
     atom   71 type  2   force =     0.00000000    0.00000000    0.00000000
     atom   72 type  3   force =     0.00000000    0.00000000    0.00000000
     atom   73 type  3   force =     0.00000000    0.00000000    0.00000000
     atom   74 type  4   force =     0.00000000    0.00000000    0.00000000
     atom   75 type  4   force =     0.00000000    0.00000000    0.00000000
     atom   76 type  4   force =     0.00000000    0.00000000    0.00000000
     atom   77 type  4   force =     0.00000000    0.00000000    0.00000000
     atom   78 type  4   force =     0.00000000    0.00000000    0.00000000
     atom   79 type  4   force =     0.00000000    0.00000000    0.00000000
     The SCF correction term to forces
     atom    1 type  1   force =     0.00000000    0.00000000    0.00000000
     atom    2 type  1   force =    -0.00000000   -0.00000000    0.00000000
     atom    3 type  1   force =     0.00000000    0.00000000    0.00000000
     atom    4 type  1   force =    -0.00000000   -0.00000000   -0.00000000
     atom    5 type  1   force =     0.00000000    0.00000000   -0.00000000
     atom    6 type  1   force =    -0.00000000   -0.00000000   -0.00000000
     atom    7 type  1   force =     0.00019456   -0.00002057    0.00011440
     atom    8 type  1   force =    -0.00004173   -0.00008490   -0.00009394
     atom    9 type  1   force =    -0.00000000   -0.00000000    0.00000000
     atom   10 type  1   force =    -0.00000000    0.00000000    0.00000000
     atom   11 type  1   force =     0.00000000    0.00000000    0.00000000
     atom   12 type  1   force =    -0.00000000    0.00000000   -0.00000000
     atom   13 type  1   force =     0.00000000    0.00000000   -0.00000000
     atom   14 type  1   force =    -0.00000000   -0.00000000   -0.00000000
     atom   15 type  1   force =     0.00012588    0.00015902   -0.00000898
     atom   16 type  1   force =    -0.00019020   -0.00030618    0.00008386
     atom   17 type  1   force =    -0.00000000    0.00000000    0.00000000
     atom   18 type  1   force =     0.00000000   -0.00000000    0.00000000
     atom   19 type  1   force =    -0.00000000    0.00000000    0.00000000
     atom   20 type  1   force =     0.00000000   -0.00000000    0.00000000
     atom   21 type  1   force =    -0.00000000    0.00000000   -0.00000000
     atom   22 type  1   force =     0.00000000   -0.00000000   -0.00000000
     atom   23 type  1   force =    -0.00023736   -0.00009847    0.00024028
     atom   24 type  1   force =     0.00007369    0.00012932   -0.00018232
     atom   25 type  1   force =     0.00000000   -0.00000000    0.00000000
     atom   26 type  1   force =     0.00000000    0.00000000    0.00000000
     atom   27 type  1   force =     0.00000000    0.00000000    0.00000000
     atom   28 type  1   force =     0.00000000    0.00000000    0.00000000
     atom   29 type  1   force =    -0.00000000    0.00000000   -0.00000000
     atom   30 type  1   force =     0.00000000   -0.00000000   -0.00000000
     atom   31 type  1   force =    -0.00012709    0.00024734   -0.00001410
     atom   32 type  1   force =     0.00022780   -0.00012378    0.00004981
     atom   33 type  1   force =     0.00000000    0.00000000    0.00000000
     atom   34 type  1   force =    -0.00000000   -0.00000000    0.00000000
     atom   35 type  1   force =    -0.00000000    0.00000000   -0.00000000
     atom   36 type  1   force =     0.00000000   -0.00000000   -0.00000000
     atom   37 type  1   force =    -0.00000000   -0.00000000   -0.00000000
     atom   38 type  1   force =     0.00000000   -0.00000000   -0.00000000
     atom   39 type  1   force =    -0.00016736   -0.00016546    0.00002798
     atom   40 type  1   force =    -0.00014356    0.00003764   -0.00014581
     atom   41 type  1   force =    -0.00000000   -0.00000000    0.00000000
     atom   42 type  1   force =    -0.00000000    0.00000000    0.00000000
     atom   43 type  1   force =     0.00000000    0.00000000   -0.00000000
     atom   44 type  1   force =     0.00000000   -0.00000000   -0.00000000
     atom   45 type  1   force =    -0.00000000    0.00000000   -0.00000000
     atom   46 type  1   force =     0.00000000   -0.00000000   -0.00000000
     atom   47 type  1   force =    -0.00019592    0.00000686    0.00000936
     atom   48 type  1   force =    -0.00001281   -0.00017752   -0.00001660
     atom   49 type  1   force =    -0.00000000    0.00000000    0.00000000
     atom   50 type  1   force =     0.00000000   -0.00000000    0.00000000
     atom   51 type  1   force =    -0.00000000    0.00000000   -0.00000000
     atom   52 type  1   force =    -0.00000000   -0.00000000   -0.00000000
     atom   53 type  1   force =     0.00000000   -0.00000000   -0.00000000
     atom   54 type  1   force =    -0.00000000    0.00000000   -0.00000000
     atom   55 type  1   force =     0.00010988   -0.00018685    0.00028720
     atom   56 type  1   force =     0.00010357    0.00032685   -0.00001388
     atom   57 type  1   force =     0.00000000    0.00000000    0.00000000
     atom   58 type  1   force =     0.00000000    0.00000000    0.00000000
     atom   59 type  1   force =    -0.00000000    0.00000000   -0.00000000
     atom   60 type  1   force =     0.00000000   -0.00000000   -0.00000000
     atom   61 type  1   force =     0.00000000    0.00000000   -0.00000000
     atom   62 type  1   force =    -0.00000000   -0.00000000   -0.00000000
     atom   63 type  1   force =     0.00013785    0.00017067    0.00028390
     atom   64 type  1   force =     0.00003960    0.00004809   -0.00010602
     atom   65 type  2   force =    -0.00000127    0.00000014    0.00000148
     atom   66 type  2   force =     0.00000421    0.00000372   -0.00003740
     atom   67 type  2   force =     0.00000504   -0.00001618   -0.00004370
     atom   68 type  2   force =     0.00000502    0.00002655   -0.00003968
     atom   69 type  2   force =     0.00000550   -0.00004416   -0.00003600
     atom   70 type  2   force =     0.00000168    0.00005388   -0.00001853
     atom   71 type  2   force =    -0.00000445   -0.00000101    0.00004368
     atom   72 type  3   force =    -0.00000200    0.00000029    0.00001075
     atom   73 type  3   force =    -0.00000938   -0.00000224    0.00010305
     atom   74 type  4   force =     0.00000092    0.00000875    0.00000410
     atom   75 type  4   force =    -0.00000053   -0.00000538    0.00000398
     atom   76 type  4   force =     0.00000040   -0.00000072   -0.00000433
     atom   77 type  4   force =     0.00000054    0.00000233   -0.00000384
     atom   78 type  4   force =     0.00000069   -0.00000598   -0.00000095
     atom   79 type  4   force =    -0.00000066    0.00000621    0.00000216

     Total force =     0.410045     Total SCF correction =     0.001077


     Computing stress (Cartesian axis) and pressure


     negative rho (up, down):  3.498E-02 0.000E+00
          total   stress  (Ry/bohr**3)                   (kbar)     P=      250.40
  -0.00113339  -0.00008942   0.00007743         -166.73      -13.15       11.39
  -0.00008942   0.00787941  -0.00028954          -13.15     1159.10      -42.59
   0.00007743  -0.00028954  -0.00163954           11.39      -42.59     -241.19

     kinetic stress (kbar)  17482.36      0.15      9.42
                                0.15  17339.18      7.25
                                9.42      7.25  17398.48

     local   stress (kbar)**********   1203.97  -2046.07
                             1203.97**********   8183.68
                            -2046.07   8183.681487319.09

     nonloc. stress (kbar)  -1762.51      0.96     -1.14
                                0.96  -1924.78      1.59
                               -1.14      1.59  -1742.73

     hartree stress (kbar) 773703.48   -521.32    922.70
                             -521.32 794708.93  -3703.98
                              922.70  -3703.98-695691.05

     exc-cor stress (kbar)  -8476.00     -0.10     -0.19
                               -0.10  -8452.68     -0.71
                               -0.19     -0.71  -8474.40

     corecor stress (kbar)    -79.94     -0.00      0.24
                               -0.00    -81.39      0.06
                                0.24      0.06    -81.73

     ewald   stress (kbar) 687091.52   -696.82   1126.43
                             -696.82 724485.67  -4530.48
                             1126.43  -4530.48-798968.84

     hubbard stress (kbar)      0.00      0.00      0.00
                                0.00      0.00      0.00
                                0.00      0.00      0.00

     DFT-D   stress (kbar)      0.00      0.00      0.00
                                0.00      0.00      0.00
                                0.00      0.00      0.00

     XDM     stress (kbar)      0.00      0.00      0.00
                                0.00      0.00      0.00
                                0.00      0.00      0.00

     dft-nl  stress (kbar)      0.00      0.00      0.00
                                0.00      0.00      0.00
                                0.00      0.00      0.00

     TS-vdW  stress (kbar)      0.00      0.00      0.00
                                0.00      0.00      0.00
                                0.00      0.00      0.00

     MDB     stress (kbar)      0.00      0.00      0.00
                                0.00      0.00      0.00
                                0.00      0.00      0.00

     3D-RISM stress (kbar)      0.00      0.00      0.00
                                0.00      0.00      0.00
                                0.00      0.00      0.00

     Energy error            =      8.2E-02 Ry
     Gradient error          =      2.5E-01 Ry/Bohr

     number of scf cycles    =   6
     number of bfgs steps    =   5

     energy             old  =  -29681.4634271840 Ry
     energy             new  =  -29681.5450509794 Ry

     CASE: energy            _new < energy            _old

     new trust radius        =       0.1143029065 bohr
     new conv_thr            =       0.0000007350 Ry


ATOMIC_POSITIONS (angstrom)
Zn               1.2182902100        1.3071799380        0.7547006810    0   0   0
Zn               1.2182902100        6.5358996490        0.7547006810    0   0   0
Zn               1.2182902100        0.0000000010        3.0188027470    0   0   0
Zn               1.2182902100        5.2287197120        3.0188027470    0   0   0
Zn               1.2185726075       -1.3073880994        5.6729282852    0   0   0
Zn               1.2186851431        3.9215451479        5.6720151579    0   0   0
Zn               1.3427144766       -2.1704471377        8.4120491159
Zn               1.1878512472        2.4386856687        8.2421628965
Zn               1.2182902100        3.9215397940        0.7547006810    0   0   0
Zn               1.2182902100        9.1502595050        0.7547006810    0   0   0
Zn               1.2182902100        2.6143598570        3.0188027470    0   0   0
Zn               1.2182902100        7.8430795680        3.0188027470    0   0   0
Zn               1.2186883199        1.3072854268        5.6723424169    0   0   0
Zn               1.2185625130        6.5357747424        5.6727099542    0   0   0
Zn               1.1728965189        0.1218752775        8.2847526582
Zn               0.8367870477        4.6461358827        8.2751952019
Zn               6.0914510490        1.3071799380        0.7547006810    0   0   0
Zn               6.0914510490        6.5358996490        0.7547006810    0   0   0
Zn               6.0914510490        0.0000000010        3.0188027470    0   0   0
Zn               6.0914510490        5.2287197120        3.0188027470    0   0   0
Zn               6.0911338514       -1.3072242637        5.6748546444    0   0   0
Zn               6.0910857638        3.9213990650        5.6741431289    0   0   0
Zn               6.0729806315       -2.1819294601        8.4570322711
Zn               6.0851439782        2.4617115411        8.2345189350
Zn               6.0914510490        3.9215397940        0.7547006810    0   0   0
Zn               6.0914510490        9.1502595050        0.7547006810    0   0   0
Zn               6.0914510490        2.6143598570        3.0188027470    0   0   0
Zn               6.0914510490        7.8430795680        3.0188027470    0   0   0
Zn               6.0911030401        1.3076064174        5.6744400348    0   0   0
Zn               6.0911314819        6.5354481156        5.6746346244    0   0   0
Zn               6.0744808976        0.1118165255        8.2817341799
Zn               5.9523168582        4.7653129500        8.3231352207
Zn               3.6548706290       -0.0000000190        1.5094013850    0   0   0
Zn               3.6548706290        5.2287196920        1.5094013850    0   0   0
Zn               3.6548706290       -1.3071799560        3.7735034500    0   0   0
Zn               3.6548706290        3.9215397550        3.7735034500    0   0   0
Zn               3.6546710580       -2.6147701593        6.0778389286    0   0   0
Zn               3.7961298288        2.8289533179        4.2753432298    0   0   0
Zn               3.8224704489       -3.4603403251        8.6836097899
Zn               3.6559836114        1.2088788636        8.4335013212
Zn               3.6548706290        2.6143598370        1.5094013850    0   0   0
Zn               3.6548706290        7.8430795480        1.5094013850    0   0   0
Zn               3.6548706290        1.3071799000        3.7735034500    0   0   0
Zn               3.6548706290        6.5358996110        3.7735034500    0   0   0
Zn               3.6547437702        0.0001669099        6.0773502731    0   0   0
Zn               3.6547864959        5.2284186199        6.0775758154    0   0   0
Zn               3.6569374017       -1.1431160687        8.5160048207
Zn               3.6438162522        3.4860019480        8.4721152786
Zn               8.5280314680       -0.0000000190        1.5094013850    0   0   0
Zn               8.5280314680        5.2287196920        1.5094013850    0   0   0
Zn               8.5280314680       -1.3071799560        3.7735034500    0   0   0
Zn               8.5280314680        3.9215397550        3.7735034500    0   0   0
Zn               8.5281647867       -2.6147587956        6.0779299812    0   0   0
Zn               8.5281732184        2.6146472247        6.0772010317    0   0   0
Zn               8.8966282789       -3.3475605556        8.7257512940
Zn               8.5925047446        1.2008973834        8.4276396622
Zn               8.5280314680        2.6143598370        1.5094013850    0   0   0
Zn               8.5280314680        7.8430795480        1.5094013850    0   0   0
Zn               8.5280314680        1.3071799000        3.7735034500    0   0   0
Zn               8.5280314680        6.5358996110        3.7735034500    0   0   0
Zn               8.5282171944       -0.0000137934        6.0774321744    0   0   0
Zn               8.5281738077        5.2286143460        6.0776528160    0   0   0
Zn               8.5662083354       -1.1326078204        8.4713669797
Zn               8.4069295251        3.4950707635        8.5014919489
C                4.9041679801        1.3775343991       17.1114322819
C                5.0854304548        1.5541107767       15.6833797793
C                5.1973076374        0.4361789022       14.8182989425
C                5.1538433286        2.8530451617       15.1112597739
C                5.3262507656        3.0198474582       13.7385024962
C                5.3669405790        0.6101760948       13.4412103359
C                5.4302925199        1.8966824445       12.9164623016
N                4.7687973090        1.2400984589       18.2336141829
N                5.5969615821        2.0690697048       11.5343736430
H                5.6471300257        2.9947173681       11.1328795410
H                5.6809712049        1.2703874654       10.9229099791
H                5.1507132658       -0.5700599834       15.2488553530
H                5.0658037180        3.7241208407       15.7712974050
H                5.3685610728        4.0320617900       13.3280382840
H                5.4517516167       -0.2743496958       12.8043644442



     Writing config-only to output data dir ./tmp/Zn100_2x4x4_primitive_atoms32_14Avacumn_ABN_topsite_upright.save/ :
     XML data file
     NEW-OLD atomic charge density approx. for the potential

     Check: negative core charge=   -0.000055

     negative rho (up, down):  3.458E-02 0.000E+00

     total cpu time spent up to now is    28410.1 secs

     Self-consistent Calculation

     iteration #  1     ecut=    30.00 Ry     beta= 0.70
     Davidson diagonalization with overlap

---- Real-time Memory Report at c_bands before calling an iterative solver
           296 MiB given to the printing process from OS
             0 MiB allocation reported by mallinfo(arena+hblkhd)
        176543 MiB available memory on the node where the printing process lives
------------------
     ethr =  1.00E-06,  avg # of iterations = 12.8

     negative rho (up, down):  3.531E-02 0.000E+00

     total cpu time spent up to now is    28979.1 secs

     total energy              =  -29681.54677305 Ry
     estimated scf accuracy    <       0.03999365 Ry

     iteration #  2     ecut=    30.00 Ry     beta= 0.70
     Davidson diagonalization with overlap

---- Real-time Memory Report at c_bands before calling an iterative solver
           296 MiB given to the printing process from OS
             0 MiB allocation reported by mallinfo(arena+hblkhd)
        176447 MiB available memory on the node where the printing process lives
------------------
     ethr =  3.02E-06,  avg # of iterations = 13.4

     negative rho (up, down):  3.539E-02 0.000E+00

     total cpu time spent up to now is    29290.5 secs

     total energy              =  -29681.53871917 Ry
     estimated scf accuracy    <       0.09499172 Ry

     iteration #  3     ecut=    30.00 Ry     beta= 0.70
     Davidson diagonalization with overlap

---- Real-time Memory Report at c_bands before calling an iterative solver
           296 MiB given to the printing process from OS
             0 MiB allocation reported by mallinfo(arena+hblkhd)
        176436 MiB available memory on the node where the printing process lives
------------------
     ethr =  3.02E-06,  avg # of iterations = 13.2

     negative rho (up, down):  3.542E-02 0.000E+00

     total cpu time spent up to now is    29606.2 secs

     total energy              =  -29681.52305087 Ry
     estimated scf accuracy    <       0.85662519 Ry

     iteration #  4     ecut=    30.00 Ry     beta= 0.70
     Davidson diagonalization with overlap

---- Real-time Memory Report at c_bands before calling an iterative solver
           296 MiB given to the printing process from OS
             0 MiB allocation reported by mallinfo(arena+hblkhd)
        176421 MiB available memory on the node where the printing process lives
------------------
