--------------------------------------------------------------------------
By default, for Open MPI 4.0 and later, infiniband ports on a device
are not used by default.  The intent is to use UCX for these devices.
You can override this policy by setting the btl_openib_allow_ib MCA parameter
to true.

  Local host:              psid08
  Local adapter:           mlx4_0
  Local port:              1

--------------------------------------------------------------------------
--------------------------------------------------------------------------
WARNING: There was an error initializing an OpenFabrics device.

  Local host:   psid08
  Local device: mlx4_0
--------------------------------------------------------------------------

     Program PWSCF v.7.3.1 starts on 20Mar2025 at 11:28:28 

     This program is part of the open-source Quantum ESPRESSO suite
     for quantum simulation of materials; please cite
         "P. Giannozzi et al., J. Phys.:Condens. Matter 21 395502 (2009);
         "P. Giannozzi et al., J. Phys.:Condens. Matter 29 465901 (2017);
         "P. Giannozzi et al., J. Chem. Phys. 152 154105 (2020);
          URL http://www.quantum-espresso.org", 
     in publications or presentations arising from this work. More details at
     http://www.quantum-espresso.org/quote

     Parallel version (MPI), running on    32 processors

     MPI processes distributed on     1 nodes
     187931 MiB available memory on the printing compute node when the environment starts

     Waiting for input...
     Reading input from standard input
Warning: card &CELL ignored
Warning: card   CELL_DOFREE = 'ALL' ignored
Warning: card / ignored

     Current dimensions of program PWSCF are:
     Max number of different atomic species (ntypx) = 10
     Max number of k-points (npk) =  40000
     Max angular momentum in pseudopotentials (lmaxx) =  4
     file C.pbe-n-kjpaw_psl.1.0.0.UPF: wavefunction(s)  2S 2P renormalized

     R & G space division:  proc/nbgrp/npool/nimage =      32
     Subspace diagonalization in iterative solution of the eigenvalue problem:
     one sub-group per band group will be used
     custom distributed-memory algorithm (size of sub-group:  5*  5 procs)


     Parallelization info
     --------------------
     sticks:   dense  smooth     PW     G-vecs:    dense   smooth      PW
     Min         101     101     26                10531    10531    1466
     Max         102     102     27                10543    10543    1481
     Sum        3241    3241    859               337189   337189   47187

     Using Slab Decomposition



     bravais-lattice index     =            0
     lattice parameter (alat)  =      19.7617  a.u.
     unit-cell volume          =   15176.5939 (a.u.)^3
     number of atoms/cell      =           79
     number of atomic types    =            4
     number of electrons       =      1324.00
     number of Kohn-Sham states=          794
     kinetic-energy cutoff     =      30.0000  Ry
     charge density cutoff     =     120.0000  Ry
     scf convergence threshold =      7.3E-07
     mixing beta               =       0.7000
     number of iterations used =            8  plain     mixing
     energy convergence thresh.=      1.0E-05
     force convergence thresh. =      5.0E-04
     Exchange-correlation= PBE
                           (   1   4   3   4   0   0   0)
     nstep                     =          100


     celldm(1)=  19.761696  celldm(2)=   0.000000  celldm(3)=   0.000000
     celldm(4)=   0.000000  celldm(5)=   0.000000  celldm(6)=   0.000000

     crystal axes: (cart. coord. in units of alat)
               a(1) = (   1.000000   0.000000   0.000000 )  
               a(2) = (  -0.500000   0.866025   0.000000 )  
               a(3) = (   0.000000   0.000000   2.270759 )  

     reciprocal axes: (cart. coord. in units 2 pi/alat)
               b(1) = (  1.000000  0.577350 -0.000000 )  
               b(2) = (  0.000000  1.154701  0.000000 )  
               b(3) = (  0.000000 -0.000000  0.440381 )  


     PseudoPot. # 1 for Zn read from file:
     /home/ys/qepseudo/SSSP_1.3.0_PBE_efficiency/Zn_pbe_v1.uspp.F.UPF
     MD5 check sum: df62231357ef9e81f77b2b3087fa5675
     Pseudo is Ultrasoft, Zval = 20.0
     Generated by new atomic code, or converted to UPF format
     Using radial grid of  943 points,  6 beta functions with: 
                l(1) =   0
                l(2) =   0
                l(3) =   1
                l(4) =   1
                l(5) =   2
                l(6) =   2
     Q(r) pseudized with  8 coefficients,  rinner =    1.100   1.100   1.100
                                                       1.100   1.100

     PseudoPot. # 2 for C  read from file:
     /home/ys/qepseudo/SSSP_1.3.0_PBE_efficiency/C.pbe-n-kjpaw_psl.1.0.0.UPF
     MD5 check sum: 5d2aebdfa2cae82b50a7e79e9516da0f
     Pseudo is Projector augmented-wave + core cor, Zval =  4.0
     Generated using "atomic" code by A. Dal Corso  v.5.1
     Shape of augmentation charge: PSQ
     Using radial grid of 1073 points,  4 beta functions with: 
                l(1) =   0
                l(2) =   0
                l(3) =   1
                l(4) =   1
     Q(r) pseudized with 0 coefficients 


     PseudoPot. # 3 for N  read from file:
     /home/ys/qepseudo/SSSP_1.3.0_PBE_efficiency/N.pbe-n-radius_5.UPF
     MD5 check sum: 16739722b17309cd8fe442a2ace49922
     Pseudo is Ultrasoft + core correction, Zval =  5.0
     Generated using "atomic" code by A. Dal Corso  v.5.1
     Using radial grid of 1085 points,  4 beta functions with: 
                l(1) =   0
                l(2) =   0
                l(3) =   1
                l(4) =   1
     Q(r) pseudized with 0 coefficients 


     PseudoPot. # 4 for H  read from file:
     /home/ys/qepseudo/SSSP_1.3.0_PBE_efficiency/H.pbe-rrkjus_psl.1.0.0.UPF
     MD5 check sum: f52b6d4d1c606e5624b1dc7b2218f220
     Pseudo is Ultrasoft, Zval =  1.0
     Generated using "atomic" code by A. Dal Corso  v.5.1
     Using radial grid of  929 points,  2 beta functions with: 
                l(1) =   0
                l(2) =   0
     Q(r) pseudized with 0 coefficients 


     atomic species   valence    mass     pseudopotential
     Zn               20.00    65.38000     Zn( 1.00)
     C                 4.00    12.01070     C ( 1.00)
     N                 5.00    14.00670     N ( 1.00)
     H                 1.00     1.00800     H ( 1.00)

     No symmetry found


                                    s                        frac. trans.

      isym =  1     identity                                     

 cryst.   s( 1) = (     1          0          0      )
                  (     0          1          0      )
                  (     0          0          1      )

 cart.    s( 1) = (  1.0000000  0.0000000  0.0000000 )
                  (  0.0000000  1.0000000  0.0000000 )
                  (  0.0000000  0.0000000  1.0000000 )


   Cartesian axes

     site n.     atom                  positions (alat units)
         1        Zn     tau(   1) = (   0.1164999   0.1250000   0.0721688  )
         2        Zn     tau(   2) = (   0.1164999   0.6250000   0.0721688  )
         3        Zn     tau(   3) = (   0.1164999   0.0000000   0.2886751  )
         4        Zn     tau(   4) = (   0.1164999   0.5000000   0.2886751  )
         5        Zn     tau(   5) = (   0.1165269  -0.1250199   0.5424778  )
         6        Zn     tau(   6) = (   0.1165376   0.3750005   0.5423904  )
         7        Zn     tau(   7) = (   0.1165378  -0.2500279   0.7948841  )
         8        Zn     tau(   8) = (   0.1165433   0.2500373   0.7948360  )
         9        Zn     tau(   9) = (   0.1164999   0.3750000   0.0721688  )
        10        Zn     tau(  10) = (   0.1164999   0.8750000   0.0721688  )
        11        Zn     tau(  11) = (   0.1164999   0.2500000   0.2886751  )
        12        Zn     tau(  12) = (   0.1164999   0.7500000   0.2886751  )
        13        Zn     tau(  13) = (   0.1165379   0.1250101   0.5424217  )
        14        Zn     tau(  14) = (   0.1165259   0.6249881   0.5424569  )
        15        Zn     tau(  15) = (   0.1165411  -0.0000343   0.7948854  )
        16        Zn     tau(  16) = (   0.1165396   0.5000422   0.7948274  )
        17        Zn     tau(  17) = (   0.5824993   0.1250000   0.0721688  )
        18        Zn     tau(  18) = (   0.5824993   0.6250000   0.0721688  )
        19        Zn     tau(  19) = (   0.5824993   0.0000000   0.2886751  )
        20        Zn     tau(  20) = (   0.5824993   0.5000000   0.2886751  )
        21        Zn     tau(  21) = (   0.5824690  -0.1250042   0.5426620  )
        22        Zn     tau(  22) = (   0.5824644   0.3749865   0.5425939  )
        23        Zn     tau(  23) = (   0.5824664  -0.2500343   0.7948659  )
        24        Zn     tau(  24) = (   0.5824526   0.2500446   0.7948269  )
        25        Zn     tau(  25) = (   0.5824993   0.3750000   0.0721688  )
        26        Zn     tau(  26) = (   0.5824993   0.8750000   0.0721688  )
        27        Zn     tau(  27) = (   0.5824993   0.2500000   0.2886751  )
        28        Zn     tau(  28) = (   0.5824993   0.7500000   0.2886751  )
        29        Zn     tau(  29) = (   0.5824660   0.1250408   0.5426223  )
        30        Zn     tau(  30) = (   0.5824687   0.6249568   0.5426409  )
        31        Zn     tau(  31) = (   0.5824611  -0.0000148   0.7948754  )
        32        Zn     tau(  32) = (   0.5824595   0.5000225   0.7948139  )
        33        Zn     tau(  33) = (   0.3494996  -0.0000000   0.1443376  )
        34        Zn     tau(  34) = (   0.3494996   0.5000000   0.1443376  )
        35        Zn     tau(  35) = (   0.3494996  -0.1250000   0.3608439  )
        36        Zn     tau(  36) = (   0.3494996   0.3750000   0.3608439  )
        37        Zn     tau(  37) = (   0.3494805  -0.2500392   0.5811976  )
        38        Zn     tau(  38) = (   0.3494874   0.2500301   0.5811314  )
        39        Zn     tau(  39) = (   0.3496055  -0.3750142   0.8096682  )
        40        Zn     tau(  40) = (   0.3496104   0.1250017   0.8096945  )
        41        Zn     tau(  41) = (   0.3494996   0.2500000   0.1443376  )
        42        Zn     tau(  42) = (   0.3494996   0.7500000   0.1443376  )
        43        Zn     tau(  43) = (   0.3494996   0.1250000   0.3608439  )
        44        Zn     tau(  44) = (   0.3494996   0.6250000   0.3608439  )
        45        Zn     tau(  45) = (   0.3494874   0.0000160   0.5811509  )
        46        Zn     tau(  46) = (   0.3494915   0.4999712   0.5811725  )
        47        Zn     tau(  47) = (   0.3496025  -0.1250491   0.8096982  )
        48        Zn     tau(  48) = (   0.3496124   0.3750343   0.8096633  )
        49        Zn     tau(  49) = (   0.8154990  -0.0000000   0.1443376  )
        50        Zn     tau(  50) = (   0.8154990   0.5000000   0.1443376  )
        51        Zn     tau(  51) = (   0.8154990  -0.1250000   0.3608439  )
        52        Zn     tau(  52) = (   0.8154990   0.3750000   0.3608439  )
        53        Zn     tau(  53) = (   0.8155118  -0.2500381   0.5812063  )
        54        Zn     tau(  54) = (   0.8155126   0.2500275   0.5811366  )
        55        Zn     tau(  55) = (   0.8153993  -0.3750032   0.8097699  )
        56        Zn     tau(  56) = (   0.8153901   0.1249881   0.8097965  )
        57        Zn     tau(  57) = (   0.8154990   0.2500000   0.1443376  )
        58        Zn     tau(  58) = (   0.8154990   0.7500000   0.1443376  )
        59        Zn     tau(  59) = (   0.8154990   0.1250000   0.3608439  )
        60        Zn     tau(  60) = (   0.8154990   0.6250000   0.3608439  )
        61        Zn     tau(  61) = (   0.8155168  -0.0000013   0.5811587  )
        62        Zn     tau(  62) = (   0.8155126   0.4999899   0.5811798  )
        63        Zn     tau(  63) = (   0.8154033  -0.1250559   0.8097984  )
        64        Zn     tau(  64) = (   0.8153872   0.3750442   0.8097656  )
        65        C      tau(  65) = (   0.3964446   0.1539326   1.0590266  )
        66        C      tau(  66) = (   0.2893588   0.0988611   1.2593119  )
        67        C      tau(  67) = (   0.4693075   0.1951128   1.1070971  )
        68        C      tau(  68) = (   0.3675824   0.1436169   1.3082656  )
        69        C      tau(  69) = (   0.4702205   0.1984449   1.2377253  )
        70        C      tau(  70) = (   0.5413356   0.2340090   1.0559809  )
        71        C      tau(  71) = (   0.3703330   0.1475504   1.4418891  )
        72        N      tau(  72) = (   0.2914594   0.1050803   1.4955073  )
        73        N      tau(  73) = (   0.5721978   0.2562877   1.3050492  )
        74        H      tau(  74) = (   0.4721329   0.2052943   1.5086187  )
        75        H      tau(  75) = (   0.5729706   0.2595485   1.4376213  )
        76        H      tau(  76) = (   0.6513398   0.2989175   1.2516867  )
        77        H      tau(  77) = (   0.4731065   0.2087571   1.6453710  )
        78        H      tau(  78) = (   0.4739021   0.2115693   1.7565028  )
        79        H      tau(  79) = (   0.6525749   0.3046528   1.4878936  )

   Crystallographic axes

     site n.     atom                  positions (cryst. coord.)
         1        Zn     tau(   1) = (  0.1886686  0.1443376  0.0317818  )
         2        Zn     tau(   2) = (  0.4773438  0.7216878  0.0317818  )
         3        Zn     tau(   3) = (  0.1164999  0.0000000  0.1271272  )
         4        Zn     tau(   4) = (  0.4051750  0.5773503  0.1271272  )
         5        Zn     tau(   5) = (  0.0443466 -0.1443606  0.2388971  )
         6        Zn     tau(   6) = (  0.3330443  0.4330133  0.2388587  )
         7        Zn     tau(   7) = ( -0.0278158 -0.2887073  0.3500522  )
         8        Zn     tau(   8) = (  0.2609024  0.2887182  0.3500310  )
         9        Zn     tau(   9) = (  0.3330062  0.4330127  0.0317818  )
        10        Zn     tau(  10) = (  0.6216813  1.0103630  0.0317818  )
        11        Zn     tau(  11) = (  0.2608374  0.2886751  0.1271272  )
        12        Zn     tau(  12) = (  0.5495126  0.8660254  0.1271272  )
        13        Zn     tau(  13) = (  0.1887125  0.1443492  0.2388725  )
        14        Zn     tau(  14) = (  0.4773629  0.7216740  0.2388879  )
        15        Zn     tau(  15) = (  0.1165213 -0.0000396  0.3500528  )
        16        Zn     tau(  16) = (  0.4052391  0.5773990  0.3500272  )
        17        Zn     tau(  17) = (  0.6546681  0.1443376  0.0317818  )
        18        Zn     tau(  18) = (  0.9433432  0.7216878  0.0317818  )
        19        Zn     tau(  19) = (  0.5824993  0.0000000  0.1271272  )
        20        Zn     tau(  20) = (  0.8711744  0.5773503  0.1271272  )
        21        Zn     tau(  21) = (  0.5102977 -0.1443425  0.2389783  )
        22        Zn     tau(  22) = (  0.7989629  0.4329972  0.2389483  )
        23        Zn     tau(  23) = (  0.4381090 -0.2887148  0.3500442  )
        24        Zn     tau(  24) = (  0.7268159  0.2887266  0.3500270  )
        25        Zn     tau(  25) = (  0.7990056  0.4330127  0.0317818  )
        26        Zn     tau(  26) = (  1.0876808  1.0103630  0.0317818  )
        27        Zn     tau(  27) = (  0.7268369  0.2886751  0.1271272  )
        28        Zn     tau(  28) = (  1.0155120  0.8660254  0.1271272  )
        29        Zn     tau(  29) = (  0.6546583  0.1443847  0.2389608  )
        30        Zn     tau(  30) = (  0.9432877  0.7216380  0.2389690  )
        31        Zn     tau(  31) = (  0.5824526 -0.0000171  0.3500484  )
        32        Zn     tau(  32) = (  0.8711477  0.5773763  0.3500213  )
        33        Zn     tau(  33) = (  0.3494996 -0.0000000  0.0635636  )
        34        Zn     tau(  34) = (  0.6381747  0.5773503  0.0635636  )
        35        Zn     tau(  35) = (  0.2773308 -0.1443376  0.1589090  )
        36        Zn     tau(  36) = (  0.5660059  0.4330127  0.1589090  )
        37        Zn     tau(  37) = (  0.2051203 -0.2887204  0.2559486  )
        38        Zn     tau(  38) = (  0.4938424  0.2887099  0.2559195  )
        39        Zn     tau(  39) = (  0.1330909 -0.4330291  0.3565628  )
        40        Zn     tau(  40) = (  0.4217802  0.1443395  0.3565744  )
        41        Zn     tau(  41) = (  0.4938371  0.2886751  0.0635636  )
        42        Zn     tau(  42) = (  0.7825123  0.8660254  0.0635636  )
        43        Zn     tau(  43) = (  0.4216684  0.1443376  0.1589090  )
        44        Zn     tau(  44) = (  0.7103435  0.7216878  0.1589090  )
        45        Zn     tau(  45) = (  0.3494967  0.0000184  0.2559281  )
        46        Zn     tau(  46) = (  0.6381500  0.5773170  0.2559376  )
        47        Zn     tau(  47) = (  0.2774054 -0.1443943  0.3565760  )
        48        Zn     tau(  48) = (  0.5661385  0.4330523  0.3565607  )
        49        Zn     tau(  49) = (  0.8154990 -0.0000000  0.0635636  )
        50        Zn     tau(  50) = (  1.1041741  0.5773503  0.0635636  )
        51        Zn     tau(  51) = (  0.7433302 -0.1443376  0.1589090  )
        52        Zn     tau(  52) = (  1.0320054  0.4330127  0.1589090  )
        53        Zn     tau(  53) = (  0.6711522 -0.2887192  0.2559525  )
        54        Zn     tau(  54) = (  0.9598660  0.2887069  0.2559218  )
        55        Zn     tau(  55) = (  0.5988911 -0.4330164  0.3566076  )
        56        Zn     tau(  56) = (  0.8875520  0.1443239  0.3566193  )
        57        Zn     tau(  57) = (  0.9598366  0.2886751  0.0635636  )
        58        Zn     tau(  58) = (  1.2485117  0.8660254  0.0635636  )
        59        Zn     tau(  59) = (  0.8876678  0.1443376  0.1589090  )
        60        Zn     tau(  60) = (  1.1763429  0.7216878  0.1589090  )
        61        Zn     tau(  61) = (  0.8155160 -0.0000015  0.2559315  )
        62        Zn     tau(  62) = (  1.1041819  0.5773386  0.2559408  )
        63        Zn     tau(  63) = (  0.7432023 -0.1444021  0.3566202  )
        64        Zn     tau(  64) = (  1.0319191  0.4330637  0.3566058  )
        65        C      tau(  65) = (  0.4853176  0.1777460  0.4663757  )
        66        C      tau(  66) = (  0.3464363  0.1141549  0.5545776  )
        67        C      tau(  67) = (  0.5819560  0.2252969  0.4875450  )
        68        C      tau(  68) = (  0.4504996  0.1658345  0.5761359  )
        69        C      tau(  69) = (  0.5847927  0.2291444  0.5450712  )
        70        C      tau(  70) = (  0.6764408  0.2702104  0.4650344  )
        71        C      tau(  71) = (  0.4555212  0.1703765  0.6349812  )
        72        N      tau(  72) = (  0.3521275  0.1213363  0.6585936  )
        73        N      tau(  73) = (  0.7201655  0.2959355  0.5747194  )
        74        H      tau(  74) = (  0.5906596  0.2370534  0.6643677  )
        75        H      tau(  75) = (  0.7228210  0.2997008  0.6331017  )
        76        H      tau(  76) = (  0.8239199  0.3451603  0.5512196  )
        77        H      tau(  77) = (  0.5936324  0.2410519  0.7245908  )
        78        H      tau(  78) = (  0.5960517  0.2442992  0.7735312  )
        79        H      tau(  79) = (  0.8284662  0.3517827  0.6552407  )

     number of k points=     5  Marzari-Vanderbilt smearing, width (Ry)=  0.0200
                       cart. coord. in units 2pi/alat
        k(    1) = (   0.0000000   0.0000000   0.0000000), wk =   0.2222222
        k(    2) = (   0.0000000   0.3849002   0.0000000), wk =   0.4444444
        k(    3) = (   0.3333333   0.1924501   0.0000000), wk =   0.4444444
        k(    4) = (   0.3333333   0.5773503   0.0000000), wk =   0.4444444
        k(    5) = (   0.3333333  -0.1924501   0.0000000), wk =   0.4444444

                       cryst. coord.
        k(    1) = (   0.0000000   0.0000000   0.0000000), wk =   0.2222222
        k(    2) = (   0.0000000   0.3333333   0.0000000), wk =   0.4444444
        k(    3) = (   0.3333333   0.0000000   0.0000000), wk =   0.4444444
        k(    4) = (   0.3333333   0.3333333   0.0000000), wk =   0.4444444
        k(    5) = (   0.3333333  -0.3333333   0.0000000), wk =   0.4444444

     Dense  grid:   337189 G-vectors     FFT dimensions: (  72,  72, 160)

     Dynamical RAM for                 wfc:      15.94 MB

     Dynamical RAM for     wfc (w. buffer):      95.66 MB

     Dynamical RAM for           str. fact:       0.64 MB

     Dynamical RAM for           local pot:       0.00 MB

     Dynamical RAM for          nlocal pot:      24.82 MB

     Dynamical RAM for                qrad:       3.52 MB

     Dynamical RAM for          rho,v,vnew:       1.08 MB

     Dynamical RAM for               rhoin:       0.36 MB

     Dynamical RAM for            rho*nmix:       2.57 MB

     Dynamical RAM for           G-vectors:       0.68 MB

     Dynamical RAM for          h,s,v(r/c):       4.60 MB

     Dynamical RAM for          <psi|beta>:      14.97 MB

     Dynamical RAM for                 psi:      31.89 MB

     Dynamical RAM for                hpsi:      31.89 MB

     Dynamical RAM for                spsi:      31.89 MB

     Dynamical RAM for      wfcinit/wfcrot:      52.59 MB

     Dynamical RAM for           addusdens:      40.19 MB

     Dynamical RAM for          addusforce:      60.78 MB

     Dynamical RAM for         addusstress:      32.31 MB

     Estimated static dynamical RAM per process >     128.56 MB

     Estimated max dynamical RAM per process >     246.37 MB

     Estimated total dynamical RAM >       7.70 GB

     Check: negative core charge=   -0.000055

     Initial potential from superposition of free atoms

     starting charge    1323.9906, renormalised to    1324.0000

     negative rho (up, down):  7.584E-03 0.000E+00
     Starting wfcs are  874 randomized atomic wfcs
[psid08:115569] 31 more processes have sent help message help-mpi-btl-openib.txt / ib port not selected
[psid08:115569] Set MCA parameter "orte_base_help_aggregate" to 0 to see all help / error messages
[psid08:115569] 31 more processes have sent help message help-mpi-btl-openib.txt / error in device init
     Checking if some PAW data can be deallocated... 
       PAW data deallocated on   28 nodes for type:  2

     total cpu time spent up to now is       72.0 secs

     Self-consistent Calculation

     iteration #  1     ecut=    30.00 Ry     beta= 0.70
     Davidson diagonalization with overlap

---- Real-time Memory Report at c_bands before calling an iterative solver
           216 MiB given to the printing process from OS
             0 MiB allocation reported by mallinfo(arena+hblkhd)
        183284 MiB available memory on the node where the printing process lives
------------------
     ethr =  1.00E-02,  avg # of iterations =  7.0

     negative rho (up, down):  3.782E-02 0.000E+00

     total cpu time spent up to now is      408.6 secs

     total energy              =  -29642.10177353 Ry
     estimated scf accuracy    <      39.69684458 Ry

     iteration #  2     ecut=    30.00 Ry     beta= 0.70
     Davidson diagonalization with overlap

---- Real-time Memory Report at c_bands before calling an iterative solver
           289 MiB given to the printing process from OS
             0 MiB allocation reported by mallinfo(arena+hblkhd)
        181974 MiB available memory on the node where the printing process lives
------------------
     ethr =  3.00E-03,  avg # of iterations =  6.8

     negative rho (up, down):  3.609E-02 0.000E+00

     total cpu time spent up to now is      820.2 secs

     total energy              =  -29533.43009335 Ry
     estimated scf accuracy    <    4078.90327528 Ry

     iteration #  3     ecut=    30.00 Ry     beta= 0.70
     Davidson diagonalization with overlap

---- Real-time Memory Report at c_bands before calling an iterative solver
           291 MiB given to the printing process from OS
             0 MiB allocation reported by mallinfo(arena+hblkhd)
        181937 MiB available memory on the node where the printing process lives
------------------
     ethr =  3.00E-03,  avg # of iterations =  7.0

     negative rho (up, down):  3.363E-02 0.000E+00

     total cpu time spent up to now is     1290.7 secs

     total energy              =  -29596.13334522 Ry
     estimated scf accuracy    <    1546.97332141 Ry

     iteration #  4     ecut=    30.00 Ry     beta= 0.70
     Davidson diagonalization with overlap

---- Real-time Memory Report at c_bands before calling an iterative solver
           291 MiB given to the printing process from OS
             0 MiB allocation reported by mallinfo(arena+hblkhd)
        181922 MiB available memory on the node where the printing process lives
------------------
     ethr =  3.00E-03,  avg # of iterations =  8.6

     negative rho (up, down):  2.062E-02 0.000E+00

     total cpu time spent up to now is     1826.2 secs

     total energy              =  -29657.25062766 Ry
     estimated scf accuracy    <     295.09187806 Ry

     iteration #  5     ecut=    30.00 Ry     beta= 0.70
     Davidson diagonalization with overlap

---- Real-time Memory Report at c_bands before calling an iterative solver
           292 MiB given to the printing process from OS
             0 MiB allocation reported by mallinfo(arena+hblkhd)
        181911 MiB available memory on the node where the printing process lives
------------------
     ethr =  3.00E-03,  avg # of iterations =  3.4

     negative rho (up, down):  2.177E-02 0.000E+00

     total cpu time spent up to now is     2095.8 secs

     total energy              =  -29672.39731246 Ry
     estimated scf accuracy    <      15.85405201 Ry

     iteration #  6     ecut=    30.00 Ry     beta= 0.70
     Davidson diagonalization with overlap

---- Real-time Memory Report at c_bands before calling an iterative solver
           292 MiB given to the printing process from OS
             0 MiB allocation reported by mallinfo(arena+hblkhd)
        181891 MiB available memory on the node where the printing process lives
------------------
     ethr =  1.20E-03,  avg # of iterations =  2.2

     negative rho (up, down):  2.378E-02 0.000E+00

     total cpu time spent up to now is     2337.9 secs

     total energy              =  -29673.23959143 Ry
     estimated scf accuracy    <       2.59490744 Ry

     iteration #  7     ecut=    30.00 Ry     beta= 0.70
     Davidson diagonalization with overlap

---- Real-time Memory Report at c_bands before calling an iterative solver
           293 MiB given to the printing process from OS
             0 MiB allocation reported by mallinfo(arena+hblkhd)
        181875 MiB available memory on the node where the printing process lives
------------------
     ethr =  1.96E-04,  avg # of iterations = 10.4

     negative rho (up, down):  2.778E-02 0.000E+00

     total cpu time spent up to now is     2622.8 secs

     total energy              =  -29673.40707160 Ry
     estimated scf accuracy    <       1.66000289 Ry

     iteration #  8     ecut=    30.00 Ry     beta= 0.70
     Davidson diagonalization with overlap

---- Real-time Memory Report at c_bands before calling an iterative solver
           294 MiB given to the printing process from OS
             0 MiB allocation reported by mallinfo(arena+hblkhd)
        181857 MiB available memory on the node where the printing process lives
------------------
     ethr =  1.25E-04,  avg # of iterations =  6.8

     negative rho (up, down):  3.481E-02 0.000E+00

     total cpu time spent up to now is     2874.1 secs

     total energy              =  -29673.38305717 Ry
     estimated scf accuracy    <       1.12756291 Ry

     iteration #  9     ecut=    30.00 Ry     beta= 0.70
     Davidson diagonalization with overlap

---- Real-time Memory Report at c_bands before calling an iterative solver
           294 MiB given to the printing process from OS
             0 MiB allocation reported by mallinfo(arena+hblkhd)
        181839 MiB available memory on the node where the printing process lives
------------------
     ethr =  8.52E-05,  avg # of iterations =  2.8

     negative rho (up, down):  4.088E-02 0.000E+00

     total cpu time spent up to now is     3112.7 secs

     total energy              =  -29673.42856976 Ry
     estimated scf accuracy    <       0.80740991 Ry

     iteration # 10     ecut=    30.00 Ry     beta= 0.70
     Davidson diagonalization with overlap

---- Real-time Memory Report at c_bands before calling an iterative solver
           295 MiB given to the printing process from OS
             0 MiB allocation reported by mallinfo(arena+hblkhd)
        181823 MiB available memory on the node where the printing process lives
------------------
     ethr =  6.10E-05,  avg # of iterations =  2.0

     negative rho (up, down):  4.182E-02 0.000E+00

     total cpu time spent up to now is     3345.9 secs

     total energy              =  -29673.46420457 Ry
     estimated scf accuracy    <       0.45155217 Ry

     iteration # 11     ecut=    30.00 Ry     beta= 0.70
     Davidson diagonalization with overlap

---- Real-time Memory Report at c_bands before calling an iterative solver
           295 MiB given to the printing process from OS
             0 MiB allocation reported by mallinfo(arena+hblkhd)
        181805 MiB available memory on the node where the printing process lives
------------------
     ethr =  3.41E-05,  avg # of iterations =  2.0

     negative rho (up, down):  3.929E-02 0.000E+00

     total cpu time spent up to now is     3577.9 secs

     total energy              =  -29673.48296686 Ry
     estimated scf accuracy    <       0.06661428 Ry

     iteration # 12     ecut=    30.00 Ry     beta= 0.70
     Davidson diagonalization with overlap

---- Real-time Memory Report at c_bands before calling an iterative solver
           295 MiB given to the printing process from OS
             0 MiB allocation reported by mallinfo(arena+hblkhd)
        181803 MiB available memory on the node where the printing process lives
------------------
     ethr =  5.03E-06,  avg # of iterations = 14.2

     negative rho (up, down):  3.886E-02 0.000E+00

     total cpu time spent up to now is     3882.5 secs

     total energy              =  -29673.47637791 Ry
     estimated scf accuracy    <       0.33661086 Ry

     iteration # 13     ecut=    30.00 Ry     beta= 0.70
     Davidson diagonalization with overlap

---- Real-time Memory Report at c_bands before calling an iterative solver
           295 MiB given to the printing process from OS
             0 MiB allocation reported by mallinfo(arena+hblkhd)
        181804 MiB available memory on the node where the printing process lives
------------------
     c_bands:  1 eigenvalues not converged
     ethr =  5.03E-06,  avg # of iterations = 15.8

     negative rho (up, down):  3.809E-02 0.000E+00

     total cpu time spent up to now is     4195.8 secs

     total energy              =  -29673.47343523 Ry
     estimated scf accuracy    <       0.44021354 Ry

     iteration # 14     ecut=    30.00 Ry     beta= 0.70
     Davidson diagonalization with overlap

---- Real-time Memory Report at c_bands before calling an iterative solver
           295 MiB given to the printing process from OS
             0 MiB allocation reported by mallinfo(arena+hblkhd)
        181803 MiB available memory on the node where the printing process lives
------------------
     c_bands:  1 eigenvalues not converged
     ethr =  5.03E-06,  avg # of iterations = 13.4

     negative rho (up, down):  3.737E-02 0.000E+00

     total cpu time spent up to now is     4481.1 secs

     total energy              =  -29673.48720154 Ry
     estimated scf accuracy    <       0.13738319 Ry

     iteration # 15     ecut=    30.00 Ry     beta= 0.70
     Davidson diagonalization with overlap

---- Real-time Memory Report at c_bands before calling an iterative solver
           295 MiB given to the printing process from OS
             0 MiB allocation reported by mallinfo(arena+hblkhd)
        181801 MiB available memory on the node where the printing process lives
------------------
     ethr =  5.03E-06,  avg # of iterations =  3.0

     negative rho (up, down):  3.722E-02 0.000E+00

     total cpu time spent up to now is     4720.5 secs

     total energy              =  -29673.49316917 Ry
     estimated scf accuracy    <       0.00951296 Ry

     iteration # 16     ecut=    30.00 Ry     beta= 0.70
     Davidson diagonalization with overlap

---- Real-time Memory Report at c_bands before calling an iterative solver
           295 MiB given to the printing process from OS
             0 MiB allocation reported by mallinfo(arena+hblkhd)
        181799 MiB available memory on the node where the printing process lives
------------------
     ethr =  7.19E-07,  avg # of iterations =  2.4

     negative rho (up, down):  3.706E-02 0.000E+00

     total cpu time spent up to now is     4955.6 secs

     total energy              =  -29673.49371668 Ry
     estimated scf accuracy    <       0.00163420 Ry

     iteration # 17     ecut=    30.00 Ry     beta= 0.70
     Davidson diagonalization with overlap

---- Real-time Memory Report at c_bands before calling an iterative solver
           295 MiB given to the printing process from OS
             0 MiB allocation reported by mallinfo(arena+hblkhd)
        181798 MiB available memory on the node where the printing process lives
------------------
     ethr =  1.23E-07,  avg # of iterations =  2.0

     negative rho (up, down):  3.691E-02 0.000E+00

     total cpu time spent up to now is     5189.7 secs

     total energy              =  -29673.49387555 Ry
     estimated scf accuracy    <       0.00068058 Ry

     iteration # 18     ecut=    30.00 Ry     beta= 0.70
     Davidson diagonalization with overlap

---- Real-time Memory Report at c_bands before calling an iterative solver
           295 MiB given to the printing process from OS
             0 MiB allocation reported by mallinfo(arena+hblkhd)
        181797 MiB available memory on the node where the printing process lives
------------------
     ethr =  5.14E-08,  avg # of iterations =  2.0

     negative rho (up, down):  3.687E-02 0.000E+00

     total cpu time spent up to now is     5423.8 secs

     total energy              =  -29673.49391290 Ry
     estimated scf accuracy    <       0.00053963 Ry

     iteration # 19     ecut=    30.00 Ry     beta= 0.70
     Davidson diagonalization with overlap

---- Real-time Memory Report at c_bands before calling an iterative solver
           295 MiB given to the printing process from OS
             0 MiB allocation reported by mallinfo(arena+hblkhd)
        181796 MiB available memory on the node where the printing process lives
------------------
     ethr =  4.08E-08,  avg # of iterations =  2.0

     negative rho (up, down):  3.680E-02 0.000E+00

     total cpu time spent up to now is     5658.4 secs

     total energy              =  -29673.49395280 Ry
     estimated scf accuracy    <       0.00022881 Ry

     iteration # 20     ecut=    30.00 Ry     beta= 0.70
     Davidson diagonalization with overlap

---- Real-time Memory Report at c_bands before calling an iterative solver
           295 MiB given to the printing process from OS
             0 MiB allocation reported by mallinfo(arena+hblkhd)
        181795 MiB available memory on the node where the printing process lives
------------------
     ethr =  1.73E-08,  avg # of iterations =  2.0

     negative rho (up, down):  3.677E-02 0.000E+00

     total cpu time spent up to now is     5891.4 secs

     total energy              =  -29673.49396483 Ry
     estimated scf accuracy    <       0.00024253 Ry

     iteration # 21     ecut=    30.00 Ry     beta= 0.70
     Davidson diagonalization with overlap

---- Real-time Memory Report at c_bands before calling an iterative solver
           295 MiB given to the printing process from OS
             0 MiB allocation reported by mallinfo(arena+hblkhd)
        181796 MiB available memory on the node where the printing process lives
------------------
     ethr =  1.73E-08,  avg # of iterations =  1.8

     negative rho (up, down):  3.674E-02 0.000E+00

     total cpu time spent up to now is     6114.3 secs

     total energy              =  -29673.49397406 Ry
     estimated scf accuracy    <       0.00002057 Ry

     iteration # 22     ecut=    30.00 Ry     beta= 0.70
     Davidson diagonalization with overlap

---- Real-time Memory Report at c_bands before calling an iterative solver
           295 MiB given to the printing process from OS
             0 MiB allocation reported by mallinfo(arena+hblkhd)
        181797 MiB available memory on the node where the printing process lives
------------------
     ethr =  1.55E-09,  avg # of iterations =  2.0

     negative rho (up, down):  3.672E-02 0.000E+00

     total cpu time spent up to now is     6347.3 secs

     total energy              =  -29673.49397524 Ry
     estimated scf accuracy    <       0.00001816 Ry

     iteration # 23     ecut=    30.00 Ry     beta= 0.70
     Davidson diagonalization with overlap

---- Real-time Memory Report at c_bands before calling an iterative solver
           295 MiB given to the printing process from OS
             0 MiB allocation reported by mallinfo(arena+hblkhd)
        181797 MiB available memory on the node where the printing process lives
------------------
     ethr =  1.37E-09,  avg # of iterations =  2.0

     negative rho (up, down):  3.672E-02 0.000E+00

     total cpu time spent up to now is     6578.2 secs

     total energy              =  -29673.49397570 Ry
     estimated scf accuracy    <       0.00001007 Ry

     iteration # 24     ecut=    30.00 Ry     beta= 0.70
     Davidson diagonalization with overlap

---- Real-time Memory Report at c_bands before calling an iterative solver
           295 MiB given to the printing process from OS
             0 MiB allocation reported by mallinfo(arena+hblkhd)
        181798 MiB available memory on the node where the printing process lives
------------------
     ethr =  7.60E-10,  avg # of iterations =  2.0

     negative rho (up, down):  3.671E-02 0.000E+00

     total cpu time spent up to now is     6810.6 secs

     total energy              =  -29673.49397352 Ry
     estimated scf accuracy    <       0.00006908 Ry

     iteration # 25     ecut=    30.00 Ry     beta= 0.70
     Davidson diagonalization with overlap

---- Real-time Memory Report at c_bands before calling an iterative solver
           295 MiB given to the printing process from OS
             0 MiB allocation reported by mallinfo(arena+hblkhd)
        181797 MiB available memory on the node where the printing process lives
------------------
     ethr =  7.60E-10,  avg # of iterations =  1.0

     negative rho (up, down):  3.671E-02 0.000E+00

     total cpu time spent up to now is     7001.2 secs

     total energy              =  -29673.49397587 Ry
     estimated scf accuracy    <       0.00000865 Ry

     iteration # 26     ecut=    30.00 Ry     beta= 0.70
     Davidson diagonalization with overlap

---- Real-time Memory Report at c_bands before calling an iterative solver
           295 MiB given to the printing process from OS
             0 MiB allocation reported by mallinfo(arena+hblkhd)
        181797 MiB available memory on the node where the printing process lives
------------------
     ethr =  6.53E-10,  avg # of iterations =  2.0

     negative rho (up, down):  3.671E-02 0.000E+00

     total cpu time spent up to now is     7233.0 secs

     total energy              =  -29673.49397632 Ry
     estimated scf accuracy    <       0.00000124 Ry

     iteration # 27     ecut=    30.00 Ry     beta= 0.70
     Davidson diagonalization with overlap

---- Real-time Memory Report at c_bands before calling an iterative solver
           295 MiB given to the printing process from OS
             0 MiB allocation reported by mallinfo(arena+hblkhd)
        181797 MiB available memory on the node where the printing process lives
------------------
     ethr =  9.37E-11,  avg # of iterations =  2.0

     negative rho (up, down):  3.670E-02 0.000E+00

     total cpu time spent up to now is     7466.3 secs

     End of self-consistent calculation

          k = 0.0000 0.0000 0.0000 ( 42115 PWs)   bands (ev):

  -128.4165-128.4067-128.3330-128.2795-128.2089-128.1899-128.1896-128.1864
  -128.1324-128.1196-128.0282-127.9790-127.9682-127.8859-127.8167-127.7776
  -124.8945-124.8773-124.8135-124.7620-124.6794-124.6677-124.6674-124.6667
  -124.5953-124.5880-124.5077-124.4568-124.4537-124.3591-124.2969-124.2637
  -123.3214-123.3186-123.2409-123.2383-123.2213-123.2169-123.1522-123.1138
  -123.0960-123.0905-123.0812-123.0724-123.0692-123.0445-123.0341-123.0323
  -123.0310-123.0303-123.0138-122.9375-122.9304-122.9278-122.9229-122.9130
  -122.9026-122.8993-122.8735-122.8722-122.8291-122.8267-122.7537-122.7152
   -85.8815 -85.8713 -85.7990 -85.7488 -85.6798 -85.6553 -85.6532 -85.6528
   -85.6015 -85.5892 -85.4961 -85.4570 -85.4365 -85.3574 -85.2962 -85.2636
   -80.9977 -80.9812 -80.9760 -80.9557 -80.8915 -80.8850 -80.8556 -80.8252
   -80.7659 -80.7612 -80.7542 -80.7471 -80.7419 -80.7391 -80.7381 -80.7363
   -80.7352 -80.6856 -80.6718 -80.6566 -80.5844 -80.5749 -80.5499 -80.5303
   -80.5286 -80.5187 -80.4418 -80.4198 -80.3780 -80.3594 -80.3442 -80.3195
   -79.3613 -79.3471 -79.3361 -79.3243 -79.2724 -79.2665 -79.2324 -79.2095
   -79.1373 -79.1325 -79.1277 -79.1255 -79.1240 -79.1236 -79.1204 -79.1041
   -79.0660 -79.0385 -79.0234 -79.0060 -78.9669 -78.9591 -78.9134 -78.9012
   -78.8999 -78.8818 -78.8219 -78.8007 -78.7465 -78.7315 -78.7158 -78.6967
   -77.4261 -77.4150 -77.4082 -77.4042 -77.3973 -77.3947 -77.3432 -77.3316
   -77.3288 -77.3246 -77.3237 -77.3213 -77.3184 -77.3104 -77.3047 -77.3017
   -77.3007 -77.2937 -77.2573 -77.2471 -77.2381 -77.2364 -77.2348 -77.2126
   -77.1997 -77.1951 -77.1944 -77.1924 -77.1884 -77.1780 -77.1746 -77.1738
   -77.1727 -77.1720 -77.1708 -77.1660 -77.1648 -77.1636 -77.1605 -77.1577
   -77.1528 -77.1504 -77.1460 -77.1423 -77.1404 -77.1352 -77.1306 -77.1275
   -77.1266 -77.1253 -77.1232 -77.1200 -77.1177 -77.1144 -77.1140 -77.1125
   -77.1120 -77.1052 -77.1038 -77.1033 -77.0928 -77.0472 -77.0379 -77.0356
   -77.0342 -77.0339 -77.0309 -77.0285 -77.0252 -77.0229 -77.0226 -77.0203
   -77.0182 -77.0149 -77.0109 -77.0070 -77.0043 -77.0029 -77.0010 -77.0000
   -76.9982 -76.9975 -76.9914 -76.9883 -76.9833 -76.9819 -76.9815 -76.9683
   -76.9663 -76.9635 -76.9606 -76.9560 -76.9503 -76.9486 -76.9378 -76.9306
   -76.9294 -76.9158 -76.9072 -76.8936 -76.8681 -76.8544 -76.8451 -76.8416
   -76.8273 -76.8240 -76.8119 -76.8093 -76.8001 -76.7210 -76.6712 -76.6379
   -17.7797 -16.4339 -14.8614 -13.4475 -12.1680 -12.0591 -12.0248 -12.0054
   -11.9623 -11.9145 -11.8661 -11.8353 -11.8161 -11.8037 -11.7795 -11.7691
   -11.7391 -11.7183 -11.7144 -11.6938 -11.6710 -11.6336 -11.6182 -11.5872
   -11.5619 -11.5463 -11.5192 -11.5091 -11.4978 -11.4850 -11.4626 -11.4425
   -11.4143 -11.4068 -11.3934 -11.3731 -11.3124 -11.3058 -11.2946 -11.2745
   -11.2638 -11.2423 -11.2152 -11.1795 -11.1524 -11.0671 -11.0618 -11.0104
   -11.0094 -10.9316 -10.8219 -10.8207 -10.3570  -9.7642  -8.5957  -8.5252
    -8.3990  -8.3474  -8.3191  -8.2598  -8.2530  -8.2225  -8.1094  -8.1003
    -8.0757  -7.9861  -7.9631  -7.9089  -7.8733  -7.8363  -7.7763  -7.7078
    -7.6712  -7.6192  -7.5840  -7.5347  -7.5068  -7.4740  -7.4357  -7.4207
    -7.3861  -7.3727  -7.3360  -7.3154  -7.1980  -7.1789  -7.1610  -7.1294
    -6.6895  -6.4660  -5.9062  -5.8514  -5.7683  -5.6626  -5.6270  -5.5871
    -5.5457  -5.4931  -5.4592  -5.4056  -5.4010  -5.3938  -5.3827  -5.3510
    -5.3416  -5.3307  -5.2970  -5.2884  -5.2844  -5.2626  -5.2283  -5.2065
    -5.2009  -5.1471  -5.1301  -5.0919  -5.0566  -5.0486  -5.0297  -5.0283
    -5.0065  -4.9914  -4.9798  -4.9465  -4.9343  -4.9088  -4.8738  -4.8520
    -4.8394  -4.8172  -4.8028  -4.7703  -4.7512  -4.7158  -4.6879  -4.6473
    -4.6427  -4.5891  -4.5860  -4.5517  -4.5424  -4.5300  -4.5214  -4.5029
    -4.4821  -4.4764  -4.4504  -4.4412  -4.4269  -4.4122  -4.3985  -4.3879
    -4.3690  -4.3625  -4.3466  -4.3348  -4.3201  -4.3056  -4.2896  -4.2883
    -4.2817  -4.2721  -4.2612  -4.2547  -4.2343  -4.2335  -4.2268  -4.2179
    -4.2146  -4.2010  -4.1980  -4.1733  -4.1711  -4.1623  -4.1595  -4.1547
    -4.1467  -4.1247  -4.1090  -4.0986  -4.0915  -4.0845  -4.0804  -4.0792
    -4.0615  -4.0547  -4.0483  -4.0380  -4.0348  -4.0281  -4.0203  -4.0157
    -4.0075  -4.0013  -3.9901  -3.9868  -3.9835  -3.9767  -3.9725  -3.9703
    -3.9553  -3.9499  -3.9408  -3.9393  -3.9255  -3.9214  -3.9115  -3.9066
    -3.9007  -3.8965  -3.8834  -3.8793  -3.8734  -3.8718  -3.8695  -3.8618
    -3.8573  -3.8538  -3.8520  -3.8427  -3.8403  -3.8352  -3.8280  -3.8193
    -3.8170  -3.8073  -3.7978  -3.7928  -3.7901  -3.7863  -3.7773  -3.7676
    -3.7668  -3.7592  -3.7557  -3.7454  -3.7396  -3.7376  -3.7280  -3.7223
    -3.7205  -3.7141  -3.7082  -3.7019  -3.6990  -3.6833  -3.6729  -3.6701
    -3.6677  -3.6664  -3.6592  -3.6548  -3.6478  -3.6420  -3.6404  -3.6327
    -3.6312  -3.6265  -3.6245  -3.6121  -3.6118  -3.6041  -3.5971  -3.5891
    -3.5886  -3.5835  -3.5728  -3.5690  -3.5648  -3.5557  -3.5533  -3.5481
    -3.5465  -3.5417  -3.5376  -3.5325  -3.5277  -3.5157  -3.5130  -3.5103
    -3.5058  -3.4975  -3.4926  -3.4889  -3.4817  -3.4779  -3.4728  -3.4712
    -3.4615  -3.4573  -3.4537  -3.4475  -3.4460  -3.4365  -3.4316  -3.4291
    -3.4209  -3.4151  -3.4093  -3.4004  -3.3947  -3.3825  -3.3705  -3.3701
    -3.3606  -3.3497  -3.3328  -3.3175  -3.3067  -3.2835  -3.2775  -3.2723
    -3.2635  -3.2427  -3.2196  -3.2049  -3.1739  -3.1659  -3.1587  -3.1403
    -3.1172  -3.0771  -3.0617  -3.0512  -3.0354  -3.0219  -2.9960  -2.9856
    -2.9809  -2.9319  -2.9231  -2.9063  -2.8857  -2.8734  -2.8512  -2.7712
    -2.7473  -2.7161  -2.6865  -2.6432  -2.6320  -2.6068  -2.5766  -2.5640
    -2.5100  -2.5010  -2.3904  -2.3680  -2.3588  -2.2643  -1.8711  -1.8310
    -1.7862  -1.2523  -1.1203  -0.9822  -0.9459  -0.8540  -0.7642  -0.6981
    -0.5521  -0.3810  -0.3722  -0.3683  -0.2757  -0.2576  -0.1679  -0.0837
     0.1125   0.1600   0.1949   0.2805   0.3461   0.3973   0.5082   0.5358
     0.5966   0.8155   0.9027   0.9717   1.0244   1.1930   1.3202   1.4983
     1.5173   1.6322   1.6602   1.7336   1.8595   1.9293   2.1639   2.1927
     2.2270   2.2715   2.3334   2.4166   2.4326   2.5191   2.5501   2.6703
     2.7304   2.8386   3.0328   3.0834   3.1927   3.3747   3.4060   3.5050
     3.5203   3.6384   3.6961   3.8135   3.8267   3.8713   3.9813   4.0918
     4.2216   4.3086   4.3634   4.5195   4.6318   4.7712   4.8529   4.9745
     5.0178   5.0992   5.2705   5.5618   5.6568   5.7031   5.7958   5.8929
     5.9870   6.1356   6.2349   6.2728   6.3602   6.4994   6.5210   6.5580
     6.6659   6.7121   6.7455   6.8059   6.8412   6.8767   6.9528   7.0280
     7.1167   7.1812   7.2170   7.2412   7.2935   7.3869   7.4045   7.4485
     7.5009   7.5495   7.6131   7.7133   7.7878   7.8819   7.9109   7.9729
     8.0298   8.0659   8.1438   8.1834   8.2307   8.3068   8.3325   8.3601
     8.3986   8.4269   8.4654   8.5515   8.6021   8.6641   8.6910   8.7455
     8.7824   8.8483   8.8827   8.9326   8.9501   8.9748   9.0298   9.0479
     9.0964   9.1478   9.2113   9.2496   9.2891   9.3013   9.3376   9.3563
     9.4173   9.4389   9.4853   9.5180   9.5728   9.6027   9.6820   9.7632
     9.7729   9.8566   9.9313   9.9557  10.0059  10.1049  10.1526  10.1669
    10.3482  10.3849  10.4265  10.5048  10.5447  10.5636  10.6144  10.6560
    10.6635  10.7041  10.7671  10.7925  10.8116  10.8611  10.9322  10.9454
    10.9720  10.9875  11.0166  11.0536  11.0789  11.1252  11.2164  11.2243
    11.2697  11.3079

     occupation numbers 
     1.0000   1.0000   1.0000   1.0000   1.0000   1.0000   1.0000   1.0000
     1.0000   1.0000   1.0000   1.0000   1.0000   1.0000   1.0000   1.0000
     1.0000   1.0000   1.0000   1.0000   1.0000   1.0000   1.0000   1.0000
     1.0000   1.0000   1.0000   1.0000   1.0000   1.0000   1.0000   1.0000
     1.0000   1.0000   1.0000   1.0000   1.0000   1.0000   1.0000   1.0000
     1.0000   1.0000   1.0000   1.0000   1.0000   1.0000   1.0000   1.0000
     1.0000   1.0000   1.0000   1.0000   1.0000   1.0000   1.0000   1.0000
     1.0000   1.0000   1.0000   1.0000   1.0000   1.0000   1.0000   1.0000
     1.0000   1.0000   1.0000   1.0000   1.0000   1.0000   1.0000   1.0000
     1.0000   1.0000   1.0000   1.0000   1.0000   1.0000   1.0000   1.0000
     1.0000   1.0000   1.0000   1.0000   1.0000   1.0000   1.0000   1.0000
     1.0000   1.0000   1.0000   1.0000   1.0000   1.0000   1.0000   1.0000
     1.0000   1.0000   1.0000   1.0000   1.0000   1.0000   1.0000   1.0000
     1.0000   1.0000   1.0000   1.0000   1.0000   1.0000   1.0000   1.0000
     1.0000   1.0000   1.0000   1.0000   1.0000   1.0000   1.0000   1.0000
     1.0000   1.0000   1.0000   1.0000   1.0000   1.0000   1.0000   1.0000
     1.0000   1.0000   1.0000   1.0000   1.0000   1.0000   1.0000   1.0000
     1.0000   1.0000   1.0000   1.0000   1.0000   1.0000   1.0000   1.0000
     1.0000   1.0000   1.0000   1.0000   1.0000   1.0000   1.0000   1.0000
     1.0000   1.0000   1.0000   1.0000   1.0000   1.0000   1.0000   1.0000
     1.0000   1.0000   1.0000   1.0000   1.0000   1.0000   1.0000   1.0000
     1.0000   1.0000   1.0000   1.0000   1.0000   1.0000   1.0000   1.0000
     1.0000   1.0000   1.0000   1.0000   1.0000   1.0000   1.0000   1.0000
     1.0000   1.0000   1.0000   1.0000   1.0000   1.0000   1.0000   1.0000
     1.0000   1.0000   1.0000   1.0000   1.0000   1.0000   1.0000   1.0000
     1.0000   1.0000   1.0000   1.0000   1.0000   1.0000   1.0000   1.0000
     1.0000   1.0000   1.0000   1.0000   1.0000   1.0000   1.0000   1.0000
     1.0000   1.0000   1.0000   1.0000   1.0000   1.0000   1.0000   1.0000
     1.0000   1.0000   1.0000   1.0000   1.0000   1.0000   1.0000   1.0000
     1.0000   1.0000   1.0000   1.0000   1.0000   1.0000   1.0000   1.0000
     1.0000   1.0000   1.0000   1.0000   1.0000   1.0000   1.0000   1.0000
     1.0000   1.0000   1.0000   1.0000   1.0000   1.0000   1.0000   1.0000
     1.0000   1.0000   1.0000   1.0000   1.0000   1.0000   1.0000   1.0000
     1.0000   1.0000   1.0000   1.0000   1.0000   1.0000   1.0000   1.0000
     1.0000   1.0000   1.0000   1.0000   1.0000   1.0000   1.0000   1.0000
     1.0000   1.0000   1.0000   1.0000   1.0000   1.0000   1.0000   1.0000
     1.0000   1.0000   1.0000   1.0000   1.0000   1.0000   1.0000   1.0000
     1.0000   1.0000   1.0000   1.0000   1.0000   1.0000   1.0000   1.0000
     1.0000   1.0000   1.0000   1.0000   1.0000   1.0000   1.0000   1.0000
     1.0000   1.0000   1.0000   1.0000   1.0000   1.0000   1.0000   1.0000
     1.0000   1.0000   1.0000   1.0000   1.0000   1.0000   1.0000   1.0000
     1.0000   1.0000   1.0000   1.0000   1.0000   1.0000   1.0000   1.0000
     1.0000   1.0000   1.0000   1.0000   1.0000   1.0000   1.0000   1.0000
     1.0000   1.0000   1.0000   1.0000   1.0000   1.0000   1.0000   1.0000
     1.0000   1.0000   1.0000   1.0000   1.0000   1.0000   1.0000   1.0000
     1.0000   1.0000   1.0000   1.0000   1.0000   1.0000   1.0000   1.0000
     1.0000   1.0000   1.0000   1.0000   1.0000   1.0000   1.0000   1.0000
     1.0000   1.0000   1.0000   1.0000   1.0000   1.0000   1.0000   1.0000
     1.0000   1.0000   1.0000   1.0000   1.0000   1.0000   1.0000   1.0000
     1.0000   1.0000   1.0000   1.0000   1.0000   1.0000   1.0000   1.0000
     1.0000   1.0000   1.0000   1.0000   1.0000   1.0000   1.0000   1.0000
     1.0000   1.0000   1.0000   1.0000   1.0000   1.0000   1.0000   1.0000
     1.0000   1.0000   1.0000   1.0000   1.0000   1.0000   1.0000   1.0000
     1.0000   1.0000   1.0000   1.0000   1.0000   1.0000   1.0000   1.0000
     1.0000   1.0000   1.0000   1.0000   1.0000   1.0000   1.0000   1.0000
     1.0000   1.0000   1.0000   1.0000   1.0000   1.0000   1.0000   1.0000
     1.0000   1.0000   1.0000   1.0000   1.0000   1.0000   1.0000   1.0000
     1.0000   1.0000   1.0000   1.0000   1.0000   1.0000   1.0000   1.0000
     1.0000   1.0000   1.0000   1.0000   1.0000   1.0000   1.0000   1.0000
     1.0000   1.0000   1.0000   1.0000   1.0000   1.0000   1.0000   1.0000
     1.0000   1.0000   1.0000   1.0000   1.0000   1.0000   1.0000   1.0000
     1.0000   1.0000   1.0000   1.0000   1.0000   1.0000   1.0000   1.0000
     1.0000   1.0000   1.0000   1.0000   1.0000   1.0000   1.0000   1.0000
     1.0000   1.0000   1.0000   1.0000   1.0000   1.0000   1.0000   1.0000
     1.0000   1.0000   1.0000   1.0000   1.0000   1.0000   1.0000   1.0000
     1.0000   1.0000   1.0000   1.0000   1.0000   1.0000   1.0000   1.0000
     1.0000   1.0000   1.0000   1.0000   1.0000   1.0000   1.0000   1.0000
     1.0000   1.0000   1.0000   1.0000   1.0000   1.0000   1.0000   1.0000
     1.0000   1.0000   1.0000   1.0000   1.0000   1.0000   1.0000   1.0000
     1.0000   1.0000   1.0000   1.0000   1.0000   1.0000   1.0000   1.0000
     1.0000   1.0000   1.0000   1.0000   1.0000   1.0000   1.0000   1.0000
     1.0000   1.0000   1.0000   1.0000   1.0000   1.0000   1.0000   1.0000
     1.0000   1.0000   1.0000   1.0000   1.0000   1.0000   1.0000   1.0000
     1.0000   1.0000   1.0000   1.0000   1.0000   1.0000   1.0000   1.0000
     1.0000   1.0000   1.0000   1.0000   1.0000   1.0000   1.0000   1.0000
     1.0000   1.0000   1.0000   1.0000   1.0000   1.0000   1.0000   1.0000
     1.0000   1.0000   1.0000   1.0000   1.0000   1.0000   1.0000   1.0000
     1.0000   1.0000   1.0000   1.0000   1.0000   1.0000   1.0000   1.0000
     1.0000   1.0000   1.0000   1.0000   1.0000   1.0000   1.0000   1.0000
     1.0000   1.0000   1.0000   1.0000   1.0000   1.0000   1.0000   1.0000
     1.0000   1.0000   1.0000   1.0000   1.0000   1.0000   1.0000   1.0000
     1.0000   1.0000   1.0000   1.0000   1.0000   1.0000   1.0001   1.0007
     1.0019   1.0088   1.0565   1.0729   1.0755   0.8201   0.7411   0.4710
     0.4308   0.1798   0.1037   0.0261   0.0219   0.0116   0.0020   0.0002
     0.0000   0.0000   0.0000   0.0000   0.0000   0.0000   0.0000   0.0000
     0.0000   0.0000   0.0000   0.0000   0.0000   0.0000   0.0000   0.0000
     0.0000   0.0000   0.0000   0.0000   0.0000   0.0000   0.0000   0.0000
     0.0000   0.0000   0.0000   0.0000   0.0000   0.0000   0.0000   0.0000
     0.0000   0.0000   0.0000   0.0000   0.0000   0.0000   0.0000   0.0000
     0.0000   0.0000   0.0000   0.0000   0.0000   0.0000   0.0000   0.0000
     0.0000   0.0000   0.0000   0.0000   0.0000   0.0000   0.0000   0.0000
     0.0000   0.0000   0.0000   0.0000   0.0000   0.0000   0.0000   0.0000
     0.0000   0.0000   0.0000   0.0000   0.0000   0.0000   0.0000   0.0000
     0.0000   0.0000   0.0000   0.0000   0.0000   0.0000   0.0000   0.0000
     0.0000   0.0000   0.0000   0.0000   0.0000   0.0000   0.0000   0.0000
     0.0000   0.0000   0.0000   0.0000   0.0000   0.0000   0.0000   0.0000
     0.0000   0.0000   0.0000   0.0000   0.0000   0.0000   0.0000   0.0000
     0.0000   0.0000   0.0000   0.0000   0.0000   0.0000   0.0000   0.0000
     0.0000   0.0000   0.0000   0.0000   0.0000   0.0000   0.0000   0.0000
     0.0000   0.0000

          k = 0.0000 0.3849 0.0000 ( 42150 PWs)   bands (ev):

  -128.4165-128.4067-128.3330-128.2795-128.2089-128.1899-128.1895-128.1865
  -128.1323-128.1197-128.0282-127.9790-127.9682-127.8859-127.8167-127.7777
  -124.8946-124.8775-124.8136-124.7622-124.6796-124.6679-124.6675-124.6669
  -124.5957-124.5879-124.5079-124.4570-124.4539-124.3593-124.2971-124.2638
  -123.3215-123.3188-123.2411-123.2385-123.2214-123.2170-123.1524-123.1139
  -123.0961-123.0906-123.0813-123.0725-123.0694-123.0446-123.0343-123.0324
  -123.0312-123.0305-123.0139-122.9377-122.9306-122.9280-122.9231-122.9131
  -122.9028-122.8995-122.8737-122.8723-122.8291-122.8270-122.7538-122.7154
   -85.8822 -85.8719 -85.7997 -85.7494 -85.6804 -85.6561 -85.6538 -85.6533
   -85.6016 -85.5904 -85.4967 -85.4577 -85.4372 -85.3580 -85.2969 -85.2643
   -80.9972 -80.9815 -80.9755 -80.9558 -80.8920 -80.8849 -80.8553 -80.8255
   -80.7666 -80.7613 -80.7543 -80.7468 -80.7417 -80.7394 -80.7378 -80.7366
   -80.7356 -80.6854 -80.6718 -80.6570 -80.5843 -80.5753 -80.5499 -80.5308
   -80.5286 -80.5187 -80.4417 -80.4201 -80.3779 -80.3596 -80.3442 -80.3197
   -79.3617 -79.3477 -79.3368 -79.3247 -79.2733 -79.2669 -79.2328 -79.2103
   -79.1378 -79.1330 -79.1284 -79.1267 -79.1249 -79.1238 -79.1210 -79.1045
   -79.0657 -79.0389 -79.0239 -79.0079 -78.9673 -78.9599 -78.9142 -78.9017
   -78.9003 -78.8826 -78.8223 -78.8015 -78.7469 -78.7323 -78.7162 -78.6976
   -77.4270 -77.4151 -77.4088 -77.4045 -77.3977 -77.3954 -77.3442 -77.3316
   -77.3293 -77.3251 -77.3246 -77.3218 -77.3191 -77.3107 -77.3052 -77.3019
   -77.3011 -77.2943 -77.2585 -77.2477 -77.2386 -77.2369 -77.2354 -77.2132
   -77.1999 -77.1955 -77.1952 -77.1933 -77.1891 -77.1783 -77.1751 -77.1742
   -77.1732 -77.1726 -77.1715 -77.1662 -77.1654 -77.1644 -77.1611 -77.1585
   -77.1535 -77.1506 -77.1464 -77.1424 -77.1406 -77.1357 -77.1313 -77.1281
   -77.1277 -77.1254 -77.1238 -77.1208 -77.1180 -77.1150 -77.1149 -77.1129
   -77.1126 -77.1055 -77.1044 -77.1039 -77.0933 -77.0479 -77.0385 -77.0360
   -77.0355 -77.0341 -77.0312 -77.0283 -77.0274 -77.0237 -77.0234 -77.0205
   -77.0189 -77.0153 -77.0114 -77.0076 -77.0046 -77.0033 -77.0013 -77.0006
   -76.9987 -76.9978 -76.9920 -76.9885 -76.9839 -76.9825 -76.9818 -76.9693
   -76.9672 -76.9644 -76.9614 -76.9562 -76.9509 -76.9495 -76.9387 -76.9310
   -76.9297 -76.9168 -76.9080 -76.8938 -76.8690 -76.8549 -76.8458 -76.8420
   -76.8281 -76.8250 -76.8121 -76.8102 -76.8008 -76.7219 -76.6721 -76.6388
   -17.7797 -16.4339 -14.8614 -13.4477 -12.1681 -12.0594 -12.0250 -12.0056
   -11.9629 -11.9156 -11.8667 -11.8354 -11.8169 -11.8047 -11.7808 -11.7694
   -11.7404 -11.7185 -11.7145 -11.6947 -11.6713 -11.6345 -11.6189 -11.5875
   -11.5623 -11.5471 -11.5199 -11.5094 -11.4980 -11.4861 -11.4632 -11.4429
   -11.4153 -11.4085 -11.3941 -11.3734 -11.3124 -11.3054 -11.2956 -11.2748
   -11.2643 -11.2432 -11.2149 -11.1796 -11.1533 -11.0663 -11.0624 -11.0103
   -11.0101 -10.9315 -10.8226 -10.8212 -10.3570  -9.7646  -8.5959  -8.5251
    -8.3983  -8.3474  -8.3187  -8.2597  -8.2528  -8.2225  -8.1091  -8.1003
    -8.0759  -7.9849  -7.9637  -7.9093  -7.8728  -7.8330  -7.7761  -7.7062
    -7.6655  -7.6177  -7.5807  -7.5125  -7.4996  -7.4723  -7.4332  -7.4186
    -7.3865  -7.3653  -7.3361  -7.3114  -7.1981  -7.1795  -7.1581  -7.1302
    -6.7012  -6.5092  -5.9312  -5.9035  -5.8302  -5.7338  -5.6377  -5.5984
    -5.5607  -5.5056  -5.4844  -5.4400  -5.4054  -5.3948  -5.3853  -5.3624
    -5.3478  -5.3363  -5.3128  -5.2927  -5.2839  -5.2639  -5.2409  -5.2205
    -5.2062  -5.1914  -5.1143  -5.0895  -5.0579  -5.0493  -5.0326  -5.0269
    -5.0075  -4.9969  -4.9820  -4.9460  -4.9330  -4.9192  -4.8515  -4.8469
    -4.8335  -4.8170  -4.7960  -4.7599  -4.7262  -4.6963  -4.6607  -4.6238
    -4.5998  -4.5900  -4.5732  -4.5476  -4.5445  -4.5192  -4.5099  -4.4924
    -4.4742  -4.4674  -4.4452  -4.4333  -4.4181  -4.4149  -4.4030  -4.3874
    -4.3653  -4.3531  -4.3422  -4.3302  -4.3261  -4.3148  -4.2992  -4.2863
    -4.2784  -4.2709  -4.2629  -4.2478  -4.2407  -4.2246  -4.2197  -4.2116
    -4.1980  -4.1876  -4.1817  -4.1725  -4.1713  -4.1670  -4.1478  -4.1441
    -4.1367  -4.1310  -4.1176  -4.1093  -4.0972  -4.0896  -4.0805  -4.0693
    -4.0584  -4.0534  -4.0435  -4.0391  -4.0360  -4.0276  -4.0206  -4.0129
    -4.0000  -3.9946  -3.9904  -3.9885  -3.9815  -3.9739  -3.9655  -3.9618
    -3.9556  -3.9495  -3.9463  -3.9393  -3.9329  -3.9181  -3.9131  -3.9092
    -3.9005  -3.8962  -3.8912  -3.8859  -3.8775  -3.8711  -3.8655  -3.8600
    -3.8584  -3.8516  -3.8471  -3.8433  -3.8379  -3.8257  -3.8206  -3.8145
    -3.8113  -3.8087  -3.8041  -3.7954  -3.7884  -3.7826  -3.7783  -3.7703
    -3.7587  -3.7534  -3.7512  -3.7450  -3.7399  -3.7332  -3.7246  -3.7194
    -3.7161  -3.7098  -3.7062  -3.7002  -3.6917  -3.6813  -3.6795  -3.6742
    -3.6685  -3.6591  -3.6519  -3.6487  -3.6435  -3.6375  -3.6325  -3.6291
    -3.6233  -3.6171  -3.6076  -3.6050  -3.6010  -3.5961  -3.5880  -3.5823
    -3.5787  -3.5737  -3.5681  -3.5610  -3.5577  -3.5490  -3.5453  -3.5418
    -3.5390  -3.5354  -3.5217  -3.5198  -3.5137  -3.5115  -3.5080  -3.5062
    -3.5005  -3.4969  -3.4941  -3.4880  -3.4829  -3.4773  -3.4702  -3.4648
    -3.4609  -3.4567  -3.4519  -3.4470  -3.4419  -3.4362  -3.4293  -3.4200
    -3.4163  -3.4113  -3.3992  -3.3962  -3.3925  -3.3848  -3.3753  -3.3608
    -3.3467  -3.3435  -3.3362  -3.3232  -3.3091  -3.2919  -3.2837  -3.2738
    -3.2516  -3.2260  -3.2186  -3.2030  -3.1939  -3.1873  -3.1675  -3.1408
    -3.1142  -3.0836  -3.0713  -3.0533  -3.0358  -3.0064  -2.9952  -2.9810
    -2.9635  -2.9161  -2.8928  -2.8898  -2.8475  -2.8186  -2.7654  -2.7299
    -2.7023  -2.6792  -2.6462  -2.6311  -2.6065  -2.5755  -2.5723  -2.5339
    -2.4632  -2.4199  -2.4004  -2.3674  -2.3212  -2.2047  -2.0137  -1.8051
    -1.5946  -1.5187  -1.4534  -1.2989  -1.1025  -1.0296  -0.9268  -0.8344
    -0.7319  -0.6917  -0.6493  -0.5463  -0.4220  -0.3787  -0.2499  -0.0461
     0.0896   0.1150   0.1825   0.2450   0.3070   0.3975   0.5090   0.5617
     0.6747   0.7261   0.8642   1.0357   1.2034   1.2459   1.3552   1.4425
     1.6135   1.6828   1.7741   1.8584   1.9357   1.9634   2.0294   2.2485
     2.3027   2.3712   2.4296   2.5342   2.5850   2.6486   2.7746   2.9057
     3.1195   3.2142   3.2827   3.4498   3.5101   3.5873   3.6364   3.7174
     3.7375   3.8397   3.8704   3.9992   4.0325   4.1075   4.1519   4.2753
     4.3519   4.4069   4.4638   4.5035   4.5824   4.7191   4.7733   4.8461
     4.9563   5.0722   5.1037   5.2580   5.3414   5.3511   5.5171   5.5590
     5.5971   5.6838   5.7472   5.9161   6.0503   6.1994   6.2950   6.3548
     6.4622   6.5177   6.5337   6.6483   6.6671   6.7681   6.8293   6.8888
     6.9204   6.9864   7.0448   7.0999   7.1442   7.1961   7.2618   7.3445
     7.3723   7.4395   7.4900   7.6130   7.6829   7.7454   7.7756   7.8132
     7.8878   7.9504   8.0388   8.0788   8.1894   8.2304   8.3742   8.3889
     8.4328   8.5127   8.5284   8.6118   8.6482   8.7057   8.7377   8.7762
     8.8214   8.8694   8.9197   8.9459   8.9872   9.0487   9.0960   9.1432
     9.1725   9.1922   9.2658   9.3002   9.3461   9.3944   9.4656   9.4877
     9.5373   9.6068   9.6653   9.7116   9.7505   9.7851   9.8759   9.9058
     9.9575   9.9884  10.0322  10.0550  10.0938  10.1212  10.1688  10.2079
    10.2939  10.3264  10.3606  10.4109  10.4328  10.4701  10.5245  10.5627
    10.5870  10.6603  10.6996  10.7302  10.8011  10.8877  10.9425  10.9633
    11.0114  11.0942  11.1389  11.1845  11.2491  11.2739  11.3220  11.3337
    11.3798  11.4455

     occupation numbers 
     1.0000   1.0000   1.0000   1.0000   1.0000   1.0000   1.0000   1.0000
     1.0000   1.0000   1.0000   1.0000   1.0000   1.0000   1.0000   1.0000
     1.0000   1.0000   1.0000   1.0000   1.0000   1.0000   1.0000   1.0000
     1.0000   1.0000   1.0000   1.0000   1.0000   1.0000   1.0000   1.0000
     1.0000   1.0000   1.0000   1.0000   1.0000   1.0000   1.0000   1.0000
     1.0000   1.0000   1.0000   1.0000   1.0000   1.0000   1.0000   1.0000
     1.0000   1.0000   1.0000   1.0000   1.0000   1.0000   1.0000   1.0000
     1.0000   1.0000   1.0000   1.0000   1.0000   1.0000   1.0000   1.0000
     1.0000   1.0000   1.0000   1.0000   1.0000   1.0000   1.0000   1.0000
     1.0000   1.0000   1.0000   1.0000   1.0000   1.0000   1.0000   1.0000
     1.0000   1.0000   1.0000   1.0000   1.0000   1.0000   1.0000   1.0000
     1.0000   1.0000   1.0000   1.0000   1.0000   1.0000   1.0000   1.0000
     1.0000   1.0000   1.0000   1.0000   1.0000   1.0000   1.0000   1.0000
     1.0000   1.0000   1.0000   1.0000   1.0000   1.0000   1.0000   1.0000
     1.0000   1.0000   1.0000   1.0000   1.0000   1.0000   1.0000   1.0000
     1.0000   1.0000   1.0000   1.0000   1.0000   1.0000   1.0000   1.0000
     1.0000   1.0000   1.0000   1.0000   1.0000   1.0000   1.0000   1.0000
     1.0000   1.0000   1.0000   1.0000   1.0000   1.0000   1.0000   1.0000
     1.0000   1.0000   1.0000   1.0000   1.0000   1.0000   1.0000   1.0000
     1.0000   1.0000   1.0000   1.0000   1.0000   1.0000   1.0000   1.0000
     1.0000   1.0000   1.0000   1.0000   1.0000   1.0000   1.0000   1.0000
     1.0000   1.0000   1.0000   1.0000   1.0000   1.0000   1.0000   1.0000
     1.0000   1.0000   1.0000   1.0000   1.0000   1.0000   1.0000   1.0000
     1.0000   1.0000   1.0000   1.0000   1.0000   1.0000   1.0000   1.0000
     1.0000   1.0000   1.0000   1.0000   1.0000   1.0000   1.0000   1.0000
     1.0000   1.0000   1.0000   1.0000   1.0000   1.0000   1.0000   1.0000
     1.0000   1.0000   1.0000   1.0000   1.0000   1.0000   1.0000   1.0000
     1.0000   1.0000   1.0000   1.0000   1.0000   1.0000   1.0000   1.0000
     1.0000   1.0000   1.0000   1.0000   1.0000   1.0000   1.0000   1.0000
     1.0000   1.0000   1.0000   1.0000   1.0000   1.0000   1.0000   1.0000
     1.0000   1.0000   1.0000   1.0000   1.0000   1.0000   1.0000   1.0000
     1.0000   1.0000   1.0000   1.0000   1.0000   1.0000   1.0000   1.0000
     1.0000   1.0000   1.0000   1.0000   1.0000   1.0000   1.0000   1.0000
     1.0000   1.0000   1.0000   1.0000   1.0000   1.0000   1.0000   1.0000
     1.0000   1.0000   1.0000   1.0000   1.0000   1.0000   1.0000   1.0000
     1.0000   1.0000   1.0000   1.0000   1.0000   1.0000   1.0000   1.0000
     1.0000   1.0000   1.0000   1.0000   1.0000   1.0000   1.0000   1.0000
     1.0000   1.0000   1.0000   1.0000   1.0000   1.0000   1.0000   1.0000
     1.0000   1.0000   1.0000   1.0000   1.0000   1.0000   1.0000   1.0000
     1.0000   1.0000   1.0000   1.0000   1.0000   1.0000   1.0000   1.0000
     1.0000   1.0000   1.0000   1.0000   1.0000   1.0000   1.0000   1.0000
     1.0000   1.0000   1.0000   1.0000   1.0000   1.0000   1.0000   1.0000
     1.0000   1.0000   1.0000   1.0000   1.0000   1.0000   1.0000   1.0000
     1.0000   1.0000   1.0000   1.0000   1.0000   1.0000   1.0000   1.0000
     1.0000   1.0000   1.0000   1.0000   1.0000   1.0000   1.0000   1.0000
     1.0000   1.0000   1.0000   1.0000   1.0000   1.0000   1.0000   1.0000
     1.0000   1.0000   1.0000   1.0000   1.0000   1.0000   1.0000   1.0000
     1.0000   1.0000   1.0000   1.0000   1.0000   1.0000   1.0000   1.0000
     1.0000   1.0000   1.0000   1.0000   1.0000   1.0000   1.0000   1.0000
     1.0000   1.0000   1.0000   1.0000   1.0000   1.0000   1.0000   1.0000
     1.0000   1.0000   1.0000   1.0000   1.0000   1.0000   1.0000   1.0000
     1.0000   1.0000   1.0000   1.0000   1.0000   1.0000   1.0000   1.0000
     1.0000   1.0000   1.0000   1.0000   1.0000   1.0000   1.0000   1.0000
     1.0000   1.0000   1.0000   1.0000   1.0000   1.0000   1.0000   1.0000
     1.0000   1.0000   1.0000   1.0000   1.0000   1.0000   1.0000   1.0000
     1.0000   1.0000   1.0000   1.0000   1.0000   1.0000   1.0000   1.0000
     1.0000   1.0000   1.0000   1.0000   1.0000   1.0000   1.0000   1.0000
     1.0000   1.0000   1.0000   1.0000   1.0000   1.0000   1.0000   1.0000
     1.0000   1.0000   1.0000   1.0000   1.0000   1.0000   1.0000   1.0000
     1.0000   1.0000   1.0000   1.0000   1.0000   1.0000   1.0000   1.0000
     1.0000   1.0000   1.0000   1.0000   1.0000   1.0000   1.0000   1.0000
     1.0000   1.0000   1.0000   1.0000   1.0000   1.0000   1.0000   1.0000
     1.0000   1.0000   1.0000   1.0000   1.0000   1.0000   1.0000   1.0000
     1.0000   1.0000   1.0000   1.0000   1.0000   1.0000   1.0000   1.0000
     1.0000   1.0000   1.0000   1.0000   1.0000   1.0000   1.0000   1.0000
     1.0000   1.0000   1.0000   1.0000   1.0000   1.0000   1.0000   1.0000
     1.0000   1.0000   1.0000   1.0000   1.0000   1.0000   1.0000   1.0000
     1.0000   1.0000   1.0000   1.0000   1.0000   1.0000   1.0000   1.0000
     1.0000   1.0000   1.0000   1.0000   1.0000   1.0000   1.0000   1.0000
     1.0000   1.0000   1.0000   1.0000   1.0000   1.0000   1.0000   1.0000
     1.0000   1.0000   1.0000   1.0000   1.0000   1.0000   1.0000   1.0000
     1.0000   1.0000   1.0000   1.0000   1.0000   1.0000   1.0000   1.0000
     1.0000   1.0000   1.0000   1.0000   1.0000   1.0000   1.0000   1.0000
     1.0000   1.0000   1.0000   1.0000   1.0000   1.0000   1.0000   1.0000
     1.0000   1.0000   1.0000   1.0000   1.0000   1.0000   1.0000   1.0000
     1.0000   1.0000   1.0000   1.0000   1.0000   1.0000   1.0000   1.0000
     1.0000   1.0000   1.0000   1.0000   1.0000   1.0000   1.0000   1.0000
     1.0000   1.0000   1.0000   1.0000   1.0000   1.0000   1.0000   1.0000
     1.0000   1.0000   1.0000   1.0000   1.0000   1.0000   1.0000   1.0000
     1.0000   1.0000   1.0000   1.0000   1.0000   1.0000   1.0000   1.0000
     1.0000   1.0000   1.0000   1.0000   1.0000   1.0000   1.0000   1.0000
     1.0000   1.0000   1.0000   1.0000   1.0001   1.0005   1.0037   1.0193
     1.0810   1.0654   0.9983   0.6222   0.4573   0.2734   0.1831   0.0829
     0.0664   0.0183   0.0118   0.0014   0.0008   0.0002   0.0001   0.0000
     0.0000   0.0000   0.0000   0.0000   0.0000   0.0000   0.0000   0.0000
     0.0000   0.0000   0.0000   0.0000   0.0000   0.0000   0.0000   0.0000
     0.0000   0.0000   0.0000   0.0000   0.0000   0.0000   0.0000   0.0000
     0.0000   0.0000   0.0000   0.0000   0.0000   0.0000   0.0000   0.0000
     0.0000   0.0000   0.0000   0.0000   0.0000   0.0000   0.0000   0.0000
     0.0000   0.0000   0.0000   0.0000   0.0000   0.0000   0.0000   0.0000
     0.0000   0.0000   0.0000   0.0000   0.0000   0.0000   0.0000   0.0000
     0.0000   0.0000   0.0000   0.0000   0.0000   0.0000   0.0000   0.0000
     0.0000   0.0000   0.0000   0.0000   0.0000   0.0000   0.0000   0.0000
     0.0000   0.0000   0.0000   0.0000   0.0000   0.0000   0.0000   0.0000
     0.0000   0.0000   0.0000   0.0000   0.0000   0.0000   0.0000   0.0000
     0.0000   0.0000   0.0000   0.0000   0.0000   0.0000   0.0000   0.0000
     0.0000   0.0000   0.0000   0.0000   0.0000   0.0000   0.0000   0.0000
     0.0000   0.0000   0.0000   0.0000   0.0000   0.0000   0.0000   0.0000
     0.0000   0.0000   0.0000   0.0000   0.0000   0.0000   0.0000   0.0000
     0.0000   0.0000

          k = 0.3333 0.1925 0.0000 ( 42150 PWs)   bands (ev):

  -128.4166-128.4068-128.3332-128.2796-128.2090-128.1900-128.1895-128.1867
  -128.1322-128.1199-128.0283-127.9791-127.9683-127.8861-127.8168-127.7778
  -124.8947-124.8775-124.8137-124.7622-124.6796-124.6679-124.6676-124.6669
  -124.5957-124.5880-124.5079-124.4570-124.4539-124.3593-124.2971-124.2639
  -123.3216-123.3188-123.2411-123.2385-123.2214-123.2170-123.1524-123.1140
  -123.0961-123.0906-123.0813-123.0725-123.0694-123.0446-123.0342-123.0324
  -123.0312-123.0305-123.0139-122.9376-122.9306-122.9280-122.9231-122.9131
  -122.9028-122.8995-122.8737-122.8724-122.8291-122.8270-122.7538-122.7154
   -85.8819 -85.8718 -85.7995 -85.7495 -85.6806 -85.6561 -85.6536 -85.6533
   -85.6014 -85.5904 -85.4969 -85.4576 -85.4373 -85.3581 -85.2970 -85.2644
   -80.9969 -80.9823 -80.9767 -80.9553 -80.8924 -80.8845 -80.8552 -80.8260
   -80.7668 -80.7613 -80.7549 -80.7479 -80.7417 -80.7396 -80.7387 -80.7369
   -80.7352 -80.6850 -80.6714 -80.6571 -80.5843 -80.5757 -80.5496 -80.5309
   -80.5297 -80.5186 -80.4416 -80.4206 -80.3778 -80.3602 -80.3441 -80.3203
   -79.3622 -79.3473 -79.3364 -79.3250 -79.2733 -79.2673 -79.2328 -79.2101
   -79.1378 -79.1328 -79.1288 -79.1260 -79.1252 -79.1235 -79.1210 -79.1049
   -79.0651 -79.0393 -79.0242 -79.0082 -78.9673 -78.9597 -78.9140 -78.9017
   -78.9007 -78.8825 -78.8223 -78.8013 -78.7469 -78.7322 -78.7162 -78.6974
   -77.4267 -77.4152 -77.4085 -77.4046 -77.3978 -77.3955 -77.3438 -77.3318
   -77.3290 -77.3250 -77.3243 -77.3219 -77.3192 -77.3108 -77.3050 -77.3020
   -77.3012 -77.2944 -77.2578 -77.2476 -77.2387 -77.2371 -77.2349 -77.2131
   -77.1999 -77.1964 -77.1952 -77.1930 -77.1885 -77.1783 -77.1752 -77.1741
   -77.1729 -77.1723 -77.1715 -77.1663 -77.1654 -77.1640 -77.1605 -77.1586
   -77.1538 -77.1507 -77.1463 -77.1425 -77.1406 -77.1356 -77.1315 -77.1279
   -77.1274 -77.1255 -77.1239 -77.1207 -77.1179 -77.1151 -77.1147 -77.1133
   -77.1125 -77.1056 -77.1044 -77.1041 -77.0934 -77.0478 -77.0384 -77.0360
   -77.0349 -77.0343 -77.0313 -77.0280 -77.0267 -77.0236 -77.0231 -77.0209
   -77.0189 -77.0153 -77.0116 -77.0078 -77.0046 -77.0035 -77.0011 -77.0004
   -76.9987 -76.9980 -76.9921 -76.9884 -76.9842 -76.9825 -76.9819 -76.9692
   -76.9669 -76.9643 -76.9614 -76.9562 -76.9512 -76.9490 -76.9386 -76.9310
   -76.9299 -76.9166 -76.9082 -76.8938 -76.8689 -76.8548 -76.8459 -76.8420
   -76.8276 -76.8249 -76.8122 -76.8102 -76.8008 -76.7218 -76.6720 -76.6386
   -17.7797 -16.4340 -14.8614 -13.4478 -12.1691 -12.0593 -12.0245 -12.0069
   -11.9630 -11.9158 -11.8590 -11.8351 -11.8167 -11.8027 -11.7848 -11.7685
   -11.7425 -11.7237 -11.7134 -11.6965 -11.6721 -11.6303 -11.6182 -11.5786
   -11.5627 -11.5535 -11.5186 -11.5109 -11.4995 -11.4874 -11.4630 -11.4395
   -11.4218 -11.4084 -11.3988 -11.3739 -11.3118 -11.2980 -11.2949 -11.2743
   -11.2645 -11.2404 -11.2191 -11.1763 -11.1535 -11.0669 -11.0632 -11.0106
   -11.0097 -10.9315 -10.8225 -10.8211 -10.3570  -9.7646  -8.5961  -8.5293
    -8.3982  -8.3502  -8.3240  -8.2595  -8.2517  -8.2137  -8.0996  -8.0928
    -8.0655  -8.0057  -7.9637  -7.8946  -7.8779  -7.8363  -7.7744  -7.7031
    -7.6721  -7.6107  -7.5907  -7.5224  -7.5067  -7.4894  -7.4384  -7.4062
    -7.3745  -7.3572  -7.3167  -7.2810  -7.2046  -7.1830  -7.1559  -7.1361
    -6.7835  -6.6080  -6.0785  -5.9059  -5.7567  -5.6458  -5.6139  -5.5682
    -5.5094  -5.4909  -5.4577  -5.4172  -5.4012  -5.3934  -5.3741  -5.3461
    -5.3314  -5.3158  -5.2970  -5.2865  -5.2672  -5.2625  -5.2404  -5.1975
    -5.1872  -5.1448  -5.1116  -5.0906  -5.0624  -5.0411  -5.0314  -5.0200
    -4.9962  -4.9947  -4.9789  -4.9616  -4.9444  -4.9223  -4.8572  -4.8450
    -4.8255  -4.8200  -4.7945  -4.7635  -4.7171  -4.7029  -4.6591  -4.6328
    -4.6147  -4.5937  -4.5722  -4.5527  -4.5382  -4.5233  -4.5153  -4.5042
    -4.4732  -4.4600  -4.4454  -4.4336  -4.4225  -4.4121  -4.3988  -4.3782
    -4.3595  -4.3554  -4.3460  -4.3268  -4.3231  -4.3161  -4.2997  -4.2875
    -4.2713  -4.2651  -4.2613  -4.2507  -4.2463  -4.2319  -4.2213  -4.2109
    -4.2038  -4.1896  -4.1840  -4.1782  -4.1721  -4.1673  -4.1593  -4.1524
    -4.1427  -4.1249  -4.1151  -4.1072  -4.0955  -4.0863  -4.0804  -4.0738
    -4.0685  -4.0615  -4.0505  -4.0417  -4.0354  -4.0283  -4.0175  -4.0152
    -4.0122  -4.0025  -3.9989  -3.9943  -3.9873  -3.9762  -3.9717  -3.9678
    -3.9601  -3.9552  -3.9461  -3.9388  -3.9319  -3.9266  -3.9197  -3.9026
    -3.8980  -3.8942  -3.8898  -3.8773  -3.8732  -3.8705  -3.8655  -3.8584
    -3.8542  -3.8488  -3.8428  -3.8398  -3.8285  -3.8242  -3.8193  -3.8089
    -3.8055  -3.8021  -3.7972  -3.7934  -3.7871  -3.7787  -3.7723  -3.7644
    -3.7588  -3.7544  -3.7462  -3.7380  -3.7366  -3.7277  -3.7244  -3.7187
    -3.7114  -3.7071  -3.7004  -3.6917  -3.6868  -3.6824  -3.6764  -3.6680
    -3.6615  -3.6564  -3.6520  -3.6466  -3.6448  -3.6367  -3.6282  -3.6265
    -3.6213  -3.6189  -3.6112  -3.6093  -3.6028  -3.5992  -3.5939  -3.5864
    -3.5839  -3.5748  -3.5711  -3.5672  -3.5621  -3.5548  -3.5521  -3.5435
    -3.5400  -3.5366  -3.5342  -3.5297  -3.5246  -3.5200  -3.5179  -3.5075
    -3.5040  -3.4996  -3.4951  -3.4932  -3.4880  -3.4829  -3.4773  -3.4711
    -3.4655  -3.4593  -3.4517  -3.4460  -3.4415  -3.4333  -3.4311  -3.4264
    -3.4244  -3.4174  -3.4064  -3.4001  -3.3908  -3.3867  -3.3753  -3.3695
    -3.3510  -3.3455  -3.3364  -3.3173  -3.3068  -3.2972  -3.2745  -3.2651
    -3.2537  -3.2305  -3.2207  -3.2071  -3.1881  -3.1734  -3.1623  -3.1423
    -3.0968  -3.0810  -3.0667  -3.0561  -3.0377  -3.0190  -3.0145  -2.9990
    -2.9776  -2.9065  -2.8909  -2.8778  -2.8522  -2.8253  -2.7715  -2.7469
    -2.7364  -2.7191  -2.6597  -2.6344  -2.6201  -2.5801  -2.5683  -2.5158
    -2.4977  -2.4115  -2.3834  -2.3568  -2.3164  -2.2055  -2.0722  -2.0096
    -1.8805  -1.7550  -1.4248  -1.3179  -1.0793  -1.0223  -0.8184  -0.6966
    -0.6705  -0.5139  -0.3944  -0.3785  -0.3374  -0.2805  -0.1841  -0.1340
     0.0220   0.1795   0.2399   0.2991   0.4389   0.5087   0.5278   0.5476
     0.6737   0.8310   0.9114   0.9486   1.0839   1.1763   1.3461   1.4402
     1.5229   1.5620   1.6965   1.7632   1.8111   1.9357   2.1057   2.1785
     2.2750   2.3934   2.5398   2.6151   2.6875   2.7212   2.8497   2.9736
     3.0705   3.2131   3.2474   3.3459   3.3919   3.5115   3.5747   3.6503
     3.7383   3.8078   3.8605   3.9675   4.0027   4.0360   4.1500   4.2403
     4.3249   4.3867   4.4722   4.5187   4.6414   4.6690   4.7470   4.7953
     4.8464   4.9719   5.0274   5.1357   5.2584   5.4444   5.4930   5.5455
     5.6069   5.7209   5.8195   5.9400   5.9861   6.1005   6.2598   6.4047
     6.4516   6.5228   6.6285   6.6962   6.7897   6.8091   6.8631   6.9153
     7.0112   7.0841   7.1365   7.1802   7.2982   7.3304   7.3833   7.4505
     7.4757   7.5398   7.5817   7.6522   7.6784   7.7213   7.7859   7.8221
     7.8862   7.9341   7.9816   8.0537   8.1313   8.2117   8.2309   8.2899
     8.3635   8.4486   8.5146   8.5545   8.5748   8.6598   8.7277   8.7526
     8.8794   8.9051   8.9580   8.9835   9.0300   9.0667   9.1458   9.1718
     9.1913   9.2606   9.3217   9.3491   9.3791   9.4175   9.4770   9.5042
     9.5623   9.6177   9.6568   9.6778   9.7389   9.8013   9.8380   9.8794
     9.9237   9.9689  10.0232  10.0425  10.0879  10.1404  10.1809  10.2084
    10.2513  10.2935  10.3333  10.3607  10.4222  10.4900  10.5023  10.5557
    10.6601  10.6983  10.7205  10.7864  10.8399  10.8675  10.9147  10.9551
    11.0154  11.0354  11.0732  11.1168  11.2056  11.2357  11.2904  11.3549
    11.3919  11.4361

     occupation numbers 
     1.0000   1.0000   1.0000   1.0000   1.0000   1.0000   1.0000   1.0000
     1.0000   1.0000   1.0000   1.0000   1.0000   1.0000   1.0000   1.0000
     1.0000   1.0000   1.0000   1.0000   1.0000   1.0000   1.0000   1.0000
     1.0000   1.0000   1.0000   1.0000   1.0000   1.0000   1.0000   1.0000
     1.0000   1.0000   1.0000   1.0000   1.0000   1.0000   1.0000   1.0000
     1.0000   1.0000   1.0000   1.0000   1.0000   1.0000   1.0000   1.0000
     1.0000   1.0000   1.0000   1.0000   1.0000   1.0000   1.0000   1.0000
     1.0000   1.0000   1.0000   1.0000   1.0000   1.0000   1.0000   1.0000
     1.0000   1.0000   1.0000   1.0000   1.0000   1.0000   1.0000   1.0000
     1.0000   1.0000   1.0000   1.0000   1.0000   1.0000   1.0000   1.0000
     1.0000   1.0000   1.0000   1.0000   1.0000   1.0000   1.0000   1.0000
     1.0000   1.0000   1.0000   1.0000   1.0000   1.0000   1.0000   1.0000
     1.0000   1.0000   1.0000   1.0000   1.0000   1.0000   1.0000   1.0000
     1.0000   1.0000   1.0000   1.0000   1.0000   1.0000   1.0000   1.0000
     1.0000   1.0000   1.0000   1.0000   1.0000   1.0000   1.0000   1.0000
     1.0000   1.0000   1.0000   1.0000   1.0000   1.0000   1.0000   1.0000
     1.0000   1.0000   1.0000   1.0000   1.0000   1.0000   1.0000   1.0000
     1.0000   1.0000   1.0000   1.0000   1.0000   1.0000   1.0000   1.0000
     1.0000   1.0000   1.0000   1.0000   1.0000   1.0000   1.0000   1.0000
     1.0000   1.0000   1.0000   1.0000   1.0000   1.0000   1.0000   1.0000
     1.0000   1.0000   1.0000   1.0000   1.0000   1.0000   1.0000   1.0000
     1.0000   1.0000   1.0000   1.0000   1.0000   1.0000   1.0000   1.0000
     1.0000   1.0000   1.0000   1.0000   1.0000   1.0000   1.0000   1.0000
     1.0000   1.0000   1.0000   1.0000   1.0000   1.0000   1.0000   1.0000
     1.0000   1.0000   1.0000   1.0000   1.0000   1.0000   1.0000   1.0000
     1.0000   1.0000   1.0000   1.0000   1.0000   1.0000   1.0000   1.0000
     1.0000   1.0000   1.0000   1.0000   1.0000   1.0000   1.0000   1.0000
     1.0000   1.0000   1.0000   1.0000   1.0000   1.0000   1.0000   1.0000
     1.0000   1.0000   1.0000   1.0000   1.0000   1.0000   1.0000   1.0000
     1.0000   1.0000   1.0000   1.0000   1.0000   1.0000   1.0000   1.0000
[...]
     atom   23 type  1   force =     0.00007760   -0.00020255    0.00023727
     atom   24 type  1   force =     0.00008423    0.00002973    0.00006064
     atom   25 type  1   force =    -0.00000000   -0.00000000   -0.00000000
     atom   26 type  1   force =     0.00000000    0.00000000   -0.00000000
     atom   27 type  1   force =    -0.00000000   -0.00000000   -0.00000000
     atom   28 type  1   force =     0.00000000    0.00000000   -0.00000000
     atom   29 type  1   force =    -0.00000000    0.00000000    0.00000000
     atom   30 type  1   force =    -0.00000000   -0.00000000    0.00000000
     atom   31 type  1   force =     0.00013503   -0.00015474    0.00018591
     atom   32 type  1   force =    -0.00001858    0.00008135    0.00018633
     atom   33 type  1   force =    -0.00000000    0.00000000   -0.00000000
     atom   34 type  1   force =    -0.00000000   -0.00000000   -0.00000000
     atom   35 type  1   force =     0.00000000    0.00000000   -0.00000000
     atom   36 type  1   force =    -0.00000000   -0.00000000   -0.00000000
     atom   37 type  1   force =     0.00000000   -0.00000000    0.00000000
     atom   38 type  1   force =    -0.00000000    0.00000000    0.00000000
     atom   39 type  1   force =     0.00016199   -0.00013433    0.00020866
     atom   40 type  1   force =    -0.00015649    0.00007248    0.00009941
     atom   41 type  1   force =    -0.00000000   -0.00000000   -0.00000000
     atom   42 type  1   force =    -0.00000000   -0.00000000   -0.00000000
     atom   43 type  1   force =    -0.00000000    0.00000000   -0.00000000
     atom   44 type  1   force =    -0.00000000   -0.00000000   -0.00000000
     atom   45 type  1   force =    -0.00000000    0.00000000    0.00000000
     atom   46 type  1   force =    -0.00000000   -0.00000000    0.00000000
     atom   47 type  1   force =     0.00003857   -0.00013845    0.00024381
     atom   48 type  1   force =    -0.00023744    0.00013610    0.00007564
     atom   49 type  1   force =     0.00000000   -0.00000000   -0.00000000
     atom   50 type  1   force =     0.00000000    0.00000000   -0.00000000
     atom   51 type  1   force =    -0.00000000   -0.00000000   -0.00000000
     atom   52 type  1   force =     0.00000000   -0.00000000    0.00000000
     atom   53 type  1   force =    -0.00000000   -0.00000000    0.00000000
     atom   54 type  1   force =     0.00000000    0.00000000    0.00000000
     atom   55 type  1   force =    -0.00015266    0.00001038    0.00015627
     atom   56 type  1   force =     0.00014758   -0.00000078    0.00016626
     atom   57 type  1   force =     0.00000000    0.00000000   -0.00000000
     atom   58 type  1   force =     0.00000000    0.00000000   -0.00000000
     atom   59 type  1   force =     0.00000000    0.00000000    0.00000000
     atom   60 type  1   force =     0.00000000    0.00000000   -0.00000000
     atom   61 type  1   force =     0.00000000    0.00000000    0.00000000
     atom   62 type  1   force =     0.00000000   -0.00000000    0.00000000
     atom   63 type  1   force =    -0.00002468   -0.00004817    0.00022580
     atom   64 type  1   force =     0.00023702    0.00004679    0.00015226
     atom   65 type  2   force =    -0.00005494   -0.00002057   -0.00000345
     atom   66 type  2   force =    -0.00005659   -0.00002824   -0.00001369
     atom   67 type  2   force =    -0.00006013   -0.00002984   -0.00001507
     atom   68 type  2   force =    -0.00007928   -0.00004088    0.00004193
     atom   69 type  2   force =    -0.00011471   -0.00006203   -0.00005337
     atom   70 type  2   force =     0.00000163    0.00000120   -0.00004968
     atom   71 type  2   force =    -0.00007312   -0.00003861    0.00004220
     atom   72 type  3   force =     0.00008819    0.00004850   -0.00003739
     atom   73 type  3   force =    -0.00013015   -0.00007372   -0.00023530
     atom   74 type  4   force =    -0.00005826   -0.00003206   -0.00000065
     atom   75 type  4   force =    -0.00005363   -0.00002938    0.00000213
     atom   76 type  4   force =     0.00001949    0.00000981   -0.00005074
     atom   77 type  4   force =    -0.00002187   -0.00001195    0.00000441
     atom   78 type  4   force =    -0.00001181   -0.00000637    0.00000604
     atom   79 type  4   force =     0.00001069    0.00000639    0.00002000

     Total force =     1.368560     Total SCF correction =     0.001080


     Computing stress (Cartesian axis) and pressure


     negative rho (up, down):  2.747E-02 0.000E+00
          total   stress  (Ry/bohr**3)                   (kbar)     P=      201.35
  -0.00118263  -0.00001229  -0.00002674         -173.97       -1.81       -3.93
  -0.00001229   0.00707145  -0.00003234           -1.81     1040.25       -4.76
  -0.00002674  -0.00003234  -0.00178257           -3.93       -4.76     -262.23

     kinetic stress (kbar)  17387.67    -21.49     -0.97
                              -21.49  17339.72      3.75
                               -0.97      3.75  17393.90

     local   stress (kbar)**********   -335.04  -1674.40
                             -335.04**********  10262.80
                            -1674.40  10262.801499693.32

     nonloc. stress (kbar)  -1761.61      0.56     -0.40
                                0.56  -1916.26     -3.67
                               -0.40     -3.67  -1741.48

     hartree stress (kbar) 781418.61     58.60    743.66
                               58.60 799058.61  -4812.78
                              743.66  -4812.78-701887.22

     exc-cor stress (kbar)  -8464.87      1.77      0.19
                                1.77  -8447.94     -0.28
                                0.19     -0.28  -8466.63

     corecor stress (kbar)    -79.80     -0.86      0.11
                               -0.86    -78.82      0.04
                                0.11      0.04    -80.34

     ewald   stress (kbar) 695811.64    294.65    927.88
                              294.65 727895.15  -5454.61
                              927.88  -5454.61-805173.76

     hubbard stress (kbar)      0.00      0.00      0.00
                                0.00      0.00      0.00
                                0.00      0.00      0.00

     DFT-D   stress (kbar)      0.00      0.00      0.00
                                0.00      0.00      0.00
                                0.00      0.00      0.00

     XDM     stress (kbar)      0.00      0.00      0.00
                                0.00      0.00      0.00
                                0.00      0.00      0.00

     dft-nl  stress (kbar)      0.00      0.00      0.00
                                0.00      0.00      0.00
                                0.00      0.00      0.00

     TS-vdW  stress (kbar)      0.00      0.00      0.00
                                0.00      0.00      0.00
                                0.00      0.00      0.00

     MDB     stress (kbar)      0.00      0.00      0.00
                                0.00      0.00      0.00
                                0.00      0.00      0.00

     3D-RISM stress (kbar)      0.00      0.00      0.00
                                0.00      0.00      0.00
                                0.00      0.00      0.00

     Energy error            =      4.8E-01 Ry
     Gradient error          =      5.5E-01 Ry/Bohr

     number of scf cycles    =   4
     number of bfgs steps    =   3

     energy             old  =  -29682.5324851911 Ry
     energy             new  =  -29683.0167325826 Ry

     CASE: energy            _new < energy            _old

     new trust radius        =       0.4703206185 bohr
     new conv_thr            =       0.0000007350 Ry


ATOMIC_POSITIONS (angstrom)
Zn               1.2182902100        1.3071799380        0.7547006810    0   0   0
Zn               1.2182902100        6.5358996490        0.7547006810    0   0   0
Zn               1.2182902100        0.0000000010        3.0188027470    0   0   0
Zn               1.2182902100        5.2287197120        3.0188027470    0   0   0
Zn               1.2185726075       -1.3073880994        5.6729282852    0   0   0
Zn               1.2186851431        3.9215451479        5.6720151579    0   0   0
Zn               1.3259804845       -2.2325409564        8.3614035095
Zn               1.1913252563        2.5073868943        8.2827851245
Zn               1.2182902100        3.9215397940        0.7547006810    0   0   0
Zn               1.2182902100        9.1502595050        0.7547006810    0   0   0
Zn               1.2182902100        2.6143598570        3.0188027470    0   0   0
Zn               1.2182902100        7.8430795680        3.0188027470    0   0   0
Zn               1.2186883199        1.3072854268        5.6723424169    0   0   0
Zn               1.2185625130        6.5357747424        5.6727099542    0   0   0
Zn               1.1996092329        0.0911392339        8.2999310958
Zn               0.9499922997        4.7560891237        8.2950518830
Zn               6.0914510490        1.3071799380        0.7547006810    0   0   0
Zn               6.0914510490        6.5358996490        0.7547006810    0   0   0
Zn               6.0914510490        0.0000000010        3.0188027470    0   0   0
Zn               6.0914510490        5.2287197120        3.0188027470    0   0   0
Zn               6.0911338514       -1.3072242637        5.6748546444    0   0   0
Zn               6.0910857638        3.9213990650        5.6741431289    0   0   0
Zn               6.0188723294       -2.2435124309        8.3830736884
Zn               6.0904058522        2.5102979668        8.3769172947
Zn               6.0914510490        3.9215397940        0.7547006810    0   0   0
Zn               6.0914510490        9.1502595050        0.7547006810    0   0   0
Zn               6.0914510490        2.6143598570        3.0188027470    0   0   0
Zn               6.0914510490        7.8430795680        3.0188027470    0   0   0
Zn               6.0911030401        1.3076064174        5.6744400348    0   0   0
Zn               6.0911314819        6.5354481156        5.6746346244    0   0   0
Zn               6.0865201617        0.0812889390        8.3042094735
Zn               5.9617362541        4.8594882161        8.3199291859
Zn               3.6548706290       -0.0000000190        1.5094013850    0   0   0
Zn               3.6548706290        5.2287196920        1.5094013850    0   0   0
Zn               3.6548706290       -1.3071799560        3.7735034500    0   0   0
Zn               3.6548706290        3.9215397550        3.7735034500    0   0   0
Zn               3.6546710580       -2.6147701593        6.0778389286    0   0   0
Zn               3.6547432516        2.6146750712        6.0771464013    0   0   0
Zn               3.8027927964       -3.5525483165        8.5800296644
Zn               3.6623407972        1.2303896116        8.5657709666
Zn               3.6548706290        2.6143598370        1.5094013850    0   0   0
Zn               3.6548706290        7.8430795480        1.5094013850    0   0   0
Zn               3.6548706290        1.3071799000        3.7735034500    0   0   0
Zn               3.6548706290        6.5358996110        3.7735034500    0   0   0
Zn               3.6547437702        0.0001669099        6.0773502731    0   0   0
Zn               3.6547864959        5.2284186199        6.0775758154    0   0   0
Zn               3.6580880366       -1.1971882055        8.4873051654
Zn               3.7105779864        3.5530240342        8.4807197613
Zn               8.5280314680       -0.0000000190        1.5094013850    0   0   0
Zn               8.5280314680        5.2287196920        1.5094013850    0   0   0
Zn               8.5280314680       -1.3071799560        3.7735034500    0   0   0
Zn               8.5280314680        3.9215397550        3.7735034500    0   0   0
Zn               8.5281647867       -2.6147587956        6.0779299812    0   0   0
Zn               8.5281732184        2.6146472247        6.0772010317    0   0   0
Zn               8.7812128822       -3.4519472385        8.6181402365
Zn               8.5471921766        1.2297709991        8.4510420001
Zn               8.5280314680        2.6143598370        1.5094013850    0   0   0
Zn               8.5280314680        7.8430795480        1.5094013850    0   0   0
Zn               8.5280314680        1.3071799000        3.7735034500    0   0   0
Zn               8.5280314680        6.5358996110        3.7735034500    0   0   0
Zn               8.5282171944       -0.0000137934        6.0774321744    0   0   0
Zn               8.5281738077        5.2286143460        6.0776528160    0   0   0
Zn               8.5534872611       -1.1958354926        8.4777855535
Zn               8.4315026603        3.5454877887        8.4783866912
C                3.9205570816        1.4751461487       10.7622469397
C                2.8547506582        0.9344701798       12.9881968211
C                4.9410484748        2.0517175716       11.4370045293
C                3.7713229135        1.4617541374       13.8086554871
C                5.0773540122        2.1664222783       13.0749343506
C                5.7976129588        2.5145794563       10.6591379543
C                3.8906482053        1.5616016203       15.3489717896
N                2.9928614339        1.0705546797       15.7742058019
N                6.0901355849        2.7465648621       13.9130727031
H                4.8312443127        2.0865713293       15.7169444789
H                6.2095940293        2.8356095281       15.0633753130
H                6.8683153584        3.1529058476       12.9469951610
H                4.9628190653        2.1985107478       17.5269145923
H                4.9503679774        2.2033075807       18.0779552057
H                6.7032707485        3.1205442731       15.6359703888



     Writing config-only to output data dir ./tmp/Zn100_2x4x4_primitive_atoms32_14Avacumn_ABN_bridge_upright_parallel.save/ :
     XML data file
     NEW-OLD atomic charge density approx. for the potential

     Check: negative core charge=   -0.000058

     negative rho (up, down):  2.039E-02 0.000E+00

     total cpu time spent up to now is    26835.6 secs

     Self-consistent Calculation

     iteration #  1     ecut=    30.00 Ry     beta= 0.70
     Davidson diagonalization with overlap

---- Real-time Memory Report at c_bands before calling an iterative solver
           296 MiB given to the printing process from OS
             0 MiB allocation reported by mallinfo(arena+hblkhd)
        182011 MiB available memory on the node where the printing process lives
------------------
     ethr =  1.00E-06,  avg # of iterations = 11.0

     negative rho (up, down):  2.539E-02 0.000E+00

     total cpu time spent up to now is    27571.5 secs

     total energy              =  -29681.78176692 Ry
     estimated scf accuracy    <       2.02302255 Ry

     iteration #  2     ecut=    30.00 Ry     beta= 0.70
     Davidson diagonalization with overlap

---- Real-time Memory Report at c_bands before calling an iterative solver
           296 MiB given to the printing process from OS
             0 MiB allocation reported by mallinfo(arena+hblkhd)
        181912 MiB available memory on the node where the printing process lives
------------------
     ethr =  1.53E-04,  avg # of iterations =  9.4

     negative rho (up, down):  2.496E-02 0.000E+00

     total cpu time spent up to now is    27915.6 secs

     total energy              =  -29673.89820395 Ry
     estimated scf accuracy    <     238.42056175 Ry

     iteration #  3     ecut=    30.00 Ry     beta= 0.70
     Davidson diagonalization with overlap

---- Real-time Memory Report at c_bands before calling an iterative solver
           296 MiB given to the printing process from OS
             0 MiB allocation reported by mallinfo(arena+hblkhd)
        181897 MiB available memory on the node where the printing process lives
------------------
     ethr =  1.53E-04,  avg # of iterations =  7.4

     negative rho (up, down):  2.550E-02 0.000E+00

     total cpu time spent up to now is    28306.3 secs

     total energy              =  -29680.98909534 Ry
     estimated scf accuracy    <      28.43154679 Ry

     iteration #  4     ecut=    30.00 Ry     beta= 0.70
     Davidson diagonalization with overlap

---- Real-time Memory Report at c_bands before calling an iterative solver
           296 MiB given to the printing process from OS
             0 MiB allocation reported by mallinfo(arena+hblkhd)
        181885 MiB available memory on the node where the printing process lives
------------------
     ethr =  1.53E-04,  avg # of iterations = 10.4

     negative rho (up, down):  2.613E-02 0.000E+00

     total cpu time spent up to now is    28622.3 secs

     total energy              =  -29682.14865181 Ry
     estimated scf accuracy    <      19.40846288 Ry

     iteration #  5     ecut=    30.00 Ry     beta= 0.70
     Davidson diagonalization with overlap

---- Real-time Memory Report at c_bands before calling an iterative solver
           296 MiB given to the printing process from OS
             0 MiB allocation reported by mallinfo(arena+hblkhd)
        181869 MiB available memory on the node where the printing process lives
------------------
     ethr =  1.53E-04,  avg # of iterations = 11.0

     negative rho (up, down):  2.722E-02 0.000E+00

     total cpu time spent up to now is    28920.9 secs

     total energy              =  -29683.11570220 Ry
     estimated scf accuracy    <       0.57653916 Ry

     iteration #  6     ecut=    30.00 Ry     beta= 0.70
     Davidson diagonalization with overlap

---- Real-time Memory Report at c_bands before calling an iterative solver
           296 MiB given to the printing process from OS
             0 MiB allocation reported by mallinfo(arena+hblkhd)
        181851 MiB available memory on the node where the printing process lives
------------------
     ethr =  4.35E-05,  avg # of iterations =  3.0

     negative rho (up, down):  2.799E-02 0.000E+00

     total cpu time spent up to now is    29165.6 secs

     total energy              =  -29683.13506879 Ry
     estimated scf accuracy    <       0.72298638 Ry

     iteration #  7     ecut=    30.00 Ry     beta= 0.70
     Davidson diagonalization with overlap

---- Real-time Memory Report at c_bands before calling an iterative solver
           296 MiB given to the printing process from OS
             0 MiB allocation reported by mallinfo(arena+hblkhd)
        181833 MiB available memory on the node where the printing process lives
------------------
     ethr =  4.35E-05,  avg # of iterations =  2.2

     negative rho (up, down):  2.856E-02 0.000E+00

     total cpu time spent up to now is    29398.4 secs

     total energy              =  -29683.16326910 Ry
     estimated scf accuracy    <       0.64474801 Ry

     iteration #  8     ecut=    30.00 Ry     beta= 0.70
     Davidson diagonalization with overlap

---- Real-time Memory Report at c_bands before calling an iterative solver
           296 MiB given to the printing process from OS
             0 MiB allocation reported by mallinfo(arena+hblkhd)
        181817 MiB available memory on the node where the printing process lives
------------------
     ethr =  4.35E-05,  avg # of iterations =  2.0

     negative rho (up, down):  2.911E-02 0.000E+00

     total cpu time spent up to now is    29629.5 secs

     total energy              =  -29683.18210608 Ry
     estimated scf accuracy    <       0.03412716 Ry

     iteration #  9     ecut=    30.00 Ry     beta= 0.70
     Davidson diagonalization with overlap

---- Real-time Memory Report at c_bands before calling an iterative solver
           296 MiB given to the printing process from OS
             0 MiB allocation reported by mallinfo(arena+hblkhd)
        181801 MiB available memory on the node where the printing process lives
------------------
