--------------------------------------------------------------------------
By default, for Open MPI 4.0 and later, infiniband ports on a device
are not used by default.  The intent is to use UCX for these devices.
You can override this policy by setting the btl_openib_allow_ib MCA parameter
to true.

  Local host:              psid07
  Local adapter:           mlx4_0
  Local port:              1

--------------------------------------------------------------------------
--------------------------------------------------------------------------
WARNING: There was an error initializing an OpenFabrics device.

  Local host:   psid07
  Local device: mlx4_0
--------------------------------------------------------------------------

     Program PWSCF v.7.3.1 starts on 20Mar2025 at 11:12:52 

     This program is part of the open-source Quantum ESPRESSO suite
     for quantum simulation of materials; please cite
         "P. Giannozzi et al., J. Phys.:Condens. Matter 21 395502 (2009);
         "P. Giannozzi et al., J. Phys.:Condens. Matter 29 465901 (2017);
         "P. Giannozzi et al., J. Chem. Phys. 152 154105 (2020);
          URL http://www.quantum-espresso.org", 
     in publications or presentations arising from this work. More details at
     http://www.quantum-espresso.org/quote

     Parallel version (MPI), running on    32 processors

     MPI processes distributed on     1 nodes
     187579 MiB available memory on the printing compute node when the environment starts

     Waiting for input...
     Reading input from standard input
Warning: card &CELL ignored
Warning: card   CELL_DOFREE = 'ALL' ignored
Warning: card / ignored

     Current dimensions of program PWSCF are:
     Max number of different atomic species (ntypx) = 10
     Max number of k-points (npk) =  40000
     Max angular momentum in pseudopotentials (lmaxx) =  4
     file C.pbe-n-kjpaw_psl.1.0.0.UPF: wavefunction(s)  2S 2P renormalized

     R & G space division:  proc/nbgrp/npool/nimage =      32
     Subspace diagonalization in iterative solution of the eigenvalue problem:
     one sub-group per band group will be used
     custom distributed-memory algorithm (size of sub-group:  5*  5 procs)


     Parallelization info
     --------------------
     sticks:   dense  smooth     PW     G-vecs:    dense   smooth      PW
     Min         101     101     26                10531    10531    1466
     Max         102     102     27                10543    10543    1481
     Sum        3241    3241    859               337189   337189   47187

     Using Slab Decomposition



     bravais-lattice index     =            0
     lattice parameter (alat)  =      19.7617  a.u.
     unit-cell volume          =   15176.5939 (a.u.)^3
     number of atoms/cell      =           79
     number of atomic types    =            4
     number of electrons       =      1324.00
     number of Kohn-Sham states=          794
     kinetic-energy cutoff     =      30.0000  Ry
     charge density cutoff     =     120.0000  Ry
     scf convergence threshold =      7.3E-07
     mixing beta               =       0.7000
     number of iterations used =            8  plain     mixing
     energy convergence thresh.=      1.0E-05
     force convergence thresh. =      5.0E-04
     Exchange-correlation= PBE
                           (   1   4   3   4   0   0   0)
     nstep                     =          100


     celldm(1)=  19.761696  celldm(2)=   0.000000  celldm(3)=   0.000000
     celldm(4)=   0.000000  celldm(5)=   0.000000  celldm(6)=   0.000000

     crystal axes: (cart. coord. in units of alat)
               a(1) = (   1.000000   0.000000   0.000000 )  
               a(2) = (  -0.500000   0.866025   0.000000 )  
               a(3) = (   0.000000   0.000000   2.270759 )  

     reciprocal axes: (cart. coord. in units 2 pi/alat)
               b(1) = (  1.000000  0.577350 -0.000000 )  
               b(2) = (  0.000000  1.154701  0.000000 )  
               b(3) = (  0.000000 -0.000000  0.440381 )  


     PseudoPot. # 1 for Zn read from file:
     /home/ys/qepseudo/SSSP_1.3.0_PBE_efficiency/Zn_pbe_v1.uspp.F.UPF
     MD5 check sum: df62231357ef9e81f77b2b3087fa5675
     Pseudo is Ultrasoft, Zval = 20.0
     Generated by new atomic code, or converted to UPF format
     Using radial grid of  943 points,  6 beta functions with: 
                l(1) =   0
                l(2) =   0
                l(3) =   1
                l(4) =   1
                l(5) =   2
                l(6) =   2
     Q(r) pseudized with  8 coefficients,  rinner =    1.100   1.100   1.100
                                                       1.100   1.100

     PseudoPot. # 2 for C  read from file:
     /home/ys/qepseudo/SSSP_1.3.0_PBE_efficiency/C.pbe-n-kjpaw_psl.1.0.0.UPF
     MD5 check sum: 5d2aebdfa2cae82b50a7e79e9516da0f
     Pseudo is Projector augmented-wave + core cor, Zval =  4.0
     Generated using "atomic" code by A. Dal Corso  v.5.1
     Shape of augmentation charge: PSQ
     Using radial grid of 1073 points,  4 beta functions with: 
                l(1) =   0
                l(2) =   0
                l(3) =   1
                l(4) =   1
     Q(r) pseudized with 0 coefficients 


     PseudoPot. # 3 for N  read from file:
     /home/ys/qepseudo/SSSP_1.3.0_PBE_efficiency/N.pbe-n-radius_5.UPF
     MD5 check sum: 16739722b17309cd8fe442a2ace49922
     Pseudo is Ultrasoft + core correction, Zval =  5.0
     Generated using "atomic" code by A. Dal Corso  v.5.1
     Using radial grid of 1085 points,  4 beta functions with: 
                l(1) =   0
                l(2) =   0
                l(3) =   1
                l(4) =   1
     Q(r) pseudized with 0 coefficients 


     PseudoPot. # 4 for H  read from file:
     /home/ys/qepseudo/SSSP_1.3.0_PBE_efficiency/H.pbe-rrkjus_psl.1.0.0.UPF
     MD5 check sum: f52b6d4d1c606e5624b1dc7b2218f220
     Pseudo is Ultrasoft, Zval =  1.0
     Generated using "atomic" code by A. Dal Corso  v.5.1
     Using radial grid of  929 points,  2 beta functions with: 
                l(1) =   0
                l(2) =   0
     Q(r) pseudized with 0 coefficients 


     atomic species   valence    mass     pseudopotential
     Zn               20.00    65.38000     Zn( 1.00)
     C                 4.00    12.01070     C ( 1.00)
     N                 5.00    14.00670     N ( 1.00)
     H                 1.00     1.00800     H ( 1.00)

     No symmetry found


                                    s                        frac. trans.

      isym =  1     identity                                     

 cryst.   s( 1) = (     1          0          0      )
                  (     0          1          0      )
                  (     0          0          1      )

 cart.    s( 1) = (  1.0000000  0.0000000  0.0000000 )
                  (  0.0000000  1.0000000  0.0000000 )
                  (  0.0000000  0.0000000  1.0000000 )


   Cartesian axes

     site n.     atom                  positions (alat units)
         1        Zn     tau(   1) = (   0.1164999   0.1250000   0.0721688  )
         2        Zn     tau(   2) = (   0.1164999   0.6250000   0.0721688  )
         3        Zn     tau(   3) = (   0.1164999   0.0000000   0.2886751  )
         4        Zn     tau(   4) = (   0.1164999   0.5000000   0.2886751  )
         5        Zn     tau(   5) = (   0.1165269  -0.1250199   0.5424778  )
         6        Zn     tau(   6) = (   0.1165376   0.3750005   0.5423904  )
         7        Zn     tau(   7) = (   0.1165378  -0.2500279   0.7948841  )
         8        Zn     tau(   8) = (   0.1165433   0.2500373   0.7948360  )
         9        Zn     tau(   9) = (   0.1164999   0.3750000   0.0721688  )
        10        Zn     tau(  10) = (   0.1164999   0.8750000   0.0721688  )
        11        Zn     tau(  11) = (   0.1164999   0.2500000   0.2886751  )
        12        Zn     tau(  12) = (   0.1164999   0.7500000   0.2886751  )
        13        Zn     tau(  13) = (   0.1165379   0.1250101   0.5424217  )
        14        Zn     tau(  14) = (   0.1165259   0.6249881   0.5424569  )
        15        Zn     tau(  15) = (   0.1165411  -0.0000343   0.7948854  )
        16        Zn     tau(  16) = (   0.1165396   0.5000422   0.7948274  )
        17        Zn     tau(  17) = (   0.5824993   0.1250000   0.0721688  )
        18        Zn     tau(  18) = (   0.5824993   0.6250000   0.0721688  )
        19        Zn     tau(  19) = (   0.5824993   0.0000000   0.2886751  )
        20        Zn     tau(  20) = (   0.5824993   0.5000000   0.2886751  )
        21        Zn     tau(  21) = (   0.5824690  -0.1250042   0.5426620  )
        22        Zn     tau(  22) = (   0.5824644   0.3749865   0.5425939  )
        23        Zn     tau(  23) = (   0.5824664  -0.2500343   0.7948659  )
        24        Zn     tau(  24) = (   0.5824526   0.2500446   0.7948269  )
        25        Zn     tau(  25) = (   0.5824993   0.3750000   0.0721688  )
        26        Zn     tau(  26) = (   0.5824993   0.8750000   0.0721688  )
        27        Zn     tau(  27) = (   0.5824993   0.2500000   0.2886751  )
        28        Zn     tau(  28) = (   0.5824993   0.7500000   0.2886751  )
        29        Zn     tau(  29) = (   0.5824660   0.1250408   0.5426223  )
        30        Zn     tau(  30) = (   0.5824687   0.6249568   0.5426409  )
        31        Zn     tau(  31) = (   0.5824611  -0.0000148   0.7948754  )
        32        Zn     tau(  32) = (   0.5824595   0.5000225   0.7948139  )
        33        Zn     tau(  33) = (   0.3494996  -0.0000000   0.1443376  )
        34        Zn     tau(  34) = (   0.3494996   0.5000000   0.1443376  )
        35        Zn     tau(  35) = (   0.3494996  -0.1250000   0.3608439  )
        36        Zn     tau(  36) = (   0.3494996   0.3750000   0.3608439  )
        37        Zn     tau(  37) = (   0.3494805  -0.2500392   0.5811976  )
        38        Zn     tau(  38) = (   0.3494874   0.2500301   0.5811314  )
        39        Zn     tau(  39) = (   0.3496055  -0.3750142   0.8096682  )
        40        Zn     tau(  40) = (   0.3496104   0.1250017   0.8096945  )
        41        Zn     tau(  41) = (   0.3494996   0.2500000   0.1443376  )
        42        Zn     tau(  42) = (   0.3494996   0.7500000   0.1443376  )
        43        Zn     tau(  43) = (   0.3494996   0.1250000   0.3608439  )
        44        Zn     tau(  44) = (   0.3494996   0.6250000   0.3608439  )
        45        Zn     tau(  45) = (   0.3494874   0.0000160   0.5811509  )
        46        Zn     tau(  46) = (   0.3494915   0.4999712   0.5811725  )
        47        Zn     tau(  47) = (   0.3496025  -0.1250491   0.8096982  )
        48        Zn     tau(  48) = (   0.3496124   0.3750343   0.8096633  )
        49        Zn     tau(  49) = (   0.8154990  -0.0000000   0.1443376  )
        50        Zn     tau(  50) = (   0.8154990   0.5000000   0.1443376  )
        51        Zn     tau(  51) = (   0.8154990  -0.1250000   0.3608439  )
        52        Zn     tau(  52) = (   0.8154990   0.3750000   0.3608439  )
        53        Zn     tau(  53) = (   0.8155118  -0.2500381   0.5812063  )
        54        Zn     tau(  54) = (   0.8155126   0.2500275   0.5811366  )
        55        Zn     tau(  55) = (   0.8153993  -0.3750032   0.8097699  )
        56        Zn     tau(  56) = (   0.8153901   0.1249881   0.8097965  )
        57        Zn     tau(  57) = (   0.8154990   0.2500000   0.1443376  )
        58        Zn     tau(  58) = (   0.8154990   0.7500000   0.1443376  )
        59        Zn     tau(  59) = (   0.8154990   0.1250000   0.3608439  )
        60        Zn     tau(  60) = (   0.8154990   0.6250000   0.3608439  )
        61        Zn     tau(  61) = (   0.8155168  -0.0000013   0.5811587  )
        62        Zn     tau(  62) = (   0.8155126   0.4999899   0.5811798  )
        63        Zn     tau(  63) = (   0.8154033  -0.1250559   0.8097984  )
        64        Zn     tau(  64) = (   0.8153872   0.3750442   0.8097656  )
        65        C      tau(  65) = (   0.4568454   0.1403538   1.6573621  )
        66        C      tau(  66) = (   0.4576503   0.1502831   1.5209231  )
        67        C      tau(  67) = (   0.4038136   0.2573225   1.4593247  )
        68        C      tau(  68) = (   0.5123104   0.0532385   1.4451287  )
        69        C      tau(  69) = (   0.5131799   0.0626954   1.3128553  )
        70        C      tau(  70) = (   0.4040783   0.2688297   1.3261040  )
        71        C      tau(  71) = (   0.4592618   0.1699394   1.2506576  )
        72        N      tau(  72) = (   0.4561809   0.1322884   1.7682320  )
        73        N      tau(  73) = (   0.4600131   0.1794151   1.1203313  )
        74        H      tau(  74) = (   0.4992061   0.1101143   1.0657823  )
        75        H      tau(  75) = (   0.4216329   0.2560307   1.0759321  )
        76        H      tau(  76) = (   0.3610783   0.3333539   1.5167008  )
        77        H      tau(  77) = (   0.5544245  -0.0303323   1.4913934  )
        78        H      tau(  78) = (   0.5560571  -0.0136237   1.2557085  )
        79        H      tau(  79) = (   0.3622494   0.3509306   1.2810762  )

   Crystallographic axes

     site n.     atom                  positions (cryst. coord.)
         1        Zn     tau(   1) = (  0.1886686  0.1443376  0.0317818  )
         2        Zn     tau(   2) = (  0.4773438  0.7216878  0.0317818  )
         3        Zn     tau(   3) = (  0.1164999  0.0000000  0.1271272  )
         4        Zn     tau(   4) = (  0.4051750  0.5773503  0.1271272  )
         5        Zn     tau(   5) = (  0.0443466 -0.1443606  0.2388971  )
         6        Zn     tau(   6) = (  0.3330443  0.4330133  0.2388587  )
         7        Zn     tau(   7) = ( -0.0278158 -0.2887073  0.3500522  )
         8        Zn     tau(   8) = (  0.2609024  0.2887182  0.3500310  )
         9        Zn     tau(   9) = (  0.3330062  0.4330127  0.0317818  )
        10        Zn     tau(  10) = (  0.6216813  1.0103630  0.0317818  )
        11        Zn     tau(  11) = (  0.2608374  0.2886751  0.1271272  )
        12        Zn     tau(  12) = (  0.5495126  0.8660254  0.1271272  )
        13        Zn     tau(  13) = (  0.1887125  0.1443492  0.2388725  )
        14        Zn     tau(  14) = (  0.4773629  0.7216740  0.2388879  )
        15        Zn     tau(  15) = (  0.1165213 -0.0000396  0.3500528  )
        16        Zn     tau(  16) = (  0.4052391  0.5773990  0.3500272  )
        17        Zn     tau(  17) = (  0.6546681  0.1443376  0.0317818  )
        18        Zn     tau(  18) = (  0.9433432  0.7216878  0.0317818  )
        19        Zn     tau(  19) = (  0.5824993  0.0000000  0.1271272  )
        20        Zn     tau(  20) = (  0.8711744  0.5773503  0.1271272  )
        21        Zn     tau(  21) = (  0.5102977 -0.1443425  0.2389783  )
        22        Zn     tau(  22) = (  0.7989629  0.4329972  0.2389483  )
        23        Zn     tau(  23) = (  0.4381090 -0.2887148  0.3500442  )
        24        Zn     tau(  24) = (  0.7268159  0.2887266  0.3500270  )
        25        Zn     tau(  25) = (  0.7990056  0.4330127  0.0317818  )
        26        Zn     tau(  26) = (  1.0876808  1.0103630  0.0317818  )
        27        Zn     tau(  27) = (  0.7268369  0.2886751  0.1271272  )
        28        Zn     tau(  28) = (  1.0155120  0.8660254  0.1271272  )
        29        Zn     tau(  29) = (  0.6546583  0.1443847  0.2389608  )
        30        Zn     tau(  30) = (  0.9432877  0.7216380  0.2389690  )
        31        Zn     tau(  31) = (  0.5824526 -0.0000171  0.3500484  )
        32        Zn     tau(  32) = (  0.8711477  0.5773763  0.3500213  )
        33        Zn     tau(  33) = (  0.3494996 -0.0000000  0.0635636  )
        34        Zn     tau(  34) = (  0.6381747  0.5773503  0.0635636  )
        35        Zn     tau(  35) = (  0.2773308 -0.1443376  0.1589090  )
        36        Zn     tau(  36) = (  0.5660059  0.4330127  0.1589090  )
        37        Zn     tau(  37) = (  0.2051203 -0.2887204  0.2559486  )
        38        Zn     tau(  38) = (  0.4938424  0.2887099  0.2559195  )
        39        Zn     tau(  39) = (  0.1330909 -0.4330291  0.3565628  )
        40        Zn     tau(  40) = (  0.4217802  0.1443395  0.3565744  )
        41        Zn     tau(  41) = (  0.4938371  0.2886751  0.0635636  )
        42        Zn     tau(  42) = (  0.7825123  0.8660254  0.0635636  )
        43        Zn     tau(  43) = (  0.4216684  0.1443376  0.1589090  )
        44        Zn     tau(  44) = (  0.7103435  0.7216878  0.1589090  )
        45        Zn     tau(  45) = (  0.3494967  0.0000184  0.2559281  )
        46        Zn     tau(  46) = (  0.6381500  0.5773170  0.2559376  )
        47        Zn     tau(  47) = (  0.2774054 -0.1443943  0.3565760  )
        48        Zn     tau(  48) = (  0.5661385  0.4330523  0.3565607  )
        49        Zn     tau(  49) = (  0.8154990 -0.0000000  0.0635636  )
        50        Zn     tau(  50) = (  1.1041741  0.5773503  0.0635636  )
        51        Zn     tau(  51) = (  0.7433302 -0.1443376  0.1589090  )
        52        Zn     tau(  52) = (  1.0320054  0.4330127  0.1589090  )
        53        Zn     tau(  53) = (  0.6711522 -0.2887192  0.2559525  )
        54        Zn     tau(  54) = (  0.9598660  0.2887069  0.2559218  )
        55        Zn     tau(  55) = (  0.5988911 -0.4330164  0.3566076  )
        56        Zn     tau(  56) = (  0.8875520  0.1443239  0.3566193  )
        57        Zn     tau(  57) = (  0.9598366  0.2886751  0.0635636  )
        58        Zn     tau(  58) = (  1.2485117  0.8660254  0.0635636  )
        59        Zn     tau(  59) = (  0.8876678  0.1443376  0.1589090  )
        60        Zn     tau(  60) = (  1.1763429  0.7216878  0.1589090  )
        61        Zn     tau(  61) = (  0.8155160 -0.0000015  0.2559315  )
        62        Zn     tau(  62) = (  1.1041819  0.5773386  0.2559408  )
        63        Zn     tau(  63) = (  0.7432023 -0.1444021  0.3566202  )
        64        Zn     tau(  64) = (  1.0319191  0.4330637  0.3566058  )
        65        C      tau(  65) = (  0.5378787  0.1620666  0.7298715  )
        66        C      tau(  66) = (  0.5444163  0.1735320  0.6697863  )
        67        C      tau(  67) = (  0.5523789  0.2971305  0.6426595  )
        68        C      tau(  68) = (  0.5430477  0.0614745  0.6364078  )
        69        C      tau(  69) = (  0.5493771  0.0723945  0.5781571  )
        70        C      tau(  70) = (  0.5592872  0.3104178  0.5839916  )
        71        C      tau(  71) = (  0.5573763  0.1962291  0.5507664  )
        72        N      tau(  72) = (  0.5325576  0.1527535  0.7786965  )
        73        N      tau(  73) = (  0.5635985  0.2071707  0.4933731  )
        74        H      tau(  74) = (  0.5627807  0.1271491  0.4693507  )
        75        H      tau(  75) = (  0.5694523  0.2956388  0.4738205  )
        76        H      tau(  76) = (  0.5535403  0.3849239  0.6679268  )
        77        H      tau(  77) = (  0.5369122 -0.0350247  0.6567819  )
        78        H      tau(  78) = (  0.5481915 -0.0157312  0.5529907  )
        79        H      tau(  79) = (  0.5648593  0.4052198  0.5641622  )

     number of k points=     5  Marzari-Vanderbilt smearing, width (Ry)=  0.0200
                       cart. coord. in units 2pi/alat
        k(    1) = (   0.0000000   0.0000000   0.0000000), wk =   0.2222222
        k(    2) = (   0.0000000   0.3849002   0.0000000), wk =   0.4444444
        k(    3) = (   0.3333333   0.1924501   0.0000000), wk =   0.4444444
        k(    4) = (   0.3333333   0.5773503   0.0000000), wk =   0.4444444
        k(    5) = (   0.3333333  -0.1924501   0.0000000), wk =   0.4444444

                       cryst. coord.
        k(    1) = (   0.0000000   0.0000000   0.0000000), wk =   0.2222222
        k(    2) = (   0.0000000   0.3333333   0.0000000), wk =   0.4444444
        k(    3) = (   0.3333333   0.0000000   0.0000000), wk =   0.4444444
        k(    4) = (   0.3333333   0.3333333   0.0000000), wk =   0.4444444
        k(    5) = (   0.3333333  -0.3333333   0.0000000), wk =   0.4444444

     Dense  grid:   337189 G-vectors     FFT dimensions: (  72,  72, 160)

     Dynamical RAM for                 wfc:      15.94 MB

     Dynamical RAM for     wfc (w. buffer):      95.66 MB

     Dynamical RAM for           str. fact:       0.64 MB

     Dynamical RAM for           local pot:       0.00 MB

     Dynamical RAM for          nlocal pot:      24.82 MB

     Dynamical RAM for                qrad:       3.52 MB

     Dynamical RAM for          rho,v,vnew:       1.08 MB

     Dynamical RAM for               rhoin:       0.36 MB

     Dynamical RAM for            rho*nmix:       2.57 MB

     Dynamical RAM for           G-vectors:       0.68 MB

     Dynamical RAM for          h,s,v(r/c):       4.60 MB

     Dynamical RAM for          <psi|beta>:      14.97 MB

     Dynamical RAM for                 psi:      31.89 MB

     Dynamical RAM for                hpsi:      31.89 MB

     Dynamical RAM for                spsi:      31.89 MB

     Dynamical RAM for      wfcinit/wfcrot:      52.59 MB

     Dynamical RAM for           addusdens:      40.19 MB

     Dynamical RAM for          addusforce:      60.78 MB

     Dynamical RAM for         addusstress:      32.31 MB

     Estimated static dynamical RAM per process >     128.56 MB

     Estimated max dynamical RAM per process >     246.37 MB

     Estimated total dynamical RAM >       7.70 GB

     Check: negative core charge=   -0.000056

     Initial potential from superposition of free atoms

     starting charge    1323.9906, renormalised to    1324.0000

     negative rho (up, down):  7.073E-03 0.000E+00
     Starting wfcs are  874 randomized atomic wfcs
[psid07:116809] 31 more processes have sent help message help-mpi-btl-openib.txt / ib port not selected
[psid07:116809] Set MCA parameter "orte_base_help_aggregate" to 0 to see all help / error messages
[psid07:116809] 31 more processes have sent help message help-mpi-btl-openib.txt / error in device init
     Checking if some PAW data can be deallocated... 
       PAW data deallocated on   28 nodes for type:  2

     total cpu time spent up to now is       71.0 secs

     Self-consistent Calculation

     iteration #  1     ecut=    30.00 Ry     beta= 0.70
     Davidson diagonalization with overlap

---- Real-time Memory Report at c_bands before calling an iterative solver
           216 MiB given to the printing process from OS
             0 MiB allocation reported by mallinfo(arena+hblkhd)
        182943 MiB available memory on the node where the printing process lives
------------------
     ethr =  1.00E-02,  avg # of iterations =  7.0

     Threshold (ethr) on eigenvalues was too large:
     Diagonalizing with lowered threshold

     Davidson diagonalization with overlap

---- Real-time Memory Report at c_bands before calling an iterative solver
           289 MiB given to the printing process from OS
             0 MiB allocation reported by mallinfo(arena+hblkhd)
        181656 MiB available memory on the node where the printing process lives
------------------
     ethr =  8.21E-04,  avg # of iterations =  1.8

     negative rho (up, down):  3.746E-02 0.000E+00

     total cpu time spent up to now is      610.7 secs

     total energy              =  -29668.58620762 Ry
     estimated scf accuracy    <      10.98155811 Ry

     iteration #  2     ecut=    30.00 Ry     beta= 0.70
     Davidson diagonalization with overlap

---- Real-time Memory Report at c_bands before calling an iterative solver
           290 MiB given to the printing process from OS
             0 MiB allocation reported by mallinfo(arena+hblkhd)
        181616 MiB available memory on the node where the printing process lives
------------------
     ethr =  8.29E-04,  avg # of iterations =  8.0

     negative rho (up, down):  3.509E-02 0.000E+00

     total cpu time spent up to now is      982.9 secs

     total energy              =  -29633.46416069 Ry
     estimated scf accuracy    <     795.84383342 Ry

     iteration #  3     ecut=    30.00 Ry     beta= 0.70
     Davidson diagonalization with overlap

---- Real-time Memory Report at c_bands before calling an iterative solver
           291 MiB given to the printing process from OS
             0 MiB allocation reported by mallinfo(arena+hblkhd)
        181584 MiB available memory on the node where the printing process lives
------------------
     ethr =  8.29E-04,  avg # of iterations = 10.0

     negative rho (up, down):  2.892E-02 0.000E+00

     total cpu time spent up to now is     1646.9 secs

     total energy              =  -29668.31962211 Ry
     estimated scf accuracy    <     115.46792100 Ry

     iteration #  4     ecut=    30.00 Ry     beta= 0.70
     Davidson diagonalization with overlap

---- Real-time Memory Report at c_bands before calling an iterative solver
           291 MiB given to the printing process from OS
             0 MiB allocation reported by mallinfo(arena+hblkhd)
        181559 MiB available memory on the node where the printing process lives
------------------
     ethr =  8.29E-04,  avg # of iterations =  7.0

     negative rho (up, down):  2.259E-02 0.000E+00

     total cpu time spent up to now is     1931.4 secs

     total energy              =  -29671.79681520 Ry
     estimated scf accuracy    <      92.07452900 Ry

     iteration #  5     ecut=    30.00 Ry     beta= 0.70
     Davidson diagonalization with overlap

---- Real-time Memory Report at c_bands before calling an iterative solver
           292 MiB given to the printing process from OS
             0 MiB allocation reported by mallinfo(arena+hblkhd)
        181546 MiB available memory on the node where the printing process lives
------------------
     ethr =  8.29E-04,  avg # of iterations =  5.2

     negative rho (up, down):  2.263E-02 0.000E+00

     total cpu time spent up to now is     2190.2 secs

     total energy              =  -29675.85414722 Ry
     estimated scf accuracy    <       4.31104239 Ry

     iteration #  6     ecut=    30.00 Ry     beta= 0.70
     Davidson diagonalization with overlap

---- Real-time Memory Report at c_bands before calling an iterative solver
           292 MiB given to the printing process from OS
             0 MiB allocation reported by mallinfo(arena+hblkhd)
        181524 MiB available memory on the node where the printing process lives
------------------
     ethr =  3.26E-04,  avg # of iterations =  4.0

     negative rho (up, down):  2.717E-02 0.000E+00

     total cpu time spent up to now is     2429.9 secs

     total energy              =  -29676.23872330 Ry
     estimated scf accuracy    <       0.43995927 Ry

     iteration #  7     ecut=    30.00 Ry     beta= 0.70
     Davidson diagonalization with overlap

---- Real-time Memory Report at c_bands before calling an iterative solver
           293 MiB given to the printing process from OS
             0 MiB allocation reported by mallinfo(arena+hblkhd)
        181505 MiB available memory on the node where the printing process lives
------------------
     ethr =  3.32E-05,  avg # of iterations = 12.8

     negative rho (up, down):  3.049E-02 0.000E+00

     total cpu time spent up to now is     2732.8 secs

     total energy              =  -29676.25261604 Ry
     estimated scf accuracy    <       0.20343617 Ry

     iteration #  8     ecut=    30.00 Ry     beta= 0.70
     Davidson diagonalization with overlap

---- Real-time Memory Report at c_bands before calling an iterative solver
           294 MiB given to the printing process from OS
             0 MiB allocation reported by mallinfo(arena+hblkhd)
        181488 MiB available memory on the node where the printing process lives
------------------
     ethr =  1.54E-05,  avg # of iterations =  3.0

     negative rho (up, down):  3.347E-02 0.000E+00

     total cpu time spent up to now is     2979.5 secs

     total energy              =  -29676.27040120 Ry
     estimated scf accuracy    <       0.13868090 Ry

     iteration #  9     ecut=    30.00 Ry     beta= 0.70
     Davidson diagonalization with overlap

---- Real-time Memory Report at c_bands before calling an iterative solver
           294 MiB given to the printing process from OS
             0 MiB allocation reported by mallinfo(arena+hblkhd)
        181471 MiB available memory on the node where the printing process lives
------------------
     ethr =  1.05E-05,  avg # of iterations =  4.6

     negative rho (up, down):  3.501E-02 0.000E+00

     total cpu time spent up to now is     3229.4 secs

     total energy              =  -29676.27911210 Ry
     estimated scf accuracy    <       0.09112265 Ry

     iteration # 10     ecut=    30.00 Ry     beta= 0.70
     Davidson diagonalization with overlap

---- Real-time Memory Report at c_bands before calling an iterative solver
           295 MiB given to the printing process from OS
             0 MiB allocation reported by mallinfo(arena+hblkhd)
        181454 MiB available memory on the node where the printing process lives
------------------
     ethr =  6.88E-06,  avg # of iterations =  3.0

     negative rho (up, down):  3.546E-02 0.000E+00

     total cpu time spent up to now is     3467.3 secs

     total energy              =  -29676.28674973 Ry
     estimated scf accuracy    <       0.02875864 Ry

     iteration # 11     ecut=    30.00 Ry     beta= 0.70
     Davidson diagonalization with overlap

---- Real-time Memory Report at c_bands before calling an iterative solver
           295 MiB given to the printing process from OS
             0 MiB allocation reported by mallinfo(arena+hblkhd)
        181438 MiB available memory on the node where the printing process lives
------------------
     ethr =  2.17E-06,  avg # of iterations = 13.2

     negative rho (up, down):  3.862E-02 0.000E+00

     total cpu time spent up to now is     3730.9 secs

     total energy              =  -29676.27893113 Ry
     estimated scf accuracy    <       0.01577728 Ry

     iteration # 12     ecut=    30.00 Ry     beta= 0.70
     Davidson diagonalization with overlap

---- Real-time Memory Report at c_bands before calling an iterative solver
           295 MiB given to the printing process from OS
             0 MiB allocation reported by mallinfo(arena+hblkhd)
        181438 MiB available memory on the node where the printing process lives
------------------
     ethr =  1.19E-06,  avg # of iterations = 18.4

     negative rho (up, down):  3.755E-02 0.000E+00

     total cpu time spent up to now is     4076.6 secs

     total energy              =  -29676.27798175 Ry
     estimated scf accuracy    <       0.02298980 Ry

     iteration # 13     ecut=    30.00 Ry     beta= 0.70
     Davidson diagonalization with overlap

---- Real-time Memory Report at c_bands before calling an iterative solver
           295 MiB given to the printing process from OS
             0 MiB allocation reported by mallinfo(arena+hblkhd)
        181437 MiB available memory on the node where the printing process lives
------------------
     ethr =  1.19E-06,  avg # of iterations =  3.0

     negative rho (up, down):  3.660E-02 0.000E+00

     total cpu time spent up to now is     4322.2 secs

     total energy              =  -29676.27512276 Ry
     estimated scf accuracy    <       0.01889537 Ry

     iteration # 14     ecut=    30.00 Ry     beta= 0.70
     Davidson diagonalization with overlap

---- Real-time Memory Report at c_bands before calling an iterative solver
           295 MiB given to the printing process from OS
             0 MiB allocation reported by mallinfo(arena+hblkhd)
        181435 MiB available memory on the node where the printing process lives
------------------
     c_bands:  1 eigenvalues not converged
     ethr =  1.19E-06,  avg # of iterations = 16.0

     negative rho (up, down):  3.640E-02 0.000E+00

     total cpu time spent up to now is     4646.6 secs

     total energy              =  -29676.26494943 Ry
     estimated scf accuracy    <       0.40261974 Ry

     iteration # 15     ecut=    30.00 Ry     beta= 0.70
     Davidson diagonalization with overlap

---- Real-time Memory Report at c_bands before calling an iterative solver
           295 MiB given to the printing process from OS
             0 MiB allocation reported by mallinfo(arena+hblkhd)
        181434 MiB available memory on the node where the printing process lives
------------------
     ethr =  1.19E-06,  avg # of iterations = 13.0

     negative rho (up, down):  3.668E-02 0.000E+00

     total cpu time spent up to now is     4937.8 secs

     total energy              =  -29676.27952532 Ry
     estimated scf accuracy    <       0.00797637 Ry

     iteration # 16     ecut=    30.00 Ry     beta= 0.70
     Davidson diagonalization with overlap

---- Real-time Memory Report at c_bands before calling an iterative solver
           295 MiB given to the printing process from OS
             0 MiB allocation reported by mallinfo(arena+hblkhd)
        181434 MiB available memory on the node where the printing process lives
------------------
     ethr =  6.02E-07,  avg # of iterations =  2.8

     negative rho (up, down):  3.636E-02 0.000E+00

     total cpu time spent up to now is     5171.4 secs

     total energy              =  -29676.28033622 Ry
     estimated scf accuracy    <       0.00477414 Ry

     iteration # 17     ecut=    30.00 Ry     beta= 0.70
     Davidson diagonalization with overlap

---- Real-time Memory Report at c_bands before calling an iterative solver
           295 MiB given to the printing process from OS
             0 MiB allocation reported by mallinfo(arena+hblkhd)
        181432 MiB available memory on the node where the printing process lives
------------------
     ethr =  3.61E-07,  avg # of iterations =  2.0

     negative rho (up, down):  3.622E-02 0.000E+00

     total cpu time spent up to now is     5395.5 secs

     total energy              =  -29676.28074141 Ry
     estimated scf accuracy    <       0.00011697 Ry

     iteration # 18     ecut=    30.00 Ry     beta= 0.70
     Davidson diagonalization with overlap

---- Real-time Memory Report at c_bands before calling an iterative solver
           295 MiB given to the printing process from OS
             0 MiB allocation reported by mallinfo(arena+hblkhd)
        181431 MiB available memory on the node where the printing process lives
------------------
     ethr =  8.83E-09,  avg # of iterations =  2.0

     negative rho (up, down):  3.613E-02 0.000E+00

     total cpu time spent up to now is     5628.9 secs

     total energy              =  -29676.28075623 Ry
     estimated scf accuracy    <       0.00007036 Ry

     iteration # 19     ecut=    30.00 Ry     beta= 0.70
     Davidson diagonalization with overlap

---- Real-time Memory Report at c_bands before calling an iterative solver
           295 MiB given to the printing process from OS
             0 MiB allocation reported by mallinfo(arena+hblkhd)
        181430 MiB available memory on the node where the printing process lives
------------------
     ethr =  5.31E-09,  avg # of iterations =  2.0

     negative rho (up, down):  3.610E-02 0.000E+00

     total cpu time spent up to now is     5856.3 secs

     total energy              =  -29676.28076527 Ry
     estimated scf accuracy    <       0.00002029 Ry

     iteration # 20     ecut=    30.00 Ry     beta= 0.70
     Davidson diagonalization with overlap

---- Real-time Memory Report at c_bands before calling an iterative solver
           295 MiB given to the printing process from OS
             0 MiB allocation reported by mallinfo(arena+hblkhd)
        181431 MiB available memory on the node where the printing process lives
------------------
     ethr =  1.53E-09,  avg # of iterations =  2.0

     negative rho (up, down):  3.609E-02 0.000E+00

     total cpu time spent up to now is     6084.2 secs

     total energy              =  -29676.28076774 Ry
     estimated scf accuracy    <       0.00000598 Ry

     iteration # 21     ecut=    30.00 Ry     beta= 0.70
     Davidson diagonalization with overlap

---- Real-time Memory Report at c_bands before calling an iterative solver
           295 MiB given to the printing process from OS
             0 MiB allocation reported by mallinfo(arena+hblkhd)
        181431 MiB available memory on the node where the printing process lives
------------------
     ethr =  4.52E-10,  avg # of iterations =  2.0

     negative rho (up, down):  3.607E-02 0.000E+00

     total cpu time spent up to now is     6311.1 secs

     total energy              =  -29676.28076854 Ry
     estimated scf accuracy    <       0.00000132 Ry

     iteration # 22     ecut=    30.00 Ry     beta= 0.70
     Davidson diagonalization with overlap

---- Real-time Memory Report at c_bands before calling an iterative solver
           295 MiB given to the printing process from OS
             0 MiB allocation reported by mallinfo(arena+hblkhd)
        181431 MiB available memory on the node where the printing process lives
------------------
     ethr =  9.94E-11,  avg # of iterations =  2.0

     negative rho (up, down):  3.606E-02 0.000E+00

     total cpu time spent up to now is     6539.9 secs

     End of self-consistent calculation

          k = 0.0000 0.0000 0.0000 ( 42115 PWs)   bands (ev):

  -128.1966-128.1783-128.1225-128.0693-127.9958-127.9882-127.9769-127.9637
  -127.9136-127.9020-127.8103-127.7664-127.7630-127.6785-127.6020-127.5685
  -124.6757-124.6492-124.6027-124.5512-124.4680-124.4663-124.4560-124.4443
  -124.3807-124.3681-124.2899-124.2546-124.2383-124.1520-124.0832-124.0542
  -123.1102-123.1062-123.0344-123.0195-123.0089-123.0080-122.9476-122.9044
  -122.9041-122.8931-122.8792-122.8761-122.8552-122.8386-122.8264-122.8209
  -122.8196-122.8051-122.8007-122.7904-122.7419-122.7237-122.7202-122.7132
  -122.7054-122.7037-122.6861-122.6797-122.6708-122.6280-122.5520-122.5189
   -85.6636 -85.6425 -85.5880 -85.5379 -85.4670 -85.4565 -85.4415 -85.4313
   -85.3822 -85.3713 -85.2789 -85.2430 -85.2350 -85.1505 -85.0819 -85.0530
   -80.7766 -80.7565 -80.7525 -80.7276 -80.6797 -80.6744 -80.6450 -80.6146
   -80.5486 -80.5454 -80.5427 -80.5395 -80.5372 -80.5313 -80.5279 -80.5207
   -80.5109 -80.4670 -80.4496 -80.4382 -80.3660 -80.3565 -80.3340 -80.3270
   -80.3167 -80.3144 -80.2342 -80.2132 -80.1628 -80.1452 -80.1355 -80.1102
   -79.1420 -79.1278 -79.1105 -79.0968 -79.0613 -79.0561 -79.0217 -78.9986
   -78.9270 -78.9244 -78.9223 -78.9193 -78.9150 -78.9120 -78.9008 -78.8812
   -78.8503 -78.8167 -78.8079 -78.7914 -78.7486 -78.7408 -78.7107 -78.6991
   -78.6829 -78.6665 -78.6141 -78.5940 -78.5326 -78.5186 -78.5072 -78.4876
   -77.2142 -77.2023 -77.1957 -77.1908 -77.1861 -77.1839 -77.1332 -77.1231
   -77.1160 -77.1132 -77.1115 -77.1062 -77.1001 -77.0988 -77.0932 -77.0907
   -77.0874 -77.0858 -77.0497 -77.0351 -77.0319 -77.0290 -77.0091 -77.0042
   -77.0032 -76.9933 -76.9905 -76.9868 -76.9858 -76.9845 -76.9833 -76.9822
   -76.9705 -76.9697 -76.9638 -76.9621 -76.9606 -76.9600 -76.9592 -76.9538
   -76.9425 -76.9396 -76.9367 -76.9300 -76.9288 -76.9244 -76.9178 -76.9171
   -76.9160 -76.9154 -76.9112 -76.9098 -76.9087 -76.9028 -76.9011 -76.9008
   -76.8927 -76.8915 -76.8908 -76.8863 -76.8808 -76.8792 -76.8774 -76.8692
   -76.8414 -76.8331 -76.8285 -76.8260 -76.8250 -76.8242 -76.8193 -76.8167
   -76.8154 -76.8128 -76.8108 -76.8105 -76.8085 -76.8070 -76.8054 -76.8047
   -76.8004 -76.7988 -76.7944 -76.7929 -76.7896 -76.7831 -76.7822 -76.7790
   -76.7767 -76.7750 -76.7710 -76.7660 -76.7633 -76.7578 -76.7517 -76.7476
   -76.7307 -76.7282 -76.7151 -76.7092 -76.6539 -76.6509 -76.6432 -76.6387
   -76.6226 -76.6162 -76.6132 -76.6121 -76.6029 -76.5143 -76.4573 -76.4273
   -15.5677 -14.1489 -13.2432 -11.9473 -11.8393 -11.8040 -11.7921 -11.7498
   -11.6935 -11.6536 -11.6170 -11.6126 -11.5862 -11.5685 -11.5590 -11.5262
   -11.5102 -11.4996 -11.4747 -11.4569 -11.4159 -11.3977 -11.3720 -11.3410
   -11.3286 -11.3058 -11.3018 -11.2941 -11.2693 -11.2476 -11.2308 -11.2037
   -11.1946 -11.1763 -11.1645 -11.0990 -11.0929 -11.0855 -11.0662 -11.0553
   -11.0346 -10.9968 -10.9668 -10.9342 -10.8502 -10.8485 -10.8456 -10.8069
   -10.7962 -10.7754 -10.7234 -10.6105 -10.6100  -8.3740  -8.3056  -8.1871
    -8.1337  -8.0989  -8.0372  -8.0087  -7.8994  -7.8842  -7.8699  -7.8667
    -7.7724  -7.7541  -7.6917  -7.6569  -7.6218  -7.6207  -7.5585  -7.4901
    -7.4619  -7.4059  -7.3703  -7.3220  -7.2932  -7.2575  -7.2216  -7.2127
    -7.1692  -7.1600  -7.1261  -7.1007  -6.9903  -6.9681  -6.9514  -6.9190
    -6.4753  -6.2541  -5.6906  -5.6402  -5.5512  -5.4477  -5.4120  -5.3700
    -5.3257  -5.3082  -5.2795  -5.2426  -5.1919  -5.1900  -5.1773  -5.1564
    -5.1388  -5.1281  -5.1243  -5.0865  -5.0744  -5.0705  -5.0509  -5.0221
    -4.9847  -4.9802  -4.9321  -4.9158  -4.8752  -4.8501  -4.8343  -4.8237
    -4.8143  -4.7918  -4.7791  -4.7671  -4.7261  -4.6975  -4.6630  -4.6432
    -4.6292  -4.6057  -4.5937  -4.5603  -4.5415  -4.5051  -4.4778  -4.4355
    -4.4350  -4.3781  -4.3761  -4.3408  -4.3339  -4.3192  -4.3132  -4.2928
    -4.2754  -4.2670  -4.2423  -4.2319  -4.2202  -4.2031  -4.1902  -4.1790
    -4.1646  -4.1564  -4.1426  -4.1293  -4.1171  -4.0994  -4.0871  -4.0821
    -4.0744  -4.0683  -4.0603  -4.0527  -4.0362  -4.0286  -4.0220  -4.0171
    -4.0134  -4.0003  -3.9946  -3.9714  -3.9661  -3.9626  -3.9542  -3.9495
    -3.9381  -3.9215  -3.9062  -3.8938  -3.8878  -3.8847  -3.8745  -3.8706
    -3.8584  -3.8473  -3.8452  -3.8349  -3.8305  -3.8237  -3.8170  -3.8147
    -3.8038  -3.7992  -3.7867  -3.7830  -3.7753  -3.7720  -3.7670  -3.7648
    -3.7517  -3.7488  -3.7414  -3.7343  -3.7179  -3.7153  -3.7070  -3.7027
    -3.6954  -3.6905  -3.6822  -3.6737  -3.6673  -3.6650  -3.6637  -3.6563
    -3.6506  -3.6494  -3.6407  -3.6381  -3.6322  -3.6211  -3.6187  -3.6102
    -3.6024  -3.5954  -3.5947  -3.5869  -3.5837  -3.5773  -3.5723  -3.5659
    -3.5540  -3.5506  -3.5479  -3.5369  -3.5297  -3.5248  -3.5186  -3.5172
    -3.5104  -3.5054  -3.5010  -3.4975  -3.4816  -3.4794  -3.4716  -3.4662
    -3.4625  -3.4567  -3.4502  -3.4438  -3.4424  -3.4364  -3.4309  -3.4289
    -3.4253  -3.4168  -3.4098  -3.4080  -3.4003  -3.3967  -3.3933  -3.3823
    -3.3797  -3.3752  -3.3678  -3.3652  -3.3623  -3.3577  -3.3495  -3.3465
    -3.3397  -3.3367  -3.3311  -3.3261  -3.3206  -3.3153  -3.3069  -3.3044
    -3.3018  -3.2943  -3.2875  -3.2806  -3.2792  -3.2714  -3.2649  -3.2643
    -3.2590  -3.2517  -3.2471  -3.2423  -3.2392  -3.2326  -3.2241  -3.2167
    -3.2128  -3.2086  -3.2002  -3.1938  -3.1784  -3.1700  -3.1644  -3.1600
    -3.1404  -3.1309  -3.1118  -3.0978  -3.0823  -3.0795  -3.0685  -3.0638
    -3.0576  -3.0334  -3.0069  -2.9954  -2.9932  -2.9658  -2.9575  -2.9462
    -2.9324  -2.9118  -2.8720  -2.8546  -2.8439  -2.8224  -2.8123  -2.7834
    -2.7739  -2.7692  -2.7158  -2.7109  -2.6949  -2.6619  -2.6397  -2.5568
    -2.5372  -2.5320  -2.5017  -2.4744  -2.4336  -2.3968  -2.3621  -2.3558
    -2.3012  -2.2878  -2.1797  -2.1599  -2.1504  -2.0602  -1.9983  -1.7557
    -1.6588  -1.6072  -1.4760  -1.0149  -0.9178  -0.8748  -0.7654  -0.7139
    -0.6842  -0.6437  -0.5542  -0.2940  -0.1464  -0.0802  -0.0579   0.0071
     0.0206   0.1903   0.3071   0.3243   0.4021   0.4518   0.5182   0.5801
     0.5843   0.7447   0.9854   1.0542   1.1735   1.2038   1.3657   1.4021
     1.5146   1.7135   1.8130   1.8355   1.8713   2.0252   2.0915   2.3645
     2.3846   2.4318   2.4438   2.5825   2.5971   2.7036   2.7292   2.7447
     2.8752   2.9286   3.0634   3.1704   3.3594   3.4150   3.5459   3.6961
     3.8169   3.9387   4.0006   4.0111   4.1068   4.2056   4.3282   4.4868
     4.5512   4.6212   4.9665   5.1320   5.1831   5.2883   5.3935   5.7351
     5.7754   5.8672   5.9241   5.9689   6.0662   6.1772   6.2921   6.3718
     6.4039   6.4433   6.5320   6.5639   6.6996   6.7272   6.8208   6.9062
     6.9215   6.9840   7.0102   7.0503   7.1016   7.1551   7.2338   7.3628
     7.4139   7.4578   7.5434   7.5742   7.6517   7.6709   7.6799   7.8202
     7.8976   7.9135   8.0190   8.0564   8.1107   8.1443   8.1771   8.1849
     8.2744   8.2900   8.3384   8.3571   8.4264   8.4571   8.5010   8.5374
     8.6159   8.6733   8.6803   8.7596   8.7823   8.7897   8.8143   8.8670
     8.8862   8.9337   8.9641   9.0228   9.0464   9.1198   9.1386   9.1482
     9.1865   9.2586   9.2989   9.3868   9.4372   9.4815   9.5010   9.5305
     9.5496   9.5875   9.6669   9.7512   9.7617   9.8096   9.8847   9.9224
    10.0363  10.1188  10.1442  10.2150  10.2614  10.2799  10.3099  10.4072
    10.4915  10.5116  10.5472  10.5963  10.6418  10.6844  10.6993  10.7757
    10.7928  10.8004  10.8251  10.8594  10.8863  10.9037  10.9649  11.0418
    11.0489  11.0958  11.1213  11.1429  11.1795  11.1879  11.2910  11.3775
    11.3846  11.4185

     occupation numbers 
     1.0000   1.0000   1.0000   1.0000   1.0000   1.0000   1.0000   1.0000
     1.0000   1.0000   1.0000   1.0000   1.0000   1.0000   1.0000   1.0000
     1.0000   1.0000   1.0000   1.0000   1.0000   1.0000   1.0000   1.0000
     1.0000   1.0000   1.0000   1.0000   1.0000   1.0000   1.0000   1.0000
     1.0000   1.0000   1.0000   1.0000   1.0000   1.0000   1.0000   1.0000
     1.0000   1.0000   1.0000   1.0000   1.0000   1.0000   1.0000   1.0000
     1.0000   1.0000   1.0000   1.0000   1.0000   1.0000   1.0000   1.0000
     1.0000   1.0000   1.0000   1.0000   1.0000   1.0000   1.0000   1.0000
     1.0000   1.0000   1.0000   1.0000   1.0000   1.0000   1.0000   1.0000
     1.0000   1.0000   1.0000   1.0000   1.0000   1.0000   1.0000   1.0000
     1.0000   1.0000   1.0000   1.0000   1.0000   1.0000   1.0000   1.0000
     1.0000   1.0000   1.0000   1.0000   1.0000   1.0000   1.0000   1.0000
     1.0000   1.0000   1.0000   1.0000   1.0000   1.0000   1.0000   1.0000
     1.0000   1.0000   1.0000   1.0000   1.0000   1.0000   1.0000   1.0000
     1.0000   1.0000   1.0000   1.0000   1.0000   1.0000   1.0000   1.0000
     1.0000   1.0000   1.0000   1.0000   1.0000   1.0000   1.0000   1.0000
     1.0000   1.0000   1.0000   1.0000   1.0000   1.0000   1.0000   1.0000
     1.0000   1.0000   1.0000   1.0000   1.0000   1.0000   1.0000   1.0000
     1.0000   1.0000   1.0000   1.0000   1.0000   1.0000   1.0000   1.0000
     1.0000   1.0000   1.0000   1.0000   1.0000   1.0000   1.0000   1.0000
     1.0000   1.0000   1.0000   1.0000   1.0000   1.0000   1.0000   1.0000
     1.0000   1.0000   1.0000   1.0000   1.0000   1.0000   1.0000   1.0000
     1.0000   1.0000   1.0000   1.0000   1.0000   1.0000   1.0000   1.0000
     1.0000   1.0000   1.0000   1.0000   1.0000   1.0000   1.0000   1.0000
     1.0000   1.0000   1.0000   1.0000   1.0000   1.0000   1.0000   1.0000
     1.0000   1.0000   1.0000   1.0000   1.0000   1.0000   1.0000   1.0000
     1.0000   1.0000   1.0000   1.0000   1.0000   1.0000   1.0000   1.0000
     1.0000   1.0000   1.0000   1.0000   1.0000   1.0000   1.0000   1.0000
     1.0000   1.0000   1.0000   1.0000   1.0000   1.0000   1.0000   1.0000
     1.0000   1.0000   1.0000   1.0000   1.0000   1.0000   1.0000   1.0000
     1.0000   1.0000   1.0000   1.0000   1.0000   1.0000   1.0000   1.0000
     1.0000   1.0000   1.0000   1.0000   1.0000   1.0000   1.0000   1.0000
     1.0000   1.0000   1.0000   1.0000   1.0000   1.0000   1.0000   1.0000
     1.0000   1.0000   1.0000   1.0000   1.0000   1.0000   1.0000   1.0000
     1.0000   1.0000   1.0000   1.0000   1.0000   1.0000   1.0000   1.0000
     1.0000   1.0000   1.0000   1.0000   1.0000   1.0000   1.0000   1.0000
     1.0000   1.0000   1.0000   1.0000   1.0000   1.0000   1.0000   1.0000
     1.0000   1.0000   1.0000   1.0000   1.0000   1.0000   1.0000   1.0000
     1.0000   1.0000   1.0000   1.0000   1.0000   1.0000   1.0000   1.0000
     1.0000   1.0000   1.0000   1.0000   1.0000   1.0000   1.0000   1.0000
     1.0000   1.0000   1.0000   1.0000   1.0000   1.0000   1.0000   1.0000
     1.0000   1.0000   1.0000   1.0000   1.0000   1.0000   1.0000   1.0000
     1.0000   1.0000   1.0000   1.0000   1.0000   1.0000   1.0000   1.0000
     1.0000   1.0000   1.0000   1.0000   1.0000   1.0000   1.0000   1.0000
     1.0000   1.0000   1.0000   1.0000   1.0000   1.0000   1.0000   1.0000
     1.0000   1.0000   1.0000   1.0000   1.0000   1.0000   1.0000   1.0000
     1.0000   1.0000   1.0000   1.0000   1.0000   1.0000   1.0000   1.0000
     1.0000   1.0000   1.0000   1.0000   1.0000   1.0000   1.0000   1.0000
     1.0000   1.0000   1.0000   1.0000   1.0000   1.0000   1.0000   1.0000
     1.0000   1.0000   1.0000   1.0000   1.0000   1.0000   1.0000   1.0000
     1.0000   1.0000   1.0000   1.0000   1.0000   1.0000   1.0000   1.0000
     1.0000   1.0000   1.0000   1.0000   1.0000   1.0000   1.0000   1.0000
     1.0000   1.0000   1.0000   1.0000   1.0000   1.0000   1.0000   1.0000
     1.0000   1.0000   1.0000   1.0000   1.0000   1.0000   1.0000   1.0000
     1.0000   1.0000   1.0000   1.0000   1.0000   1.0000   1.0000   1.0000
     1.0000   1.0000   1.0000   1.0000   1.0000   1.0000   1.0000   1.0000
     1.0000   1.0000   1.0000   1.0000   1.0000   1.0000   1.0000   1.0000
     1.0000   1.0000   1.0000   1.0000   1.0000   1.0000   1.0000   1.0000
     1.0000   1.0000   1.0000   1.0000   1.0000   1.0000   1.0000   1.0000
     1.0000   1.0000   1.0000   1.0000   1.0000   1.0000   1.0000   1.0000
     1.0000   1.0000   1.0000   1.0000   1.0000   1.0000   1.0000   1.0000
     1.0000   1.0000   1.0000   1.0000   1.0000   1.0000   1.0000   1.0000
     1.0000   1.0000   1.0000   1.0000   1.0000   1.0000   1.0000   1.0000
     1.0000   1.0000   1.0000   1.0000   1.0000   1.0000   1.0000   1.0000
     1.0000   1.0000   1.0000   1.0000   1.0000   1.0000   1.0000   1.0000
     1.0000   1.0000   1.0000   1.0000   1.0000   1.0000   1.0000   1.0000
     1.0000   1.0000   1.0000   1.0000   1.0000   1.0000   1.0000   1.0000
     1.0000   1.0000   1.0000   1.0000   1.0000   1.0000   1.0000   1.0000
     1.0000   1.0000   1.0000   1.0000   1.0000   1.0000   1.0000   1.0000
     1.0000   1.0000   1.0000   1.0000   1.0000   1.0000   1.0000   1.0000
     1.0000   1.0000   1.0000   1.0000   1.0000   1.0000   1.0000   1.0000
     1.0000   1.0000   1.0000   1.0000   1.0000   1.0000   1.0000   1.0000
     1.0000   1.0000   1.0000   1.0000   1.0000   1.0000   1.0000   1.0000
     1.0000   1.0000   1.0000   1.0000   1.0000   1.0000   1.0000   1.0000
     1.0000   1.0000   1.0000   1.0000   1.0000   1.0000   1.0000   1.0000
     1.0000   1.0000   1.0000   1.0000   1.0000   1.0000   1.0000   1.0000
     1.0000   1.0000   1.0000   1.0000   1.0000   1.0000   1.0000   1.0000
     1.0000   1.0000   1.0000   1.0000   1.0000   1.0000   1.0000   1.0000
     1.0000   1.0000   1.0000   1.0000   1.0000   1.0000   1.0000   1.0000
     1.0000   1.0000   1.0000   1.0000   1.0000   1.0000   1.0000   1.0000
     1.0000   1.0000   1.0000   1.0000   1.0000   1.0000   1.0000   1.0000
     1.0000   1.0000   1.0000   1.0000   1.0000   1.0000   1.0000   1.0000
     1.0005   1.0014   1.0097   1.0306   1.0832   1.0738   0.9222   0.5433
     0.2495   0.0798   0.0388   0.0340   0.0089   0.0017   0.0002   0.0000
     0.0000   0.0000   0.0000   0.0000   0.0000   0.0000   0.0000   0.0000
     0.0000   0.0000   0.0000   0.0000   0.0000   0.0000   0.0000   0.0000
     0.0000   0.0000   0.0000   0.0000   0.0000   0.0000   0.0000   0.0000
     0.0000   0.0000   0.0000   0.0000   0.0000   0.0000   0.0000   0.0000
     0.0000   0.0000   0.0000   0.0000   0.0000   0.0000   0.0000   0.0000
     0.0000   0.0000   0.0000   0.0000   0.0000   0.0000   0.0000   0.0000
     0.0000   0.0000   0.0000   0.0000   0.0000   0.0000   0.0000   0.0000
     0.0000   0.0000   0.0000   0.0000   0.0000   0.0000   0.0000   0.0000
     0.0000   0.0000   0.0000   0.0000   0.0000   0.0000   0.0000   0.0000
     0.0000   0.0000   0.0000   0.0000   0.0000   0.0000   0.0000   0.0000
     0.0000   0.0000   0.0000   0.0000   0.0000   0.0000   0.0000   0.0000
     0.0000   0.0000   0.0000   0.0000   0.0000   0.0000   0.0000   0.0000
     0.0000   0.0000   0.0000   0.0000   0.0000   0.0000   0.0000   0.0000
     0.0000   0.0000   0.0000   0.0000   0.0000   0.0000   0.0000   0.0000
     0.0000   0.0000   0.0000   0.0000   0.0000   0.0000   0.0000   0.0000
     0.0000   0.0000

          k = 0.0000 0.3849 0.0000 ( 42150 PWs)   bands (ev):

  -128.1966-128.1783-128.1225-128.0693-127.9958-127.9882-127.9770-127.9638
  -127.9136-127.9021-127.8103-127.7664-127.7630-127.6785-127.6020-127.5685
  -124.6759-124.6493-124.6028-124.5514-124.4682-124.4666-124.4562-124.4445
  -124.3811-124.3681-124.2900-124.2548-124.2384-124.1522-124.0833-124.0543
  -123.1104-123.1063-123.0345-123.0197-123.0090-123.0082-122.9478-122.9046
  -122.9042-122.8932-122.8794-122.8762-122.8553-122.8387-122.8266-122.8210
  -122.8198-122.8053-122.8008-122.7905-122.7420-122.7238-122.7203-122.7133
  -122.7055-122.7038-122.6862-122.6798-122.6710-122.6281-122.5522-122.5191
   -85.6643 -85.6432 -85.5887 -85.5385 -85.4676 -85.4572 -85.4421 -85.4320
   -85.3822 -85.3726 -85.2796 -85.2437 -85.2357 -85.1511 -85.0826 -85.0537
   -80.7762 -80.7568 -80.7520 -80.7278 -80.6803 -80.6743 -80.6447 -80.6149
   -80.5488 -80.5451 -80.5433 -80.5398 -80.5368 -80.5317 -80.5279 -80.5208
   -80.5108 -80.4668 -80.4497 -80.4385 -80.3660 -80.3569 -80.3340 -80.3273
   -80.3165 -80.3146 -80.2341 -80.2135 -80.1627 -80.1454 -80.1355 -80.1105
   -79.1424 -79.1284 -79.1111 -79.0973 -79.0623 -79.0565 -79.0221 -78.9994
   -78.9279 -78.9245 -78.9229 -78.9201 -78.9157 -78.9125 -78.9019 -78.8816
   -78.8500 -78.8171 -78.8083 -78.7933 -78.7491 -78.7416 -78.7115 -78.6996
   -78.6834 -78.6673 -78.6146 -78.5948 -78.5331 -78.5194 -78.5077 -78.4885
   -77.2152 -77.2025 -77.1963 -77.1911 -77.1864 -77.1846 -77.1342 -77.1232
   -77.1165 -77.1138 -77.1123 -77.1066 -77.1008 -77.0990 -77.0937 -77.0909
   -77.0876 -77.0865 -77.0507 -77.0357 -77.0326 -77.0294 -77.0088 -77.0056
   -77.0040 -76.9940 -76.9905 -76.9872 -76.9861 -76.9853 -76.9842 -76.9831
   -76.9709 -76.9700 -76.9642 -76.9626 -76.9616 -76.9605 -76.9595 -76.9546
   -76.9430 -76.9400 -76.9373 -76.9300 -76.9294 -76.9251 -76.9182 -76.9175
   -76.9167 -76.9160 -76.9111 -76.9108 -76.9096 -76.9036 -76.9020 -76.9010
   -76.8933 -76.8921 -76.8912 -76.8866 -76.8813 -76.8798 -76.8778 -76.8696
   -76.8421 -76.8335 -76.8291 -76.8258 -76.8255 -76.8253 -76.8197 -76.8179
   -76.8170 -76.8133 -76.8112 -76.8106 -76.8094 -76.8075 -76.8061 -76.8047
   -76.8010 -76.8001 -76.7943 -76.7939 -76.7901 -76.7836 -76.7826 -76.7794
   -76.7773 -76.7757 -76.7718 -76.7666 -76.7635 -76.7585 -76.7527 -76.7482
   -76.7309 -76.7292 -76.7161 -76.7099 -76.6544 -76.6518 -76.6439 -76.6391
   -76.6236 -76.6163 -76.6140 -76.6132 -76.6035 -76.5152 -76.4582 -76.4281
   -15.5678 -14.1489 -13.2432 -11.9474 -11.8397 -11.8040 -11.7925 -11.7503
   -11.6946 -11.6542 -11.6171 -11.6132 -11.5871 -11.5702 -11.5591 -11.5274
   -11.5097 -11.5004 -11.4755 -11.4573 -11.4169 -11.3984 -11.3724 -11.3414
   -11.3293 -11.3063 -11.3024 -11.2942 -11.2705 -11.2481 -11.2313 -11.2050
   -11.1959 -11.1772 -11.1646 -11.0990 -11.0926 -11.0866 -11.0665 -11.0557
   -11.0354 -10.9966 -10.9669 -10.9351 -10.8503 -10.8485 -10.8454 -10.8073
   -10.7963 -10.7755 -10.7234 -10.6110 -10.6107  -8.3741  -8.3055  -8.1864
    -8.1337  -8.0986  -8.0372  -8.0085  -7.8990  -7.8844  -7.8700  -7.8667
    -7.7714  -7.7547  -7.6921  -7.6564  -7.6209  -7.6181  -7.5583  -7.4886
    -7.4562  -7.4043  -7.3672  -7.2985  -7.2866  -7.2557  -7.2194  -7.2109
    -7.1698  -7.1524  -7.1260  -7.0965  -6.9905  -6.9686  -6.9484  -6.9198
    -6.4865  -6.2983  -5.7167  -5.6909  -5.6162  -5.5180  -5.4239  -5.3804
    -5.3425  -5.3083  -5.2902  -5.2723  -5.2282  -5.1953  -5.1756  -5.1607
    -5.1440  -5.1395  -5.1250  -5.1028  -5.0793  -5.0707  -5.0518  -5.0326
    -5.0097  -4.9867  -4.9690  -4.8985  -4.8725  -4.8531  -4.8325  -4.8272
    -4.8138  -4.7922  -4.7838  -4.7696  -4.7249  -4.7082  -4.6424  -4.6364
    -4.6240  -4.6056  -4.5867  -4.5485  -4.5150  -4.4844  -4.4513  -4.4143
    -4.3910  -4.3801  -4.3628  -4.3365  -4.3344  -4.3099  -4.3011  -4.2821
    -4.2645  -4.2598  -4.2381  -4.2262  -4.2106  -4.2064  -4.1967  -4.1803
    -4.1601  -4.1458  -4.1368  -4.1248  -4.1197  -4.1112  -4.0916  -4.0843
    -4.0757  -4.0657  -4.0603  -4.0451  -4.0388  -4.0270  -4.0137  -4.0092
    -3.9959  -3.9873  -3.9797  -3.9746  -3.9676  -3.9627  -3.9446  -3.9424
    -3.9328  -3.9254  -3.9117  -3.9023  -3.8907  -3.8837  -3.8759  -3.8639
    -3.8527  -3.8451  -3.8372  -3.8345  -3.8268  -3.8203  -3.8151  -3.8084
    -3.8011  -3.7924  -3.7881  -3.7849  -3.7786  -3.7683  -3.7646  -3.7569
    -3.7524  -3.7438  -3.7396  -3.7340  -3.7292  -3.7162  -3.7090  -3.7074
    -3.6956  -3.6913  -3.6885  -3.6820  -3.6759  -3.6701  -3.6606  -3.6559
    -3.6526  -3.6456  -3.6384  -3.6351  -3.6203  -3.6180  -3.6123  -3.6054
    -3.6043  -3.5988  -3.5890  -3.5866  -3.5800  -3.5752  -3.5664  -3.5576
    -3.5536  -3.5452  -3.5397  -3.5362  -3.5318  -3.5248  -3.5191  -3.5156
    -3.5073  -3.5017  -3.4963  -3.4873  -3.4820  -3.4745  -3.4715  -3.4636
    -3.4567  -3.4496  -3.4430  -3.4399  -3.4357  -3.4314  -3.4281  -3.4214
    -3.4162  -3.4108  -3.4044  -3.3977  -3.3949  -3.3923  -3.3869  -3.3778
    -3.3731  -3.3677  -3.3641  -3.3606  -3.3527  -3.3485  -3.3429  -3.3363
    -3.3328  -3.3297  -3.3233  -3.3181  -3.3120  -3.3063  -3.3025  -3.2985
    -3.2957  -3.2932  -3.2855  -3.2801  -3.2755  -3.2701  -3.2669  -3.2607
    -3.2529  -3.2469  -3.2454  -3.2412  -3.2360  -3.2246  -3.2192  -3.2123
    -3.2083  -3.1990  -3.1959  -3.1929  -3.1851  -3.1698  -3.1549  -3.1420
    -3.1381  -3.1315  -3.1240  -3.1023  -3.0853  -3.0826  -3.0762  -3.0629
    -3.0436  -3.0143  -3.0085  -2.9943  -2.9924  -2.9847  -2.9785  -2.9594
    -2.9343  -2.9063  -2.8783  -2.8616  -2.8430  -2.8248  -2.7961  -2.7844
    -2.7708  -2.7491  -2.7059  -2.6778  -2.6390  -2.6053  -2.5505  -2.5380
    -2.5173  -2.4871  -2.4487  -2.4353  -2.4003  -2.3671  -2.3588  -2.3233
    -2.2536  -2.2109  -2.1912  -2.1578  -2.1118  -2.0029  -1.9882  -1.7991
    -1.7270  -1.5965  -1.3734  -1.3116  -1.2336  -1.0862  -0.8800  -0.8566
    -0.8131  -0.6875  -0.6449  -0.5870  -0.4803  -0.4209  -0.2860  -0.1600
     0.0075   0.0816   0.2603   0.3234   0.3336   0.4238   0.4946   0.5753
     0.7203   0.8543   0.9068   1.0242   1.1716   1.3649   1.4203   1.4695
     1.5708   1.6703   1.8562   1.8976   2.0199   2.0931   2.1119   2.1642
     2.4364   2.5291   2.5893   2.6980   2.7364   2.7823   2.8357   2.9818
     3.1532   3.3925   3.4413   3.5496   3.7241   3.8466   3.9076   3.9427
     4.0156   4.1213   4.2063   4.2689   4.3488   4.4610   4.5183   4.5628
     4.6661   4.7063   4.8841   4.9510   5.1559   5.2338   5.2686   5.3513
     5.4880   5.5476   5.6546   5.7093   5.7619   5.8038   5.9025   6.0795
     6.1414   6.2881   6.3404   6.4173   6.4491   6.5119   6.5371   6.6066
     6.7187   6.7675   6.8496   6.9364   6.9774   6.9990   7.1001   7.1523
     7.2067   7.2373   7.3121   7.3725   7.4193   7.4450   7.5297   7.5914
     7.6935   7.7793   7.8454   7.9317   7.9658   7.9874   8.0658   8.1562
     8.1820   8.2181   8.2831   8.3622   8.4691   8.4960   8.5360   8.5918
     8.6278   8.6706   8.7399   8.7815   8.8039   8.8557   8.8990   8.9370
     9.0165   9.0683   9.1101   9.1641   9.1878   9.2531   9.2859   9.3046
     9.3369   9.3717   9.4206   9.4917   9.5102   9.5887   9.6312   9.6645
     9.6914   9.7224   9.8083   9.8328   9.8790   9.9379   9.9872  10.0277
    10.0943  10.1222  10.1785  10.2156  10.2354  10.2544  10.3126  10.3523
    10.3808  10.4147  10.4618  10.4697  10.5375  10.5765  10.6229  10.6765
    10.7132  10.7532  10.7659  10.8580  10.9289  10.9879  10.9982  11.1076
    11.1539  11.1871  11.2360  11.2631  11.3027  11.3662  11.4427  11.4719
    11.4834  11.5418

     occupation numbers 
     1.0000   1.0000   1.0000   1.0000   1.0000   1.0000   1.0000   1.0000
     1.0000   1.0000   1.0000   1.0000   1.0000   1.0000   1.0000   1.0000
     1.0000   1.0000   1.0000   1.0000   1.0000   1.0000   1.0000   1.0000
     1.0000   1.0000   1.0000   1.0000   1.0000   1.0000   1.0000   1.0000
     1.0000   1.0000   1.0000   1.0000   1.0000   1.0000   1.0000   1.0000
     1.0000   1.0000   1.0000   1.0000   1.0000   1.0000   1.0000   1.0000
     1.0000   1.0000   1.0000   1.0000   1.0000   1.0000   1.0000   1.0000
     1.0000   1.0000   1.0000   1.0000   1.0000   1.0000   1.0000   1.0000
     1.0000   1.0000   1.0000   1.0000   1.0000   1.0000   1.0000   1.0000
     1.0000   1.0000   1.0000   1.0000   1.0000   1.0000   1.0000   1.0000
     1.0000   1.0000   1.0000   1.0000   1.0000   1.0000   1.0000   1.0000
     1.0000   1.0000   1.0000   1.0000   1.0000   1.0000   1.0000   1.0000
     1.0000   1.0000   1.0000   1.0000   1.0000   1.0000   1.0000   1.0000
     1.0000   1.0000   1.0000   1.0000   1.0000   1.0000   1.0000   1.0000
     1.0000   1.0000   1.0000   1.0000   1.0000   1.0000   1.0000   1.0000
     1.0000   1.0000   1.0000   1.0000   1.0000   1.0000   1.0000   1.0000
     1.0000   1.0000   1.0000   1.0000   1.0000   1.0000   1.0000   1.0000
     1.0000   1.0000   1.0000   1.0000   1.0000   1.0000   1.0000   1.0000
     1.0000   1.0000   1.0000   1.0000   1.0000   1.0000   1.0000   1.0000
     1.0000   1.0000   1.0000   1.0000   1.0000   1.0000   1.0000   1.0000
     1.0000   1.0000   1.0000   1.0000   1.0000   1.0000   1.0000   1.0000
     1.0000   1.0000   1.0000   1.0000   1.0000   1.0000   1.0000   1.0000
     1.0000   1.0000   1.0000   1.0000   1.0000   1.0000   1.0000   1.0000
     1.0000   1.0000   1.0000   1.0000   1.0000   1.0000   1.0000   1.0000
     1.0000   1.0000   1.0000   1.0000   1.0000   1.0000   1.0000   1.0000
     1.0000   1.0000   1.0000   1.0000   1.0000   1.0000   1.0000   1.0000
     1.0000   1.0000   1.0000   1.0000   1.0000   1.0000   1.0000   1.0000
     1.0000   1.0000   1.0000   1.0000   1.0000   1.0000   1.0000   1.0000
     1.0000   1.0000   1.0000   1.0000   1.0000   1.0000   1.0000   1.0000
     1.0000   1.0000   1.0000   1.0000   1.0000   1.0000   1.0000   1.0000
     1.0000   1.0000   1.0000   1.0000   1.0000   1.0000   1.0000   1.0000
     1.0000   1.0000   1.0000   1.0000   1.0000   1.0000   1.0000   1.0000
     1.0000   1.0000   1.0000   1.0000   1.0000   1.0000   1.0000   1.0000
     1.0000   1.0000   1.0000   1.0000   1.0000   1.0000   1.0000   1.0000
     1.0000   1.0000   1.0000   1.0000   1.0000   1.0000   1.0000   1.0000
     1.0000   1.0000   1.0000   1.0000   1.0000   1.0000   1.0000   1.0000
     1.0000   1.0000   1.0000   1.0000   1.0000   1.0000   1.0000   1.0000
     1.0000   1.0000   1.0000   1.0000   1.0000   1.0000   1.0000   1.0000
     1.0000   1.0000   1.0000   1.0000   1.0000   1.0000   1.0000   1.0000
     1.0000   1.0000   1.0000   1.0000   1.0000   1.0000   1.0000   1.0000
     1.0000   1.0000   1.0000   1.0000   1.0000   1.0000   1.0000   1.0000
     1.0000   1.0000   1.0000   1.0000   1.0000   1.0000   1.0000   1.0000
     1.0000   1.0000   1.0000   1.0000   1.0000   1.0000   1.0000   1.0000
     1.0000   1.0000   1.0000   1.0000   1.0000   1.0000   1.0000   1.0000
     1.0000   1.0000   1.0000   1.0000   1.0000   1.0000   1.0000   1.0000
     1.0000   1.0000   1.0000   1.0000   1.0000   1.0000   1.0000   1.0000
     1.0000   1.0000   1.0000   1.0000   1.0000   1.0000   1.0000   1.0000
     1.0000   1.0000   1.0000   1.0000   1.0000   1.0000   1.0000   1.0000
     1.0000   1.0000   1.0000   1.0000   1.0000   1.0000   1.0000   1.0000
     1.0000   1.0000   1.0000   1.0000   1.0000   1.0000   1.0000   1.0000
     1.0000   1.0000   1.0000   1.0000   1.0000   1.0000   1.0000   1.0000
     1.0000   1.0000   1.0000   1.0000   1.0000   1.0000   1.0000   1.0000
     1.0000   1.0000   1.0000   1.0000   1.0000   1.0000   1.0000   1.0000
     1.0000   1.0000   1.0000   1.0000   1.0000   1.0000   1.0000   1.0000
     1.0000   1.0000   1.0000   1.0000   1.0000   1.0000   1.0000   1.0000
     1.0000   1.0000   1.0000   1.0000   1.0000   1.0000   1.0000   1.0000
     1.0000   1.0000   1.0000   1.0000   1.0000   1.0000   1.0000   1.0000
     1.0000   1.0000   1.0000   1.0000   1.0000   1.0000   1.0000   1.0000
     1.0000   1.0000   1.0000   1.0000   1.0000   1.0000   1.0000   1.0000
     1.0000   1.0000   1.0000   1.0000   1.0000   1.0000   1.0000   1.0000
     1.0000   1.0000   1.0000   1.0000   1.0000   1.0000   1.0000   1.0000
     1.0000   1.0000   1.0000   1.0000   1.0000   1.0000   1.0000   1.0000
     1.0000   1.0000   1.0000   1.0000   1.0000   1.0000   1.0000   1.0000
     1.0000   1.0000   1.0000   1.0000   1.0000   1.0000   1.0000   1.0000
     1.0000   1.0000   1.0000   1.0000   1.0000   1.0000   1.0000   1.0000
     1.0000   1.0000   1.0000   1.0000   1.0000   1.0000   1.0000   1.0000
     1.0000   1.0000   1.0000   1.0000   1.0000   1.0000   1.0000   1.0000
     1.0000   1.0000   1.0000   1.0000   1.0000   1.0000   1.0000   1.0000
     1.0000   1.0000   1.0000   1.0000   1.0000   1.0000   1.0000   1.0000
     1.0000   1.0000   1.0000   1.0000   1.0000   1.0000   1.0000   1.0000
     1.0000   1.0000   1.0000   1.0000   1.0000   1.0000   1.0000   1.0000
     1.0000   1.0000   1.0000   1.0000   1.0000   1.0000   1.0000   1.0000
     1.0000   1.0000   1.0000   1.0000   1.0000   1.0000   1.0000   1.0000
     1.0000   1.0000   1.0000   1.0000   1.0000   1.0000   1.0000   1.0000
     1.0000   1.0000   1.0000   1.0000   1.0000   1.0000   1.0000   1.0000
     1.0000   1.0000   1.0000   1.0000   1.0000   1.0000   1.0000   1.0000
     1.0000   1.0000   1.0000   1.0000   1.0000   1.0000   1.0000   1.0000
     1.0000   1.0000   1.0000   1.0000   1.0000   1.0000   1.0000   1.0000
     1.0000   1.0000   1.0000   1.0000   1.0000   1.0000   1.0000   1.0000
     1.0000   1.0000   1.0000   1.0000   1.0000   1.0000   1.0000   1.0000
     1.0000   1.0000   1.0000   1.0000   1.0000   1.0000   1.0000   1.0000
     1.0000   1.0000   1.0000   1.0000   1.0000   1.0001   1.0003   1.0032
     1.0261   1.0806   1.0594   0.9150   0.4674   0.1955   0.1105   0.0764
     0.0321   0.0071   0.0017   0.0005   0.0001   0.0000   0.0000   0.0000
     0.0000   0.0000   0.0000   0.0000   0.0000   0.0000   0.0000   0.0000
     0.0000   0.0000   0.0000   0.0000   0.0000   0.0000   0.0000   0.0000
     0.0000   0.0000   0.0000   0.0000   0.0000   0.0000   0.0000   0.0000
     0.0000   0.0000   0.0000   0.0000   0.0000   0.0000   0.0000   0.0000
     0.0000   0.0000   0.0000   0.0000   0.0000   0.0000   0.0000   0.0000
     0.0000   0.0000   0.0000   0.0000   0.0000   0.0000   0.0000   0.0000
     0.0000   0.0000   0.0000   0.0000   0.0000   0.0000   0.0000   0.0000
     0.0000   0.0000   0.0000   0.0000   0.0000   0.0000   0.0000   0.0000
     0.0000   0.0000   0.0000   0.0000   0.0000   0.0000   0.0000   0.0000
     0.0000   0.0000   0.0000   0.0000   0.0000   0.0000   0.0000   0.0000
     0.0000   0.0000   0.0000   0.0000   0.0000   0.0000   0.0000   0.0000
     0.0000   0.0000   0.0000   0.0000   0.0000   0.0000   0.0000   0.0000
     0.0000   0.0000   0.0000   0.0000   0.0000   0.0000   0.0000   0.0000
     0.0000   0.0000   0.0000   0.0000   0.0000   0.0000   0.0000   0.0000
     0.0000   0.0000   0.0000   0.0000   0.0000   0.0000   0.0000   0.0000
     0.0000   0.0000

          k = 0.3333 0.1925 0.0000 ( 42150 PWs)   bands (ev):

  -128.1967-128.1784-128.1226-128.0694-127.9959-127.9883-127.9771-127.9639
  -127.9135-127.9024-127.8104-127.7665-127.7632-127.6786-127.6021-127.5686
  -124.6759-124.6494-124.6029-124.5514-124.4682-124.4665-124.4562-124.4446
  -124.3811-124.3681-124.2901-124.2548-124.2385-124.1522-124.0833-124.0544
  -123.1104-123.1063-123.0345-123.0197-123.0090-123.0082-122.9478-122.9046
  -122.9041-122.8932-122.8794-122.8762-122.8553-122.8387-122.8265-122.8210
  -122.8198-122.8053-122.8008-122.7905-122.7421-122.7238-122.7203-122.7133
  -122.7055-122.7038-122.6862-122.6798-122.6710-122.6281-122.5522-122.5191
   -85.6641 -85.6430 -85.5885 -85.5386 -85.4678 -85.4573 -85.4420 -85.4318
   -85.3819 -85.3726 -85.2797 -85.2436 -85.2358 -85.1512 -85.0827 -85.0538
   -80.7759 -80.7577 -80.7532 -80.7273 -80.6806 -80.6739 -80.6446 -80.6154
   -80.5487 -80.5454 -80.5431 -80.5402 -80.5382 -80.5324 -80.5275 -80.5222
   -80.5104 -80.4664 -80.4493 -80.4386 -80.3659 -80.3573 -80.3337 -80.3278
   -80.3168 -80.3150 -80.2340 -80.2140 -80.1626 -80.1460 -80.1354 -80.1110
   -79.1428 -79.1279 -79.1107 -79.0976 -79.0623 -79.0569 -79.0221 -78.9992
   -78.9281 -78.9244 -78.9227 -78.9198 -78.9154 -78.9129 -78.9018 -78.8820
   -78.8493 -78.8175 -78.8087 -78.7936 -78.7491 -78.7414 -78.7113 -78.6996
   -78.6837 -78.6672 -78.6146 -78.5946 -78.5331 -78.5192 -78.5077 -78.4883
   -77.2148 -77.2026 -77.1960 -77.1910 -77.1865 -77.1848 -77.1338 -77.1232
   -77.1167 -77.1137 -77.1120 -77.1065 -77.1008 -77.0992 -77.0935 -77.0911
   -77.0877 -77.0867 -77.0503 -77.0353 -77.0330 -77.0293 -77.0087 -77.0053
   -77.0037 -76.9940 -76.9908 -76.9875 -76.9871 -76.9848 -76.9837 -76.9823
   -76.9710 -76.9701 -76.9641 -76.9625 -76.9610 -76.9605 -76.9596 -76.9545
   -76.9430 -76.9399 -76.9374 -76.9301 -76.9292 -76.9252 -76.9180 -76.9177
   -76.9167 -76.9157 -76.9114 -76.9104 -76.9095 -76.9038 -76.9018 -76.9011
   -76.8935 -76.8919 -76.8914 -76.8865 -76.8813 -76.8800 -76.8779 -76.8698
   -76.8419 -76.8334 -76.8288 -76.8261 -76.8255 -76.8253 -76.8198 -76.8173
   -76.8163 -76.8134 -76.8112 -76.8105 -76.8100 -76.8075 -76.8061 -76.8048
   -76.8012 -76.7995 -76.7945 -76.7937 -76.7902 -76.7839 -76.7827 -76.7793
   -76.7775 -76.7759 -76.7717 -76.7667 -76.7635 -76.7583 -76.7522 -76.7485
   -76.7309 -76.7287 -76.7159 -76.7100 -76.6543 -76.6517 -76.6440 -76.6391
   -76.6234 -76.6164 -76.6136 -76.6131 -76.6035 -76.5151 -76.4581 -76.4280
   -15.5678 -14.1489 -13.2432 -11.9484 -11.8395 -11.8034 -11.7940 -11.7505
   -11.6946 -11.6460 -11.6168 -11.6124 -11.5916 -11.5678 -11.5591 -11.5283
   -11.5100 -11.5059 -11.4767 -11.4581 -11.4122 -11.3979 -11.3627 -11.3420
   -11.3371 -11.3077 -11.3001 -11.2954 -11.2729 -11.2481 -11.2290 -11.2121
   -11.1950 -11.1800 -11.1658 -11.0980 -11.0867 -11.0849 -11.0660 -11.0560
   -11.0333 -11.0000 -10.9638 -10.9352 -10.8503 -10.8490 -10.8462 -10.8074
   -10.7962 -10.7754 -10.7234 -10.6110 -10.6106  -8.3743  -8.3098  -8.1864
    -8.1376  -8.1030  -8.0336  -8.0024  -7.8900  -7.8766  -7.8699  -7.8553
    -7.7965  -7.7492  -7.6783  -7.6611  -7.6221  -7.6209  -7.5574  -7.4854
    -7.4610  -7.3994  -7.3761  -7.3097  -7.2944  -7.2745  -7.2251  -7.1923
    -7.1604  -7.1441  -7.1058  -7.0671  -6.9963  -6.9724  -6.9458  -6.9262
    -6.5731  -6.3928  -5.8679  -5.6912  -5.5388  -5.4297  -5.3948  -5.3504
    -5.3090  -5.2958  -5.2761  -5.2425  -5.2029  -5.1899  -5.1657  -5.1570
    -5.1337  -5.1260  -5.1043  -5.0825  -5.0725  -5.0556  -5.0507  -5.0334
    -4.9762  -4.9662  -4.9329  -4.8982  -4.8744  -4.8548  -4.8317  -4.8194
    -4.8081  -4.7820  -4.7805  -4.7675  -4.7501  -4.7149  -4.6484  -4.6343
    -4.6160  -4.6088  -4.5839  -4.5539  -4.5064  -4.4914  -4.4482  -4.4222
    -4.4040  -4.3838  -4.3619  -4.3439  -4.3264  -4.3146  -4.3056  -4.2956
    -4.2643  -4.2514  -4.2369  -4.2270  -4.2138  -4.2051  -4.1908  -4.1708
    -4.1549  -4.1498  -4.1416  -4.1240  -4.1175  -4.1096  -4.0966  -4.0813
    -4.0671  -4.0623  -4.0554  -4.0474  -4.0445  -4.0279  -4.0173  -4.0130
    -4.0013  -3.9873  -3.9848  -3.9780  -3.9674  -3.9633  -3.9547  -3.9503
    -3.9350  -3.9225  -3.9132  -3.9003  -3.8890  -3.8818  -3.8765  -3.8668
    -3.8625  -3.8559  -3.8445  -3.8373  -3.8311  -3.8236  -3.8142  -3.8111
    -3.8096  -3.7978  -3.7958  -3.7889  -3.7834  -3.7766  -3.7674  -3.7626
    -3.7585  -3.7511  -3.7413  -3.7336  -3.7278  -3.7204  -3.7133  -3.6994
    -3.6939  -3.6912  -3.6839  -3.6734  -3.6696  -3.6647  -3.6614  -3.6554
    -3.6452  -3.6386  -3.6348  -3.6271  -3.6215  -3.6173  -3.6055  -3.6033
    -3.6009  -3.5946  -3.5881  -3.5825  -3.5725  -3.5679  -3.5591  -3.5545
    -3.5493  -3.5460  -3.5368  -3.5342  -3.5245  -3.5197  -3.5153  -3.5100
    -3.5060  -3.4973  -3.4933  -3.4832  -3.4770  -3.4745  -3.4658  -3.4596
    -3.4533  -3.4501  -3.4460  -3.4411  -3.4343  -3.4298  -3.4235  -3.4224
    -3.4174  -3.4141  -3.4057  -3.4037  -3.3964  -3.3949  -3.3873  -3.3828
    -3.3771  -3.3733  -3.3692  -3.3618  -3.3589  -3.3518  -3.3464  -3.3440
    -3.3360  -3.3323  -3.3283  -3.3206  -3.3162  -3.3139  -3.3117  -3.3039
    -3.2981  -3.2951  -3.2890  -3.2865  -3.2828  -3.2784  -3.2682  -3.2669
    -3.2584  -3.2552  -3.2451  -3.2400  -3.2347  -3.2303  -3.2268  -3.2200
    -3.2143  -3.2069  -3.1983  -3.1891  -3.1825  -3.1739  -3.1683  -3.1457
    -3.1441  -3.1307  -3.1120  -3.0985  -3.0899  -3.0808  -3.0652  -3.0548
    -3.0463  -3.0217  -3.0149  -2.9971  -2.9944  -2.9775  -2.9677  -2.9507
    -2.9317  -2.8893  -2.8747  -2.8607  -2.8429  -2.8269  -2.8104  -2.8039
    -2.7863  -2.7629  -2.6938  -2.6659  -2.6424  -2.6159  -2.5598  -2.5373
    -2.5318  -2.5191  -2.5012  -2.4505  -2.4108  -2.3700  -2.3534  -2.3060
    -2.2851  -2.2020  -2.1731  -2.1480  -2.0972  -2.0050  -1.9909  -1.8617
    -1.7989  -1.7427  -1.6571  -1.5329  -1.1826  -1.0915  -0.8784  -0.8699
    -0.7343  -0.6833  -0.5820  -0.4324  -0.2753  -0.1489  -0.0830  -0.0030
     0.0083   0.0584   0.1599   0.3236   0.4135   0.5647   0.6007   0.6827
     0.7364   0.8581   0.8999   1.0933   1.1448   1.2674   1.3651   1.3688
     1.5420   1.6913   1.7474   1.8041   1.8774   1.9854   2.1330   2.2973
     2.3222   2.5020   2.6876   2.7165   2.8020   2.8553   2.8948   3.0569
     3.2204   3.2744   3.4457   3.5045   3.5675   3.7350   3.8424   3.9312
     4.0298   4.1111   4.1971   4.2216   4.3051   4.3769   4.4412   4.5507
     4.5894   4.8324   4.8534   4.9268   5.0305   5.0854   5.1635   5.3048
     5.4075   5.6125   5.6681   5.6929   5.7503   5.8518   5.9009   6.0333
     6.1596   6.2220   6.3164   6.3936   6.4387   6.5244   6.5853   6.6575
     6.7957   6.8523   6.9458   6.9809   7.0569   7.0658   7.1312   7.1793
     7.2580   7.3509   7.4370   7.4868   7.4907   7.6248   7.6996   7.7287
     7.7972   7.8316   7.8780   7.9487   7.9569   7.9717   8.0225   8.1018
     8.1146   8.1587   8.2548   8.3201   8.3890   8.4231   8.4556   8.5594
     8.5818   8.6374   8.6938   8.7416   8.8046   8.8513   8.9023   8.9268
     9.0266   9.0757   9.1222   9.1738   9.2046   9.2362   9.2889   9.3463
     9.3563   9.4400   9.4648   9.4999   9.5502   9.5896   9.6283   9.6801
     9.7260   9.7497   9.7822   9.8249   9.8657   9.8868   9.9288   9.9546
    10.0376  10.0605  10.1690  10.1867  10.2154  10.2437  10.2837  10.3333
    10.3864  10.4120  10.4552  10.4793  10.5559  10.6139  10.6807  10.7278
    10.7697  10.8194  10.8414  10.8767  10.9125  10.9696  11.0130  11.0673
    11.1146  11.1546  11.1971  11.2745  11.2951  11.3175  11.3482  11.4317
    11.4992  11.5049

     occupation numbers 
     1.0000   1.0000   1.0000   1.0000   1.0000   1.0000   1.0000   1.0000
     1.0000   1.0000   1.0000   1.0000   1.0000   1.0000   1.0000   1.0000
     1.0000   1.0000   1.0000   1.0000   1.0000   1.0000   1.0000   1.0000
     1.0000   1.0000   1.0000   1.0000   1.0000   1.0000   1.0000   1.0000
     1.0000   1.0000   1.0000   1.0000   1.0000   1.0000   1.0000   1.0000
     1.0000   1.0000   1.0000   1.0000   1.0000   1.0000   1.0000   1.0000
     1.0000   1.0000   1.0000   1.0000   1.0000   1.0000   1.0000   1.0000
     1.0000   1.0000   1.0000   1.0000   1.0000   1.0000   1.0000   1.0000
     1.0000   1.0000   1.0000   1.0000   1.0000   1.0000   1.0000   1.0000
     1.0000   1.0000   1.0000   1.0000   1.0000   1.0000   1.0000   1.0000
     1.0000   1.0000   1.0000   1.0000   1.0000   1.0000   1.0000   1.0000
     1.0000   1.0000   1.0000   1.0000   1.0000   1.0000   1.0000   1.0000
     1.0000   1.0000   1.0000   1.0000   1.0000   1.0000   1.0000   1.0000
     1.0000   1.0000   1.0000   1.0000   1.0000   1.0000   1.0000   1.0000
     1.0000   1.0000   1.0000   1.0000   1.0000   1.0000   1.0000   1.0000
     1.0000   1.0000   1.0000   1.0000   1.0000   1.0000   1.0000   1.0000
     1.0000   1.0000   1.0000   1.0000   1.0000   1.0000   1.0000   1.0000
     1.0000   1.0000   1.0000   1.0000   1.0000   1.0000   1.0000   1.0000
     1.0000   1.0000   1.0000   1.0000   1.0000   1.0000   1.0000   1.0000
     1.0000   1.0000   1.0000   1.0000   1.0000   1.0000   1.0000   1.0000
     1.0000   1.0000   1.0000   1.0000   1.0000   1.0000   1.0000   1.0000
     1.0000   1.0000   1.0000   1.0000   1.0000   1.0000   1.0000   1.0000
     1.0000   1.0000   1.0000   1.0000   1.0000   1.0000   1.0000   1.0000
     1.0000   1.0000   1.0000   1.0000   1.0000   1.0000   1.0000   1.0000
     1.0000   1.0000   1.0000   1.0000   1.0000   1.0000   1.0000   1.0000
     1.0000   1.0000   1.0000   1.0000   1.0000   1.0000   1.0000   1.0000
     1.0000   1.0000   1.0000   1.0000   1.0000   1.0000   1.0000   1.0000
     1.0000   1.0000   1.0000   1.0000   1.0000   1.0000   1.0000   1.0000
     1.0000   1.0000   1.0000   1.0000   1.0000   1.0000   1.0000   1.0000
     1.0000   1.0000   1.0000   1.0000   1.0000   1.0000   1.0000   1.0000
     1.0000   1.0000   1.0000   1.0000   1.0000   1.0000   1.0000   1.0000
     1.0000   1.0000   1.0000   1.0000   1.0000   1.0000   1.0000   1.0000
     1.0000   1.0000   1.0000   1.0000   1.0000   1.0000   1.0000   1.0000
     1.0000   1.0000   1.0000   1.0000   1.0000   1.0000   1.0000   1.0000
     1.0000   1.0000   1.0000   1.0000   1.0000   1.0000   1.0000   1.0000
     1.0000   1.0000   1.0000   1.0000   1.0000   1.0000   1.0000   1.0000
     1.0000   1.0000   1.0000   1.0000   1.0000   1.0000   1.0000   1.0000
     1.0000   1.0000   1.0000   1.0000   1.0000   1.0000   1.0000   1.0000
     1.0000   1.0000   1.0000   1.0000   1.0000   1.0000   1.0000   1.0000
     1.0000   1.0000   1.0000   1.0000   1.0000   1.0000   1.0000   1.0000
     1.0000   1.0000   1.0000   1.0000   1.0000   1.0000   1.0000   1.0000
     1.0000   1.0000   1.0000   1.0000   1.0000   1.0000   1.0000   1.0000
     1.0000   1.0000   1.0000   1.0000   1.0000   1.0000   1.0000   1.0000
     1.0000   1.0000   1.0000   1.0000   1.0000   1.0000   1.0000   1.0000
     1.0000   1.0000   1.0000   1.0000   1.0000   1.0000   1.0000   1.0000
     1.0000   1.0000   1.0000   1.0000   1.0000   1.0000   1.0000   1.0000
     1.0000   1.0000   1.0000   1.0000   1.0000   1.0000   1.0000   1.0000
     1.0000   1.0000   1.0000   1.0000   1.0000   1.0000   1.0000   1.0000
     1.0000   1.0000   1.0000   1.0000   1.0000   1.0000   1.0000   1.0000
     1.0000   1.0000   1.0000   1.0000   1.0000   1.0000   1.0000   1.0000
     1.0000   1.0000   1.0000   1.0000   1.0000   1.0000   1.0000   1.0000
     1.0000   1.0000   1.0000   1.0000   1.0000   1.0000   1.0000   1.0000
     1.0000   1.0000   1.0000   1.0000   1.0000   1.0000   1.0000   1.0000
     1.0000   1.0000   1.0000   1.0000   1.0000   1.0000   1.0000   1.0000
     1.0000   1.0000   1.0000   1.0000   1.0000   1.0000   1.0000   1.0000
     1.0000   1.0000   1.0000   1.0000   1.0000   1.0000   1.0000   1.0000
     1.0000   1.0000   1.0000   1.0000   1.0000   1.0000   1.0000   1.0000
     1.0000   1.0000   1.0000   1.0000   1.0000   1.0000   1.0000   1.0000
     1.0000   1.0000   1.0000   1.0000   1.0000   1.0000   1.0000   1.0000
     1.0000   1.0000   1.0000   1.0000   1.0000   1.0000   1.0000   1.0000
     1.0000   1.0000   1.0000   1.0000   1.0000   1.0000   1.0000   1.0000
     1.0000   1.0000   1.0000   1.0000   1.0000   1.0000   1.0000   1.0000
     1.0000   1.0000   1.0000   1.0000   1.0000   1.0000   1.0000   1.0000
     1.0000   1.0000   1.0000   1.0000   1.0000   1.0000   1.0000   1.0000
     1.0000   1.0000   1.0000   1.0000   1.0000   1.0000   1.0000   1.0000
     1.0000   1.0000   1.0000   1.0000   1.0000   1.0000   1.0000   1.0000
     1.0000   1.0000   1.0000   1.0000   1.0000   1.0000   1.0000   1.0000
     1.0000   1.0000   1.0000   1.0000   1.0000   1.0000   1.0000   1.0000
[...]
     atom   77 type  4   force =     0.00000000    0.00000000    0.00000000
     atom   78 type  4   force =     0.00000000    0.00000000    0.00000000
     atom   79 type  4   force =     0.00000000    0.00000000    0.00000000
     The SCF correction term to forces
     atom    1 type  1   force =     0.00000000    0.00000000    0.00000000
     atom    2 type  1   force =    -0.00000000   -0.00000000    0.00000000
     atom    3 type  1   force =     0.00000000    0.00000000    0.00000000
     atom    4 type  1   force =    -0.00000000   -0.00000000   -0.00000000
     atom    5 type  1   force =     0.00000000    0.00000000   -0.00000000
     atom    6 type  1   force =    -0.00000000   -0.00000000   -0.00000000
     atom    7 type  1   force =    -0.00000109    0.00008860    0.00002125
     atom    8 type  1   force =    -0.00010605   -0.00013469   -0.00020195
     atom    9 type  1   force =    -0.00000000   -0.00000000    0.00000000
     atom   10 type  1   force =    -0.00000000    0.00000000    0.00000000
     atom   11 type  1   force =     0.00000000   -0.00000000    0.00000000
     atom   12 type  1   force =    -0.00000000    0.00000000   -0.00000000
     atom   13 type  1   force =     0.00000000    0.00000000   -0.00000000
     atom   14 type  1   force =    -0.00000000   -0.00000000   -0.00000000
     atom   15 type  1   force =    -0.00004923   -0.00002884   -0.00013906
     atom   16 type  1   force =    -0.00010848   -0.00024727    0.00006123
     atom   17 type  1   force =    -0.00000000    0.00000000    0.00000000
     atom   18 type  1   force =     0.00000000   -0.00000000    0.00000000
     atom   19 type  1   force =    -0.00000000    0.00000000    0.00000000
     atom   20 type  1   force =     0.00000000   -0.00000000    0.00000000
     atom   21 type  1   force =    -0.00000000    0.00000000   -0.00000000
     atom   22 type  1   force =     0.00000000   -0.00000000   -0.00000000
     atom   23 type  1   force =    -0.00006769   -0.00018691    0.00029851
     atom   24 type  1   force =     0.00008356    0.00021575   -0.00006408
     atom   25 type  1   force =     0.00000000   -0.00000000    0.00000000
     atom   26 type  1   force =     0.00000000    0.00000000    0.00000000
     atom   27 type  1   force =    -0.00000000    0.00000000   -0.00000000
     atom   28 type  1   force =     0.00000000    0.00000000    0.00000000
     atom   29 type  1   force =    -0.00000000    0.00000000   -0.00000000
     atom   30 type  1   force =     0.00000000    0.00000000   -0.00000000
     atom   31 type  1   force =     0.00001140   -0.00001618    0.00014000
     atom   32 type  1   force =     0.00012297    0.00024958    0.00001476
     atom   33 type  1   force =    -0.00000000    0.00000000    0.00000000
     atom   34 type  1   force =     0.00000000   -0.00000000    0.00000000
     atom   35 type  1   force =    -0.00000000    0.00000000   -0.00000000
     atom   36 type  1   force =    -0.00000000   -0.00000000   -0.00000000
     atom   37 type  1   force =    -0.00000000   -0.00000000   -0.00000000
     atom   38 type  1   force =    -0.00000000   -0.00000000   -0.00000000
     atom   39 type  1   force =    -0.00015761   -0.00008692    0.00009964
     atom   40 type  1   force =    -0.00034811   -0.00004271   -0.00010223
     atom   41 type  1   force =    -0.00000000   -0.00000000    0.00000000
     atom   42 type  1   force =     0.00000000    0.00000000    0.00000000
     atom   43 type  1   force =    -0.00000000    0.00000000   -0.00000000
     atom   44 type  1   force =     0.00000000   -0.00000000   -0.00000000
     atom   45 type  1   force =    -0.00000000    0.00000000   -0.00000000
     atom   46 type  1   force =     0.00000000   -0.00000000   -0.00000000
     atom   47 type  1   force =    -0.00034654   -0.00010757    0.00007391
     atom   48 type  1   force =    -0.00013685    0.00005476   -0.00006012
     atom   49 type  1   force =     0.00000000    0.00000000    0.00000000
     atom   50 type  1   force =     0.00000000   -0.00000000    0.00000000
     atom   51 type  1   force =     0.00000000    0.00000000   -0.00000000
     atom   52 type  1   force =     0.00000000   -0.00000000   -0.00000000
     atom   53 type  1   force =     0.00000000   -0.00000000   -0.00000000
     atom   54 type  1   force =     0.00000000    0.00000000   -0.00000000
     atom   55 type  1   force =     0.00013527    0.00006550    0.00016582
     atom   56 type  1   force =     0.00031946    0.00006798    0.00002188
     atom   57 type  1   force =     0.00000000    0.00000000    0.00000000
     atom   58 type  1   force =    -0.00000000    0.00000000    0.00000000
     atom   59 type  1   force =     0.00000000    0.00000000   -0.00000000
     atom   60 type  1   force =    -0.00000000   -0.00000000   -0.00000000
     atom   61 type  1   force =     0.00000000    0.00000000   -0.00000000
     atom   62 type  1   force =    -0.00000000   -0.00000000   -0.00000000
     atom   63 type  1   force =     0.00031731    0.00002086    0.00021984
     atom   64 type  1   force =     0.00015800    0.00011534   -0.00000847
     atom   65 type  2   force =     0.00001010   -0.00000933   -0.00009221
     atom   66 type  2   force =     0.00003686   -0.00006551   -0.00003851
     atom   67 type  2   force =    -0.00000951    0.00001982   -0.00000673
     atom   68 type  2   force =     0.00002203   -0.00004164   -0.00000348
     atom   69 type  2   force =    -0.00000553    0.00000128    0.00010123
     atom   70 type  2   force =     0.00000934   -0.00001695    0.00000236
     atom   71 type  2   force =    -0.00000065   -0.00000193    0.00002762
     atom   72 type  3   force =     0.00000239    0.00000401   -0.00008849
     atom   73 type  3   force =    -0.00001040    0.00001174    0.00007251
     atom   74 type  4   force =    -0.00000015   -0.00000145    0.00000926
     atom   75 type  4   force =    -0.00000248    0.00000395    0.00000877
     atom   76 type  4   force =     0.00000091   -0.00000132   -0.00000384
     atom   77 type  4   force =    -0.00001076    0.00002144   -0.00001419
     atom   78 type  4   force =     0.00000050   -0.00000207    0.00001037
     atom   79 type  4   force =    -0.00000035    0.00000088    0.00000090

     Total force =     0.563061     Total SCF correction =     0.001091


     Computing stress (Cartesian axis) and pressure


     negative rho (up, down):  3.509E-02 0.000E+00
          total   stress  (Ry/bohr**3)                   (kbar)     P=      191.58
  -0.00116416  -0.00000116   0.00001933         -171.25       -0.17        2.84
  -0.00000116   0.00689167   0.00000623           -0.17     1013.80        0.92
   0.00001933   0.00000623  -0.00182049            2.84        0.92     -267.80

     kinetic stress (kbar)  17454.50     27.81      2.80
                               27.81  17341.05      4.64
                                2.80      4.64  17381.14

     local   stress (kbar)**********   1818.92  -1897.92
                             1818.92**********   8212.62
                            -1897.92   8212.621476889.36

     nonloc. stress (kbar)  -1781.27     -1.51      0.50
                               -1.51  -1923.01     -2.46
                                0.50     -2.46  -1757.26

     hartree stress (kbar) 769283.74   -772.43    854.37
                             -772.43 788075.64  -3832.80
                              854.37  -3832.80-690703.86

     exc-cor stress (kbar)  -8469.47     -1.29      0.11
                               -1.29  -8449.06     -0.32
                                0.11     -0.32  -8468.48

     corecor stress (kbar)    -80.28      0.58      0.11
                                0.58    -81.05     -0.04
                                0.11     -0.04    -81.81

     ewald   stress (kbar) 683186.42  -1072.24   1042.87
                            -1072.24 716723.66  -4380.73
                             1042.87  -4380.73-793526.89

     hubbard stress (kbar)      0.00      0.00      0.00
                                0.00      0.00      0.00
                                0.00      0.00      0.00

     DFT-D   stress (kbar)      0.00      0.00      0.00
                                0.00      0.00      0.00
                                0.00      0.00      0.00

     XDM     stress (kbar)      0.00      0.00      0.00
                                0.00      0.00      0.00
                                0.00      0.00      0.00

     dft-nl  stress (kbar)      0.00      0.00      0.00
                                0.00      0.00      0.00
                                0.00      0.00      0.00

     TS-vdW  stress (kbar)      0.00      0.00      0.00
                                0.00      0.00      0.00
                                0.00      0.00      0.00

     MDB     stress (kbar)      0.00      0.00      0.00
                                0.00      0.00      0.00
                                0.00      0.00      0.00

     3D-RISM stress (kbar)      0.00      0.00      0.00
                                0.00      0.00      0.00
                                0.00      0.00      0.00

     Energy error            =      1.1E-01 Ry
     Gradient error          =      2.8E-01 Ry/Bohr

     number of scf cycles    =   6
     number of bfgs steps    =   5

     energy             old  =  -29684.6675861087 Ry
     energy             new  =  -29684.7794080483 Ry

     CASE: energy            _new < energy            _old

     new trust radius        =       0.0963327192 bohr
     new conv_thr            =       0.0000007350 Ry


ATOMIC_POSITIONS (angstrom)
Zn               1.2182902100        1.3071799380        0.7547006810    0   0   0
Zn               1.2182902100        6.5358996490        0.7547006810    0   0   0
Zn               1.2182902100        0.0000000010        3.0188027470    0   0   0
Zn               1.2182902100        5.2287197120        3.0188027470    0   0   0
Zn               1.2185726075       -1.3073880994        5.6729282852    0   0   0
Zn               1.2186851431        3.9215451479        5.6720151579    0   0   0
Zn               1.3480955904       -2.1563260911        8.4132103195
Zn               1.1801802159        2.4195402261        8.2512181451
Zn               1.2182902100        3.9215397940        0.7547006810    0   0   0
Zn               1.2182902100        9.1502595050        0.7547006810    0   0   0
Zn               1.2182902100        2.6143598570        3.0188027470    0   0   0
Zn               1.2182902100        7.8430795680        3.0188027470    0   0   0
Zn               1.2186883199        1.3072854268        5.6723424169    0   0   0
Zn               1.2185625130        6.5357747424        5.6727099542    0   0   0
Zn               1.1699648650        0.1407802881        8.2835068653
Zn               0.8048099015        4.6305586569        8.2821248512
Zn               6.0914510490        1.3071799380        0.7547006810    0   0   0
Zn               6.0914510490        6.5358996490        0.7547006810    0   0   0
Zn               6.0914510490        0.0000000010        3.0188027470    0   0   0
Zn               6.0914510490        5.2287197120        3.0188027470    0   0   0
Zn               6.0911338514       -1.3072242637        5.6748546444    0   0   0
Zn               6.0910857638        3.9213990650        5.6741431289    0   0   0
Zn               6.0663425577       -2.1783042543        8.4631131186
Zn               6.0920340504        2.4412744309        8.2841040919
Zn               6.0914510490        3.9215397940        0.7547006810    0   0   0
Zn               6.0914510490        9.1502595050        0.7547006810    0   0   0
Zn               6.0914510490        2.6143598570        3.0188027470    0   0   0
Zn               6.0914510490        7.8430795680        3.0188027470    0   0   0
Zn               6.0911030401        1.3076064174        5.6744400348    0   0   0
Zn               6.0911314819        6.5354481156        5.6746346244    0   0   0
Zn               6.0783118779        0.1292579196        8.2913645225
Zn               5.9439510340        4.7599561137        8.3379021312
Zn               3.6548706290       -0.0000000190        1.5094013850    0   0   0
Zn               3.6548706290        5.2287196920        1.5094013850    0   0   0
Zn               3.6548706290       -1.3071799560        3.7735034500    0   0   0
Zn               3.6548706290        3.9215397550        3.7735034500    0   0   0
Zn               3.6546710580       -2.6147701593        6.0778389286    0   0   0
Zn               3.6547432516        2.6146750712        6.0771464013    0   0   0
Zn               3.8323639579       -3.4539836780        8.6920783367
Zn               3.6512370792        1.1895565461        8.4468291565
Zn               3.6548706290        2.6143598370        1.5094013850    0   0   0
Zn               3.6548706290        7.8430795480        1.5094013850    0   0   0
Zn               3.6548706290        1.3071799000        3.7735034500    0   0   0
Zn               3.6548706290        6.5358996110        3.7735034500    0   0   0
Zn               3.6547437702        0.0001669099        6.0773502731    0   0   0
Zn               3.6547864959        5.2284186199        6.0775758154    0   0   0
Zn               3.6549106701       -1.1228005301        8.5085771248
Zn               3.6482669414        3.4892049637        8.4997270517
Zn               8.5280314680       -0.0000000190        1.5094013850    0   0   0
Zn               8.5280314680        5.2287196920        1.5094013850    0   0   0
Zn               8.5280314680       -1.3071799560        3.7735034500    0   0   0
Zn               8.5280314680        3.9215397550        3.7735034500    0   0   0
Zn               8.5281647867       -2.6147587956        6.0779299812    0   0   0
Zn               8.5281732184        2.6146472247        6.0772010317    0   0   0
Zn               8.9226576776       -3.3326412626        8.7486147380
Zn               8.5860078034        1.1875228167        8.4274203589
Zn               8.5280314680        2.6143598370        1.5094013850    0   0   0
Zn               8.5280314680        7.8430795480        1.5094013850    0   0   0
Zn               8.5280314680        1.3071799000        3.7735034500    0   0   0
Zn               8.5280314680        6.5358996110        3.7735034500    0   0   0
Zn               8.5282171944       -0.0000137934        6.0774321744    0   0   0
Zn               8.5281738077        5.2286143460        6.0776528160    0   0   0
Zn               8.5728927617       -1.1062754631        8.4794708954
Zn               8.4083187860        3.4809999550        8.4964765574
C                4.7805546793        1.4708691125       17.3364035768
C                4.7858679752        1.5712197465       15.9056600952
C                4.2191028839        2.6989144168       15.2654415937
C                5.3632977597        0.5408633671       15.1105707593
C                5.3644300787        0.6525525770       13.7232690593
C                4.2390810910        2.7687697798       13.8796149148
C                4.8007381898        1.7725175014       13.0875741374
N                4.7710130141        1.3844348397       18.5189008261
N                4.8086069178        1.8818769346       11.7278316800
H                5.2254605672        1.1483576193       11.1343220464
H                4.4118220168        2.6777016051       11.2444928005
H                3.7722958894        3.4944436232       15.8681828131
H                5.8004439766       -0.3223026292       15.6012946135
H                5.8186500776       -0.1496806328       13.1257870632
H                3.7732973437        3.7031297275       13.3785582897



     Writing config-only to output data dir ./tmp/Zn100_2x4x4_primitive_atoms32_14Avacumn_ABN_bridge_upright_cross.save/ :
     XML data file
     NEW-OLD atomic charge density approx. for the potential

     Check: negative core charge=   -0.000056

     negative rho (up, down):  3.455E-02 0.000E+00

     total cpu time spent up to now is    28001.9 secs

     Self-consistent Calculation

     iteration #  1     ecut=    30.00 Ry     beta= 0.70
     Davidson diagonalization with overlap

---- Real-time Memory Report at c_bands before calling an iterative solver
           296 MiB given to the printing process from OS
             0 MiB allocation reported by mallinfo(arena+hblkhd)
        181664 MiB available memory on the node where the printing process lives
------------------
     ethr =  1.00E-06,  avg # of iterations = 12.0

     negative rho (up, down):  3.483E-02 0.000E+00

     total cpu time spent up to now is    28551.3 secs

     total energy              =  -29684.83212366 Ry
     estimated scf accuracy    <       0.02243032 Ry

     iteration #  2     ecut=    30.00 Ry     beta= 0.70
     Davidson diagonalization with overlap

---- Real-time Memory Report at c_bands before calling an iterative solver
           296 MiB given to the printing process from OS
             0 MiB allocation reported by mallinfo(arena+hblkhd)
        181569 MiB available memory on the node where the printing process lives
------------------
     ethr =  1.69E-06,  avg # of iterations = 11.2

     negative rho (up, down):  3.496E-02 0.000E+00

     total cpu time spent up to now is    28842.6 secs

     total energy              =  -29684.82804953 Ry
     estimated scf accuracy    <       0.05210353 Ry

     iteration #  3     ecut=    30.00 Ry     beta= 0.70
     Davidson diagonalization with overlap

---- Real-time Memory Report at c_bands before calling an iterative solver
           296 MiB given to the printing process from OS
             0 MiB allocation reported by mallinfo(arena+hblkhd)
        181534 MiB available memory on the node where the printing process lives
------------------
     ethr =  1.69E-06,  avg # of iterations = 13.4

     negative rho (up, down):  3.499E-02 0.000E+00

     total cpu time spent up to now is    29145.8 secs

     total energy              =  -29684.82252095 Ry
     estimated scf accuracy    <       0.35239296 Ry

     iteration #  4     ecut=    30.00 Ry     beta= 0.70
     Davidson diagonalization with overlap

---- Real-time Memory Report at c_bands before calling an iterative solver
           296 MiB given to the printing process from OS
             0 MiB allocation reported by mallinfo(arena+hblkhd)
        181523 MiB available memory on the node where the printing process lives
------------------
     c_bands:  1 eigenvalues not converged
     ethr =  1.69E-06,  avg # of iterations = 13.8

     negative rho (up, down):  3.511E-02 0.000E+00

     total cpu time spent up to now is    29435.1 secs

     total energy              =  -29684.83808123 Ry
     estimated scf accuracy    <       0.04189674 Ry

     iteration #  5     ecut=    30.00 Ry     beta= 0.70
     Davidson diagonalization with overlap

---- Real-time Memory Report at c_bands before calling an iterative solver
           296 MiB given to the printing process from OS
             0 MiB allocation reported by mallinfo(arena+hblkhd)
        181499 MiB available memory on the node where the printing process lives
------------------
     ethr =  1.69E-06,  avg # of iterations =  6.2

     negative rho (up, down):  3.514E-02 0.000E+00

     total cpu time spent up to now is    29679.6 secs

     total energy              =  -29684.83956520 Ry
     estimated scf accuracy    <       0.00659582 Ry

     iteration #  6     ecut=    30.00 Ry     beta= 0.70
     Davidson diagonalization with overlap

---- Real-time Memory Report at c_bands before calling an iterative solver
           296 MiB given to the printing process from OS
             0 MiB allocation reported by mallinfo(arena+hblkhd)
        181482 MiB available memory on the node where the printing process lives
------------------
