
     Program PWSCF v.7.3.1 starts on 27Mar2025 at  1: 6:38 

     This program is part of the open-source Quantum ESPRESSO suite
     for quantum simulation of materials; please cite
         "P. Giannozzi et al., J. Phys.:Condens. Matter 21 395502 (2009);
         "P. Giannozzi et al., J. Phys.:Condens. Matter 29 465901 (2017);
         "P. Giannozzi et al., J. Chem. Phys. 152 154105 (2020);
          URL http://www.quantum-espresso.org", 
     in publications or presentations arising from this work. More details at
     http://www.quantum-espresso.org/quote

     Parallel version (MPI), running on    33 processors

     MPI processes distributed on     1 nodes
     53546 MiB available memory on the printing compute node when the environment starts

     Waiting for input...
     Reading input from standard input

     Current dimensions of program PWSCF are:
     Max number of different atomic species (ntypx) = 10
     Max number of k-points (npk) =  40000
     Max angular momentum in pseudopotentials (lmaxx) =  4
     Found identity + ( -0.5000  0.0000  0.0000) symmetry
     This is a supercell, fractional translations are disabled

     R & G space division:  proc/nbgrp/npool/nimage =      33
     Subspace diagonalization in iterative solution of the eigenvalue problem:
     one sub-group per band group will be used
     custom distributed-memory algorithm (size of sub-group:  5*  5 procs)


     Parallelization info
     --------------------
     sticks:   dense  smooth     PW     G-vecs:    dense   smooth      PW
     Min         228     130     35                36393    15714    2165
     Max         230     131     36                36401    15723    2173
     Sum        7555    4303   1159              1201061   518755   71619

     Using Slab Decomposition



     bravais-lattice index     =            0
     lattice parameter (alat)  =      19.7617  a.u.
     unit-cell volume          =   15176.5939 (a.u.)^3
     number of atoms/cell      =           48
     number of atomic types    =            1
     number of electrons       =       960.00
     number of Kohn-Sham states=          576
     kinetic-energy cutoff     =      40.0000  Ry
     charge density cutoff     =     280.0000  Ry
     scf convergence threshold =      1.0E-05
     mixing beta               =       0.4000
     number of iterations used =            8  plain     mixing
     Exchange-correlation= SLA  PW   PBE  PBE
                           (   1   4   3   4   0   0   0)

     celldm(1)=  19.761696  celldm(2)=   0.000000  celldm(3)=   0.000000
     celldm(4)=   0.000000  celldm(5)=   0.000000  celldm(6)=   0.000000

     crystal axes: (cart. coord. in units of alat)
               a(1) = (   1.000000   0.000000   0.000000 )  
               a(2) = (  -0.500000   0.866025   0.000000 )  
               a(3) = (   0.000000   0.000000   2.270759 )  

     reciprocal axes: (cart. coord. in units 2 pi/alat)
               b(1) = (  1.000000  0.577350 -0.000000 )  
               b(2) = (  0.000000  1.154701  0.000000 )  
               b(3) = (  0.000000 -0.000000  0.440381 )  


     PseudoPot. # 1 for Zn read from file:
     /home/ys/qepseudo/SSSP_1.3.0_PBE_efficiency/Zn_pbe_v1.uspp.F.UPF
     MD5 check sum: df62231357ef9e81f77b2b3087fa5675
     Pseudo is Ultrasoft, Zval = 20.0
     Generated by new atomic code, or converted to UPF format
     Using radial grid of  943 points,  6 beta functions with: 
                l(1) =   0
                l(2) =   0
                l(3) =   1
                l(4) =   1
                l(5) =   2
                l(6) =   2
     Q(r) pseudized with  8 coefficients,  rinner =    1.100   1.100   1.100
                                                       1.100   1.100

     atomic species   valence    mass     pseudopotential
     Zn               20.00    65.38000     Zn( 1.00)

     No symmetry found


                                    s                        frac. trans.

      isym =  1     identity                                     

 cryst.   s( 1) = (     1          0          0      )
                  (     0          1          0      )
                  (     0          0          1      )

 cart.    s( 1) = (  1.0000000  0.0000000  0.0000000 )
                  (  0.0000000  1.0000000  0.0000000 )
                  (  0.0000000  0.0000000  1.0000000 )


   Cartesian axes

     site n.     atom                  positions (alat units)
         1        Zn     tau(   1) = (   0.0000000   0.1443375   0.1164998  )
         2        Zn     tau(   2) = (   0.5000000   0.1443375   0.1164998  )
         3        Zn     tau(   3) = (   0.0000000   0.1443375   0.5824993  )
         4        Zn     tau(   4) = (   0.5000000   0.1443375   0.5824993  )
         5        Zn     tau(   5) = (  -0.1250000   0.3608439   0.1164998  )
         6        Zn     tau(   6) = (   0.3750000   0.3608439   0.1164998  )
         7        Zn     tau(   7) = (  -0.1250000   0.3608439   0.5824993  )
         8        Zn     tau(   8) = (   0.3750000   0.3608439   0.5824993  )
         9        Zn     tau(   9) = (  -0.2500000   0.5773502   0.1164998  )
        10        Zn     tau(  10) = (   0.2500000   0.5773502   0.1164998  )
        11        Zn     tau(  11) = (  -0.2500000   0.5773502   0.5824993  )
        12        Zn     tau(  12) = (   0.2500000   0.5773502   0.5824993  )
        13        Zn     tau(  13) = (  -0.3750000   0.7938567   0.1164998  )
        14        Zn     tau(  14) = (   0.1250000   0.7938567   0.1164998  )
        15        Zn     tau(  15) = (  -0.3750000   0.7938567   0.5824993  )
        16        Zn     tau(  16) = (   0.1250000   0.7938567   0.5824993  )
        17        Zn     tau(  17) = (   0.2500000   0.1443375   0.1164998  )
        18        Zn     tau(  18) = (   0.7500000   0.1443375   0.1164998  )
        19        Zn     tau(  19) = (   0.2500000   0.1443375   0.5824993  )
        20        Zn     tau(  20) = (   0.7500000   0.1443375   0.5824993  )
        21        Zn     tau(  21) = (   0.1250000   0.3608439   0.1164998  )
        22        Zn     tau(  22) = (   0.6250000   0.3608439   0.1164998  )
        23        Zn     tau(  23) = (   0.1250000   0.3608439   0.5824993  )
        24        Zn     tau(  24) = (   0.6250000   0.3608439   0.5824993  )
        25        Zn     tau(  25) = (   0.0000000   0.5773502   0.1164998  )
        26        Zn     tau(  26) = (   0.5000000   0.5773502   0.1164998  )
        27        Zn     tau(  27) = (   0.0000000   0.5773502   0.5824993  )
        28        Zn     tau(  28) = (   0.5000000   0.5773502   0.5824993  )
        29        Zn     tau(  29) = (  -0.1250000   0.7938567   0.1164998  )
        30        Zn     tau(  30) = (   0.3750000   0.7938567   0.1164998  )
        31        Zn     tau(  31) = (  -0.1250000   0.7938567   0.5824993  )
        32        Zn     tau(  32) = (   0.3750000   0.7938567   0.5824993  )
        33        Zn     tau(  33) = (   0.1250000   0.0721688   0.3494996  )
        34        Zn     tau(  34) = (   0.6250000   0.0721688   0.3494996  )
        35        Zn     tau(  35) = (   0.0000000   0.2886752   0.3494996  )
        36        Zn     tau(  36) = (   0.5000000   0.2886752   0.3494996  )
        37        Zn     tau(  37) = (  -0.1250000   0.5051815   0.3494996  )
        38        Zn     tau(  38) = (   0.3750000   0.5051815   0.3494996  )
        39        Zn     tau(  39) = (  -0.2500000   0.7216879   0.3494996  )
        40        Zn     tau(  40) = (   0.2500000   0.7216879   0.3494996  )
        41        Zn     tau(  41) = (   0.3750000   0.0721688   0.3494996  )
        42        Zn     tau(  42) = (   0.8750000   0.0721688   0.3494996  )
        43        Zn     tau(  43) = (   0.2500000   0.2886752   0.3494996  )
        44        Zn     tau(  44) = (   0.7500000   0.2886752   0.3494996  )
        45        Zn     tau(  45) = (   0.1250000   0.5051815   0.3494996  )
        46        Zn     tau(  46) = (   0.6250000   0.5051815   0.3494996  )
        47        Zn     tau(  47) = (   0.0000000   0.7216879   0.3494996  )
        48        Zn     tau(  48) = (   0.5000000   0.7216879   0.3494996  )

   Crystallographic axes

     site n.     atom                  positions (cryst. coord.)
         1        Zn     tau(   1) = (  0.0833333  0.1666666  0.0513044  )
         2        Zn     tau(   2) = (  0.5833333  0.1666666  0.0513044  )
         3        Zn     tau(   3) = (  0.0833333  0.1666666  0.2565219  )
         4        Zn     tau(   4) = (  0.5833333  0.1666666  0.2565219  )
         5        Zn     tau(   5) = (  0.0833333  0.4166666  0.0513044  )
         6        Zn     tau(   6) = (  0.5833333  0.4166666  0.0513044  )
         7        Zn     tau(   7) = (  0.0833333  0.4166666  0.2565219  )
         8        Zn     tau(   8) = (  0.5833333  0.4166666  0.2565219  )
         9        Zn     tau(   9) = (  0.0833333  0.6666666  0.0513044  )
        10        Zn     tau(  10) = (  0.5833333  0.6666666  0.0513044  )
        11        Zn     tau(  11) = (  0.0833333  0.6666666  0.2565219  )
        12        Zn     tau(  12) = (  0.5833333  0.6666666  0.2565219  )
        13        Zn     tau(  13) = (  0.0833333  0.9166667  0.0513044  )
        14        Zn     tau(  14) = (  0.5833334  0.9166667  0.0513044  )
        15        Zn     tau(  15) = (  0.0833333  0.9166667  0.2565219  )
        16        Zn     tau(  16) = (  0.5833334  0.9166667  0.2565219  )
        17        Zn     tau(  17) = (  0.3333333  0.1666666  0.0513044  )
        18        Zn     tau(  18) = (  0.8333334  0.1666666  0.0513044  )
        19        Zn     tau(  19) = (  0.3333333  0.1666666  0.2565219  )
        20        Zn     tau(  20) = (  0.8333334  0.1666666  0.2565219  )
        21        Zn     tau(  21) = (  0.3333333  0.4166666  0.0513044  )
        22        Zn     tau(  22) = (  0.8333333  0.4166666  0.0513044  )
        23        Zn     tau(  23) = (  0.3333333  0.4166666  0.2565219  )
        24        Zn     tau(  24) = (  0.8333333  0.4166666  0.2565219  )
        25        Zn     tau(  25) = (  0.3333333  0.6666666  0.0513044  )
        26        Zn     tau(  26) = (  0.8333333  0.6666666  0.0513044  )
        27        Zn     tau(  27) = (  0.3333333  0.6666666  0.2565219  )
        28        Zn     tau(  28) = (  0.8333333  0.6666666  0.2565219  )
        29        Zn     tau(  29) = (  0.3333334  0.9166667  0.0513044  )
        30        Zn     tau(  30) = (  0.8333334  0.9166667  0.0513044  )
        31        Zn     tau(  31) = (  0.3333334  0.9166667  0.2565219  )
        32        Zn     tau(  32) = (  0.8333334  0.9166667  0.2565219  )
        33        Zn     tau(  33) = (  0.1666667  0.0833334  0.1539131  )
        34        Zn     tau(  34) = (  0.6666667  0.0833334  0.1539131  )
        35        Zn     tau(  35) = (  0.1666667  0.3333334  0.1539131  )
        36        Zn     tau(  36) = (  0.6666667  0.3333334  0.1539131  )
        37        Zn     tau(  37) = (  0.1666667  0.5833334  0.1539131  )
        38        Zn     tau(  38) = (  0.6666667  0.5833334  0.1539131  )
        39        Zn     tau(  39) = (  0.1666667  0.8333334  0.1539131  )
        40        Zn     tau(  40) = (  0.6666667  0.8333334  0.1539131  )
        41        Zn     tau(  41) = (  0.4166667  0.0833334  0.1539131  )
        42        Zn     tau(  42) = (  0.9166667  0.0833334  0.1539131  )
        43        Zn     tau(  43) = (  0.4166667  0.3333334  0.1539131  )
        44        Zn     tau(  44) = (  0.9166667  0.3333334  0.1539131  )
        45        Zn     tau(  45) = (  0.4166667  0.5833334  0.1539131  )
        46        Zn     tau(  46) = (  0.9166667  0.5833334  0.1539131  )
        47        Zn     tau(  47) = (  0.4166667  0.8333334  0.1539131  )
        48        Zn     tau(  48) = (  0.9166667  0.8333334  0.1539131  )

     number of k points=     5  Marzari-Vanderbilt smearing, width (Ry)=  0.0200
                       cart. coord. in units 2pi/alat
        k(    1) = (   0.0000000   0.0000000   0.0000000), wk =   0.2222222
        k(    2) = (   0.0000000   0.3849002   0.0000000), wk =   0.4444444
        k(    3) = (   0.3333333   0.1924501   0.0000000), wk =   0.4444444
        k(    4) = (   0.3333333   0.5773503   0.0000000), wk =   0.4444444
        k(    5) = (   0.3333333  -0.1924501   0.0000000), wk =   0.4444444

                       cryst. coord.
        k(    1) = (   0.0000000   0.0000000   0.0000000), wk =   0.2222222
        k(    2) = (   0.0000000   0.3333333   0.0000000), wk =   0.4444444
        k(    3) = (   0.3333333   0.0000000   0.0000000), wk =   0.4444444
        k(    4) = (   0.3333333   0.3333333   0.0000000), wk =   0.4444444
        k(    5) = (   0.3333333  -0.3333333   0.0000000), wk =   0.4444444

     Dense  grid:  1201061 G-vectors     FFT dimensions: ( 108, 108, 240)

     Smooth grid:   518755 G-vectors     FFT dimensions: (  80,  80, 192)

     Dynamical RAM for                 wfc:      17.26 MB

     Dynamical RAM for     wfc (w. buffer):     103.57 MB

     Dynamical RAM for           str. fact:       0.56 MB

     Dynamical RAM for           local pot:       0.00 MB

     Dynamical RAM for          nlocal pot:      25.89 MB

     Dynamical RAM for                qrad:       1.34 MB

     Dynamical RAM for          rho,v,vnew:       3.80 MB

     Dynamical RAM for               rhoin:       1.27 MB

     Dynamical RAM for            rho*nmix:       8.89 MB

     Dynamical RAM for           G-vectors:       2.20 MB

     Dynamical RAM for          h,s,v(r/c):       2.42 MB

     Dynamical RAM for          <psi|beta>:       7.59 MB

     Dynamical RAM for                 psi:      34.52 MB

     Dynamical RAM for                hpsi:      34.52 MB

     Dynamical RAM for                spsi:      34.52 MB

     Dynamical RAM for      wfcinit/wfcrot:      46.32 MB

     Dynamical RAM for           addusdens:     129.95 MB

     Estimated static dynamical RAM per process >     143.30 MB

     Estimated max dynamical RAM per process >     282.14 MB

     Estimated total dynamical RAM >       9.09 GB

     Initial potential from superposition of free atoms

     starting charge     959.9932, renormalised to     960.0000

     negative rho (up, down):  4.194E-03 0.000E+00
     Starting wfcs are  624 randomized atomic wfcs

     total cpu time spent up to now is       56.7 secs

     Self-consistent Calculation

     iteration #  1     ecut=    40.00 Ry     beta= 0.40
     Davidson diagonalization with overlap

---- Real-time Memory Report at c_bands before calling an iterative solver
           211 MiB given to the printing process from OS
             0 MiB allocation reported by mallinfo(arena+hblkhd)
         48472 MiB available memory on the node where the printing process lives
------------------
     ethr =  1.00E-02,  avg # of iterations = 10.0

     Threshold (ethr) on eigenvalues was too large:
     Diagonalizing with lowered threshold

     Davidson diagonalization with overlap

---- Real-time Memory Report at c_bands before calling an iterative solver
           303 MiB given to the printing process from OS
             0 MiB allocation reported by mallinfo(arena+hblkhd)
         47345 MiB available memory on the node where the printing process lives
------------------
     ethr =  1.62E-04,  avg # of iterations =  9.4

     negative rho (up, down):  4.972E-03 0.000E+00

     total cpu time spent up to now is      497.8 secs

     total energy              =  -22153.84522448 Ry
     estimated scf accuracy    <       1.58279153 Ry

     iteration #  2     ecut=    40.00 Ry     beta= 0.40
     Davidson diagonalization with overlap

---- Real-time Memory Report at c_bands before calling an iterative solver
           313 MiB given to the printing process from OS
             0 MiB allocation reported by mallinfo(arena+hblkhd)
         47254 MiB available memory on the node where the printing process lives
------------------
     ethr =  1.65E-04,  avg # of iterations =  2.0

     negative rho (up, down):  5.520E-03 0.000E+00

     total cpu time spent up to now is      709.1 secs

     total energy              =  -22154.22540741 Ry
     estimated scf accuracy    <       0.28963246 Ry

     iteration #  3     ecut=    40.00 Ry     beta= 0.40
     Davidson diagonalization with overlap

---- Real-time Memory Report at c_bands before calling an iterative solver
           316 MiB given to the printing process from OS
             0 MiB allocation reported by mallinfo(arena+hblkhd)
         47224 MiB available memory on the node where the printing process lives
------------------
     c_bands:  1 eigenvalues not converged
     ethr =  3.02E-05,  avg # of iterations = 11.4

     negative rho (up, down):  5.733E-03 0.000E+00

     total cpu time spent up to now is      909.7 secs

     total energy              =  -22154.24257918 Ry
     estimated scf accuracy    <       0.05616088 Ry

     iteration #  4     ecut=    40.00 Ry     beta= 0.40
     Davidson diagonalization with overlap

---- Real-time Memory Report at c_bands before calling an iterative solver
           318 MiB given to the printing process from OS
             0 MiB allocation reported by mallinfo(arena+hblkhd)
         47207 MiB available memory on the node where the printing process lives
------------------
     ethr =  5.85E-06,  avg # of iterations =  7.8

     negative rho (up, down):  5.971E-03 0.000E+00

     total cpu time spent up to now is     1113.6 secs

     total energy              =  -22154.24208123 Ry
     estimated scf accuracy    <       0.05553149 Ry

     iteration #  5     ecut=    40.00 Ry     beta= 0.40
     Davidson diagonalization with overlap

---- Real-time Memory Report at c_bands before calling an iterative solver
           318 MiB given to the printing process from OS
             0 MiB allocation reported by mallinfo(arena+hblkhd)
         47191 MiB available memory on the node where the printing process lives
------------------
     ethr =  5.78E-06,  avg # of iterations =  5.4

     negative rho (up, down):  6.019E-03 0.000E+00

     total cpu time spent up to now is     1308.8 secs

     total energy              =  -22154.24828895 Ry
     estimated scf accuracy    <       0.00182481 Ry

     iteration #  6     ecut=    40.00 Ry     beta= 0.40
     Davidson diagonalization with overlap

---- Real-time Memory Report at c_bands before calling an iterative solver
           319 MiB given to the printing process from OS
             0 MiB allocation reported by mallinfo(arena+hblkhd)
         47174 MiB available memory on the node where the printing process lives
------------------
     ethr =  1.90E-07,  avg # of iterations =  2.0

     negative rho (up, down):  6.050E-03 0.000E+00

     total cpu time spent up to now is     1516.2 secs

     total energy              =  -22154.24858142 Ry
     estimated scf accuracy    <       0.00016178 Ry

     iteration #  7     ecut=    40.00 Ry     beta= 0.40
     Davidson diagonalization with overlap

---- Real-time Memory Report at c_bands before calling an iterative solver
           319 MiB given to the printing process from OS
             0 MiB allocation reported by mallinfo(arena+hblkhd)
         47156 MiB available memory on the node where the printing process lives
------------------
     c_bands:  1 eigenvalues not converged
     ethr =  1.69E-08,  avg # of iterations =  5.8

     negative rho (up, down):  6.073E-03 0.000E+00

     total cpu time spent up to now is     1734.5 secs

     total energy              =  -22154.24857803 Ry
     estimated scf accuracy    <       0.00092886 Ry

     iteration #  8     ecut=    40.00 Ry     beta= 0.40
     Davidson diagonalization with overlap

---- Real-time Memory Report at c_bands before calling an iterative solver
           320 MiB given to the printing process from OS
             0 MiB allocation reported by mallinfo(arena+hblkhd)
         47137 MiB available memory on the node where the printing process lives
------------------
     ethr =  1.69E-08,  avg # of iterations =  5.0

     negative rho (up, down):  6.089E-03 0.000E+00

     total cpu time spent up to now is     1918.4 secs

     total energy              =  -22154.24862231 Ry
     estimated scf accuracy    <       0.00003752 Ry

     iteration #  9     ecut=    40.00 Ry     beta= 0.40
     Davidson diagonalization with overlap

---- Real-time Memory Report at c_bands before calling an iterative solver
           320 MiB given to the printing process from OS
             0 MiB allocation reported by mallinfo(arena+hblkhd)
         47120 MiB available memory on the node where the printing process lives
------------------
     ethr =  3.91E-09,  avg # of iterations =  3.0

     negative rho (up, down):  6.100E-03 0.000E+00

     total cpu time spent up to now is     2153.8 secs

     total energy              =  -22154.24863169 Ry
     estimated scf accuracy    <       0.00002521 Ry

     iteration # 10     ecut=    40.00 Ry     beta= 0.40
     Davidson diagonalization with overlap

---- Real-time Memory Report at c_bands before calling an iterative solver
           320 MiB given to the printing process from OS
             0 MiB allocation reported by mallinfo(arena+hblkhd)
         47102 MiB available memory on the node where the printing process lives
------------------
     ethr =  2.63E-09,  avg # of iterations =  2.0

     negative rho (up, down):  6.118E-03 0.000E+00

     total cpu time spent up to now is     2367.8 secs

     End of self-consistent calculation

          k = 0.0000 0.0000 0.0000 ( 64855 PWs)   bands (ev):

  -125.1567-125.1553-125.1551-125.1551-125.1548-125.1548-125.1546-125.1535
  -125.1535-125.1535-125.1534-125.1532-125.1531-125.1529-125.1526-125.1525
  -124.9038-124.9037-124.9023-124.9022-124.9022-124.9022-124.9021-124.9021
  -124.9020-124.9019-124.9019-124.9018-124.9018-124.9017-124.9006-124.9006
  -124.9005-124.9005-124.9005-124.9004-124.9004-124.9003-124.9003-124.9003
  -124.9003-124.9002-124.9001-124.9001-124.8999-124.8998-124.8997-124.8997
   -79.3258 -79.3258 -79.3258 -79.3193 -79.3193 -79.3191 -79.3190 -79.3190
   -79.3190 -79.3080 -79.3079 -79.3079 -79.3077 -79.3077 -79.3076 -79.3059
   -79.3059 -79.3057 -79.3057 -79.3056 -79.3056 -79.2993 -79.2991 -79.2991
   -79.2991 -79.2976 -79.2974 -79.2974 -79.2971 -79.2971 -79.2969 -79.2956
   -79.2956 -79.2955 -79.2954 -79.2953 -79.2952 -79.2950 -79.2947 -79.2946
   -79.2946 -79.2945 -79.2945 -79.2943 -79.2943 -79.2942 -79.2897 -79.2897
   -79.0674 -79.0674 -79.0674 -79.0673 -79.0673 -79.0673 -79.0609 -79.0609
   -79.0608 -79.0608 -79.0607 -79.0607 -79.0606 -79.0606 -79.0606 -79.0606
   -79.0606 -79.0606 -79.0595 -79.0592 -79.0578 -79.0576 -79.0576 -79.0576
   -79.0575 -79.0575 -79.0574 -79.0573 -79.0572 -79.0572 -79.0572 -79.0571
   -79.0559 -79.0558 -79.0558 -79.0557 -79.0557 -79.0557 -79.0556 -79.0556
   -79.0555 -79.0555 -79.0555 -79.0554 -79.0554 -79.0553 -79.0551 -79.0550
   -79.0550 -79.0549 -79.0495 -79.0495 -79.0495 -79.0495 -79.0494 -79.0494
   -79.0493 -79.0493 -79.0493 -79.0493 -79.0492 -79.0492 -79.0475 -79.0475
   -79.0474 -79.0474 -79.0473 -79.0473 -79.0473 -79.0473 -79.0473 -79.0472
   -79.0472 -79.0472 -79.0408 -79.0408 -79.0408 -79.0407 -79.0407 -79.0407
   -79.0362 -79.0361 -79.0361 -79.0361 -79.0361 -79.0361 -79.0360 -79.0360
   -79.0359 -79.0359 -79.0359 -79.0359 -79.0314 -79.0314 -79.0313 -79.0313
    -8.6913  -7.4397  -7.1540  -7.1410  -7.1409  -7.1409  -7.1407  -7.1407
    -7.1407  -7.0037  -7.0036  -7.0036  -6.7852  -6.7852  -6.7852  -6.7209
    -6.7209  -6.7209  -6.6546  -6.6546  -6.6546  -6.6544  -6.6544  -6.6544
    -6.5929  -6.5929  -6.5929  -6.5916  -6.5916  -6.5916  -6.5915  -6.5915
    -6.5914  -6.5548  -6.5548  -6.5547  -6.5546  -6.5545  -6.5545  -6.5191
    -6.5191  -6.5189  -6.5189  -6.5189  -6.5189  -6.3909  -6.3909  -6.3908
    -6.3908  -6.3905  -6.3905  -6.3844  -6.3844  -6.3844  -6.3371  -6.3370
    -6.3370  -6.3369  -6.3369  -6.3368  -6.3303  -6.2674  -6.2673  -6.2673
    -6.2672  -6.2672  -6.2671  -6.2325  -6.2325  -6.2325  -6.2325  -6.2325
    -6.2325  -6.2142  -6.2142  -6.2015  -6.2014  -6.2014  -6.2014  -6.2013
    -6.2013  -6.1729  -6.1729  -6.1728  -6.1728  -6.1728  -6.1728  -6.1721
    -6.1720  -6.1720  -6.1720  -6.1720  -6.1720  -6.1419  -6.1419  -6.1419
    -6.0602  -6.0602  -6.0601  -6.0601  -6.0600  -6.0600  -5.9598  -5.9598
    -5.9385  -5.9385  -5.9148  -5.9148  -5.9148  -5.9148  -5.9146  -5.9146
    -5.9086  -5.9086  -5.9086  -5.9057  -5.9057  -5.9057  -5.9056  -5.9056
    -5.9056  -5.8277  -5.8277  -5.8277  -5.8277  -5.8276  -5.8276  -5.8252
    -5.8252  -5.8252  -5.8251  -5.8251  -5.8251  -5.8225  -5.8224  -5.8224
    -5.8223  -5.8223  -5.8222  -5.8191  -5.8191  -5.8191  -5.8191  -5.8191
    -5.8191  -5.8189  -5.8188  -5.8188  -5.8187  -5.8187  -5.8186  -5.7994
    -5.7994  -5.7994  -5.7993  -5.7993  -5.7993  -5.7592  -5.7546  -5.7546
    -5.7545  -5.7545  -5.7544  -5.7543  -5.7543  -5.7543  -5.7543  -5.6896
    -5.6896  -5.6257  -5.6257  -5.6256  -5.6256  -5.6254  -5.6254  -5.6194
    -5.6194  -5.6193  -5.6193  -5.6191  -5.6191  -5.5893  -5.5893  -5.5892
    -5.5891  -5.5891  -5.5891  -5.5691  -5.5691  -5.5691  -5.5432  -5.5432
    -5.5432  -5.5431  -5.5430  -5.5430  -5.5349  -5.5349  -5.5349  -5.5348
    -5.5347  -5.5347  -5.4885  -5.4885  -5.4885  -5.4875  -5.4874  -5.4874
    -5.4873  -5.4873  -5.4872  -5.4824  -5.4824  -5.4824  -5.4409  -5.4409
    -5.4409  -5.4391  -5.4391  -5.4391  -5.4390  -5.4390  -5.4389  -5.4233
    -5.4233  -5.4060  -5.4060  -5.3737  -5.3736  -5.3736  -5.3640  -5.3640
    -5.3640  -5.3640  -5.3638  -5.3638  -5.3480  -5.3480  -5.3479  -5.3479
    -5.3479  -5.3479  -5.1122  -5.1122  -5.1122  -5.1120  -5.1120  -5.1120
    -4.4432  -4.4431  -4.4431  -4.4429  -4.4429  -4.4428  -3.4883  -2.1697
    -2.1697  -2.1697  -2.1697  -2.1697  -2.1697  -2.0630  -2.0629  -2.0629
    -2.0627  -2.0627  -2.0626  -0.9123  -0.9123  -0.9123  -0.7455  -0.6812
    -0.6812  -0.6811  -0.6811  -0.6811  -0.6811  -0.1446  -0.1446  -0.1446
     0.2052   0.2052   0.2052   1.4905   1.4905   1.4906   1.4906   1.4906
     1.4906   1.5445   1.5446   1.5446   1.5448   1.5448   1.5449   2.2666
     2.2666   2.2666   3.0819   3.2497   3.2497   3.2497   4.1019   4.1019
     4.1019   4.8603   4.8604   4.8604   4.8605   4.8605   4.8606   5.0847
     5.2856   5.3691   5.3691   5.3692   5.3692   5.3693   5.3693   5.3897
     5.3897   5.3897   5.3897   5.3897   5.3897   5.5379   5.5379   5.5379
     5.5379   5.5381   5.5381   6.2124   6.4098   6.5299   6.5299   6.5299
     6.8815   6.8816   6.8816   6.8816   6.8816   6.8817   6.9677   6.9677
     6.9678   6.9678   6.9678   6.9678   7.1217   7.1217   7.1217   7.1217
     7.1217   7.1217   7.1512   7.1512   7.1512   7.1512   7.1514   7.1514
     8.0505   8.0505   8.0505   8.0506   8.0506   8.0506   8.1200   8.1200
     8.1200   8.1201   8.1201   8.1201   8.1966   8.1966   8.1966   8.1967
     8.1967   8.1967   8.2192   8.3341   8.3341   8.3341   8.3679   9.2190

     occupation numbers 
     1.0000   1.0000   1.0000   1.0000   1.0000   1.0000   1.0000   1.0000
     1.0000   1.0000   1.0000   1.0000   1.0000   1.0000   1.0000   1.0000
     1.0000   1.0000   1.0000   1.0000   1.0000   1.0000   1.0000   1.0000
     1.0000   1.0000   1.0000   1.0000   1.0000   1.0000   1.0000   1.0000
     1.0000   1.0000   1.0000   1.0000   1.0000   1.0000   1.0000   1.0000
     1.0000   1.0000   1.0000   1.0000   1.0000   1.0000   1.0000   1.0000
     1.0000   1.0000   1.0000   1.0000   1.0000   1.0000   1.0000   1.0000
     1.0000   1.0000   1.0000   1.0000   1.0000   1.0000   1.0000   1.0000
     1.0000   1.0000   1.0000   1.0000   1.0000   1.0000   1.0000   1.0000
     1.0000   1.0000   1.0000   1.0000   1.0000   1.0000   1.0000   1.0000
     1.0000   1.0000   1.0000   1.0000   1.0000   1.0000   1.0000   1.0000
     1.0000   1.0000   1.0000   1.0000   1.0000   1.0000   1.0000   1.0000
     1.0000   1.0000   1.0000   1.0000   1.0000   1.0000   1.0000   1.0000
     1.0000   1.0000   1.0000   1.0000   1.0000   1.0000   1.0000   1.0000
     1.0000   1.0000   1.0000   1.0000   1.0000   1.0000   1.0000   1.0000
     1.0000   1.0000   1.0000   1.0000   1.0000   1.0000   1.0000   1.0000
     1.0000   1.0000   1.0000   1.0000   1.0000   1.0000   1.0000   1.0000
     1.0000   1.0000   1.0000   1.0000   1.0000   1.0000   1.0000   1.0000
     1.0000   1.0000   1.0000   1.0000   1.0000   1.0000   1.0000   1.0000
     1.0000   1.0000   1.0000   1.0000   1.0000   1.0000   1.0000   1.0000
     1.0000   1.0000   1.0000   1.0000   1.0000   1.0000   1.0000   1.0000
     1.0000   1.0000   1.0000   1.0000   1.0000   1.0000   1.0000   1.0000
     1.0000   1.0000   1.0000   1.0000   1.0000   1.0000   1.0000   1.0000
     1.0000   1.0000   1.0000   1.0000   1.0000   1.0000   1.0000   1.0000
     1.0000   1.0000   1.0000   1.0000   1.0000   1.0000   1.0000   1.0000
     1.0000   1.0000   1.0000   1.0000   1.0000   1.0000   1.0000   1.0000
     1.0000   1.0000   1.0000   1.0000   1.0000   1.0000   1.0000   1.0000
     1.0000   1.0000   1.0000   1.0000   1.0000   1.0000   1.0000   1.0000
     1.0000   1.0000   1.0000   1.0000   1.0000   1.0000   1.0000   1.0000
     1.0000   1.0000   1.0000   1.0000   1.0000   1.0000   1.0000   1.0000
     1.0000   1.0000   1.0000   1.0000   1.0000   1.0000   1.0000   1.0000
     1.0000   1.0000   1.0000   1.0000   1.0000   1.0000   1.0000   1.0000
     1.0000   1.0000   1.0000   1.0000   1.0000   1.0000   1.0000   1.0000
     1.0000   1.0000   1.0000   1.0000   1.0000   1.0000   1.0000   1.0000
     1.0000   1.0000   1.0000   1.0000   1.0000   1.0000   1.0000   1.0000
     1.0000   1.0000   1.0000   1.0000   1.0000   1.0000   1.0000   1.0000
     1.0000   1.0000   1.0000   1.0000   1.0000   1.0000   1.0000   1.0000
     1.0000   1.0000   1.0000   1.0000   1.0000   1.0000   1.0000   1.0000
     1.0000   1.0000   1.0000   1.0000   1.0000   1.0000   1.0000   1.0000
     1.0000   1.0000   1.0000   1.0000   1.0000   1.0000   1.0000   1.0000
     1.0000   1.0000   1.0000   1.0000   1.0000   1.0000   1.0000   1.0000
     1.0000   1.0000   1.0000   1.0000   1.0000   1.0000   1.0000   1.0000
     1.0000   1.0000   1.0000   1.0000   1.0000   1.0000   1.0000   1.0000
     1.0000   1.0000   1.0000   1.0000   1.0000   1.0000   1.0000   1.0000
     1.0000   1.0000   1.0000   1.0000   1.0000   1.0000   1.0000   1.0000
     1.0000   1.0000   1.0000   1.0000   1.0000   1.0000   1.0000   1.0000
     1.0000   1.0000   1.0000   1.0000   1.0000   1.0000   1.0000   1.0000
     1.0000   1.0000   1.0000   1.0000   1.0000   1.0000   1.0000   1.0000
     1.0000   1.0000   1.0000   1.0000   1.0000   1.0000   1.0000   1.0000
     1.0000   1.0000   1.0000   1.0000   1.0000   1.0000   1.0000   1.0000
     1.0000   1.0000   1.0000   1.0000   1.0000   1.0000   1.0000   1.0000
     1.0000   1.0000   1.0000   1.0000   1.0000   1.0000   1.0000   1.0000
     1.0000   1.0000   1.0000   1.0000   1.0000   1.0000   1.0000   1.0000
     1.0000   1.0000   1.0000   1.0000   1.0000   1.0000   1.0000   1.0000
     1.0000   1.0000   1.0000   1.0000   1.0000   1.0000   1.0000   1.0000
     1.0000   1.0000   1.0000   1.0000   1.0000   1.0000   1.0000   1.0000
     1.0000   1.0000   1.0000   1.0000   1.0000   1.0000   1.0000   1.0000
     1.0000   1.0000   1.0000   1.0000   1.0000   1.0000   1.0000   1.0000
     1.0000   1.0000   1.0000   1.0000   1.0000   1.0000   1.0000   1.0000
     1.0000   1.0000   1.0000   0.3728   0.3728   0.3727   0.3727   0.3727
     0.3727   0.2532   0.2530   0.2530   0.2526   0.2526   0.2524   0.0000
     0.0000   0.0000   0.0000   0.0000   0.0000   0.0000   0.0000   0.0000
     0.0000   0.0000   0.0000   0.0000   0.0000   0.0000   0.0000   0.0000
     0.0000   0.0000   0.0000   0.0000   0.0000   0.0000   0.0000   0.0000
     0.0000   0.0000   0.0000   0.0000   0.0000   0.0000   0.0000   0.0000
     0.0000   0.0000   0.0000   0.0000   0.0000   0.0000   0.0000   0.0000
     0.0000   0.0000   0.0000   0.0000   0.0000   0.0000   0.0000   0.0000
     0.0000   0.0000   0.0000   0.0000   0.0000   0.0000   0.0000   0.0000
     0.0000   0.0000   0.0000   0.0000   0.0000   0.0000   0.0000   0.0000
     0.0000   0.0000   0.0000   0.0000   0.0000   0.0000   0.0000   0.0000
     0.0000   0.0000   0.0000   0.0000   0.0000   0.0000   0.0000   0.0000
     0.0000   0.0000   0.0000   0.0000   0.0000   0.0000   0.0000   0.0000

          k = 0.0000 0.3849 0.0000 ( 64840 PWs)   bands (ev):

  -125.1565-125.1559-125.1553-125.1552-125.1545-125.1544-125.1540-125.1538
  -125.1538-125.1535-125.1534-125.1533-125.1531-125.1529-125.1525-125.1525
  -124.9036-124.9035-124.9030-124.9029-124.9024-124.9023-124.9023-124.9022
  -124.9016-124.9015-124.9015-124.9014-124.9011-124.9010-124.9009-124.9009
  -124.9009-124.9008-124.9006-124.9005-124.9005-124.9004-124.9003-124.9003
  -124.9002-124.9001-124.9001-124.9001-124.8998-124.8997-124.8997-124.8996
   -79.3245 -79.3245 -79.3234 -79.3213 -79.3213 -79.3195 -79.3195 -79.3168
   -79.3168 -79.3168 -79.3127 -79.3127 -79.3095 -79.3095 -79.3041 -79.3041
   -79.3036 -79.3036 -79.3009 -79.3009 -79.3004 -79.3004 -79.2990 -79.2987
   -79.2985 -79.2983 -79.2977 -79.2976 -79.2969 -79.2967 -79.2967 -79.2966
   -79.2966 -79.2962 -79.2960 -79.2960 -79.2956 -79.2955 -79.2954 -79.2951
   -79.2950 -79.2946 -79.2945 -79.2940 -79.2939 -79.2921 -79.2921 -79.2903
   -79.0661 -79.0660 -79.0660 -79.0660 -79.0650 -79.0649 -79.0629 -79.0628
   -79.0628 -79.0628 -79.0611 -79.0611 -79.0611 -79.0610 -79.0592 -79.0590
   -79.0585 -79.0585 -79.0585 -79.0584 -79.0584 -79.0584 -79.0583 -79.0583
   -79.0579 -79.0578 -79.0577 -79.0577 -79.0569 -79.0569 -79.0568 -79.0568
   -79.0565 -79.0564 -79.0563 -79.0562 -79.0561 -79.0561 -79.0559 -79.0558
   -79.0557 -79.0557 -79.0556 -79.0555 -79.0555 -79.0554 -79.0554 -79.0553
   -79.0550 -79.0550 -79.0549 -79.0549 -79.0543 -79.0543 -79.0542 -79.0542
   -79.0511 -79.0511 -79.0510 -79.0510 -79.0457 -79.0457 -79.0456 -79.0456
   -79.0453 -79.0452 -79.0452 -79.0452 -79.0425 -79.0425 -79.0425 -79.0424
   -79.0421 -79.0420 -79.0420 -79.0420 -79.0404 -79.0403 -79.0402 -79.0401
   -79.0385 -79.0384 -79.0383 -79.0383 -79.0383 -79.0382 -79.0356 -79.0356
   -79.0356 -79.0355 -79.0337 -79.0337 -79.0337 -79.0336 -79.0320 -79.0319
    -8.4810  -7.8830  -7.3554  -7.3554  -7.2653  -7.0460  -6.9755  -6.9285
    -6.9285  -6.9276  -6.8544  -6.8544  -6.8378  -6.7983  -6.7522  -6.7315
    -6.7315  -6.7200  -6.7200  -6.6955  -6.6638  -6.6523  -6.6523  -6.6480
    -6.6356  -6.6356  -6.6293  -6.6293  -6.6182  -6.6182  -6.5820  -6.5820
    -6.5682  -6.5682  -6.5644  -6.5644  -6.5612  -6.5612  -6.5584  -6.5395
    -6.5395  -6.5300  -6.5300  -6.5110  -6.5110  -6.4857  -6.4857  -6.4643
    -6.4597  -6.4597  -6.3700  -6.3700  -6.3691  -6.3691  -6.3675  -6.3675
    -6.3656  -6.3561  -6.3561  -6.3540  -6.3540  -6.3198  -6.3124  -6.3082
    -6.2810  -6.2810  -6.2784  -6.2784  -6.2731  -6.2731  -6.2728  -6.2728
    -6.2672  -6.2672  -6.2657  -6.2657  -6.2441  -6.2390  -6.2154  -6.2154
    -6.1770  -6.1701  -6.1701  -6.1627  -6.1553  -6.1553  -6.1495  -6.1495
    -6.1336  -6.1336  -6.1320  -6.1320  -6.1250  -6.1250  -6.1075  -6.0962
    -6.0962  -6.0433  -6.0433  -6.0263  -6.0263  -6.0196  -6.0177  -6.0177
    -6.0121  -6.0110  -5.9940  -5.9897  -5.9857  -5.9857  -5.9642  -5.9457
    -5.9457  -5.9383  -5.9383  -5.9377  -5.9377  -5.9286  -5.9286  -5.9137
    -5.9067  -5.8964  -5.8927  -5.8871  -5.8818  -5.8818  -5.8643  -5.8643
    -5.8636  -5.8459  -5.8459  -5.8442  -5.8442  -5.8347  -5.8347  -5.8301
    -5.8301  -5.8298  -5.8298  -5.8183  -5.8030  -5.8030  -5.7891  -5.7891
    -5.7842  -5.7842  -5.7840  -5.7443  -5.7371  -5.7371  -5.7284  -5.7284
    -5.7272  -5.7272  -5.7213  -5.7213  -5.7103  -5.7103  -5.6983  -5.6968
    -5.6968  -5.6885  -5.6834  -5.6661  -5.6626  -5.6626  -5.6545  -5.6545
    -5.6200  -5.6175  -5.6175  -5.6084  -5.6084  -5.6079  -5.6017  -5.6017
    -5.5938  -5.5938  -5.5840  -5.5825  -5.5791  -5.5791  -5.5773  -5.5773
    -5.5767  -5.5767  -5.5715  -5.5715  -5.5647  -5.5498  -5.5498  -5.5495
    -5.5495  -5.5421  -5.5421  -5.5392  -5.5266  -5.5266  -5.5134  -5.5134
    -5.5096  -5.4890  -5.4890  -5.4816  -5.4816  -5.4807  -5.4797  -5.4797
    -5.4772  -5.4758  -5.4638  -5.4563  -5.4538  -5.4538  -5.4517  -5.4517
    -5.4322  -5.4308  -5.4308  -5.4291  -5.4285  -5.4285  -5.4229  -5.4229
    -5.4228  -5.4104  -5.4076  -5.4076  -5.3893  -5.3686  -5.3686  -5.3483
    -5.3483  -5.3448  -5.3448  -5.3318  -5.3287  -5.3287  -5.3268  -5.2105
    -5.2105  -5.2027  -5.2027  -5.1721  -5.1709  -5.1162  -4.9951  -4.9951
    -4.7222  -4.7222  -4.6385  -3.8305  -3.8305  -3.6831  -3.6831  -3.3383
    -3.1395  -2.8820  -2.8136  -2.4042  -2.4042  -2.3939  -2.3939  -2.0213
    -2.0213  -1.5355  -1.5355  -1.3347  -1.3347  -1.3275  -0.8051  -0.5401
    -0.5401  -0.4637  -0.1461  -0.1461  -0.1377  -0.1377  -0.0824  -0.0824
     0.3306   0.6911   0.8056   0.8056   1.0734   1.0734   1.3964   1.3964
     1.5006   1.5006   2.3166   2.3166   2.4572   2.4572   2.7961   2.7961
     2.9196   3.0555   3.0555   3.1010   3.2813   3.4088   3.4088   3.7658
     3.7658   3.8258   3.8258   3.8778   4.0988   4.1563   4.1563   4.4722
     4.4722   4.7065   4.7065   5.0095   5.0095   5.1211   5.1211   5.1240
     5.2852   5.4901   5.6295   5.6295   5.6584   5.7365   5.7365   5.8862
     6.1028   6.1448   6.1448   6.2305   6.2450   6.2450   6.3050   6.3276
     6.3276   6.4187   6.4861   6.4861   6.5518   6.5518   6.6097   6.7148
     6.7148   6.8493   6.8493   6.8693   6.8693   7.0355   7.2087   7.2497
     7.4499   7.4499   7.5838   7.5838   7.6492   7.6492   7.6562   7.6562
     7.8060   7.8060   7.8409   7.8409   7.9448   7.9449   8.0034   8.0034
     8.2670   8.3687   8.4245   8.5426   8.5666   8.6916   8.6917   8.7289
     8.7289   8.8352   8.8352   8.8612   8.8612   8.8795   8.9335   8.9343

     occupation numbers 
     1.0000   1.0000   1.0000   1.0000   1.0000   1.0000   1.0000   1.0000
     1.0000   1.0000   1.0000   1.0000   1.0000   1.0000   1.0000   1.0000
     1.0000   1.0000   1.0000   1.0000   1.0000   1.0000   1.0000   1.0000
     1.0000   1.0000   1.0000   1.0000   1.0000   1.0000   1.0000   1.0000
     1.0000   1.0000   1.0000   1.0000   1.0000   1.0000   1.0000   1.0000
     1.0000   1.0000   1.0000   1.0000   1.0000   1.0000   1.0000   1.0000
     1.0000   1.0000   1.0000   1.0000   1.0000   1.0000   1.0000   1.0000
     1.0000   1.0000   1.0000   1.0000   1.0000   1.0000   1.0000   1.0000
     1.0000   1.0000   1.0000   1.0000   1.0000   1.0000   1.0000   1.0000
     1.0000   1.0000   1.0000   1.0000   1.0000   1.0000   1.0000   1.0000
     1.0000   1.0000   1.0000   1.0000   1.0000   1.0000   1.0000   1.0000
     1.0000   1.0000   1.0000   1.0000   1.0000   1.0000   1.0000   1.0000
     1.0000   1.0000   1.0000   1.0000   1.0000   1.0000   1.0000   1.0000
     1.0000   1.0000   1.0000   1.0000   1.0000   1.0000   1.0000   1.0000
     1.0000   1.0000   1.0000   1.0000   1.0000   1.0000   1.0000   1.0000
     1.0000   1.0000   1.0000   1.0000   1.0000   1.0000   1.0000   1.0000
     1.0000   1.0000   1.0000   1.0000   1.0000   1.0000   1.0000   1.0000
     1.0000   1.0000   1.0000   1.0000   1.0000   1.0000   1.0000   1.0000
     1.0000   1.0000   1.0000   1.0000   1.0000   1.0000   1.0000   1.0000
     1.0000   1.0000   1.0000   1.0000   1.0000   1.0000   1.0000   1.0000
     1.0000   1.0000   1.0000   1.0000   1.0000   1.0000   1.0000   1.0000
     1.0000   1.0000   1.0000   1.0000   1.0000   1.0000   1.0000   1.0000
     1.0000   1.0000   1.0000   1.0000   1.0000   1.0000   1.0000   1.0000
     1.0000   1.0000   1.0000   1.0000   1.0000   1.0000   1.0000   1.0000
     1.0000   1.0000   1.0000   1.0000   1.0000   1.0000   1.0000   1.0000
     1.0000   1.0000   1.0000   1.0000   1.0000   1.0000   1.0000   1.0000
     1.0000   1.0000   1.0000   1.0000   1.0000   1.0000   1.0000   1.0000
     1.0000   1.0000   1.0000   1.0000   1.0000   1.0000   1.0000   1.0000
     1.0000   1.0000   1.0000   1.0000   1.0000   1.0000   1.0000   1.0000
     1.0000   1.0000   1.0000   1.0000   1.0000   1.0000   1.0000   1.0000
     1.0000   1.0000   1.0000   1.0000   1.0000   1.0000   1.0000   1.0000
     1.0000   1.0000   1.0000   1.0000   1.0000   1.0000   1.0000   1.0000
     1.0000   1.0000   1.0000   1.0000   1.0000   1.0000   1.0000   1.0000
     1.0000   1.0000   1.0000   1.0000   1.0000   1.0000   1.0000   1.0000
     1.0000   1.0000   1.0000   1.0000   1.0000   1.0000   1.0000   1.0000
     1.0000   1.0000   1.0000   1.0000   1.0000   1.0000   1.0000   1.0000
     1.0000   1.0000   1.0000   1.0000   1.0000   1.0000   1.0000   1.0000
     1.0000   1.0000   1.0000   1.0000   1.0000   1.0000   1.0000   1.0000
     1.0000   1.0000   1.0000   1.0000   1.0000   1.0000   1.0000   1.0000
     1.0000   1.0000   1.0000   1.0000   1.0000   1.0000   1.0000   1.0000
     1.0000   1.0000   1.0000   1.0000   1.0000   1.0000   1.0000   1.0000
     1.0000   1.0000   1.0000   1.0000   1.0000   1.0000   1.0000   1.0000
     1.0000   1.0000   1.0000   1.0000   1.0000   1.0000   1.0000   1.0000
     1.0000   1.0000   1.0000   1.0000   1.0000   1.0000   1.0000   1.0000
     1.0000   1.0000   1.0000   1.0000   1.0000   1.0000   1.0000   1.0000
     1.0000   1.0000   1.0000   1.0000   1.0000   1.0000   1.0000   1.0000
     1.0000   1.0000   1.0000   1.0000   1.0000   1.0000   1.0000   1.0000
     1.0000   1.0000   1.0000   1.0000   1.0000   1.0000   1.0000   1.0000
     1.0000   1.0000   1.0000   1.0000   1.0000   1.0000   1.0000   1.0000
     1.0000   1.0000   1.0000   1.0000   1.0000   1.0000   1.0000   1.0000
     1.0000   1.0000   1.0000   1.0000   1.0000   1.0000   1.0000   1.0000
     1.0000   1.0000   1.0000   1.0000   1.0000   1.0000   1.0000   1.0000
     1.0000   1.0000   1.0000   1.0000   1.0000   1.0000   1.0000   1.0000
     1.0000   1.0000   1.0000   1.0000   1.0000   1.0000   1.0000   1.0000
     1.0000   1.0000   1.0000   1.0000   1.0000   1.0000   1.0000   1.0000
     1.0000   1.0000   1.0000   1.0000   1.0000   1.0000   1.0000   1.0000
     1.0000   1.0000   1.0000   1.0000   1.0000   1.0000   1.0000   1.0000
     1.0000   1.0000   1.0000   1.0000   1.0000   1.0000   1.0000   1.0000
     1.0000   1.0000   1.0000   1.0000   1.0000   1.0000   1.0000   1.0000
     1.0000   1.0023   1.0113   1.0113   1.0820   1.0820   0.6239   0.6239
     0.3486   0.3486   0.0000   0.0000   0.0000   0.0000   0.0000   0.0000
     0.0000   0.0000   0.0000   0.0000   0.0000   0.0000   0.0000   0.0000
     0.0000   0.0000   0.0000   0.0000   0.0000   0.0000   0.0000   0.0000
     0.0000   0.0000   0.0000   0.0000   0.0000   0.0000   0.0000   0.0000
     0.0000   0.0000   0.0000   0.0000   0.0000   0.0000   0.0000   0.0000
     0.0000   0.0000   0.0000   0.0000   0.0000   0.0000   0.0000   0.0000
     0.0000   0.0000   0.0000   0.0000   0.0000   0.0000   0.0000   0.0000
     0.0000   0.0000   0.0000   0.0000   0.0000   0.0000   0.0000   0.0000
     0.0000   0.0000   0.0000   0.0000   0.0000   0.0000   0.0000   0.0000
     0.0000   0.0000   0.0000   0.0000   0.0000   0.0000   0.0000   0.0000
     0.0000   0.0000   0.0000   0.0000   0.0000   0.0000   0.0000   0.0000
     0.0000   0.0000   0.0000   0.0000   0.0000   0.0000   0.0000   0.0000

          k = 0.3333 0.1925 0.0000 ( 64840 PWs)   bands (ev):

  -125.1565-125.1559-125.1553-125.1552-125.1545-125.1544-125.1540-125.1539
  -125.1538-125.1535-125.1534-125.1533-125.1531-125.1529-125.1525-125.1525
  -124.9036-124.9035-124.9030-124.9029-124.9024-124.9023-124.9023-124.9022
  -124.9016-124.9015-124.9015-124.9014-124.9011-124.9010-124.9010-124.9009
  -124.9009-124.9008-124.9005-124.9005-124.9005-124.9004-124.9004-124.9003
  -124.9002-124.9002-124.9001-124.9001-124.8998-124.8997-124.8997-124.8996
   -79.3245 -79.3245 -79.3234 -79.3213 -79.3213 -79.3195 -79.3195 -79.3168
   -79.3168 -79.3168 -79.3127 -79.3127 -79.3095 -79.3095 -79.3041 -79.3041
   -79.3036 -79.3036 -79.3009 -79.3009 -79.3004 -79.3004 -79.2990 -79.2987
   -79.2985 -79.2983 -79.2977 -79.2975 -79.2969 -79.2967 -79.2967 -79.2966
   -79.2966 -79.2962 -79.2960 -79.2960 -79.2956 -79.2955 -79.2954 -79.2951
   -79.2950 -79.2946 -79.2945 -79.2940 -79.2939 -79.2921 -79.2920 -79.2903
   -79.0661 -79.0661 -79.0660 -79.0660 -79.0650 -79.0649 -79.0629 -79.0629
   -79.0628 -79.0628 -79.0611 -79.0611 -79.0611 -79.0610 -79.0592 -79.0590
   -79.0585 -79.0585 -79.0585 -79.0584 -79.0584 -79.0584 -79.0583 -79.0583
   -79.0579 -79.0578 -79.0577 -79.0577 -79.0570 -79.0569 -79.0568 -79.0568
   -79.0565 -79.0564 -79.0563 -79.0562 -79.0561 -79.0561 -79.0558 -79.0558
   -79.0557 -79.0557 -79.0556 -79.0555 -79.0555 -79.0554 -79.0554 -79.0553
   -79.0550 -79.0550 -79.0549 -79.0549 -79.0543 -79.0543 -79.0542 -79.0542
   -79.0511 -79.0511 -79.0510 -79.0510 -79.0457 -79.0457 -79.0456 -79.0456
   -79.0453 -79.0452 -79.0452 -79.0452 -79.0425 -79.0425 -79.0425 -79.0424
   -79.0421 -79.0420 -79.0420 -79.0420 -79.0404 -79.0403 -79.0402 -79.0401
   -79.0385 -79.0384 -79.0383 -79.0383 -79.0382 -79.0382 -79.0356 -79.0356
   -79.0356 -79.0355 -79.0337 -79.0337 -79.0337 -79.0336 -79.0320 -79.0319
    -8.4810  -7.8830  -7.3554  -7.3554  -7.2653  -7.0460  -6.9755  -6.9285
    -6.9285  -6.9276  -6.8544  -6.8544  -6.8378  -6.7983  -6.7522  -6.7315
    -6.7315  -6.7200  -6.7200  -6.6955  -6.6638  -6.6523  -6.6523  -6.6480
    -6.6356  -6.6356  -6.6293  -6.6293  -6.6182  -6.6182  -6.5820  -6.5820
    -6.5682  -6.5682  -6.5644  -6.5644  -6.5612  -6.5612  -6.5584  -6.5395
    -6.5395  -6.5300  -6.5300  -6.5110  -6.5110  -6.4857  -6.4857  -6.4643
    -6.4597  -6.4597  -6.3700  -6.3700  -6.3691  -6.3691  -6.3675  -6.3675
    -6.3656  -6.3561  -6.3561  -6.3540  -6.3540  -6.3198  -6.3124  -6.3082
    -6.2810  -6.2810  -6.2784  -6.2784  -6.2731  -6.2731  -6.2728  -6.2728
    -6.2672  -6.2672  -6.2657  -6.2657  -6.2441  -6.2390  -6.2154  -6.2154
    -6.1770  -6.1701  -6.1701  -6.1627  -6.1553  -6.1553  -6.1495  -6.1495
    -6.1336  -6.1336  -6.1320  -6.1320  -6.1250  -6.1250  -6.1075  -6.0962
    -6.0962  -6.0433  -6.0433  -6.0263  -6.0263  -6.0196  -6.0177  -6.0177
    -6.0121  -6.0110  -5.9940  -5.9897  -5.9857  -5.9857  -5.9642  -5.9457
    -5.9457  -5.9383  -5.9383  -5.9377  -5.9377  -5.9286  -5.9286  -5.9137
    -5.9067  -5.8964  -5.8927  -5.8871  -5.8818  -5.8818  -5.8643  -5.8643
    -5.8636  -5.8459  -5.8459  -5.8442  -5.8442  -5.8347  -5.8347  -5.8301
    -5.8301  -5.8298  -5.8298  -5.8183  -5.8030  -5.8030  -5.7891  -5.7891
    -5.7842  -5.7842  -5.7840  -5.7443  -5.7371  -5.7371  -5.7284  -5.7284
    -5.7272  -5.7272  -5.7213  -5.7213  -5.7103  -5.7103  -5.6983  -5.6968
    -5.6968  -5.6885  -5.6834  -5.6661  -5.6626  -5.6626  -5.6545  -5.6545
    -5.6200  -5.6175  -5.6175  -5.6084  -5.6084  -5.6079  -5.6017  -5.6017
    -5.5938  -5.5938  -5.5840  -5.5825  -5.5791  -5.5791  -5.5773  -5.5773
    -5.5767  -5.5767  -5.5715  -5.5715  -5.5647  -5.5498  -5.5498  -5.5495
    -5.5495  -5.5421  -5.5421  -5.5392  -5.5266  -5.5266  -5.5134  -5.5134
    -5.5096  -5.4890  -5.4890  -5.4816  -5.4816  -5.4807  -5.4797  -5.4797
    -5.4772  -5.4758  -5.4638  -5.4563  -5.4538  -5.4538  -5.4517  -5.4517
    -5.4322  -5.4308  -5.4308  -5.4291  -5.4285  -5.4285  -5.4229  -5.4229
    -5.4228  -5.4104  -5.4076  -5.4076  -5.3893  -5.3686  -5.3686  -5.3483
    -5.3483  -5.3448  -5.3448  -5.3318  -5.3287  -5.3287  -5.3268  -5.2105
    -5.2105  -5.2027  -5.2027  -5.1721  -5.1709  -5.1162  -4.9951  -4.9951
    -4.7222  -4.7222  -4.6385  -3.8305  -3.8305  -3.6831  -3.6831  -3.3383
    -3.1395  -2.8820  -2.8136  -2.4042  -2.4042  -2.3939  -2.3939  -2.0213
    -2.0213  -1.5355  -1.5355  -1.3347  -1.3347  -1.3275  -0.8051  -0.5401
    -0.5401  -0.4637  -0.1461  -0.1461  -0.1377  -0.1377  -0.0824  -0.0824
     0.3306   0.6911   0.8056   0.8056   1.0734   1.0734   1.3964   1.3964
     1.5006   1.5006   2.3166   2.3166   2.4572   2.4572   2.7961   2.7961
     2.9196   3.0555   3.0555   3.1010   3.2813   3.4088   3.4088   3.7658
     3.7658   3.8258   3.8258   3.8778   4.0988   4.1563   4.1563   4.4722
     4.4722   4.7065   4.7065   5.0095   5.0095   5.1211   5.1211   5.1240
     5.2852   5.4901   5.6295   5.6295   5.6584   5.7365   5.7365   5.8862
     6.1028   6.1448   6.1448   6.2305   6.2450   6.2450   6.3050   6.3276
     6.3276   6.4187   6.4861   6.4861   6.5518   6.5518   6.6097   6.7148
     6.7148   6.8493   6.8493   6.8693   6.8693   7.0355   7.2087   7.2497
     7.4499   7.4499   7.5838   7.5838   7.6492   7.6492   7.6562   7.6562
     7.8060   7.8060   7.8409   7.8409   7.9448   7.9448   8.0034   8.0034
     8.2670   8.3687   8.4244   8.5425   8.5665   8.6915   8.6917   8.7289
     8.7289   8.8352   8.8352   8.8612   8.8612   8.8794   8.8796   8.9343

     occupation numbers 
     1.0000   1.0000   1.0000   1.0000   1.0000   1.0000   1.0000   1.0000
     1.0000   1.0000   1.0000   1.0000   1.0000   1.0000   1.0000   1.0000
     1.0000   1.0000   1.0000   1.0000   1.0000   1.0000   1.0000   1.0000
     1.0000   1.0000   1.0000   1.0000   1.0000   1.0000   1.0000   1.0000
     1.0000   1.0000   1.0000   1.0000   1.0000   1.0000   1.0000   1.0000
     1.0000   1.0000   1.0000   1.0000   1.0000   1.0000   1.0000   1.0000
     1.0000   1.0000   1.0000   1.0000   1.0000   1.0000   1.0000   1.0000
     1.0000   1.0000   1.0000   1.0000   1.0000   1.0000   1.0000   1.0000
     1.0000   1.0000   1.0000   1.0000   1.0000   1.0000   1.0000   1.0000
     1.0000   1.0000   1.0000   1.0000   1.0000   1.0000   1.0000   1.0000
     1.0000   1.0000   1.0000   1.0000   1.0000   1.0000   1.0000   1.0000
     1.0000   1.0000   1.0000   1.0000   1.0000   1.0000   1.0000   1.0000
     1.0000   1.0000   1.0000   1.0000   1.0000   1.0000   1.0000   1.0000
     1.0000   1.0000   1.0000   1.0000   1.0000   1.0000   1.0000   1.0000
     1.0000   1.0000   1.0000   1.0000   1.0000   1.0000   1.0000   1.0000
     1.0000   1.0000   1.0000   1.0000   1.0000   1.0000   1.0000   1.0000
     1.0000   1.0000   1.0000   1.0000   1.0000   1.0000   1.0000   1.0000
     1.0000   1.0000   1.0000   1.0000   1.0000   1.0000   1.0000   1.0000
     1.0000   1.0000   1.0000   1.0000   1.0000   1.0000   1.0000   1.0000
     1.0000   1.0000   1.0000   1.0000   1.0000   1.0000   1.0000   1.0000
     1.0000   1.0000   1.0000   1.0000   1.0000   1.0000   1.0000   1.0000
     1.0000   1.0000   1.0000   1.0000   1.0000   1.0000   1.0000   1.0000
     1.0000   1.0000   1.0000   1.0000   1.0000   1.0000   1.0000   1.0000
     1.0000   1.0000   1.0000   1.0000   1.0000   1.0000   1.0000   1.0000
     1.0000   1.0000   1.0000   1.0000   1.0000   1.0000   1.0000   1.0000
     1.0000   1.0000   1.0000   1.0000   1.0000   1.0000   1.0000   1.0000
     1.0000   1.0000   1.0000   1.0000   1.0000   1.0000   1.0000   1.0000
     1.0000   1.0000   1.0000   1.0000   1.0000   1.0000   1.0000   1.0000
     1.0000   1.0000   1.0000   1.0000   1.0000   1.0000   1.0000   1.0000
     1.0000   1.0000   1.0000   1.0000   1.0000   1.0000   1.0000   1.0000
     1.0000   1.0000   1.0000   1.0000   1.0000   1.0000   1.0000   1.0000
     1.0000   1.0000   1.0000   1.0000   1.0000   1.0000   1.0000   1.0000
     1.0000   1.0000   1.0000   1.0000   1.0000   1.0000   1.0000   1.0000
     1.0000   1.0000   1.0000   1.0000   1.0000   1.0000   1.0000   1.0000
     1.0000   1.0000   1.0000   1.0000   1.0000   1.0000   1.0000   1.0000
     1.0000   1.0000   1.0000   1.0000   1.0000   1.0000   1.0000   1.0000
     1.0000   1.0000   1.0000   1.0000   1.0000   1.0000   1.0000   1.0000
     1.0000   1.0000   1.0000   1.0000   1.0000   1.0000   1.0000   1.0000
     1.0000   1.0000   1.0000   1.0000   1.0000   1.0000   1.0000   1.0000
     1.0000   1.0000   1.0000   1.0000   1.0000   1.0000   1.0000   1.0000
     1.0000   1.0000   1.0000   1.0000   1.0000   1.0000   1.0000   1.0000
     1.0000   1.0000   1.0000   1.0000   1.0000   1.0000   1.0000   1.0000
     1.0000   1.0000   1.0000   1.0000   1.0000   1.0000   1.0000   1.0000
     1.0000   1.0000   1.0000   1.0000   1.0000   1.0000   1.0000   1.0000
     1.0000   1.0000   1.0000   1.0000   1.0000   1.0000   1.0000   1.0000
     1.0000   1.0000   1.0000   1.0000   1.0000   1.0000   1.0000   1.0000
     1.0000   1.0000   1.0000   1.0000   1.0000   1.0000   1.0000   1.0000
     1.0000   1.0000   1.0000   1.0000   1.0000   1.0000   1.0000   1.0000
     1.0000   1.0000   1.0000   1.0000   1.0000   1.0000   1.0000   1.0000
     1.0000   1.0000   1.0000   1.0000   1.0000   1.0000   1.0000   1.0000
     1.0000   1.0000   1.0000   1.0000   1.0000   1.0000   1.0000   1.0000
     1.0000   1.0000   1.0000   1.0000   1.0000   1.0000   1.0000   1.0000
     1.0000   1.0000   1.0000   1.0000   1.0000   1.0000   1.0000   1.0000
     1.0000   1.0000   1.0000   1.0000   1.0000   1.0000   1.0000   1.0000
     1.0000   1.0000   1.0000   1.0000   1.0000   1.0000   1.0000   1.0000
     1.0000   1.0000   1.0000   1.0000   1.0000   1.0000   1.0000   1.0000
     1.0000   1.0000   1.0000   1.0000   1.0000   1.0000   1.0000   1.0000
     1.0000   1.0000   1.0000   1.0000   1.0000   1.0000   1.0000   1.0000
     1.0000   1.0000   1.0000   1.0000   1.0000   1.0000   1.0000   1.0000
     1.0000   1.0023   1.0113   1.0113   1.0820   1.0820   0.6239   0.6239
     0.3486   0.3486   0.0000   0.0000   0.0000   0.0000   0.0000   0.0000
     0.0000   0.0000   0.0000   0.0000   0.0000   0.0000   0.0000   0.0000
     0.0000   0.0000   0.0000   0.0000   0.0000   0.0000   0.0000   0.0000
     0.0000   0.0000   0.0000   0.0000   0.0000   0.0000   0.0000   0.0000
     0.0000   0.0000   0.0000   0.0000   0.0000   0.0000   0.0000   0.0000
     0.0000   0.0000   0.0000   0.0000   0.0000   0.0000   0.0000   0.0000
     0.0000   0.0000   0.0000   0.0000   0.0000   0.0000   0.0000   0.0000
     0.0000   0.0000   0.0000   0.0000   0.0000   0.0000   0.0000   0.0000
     0.0000   0.0000   0.0000   0.0000   0.0000   0.0000   0.0000   0.0000
     0.0000   0.0000   0.0000   0.0000   0.0000   0.0000   0.0000   0.0000
     0.0000   0.0000   0.0000   0.0000   0.0000   0.0000   0.0000   0.0000
     0.0000   0.0000   0.0000   0.0000   0.0000   0.0000   0.0000   0.0000

          k = 0.3333 0.5774 0.0000 ( 64848 PWs)   bands (ev):

  -125.1562-125.1562-125.1558-125.1546-125.1546-125.1545-125.1539-125.1538
  -125.1537-125.1536-125.1535-125.1534-125.1530-125.1530-125.1525-125.1524
  -124.9033-124.9032-124.9032-124.9031-124.9029-124.9028-124.9017-124.9016
  -124.9016-124.9016-124.9016-124.9015-124.9010-124.9009-124.9009-124.9008
  -124.9008-124.9007-124.9007-124.9006-124.9006-124.9006-124.9005-124.9005
  -124.9002-124.9001-124.9001-124.9000-124.8997-124.8997-124.8997-124.8996
   -79.3230 -79.3228 -79.3228 -79.3204 -79.3204 -79.3202 -79.3201 -79.3199
   -79.3199 -79.3153 -79.3152 -79.3106 -79.3106 -79.3106 -79.3048 -79.3046
   -79.3046 -79.2993 -79.2993 -79.2991 -79.2990 -79.2988 -79.2988 -79.2987
   -79.2986 -79.2982 -79.2973 -79.2973 -79.2972 -79.2968 -79.2968 -79.2967
   -79.2967 -79.2964 -79.2963 -79.2961 -79.2959 -79.2959 -79.2957 -79.2956
   -79.2956 -79.2951 -79.2950 -79.2946 -79.2945 -79.2918 -79.2915 -79.2915
   -79.0646 -79.0645 -79.0644 -79.0644 -79.0643 -79.0643 -79.0620 -79.0620
   -79.0619 -79.0619 -79.0618 -79.0617 -79.0617 -79.0616 -79.0616 -79.0616
   -79.0615 -79.0615 -79.0588 -79.0588 -79.0587 -79.0586 -79.0584 -79.0583
   -79.0570 -79.0570 -79.0570 -79.0569 -79.0569 -79.0569 -79.0568 -79.0568
   -79.0568 -79.0568 -79.0563 -79.0562 -79.0562 -79.0561 -79.0561 -79.0560
   -79.0560 -79.0559 -79.0559 -79.0558 -79.0558 -79.0558 -79.0554 -79.0554
   -79.0553 -79.0553 -79.0550 -79.0549 -79.0549 -79.0548 -79.0522 -79.0522
   -79.0522 -79.0522 -79.0522 -79.0522 -79.0464 -79.0463 -79.0462 -79.0462
   -79.0462 -79.0461 -79.0409 -79.0409 -79.0408 -79.0408 -79.0408 -79.0407
   -79.0407 -79.0406 -79.0405 -79.0405 -79.0405 -79.0405 -79.0389 -79.0389
   -79.0389 -79.0389 -79.0388 -79.0388 -79.0383 -79.0382 -79.0381 -79.0380
   -79.0380 -79.0380 -79.0334 -79.0333 -79.0332 -79.0332 -79.0331 -79.0331
    -8.0742  -8.0741  -8.0737  -6.9556  -6.9555  -6.9552  -6.8727  -6.8727
    -6.8726  -6.8724  -6.8723  -6.8723  -6.8620  -6.8619  -6.8615  -6.7548
    -6.7546  -6.7545  -6.7218  -6.7218  -6.7218  -6.6698  -6.6698  -6.6697
    -6.6696  -6.6695  -6.6694  -6.6378  -6.6377  -6.6376  -6.6079  -6.6079
    -6.6078  -6.6077  -6.6076  -6.6076  -6.5052  -6.5051  -6.5049  -6.4961
    -6.4961  -6.4961  -6.4808  -6.4808  -6.4808  -6.4755  -6.4755  -6.4755
    -6.4752  -6.4752  -6.4752  -6.4370  -6.4264  -6.4264  -6.4264  -6.4009
    -6.4008  -6.4008  -6.3625  -6.3259  -6.3258  -6.3257  -6.3256  -6.3255
    -6.3255  -6.3176  -6.3175  -6.3174  -6.3174  -6.3002  -6.2881  -6.2824
    -6.2822  -6.2822  -6.2498  -6.2497  -6.2495  -6.1738  -6.1738  -6.1738
    -6.1663  -6.1662  -6.1662  -6.1423  -6.1423  -6.1423  -6.1415  -6.1415
    -6.1415  -6.1280  -6.1279  -6.1279  -6.0793  -6.0792  -6.0792  -6.0790
    -6.0790  -6.0789  -6.0657  -6.0657  -6.0657  -6.0546  -6.0544  -6.0543
    -6.0124  -6.0122  -6.0122  -5.9980  -5.9978  -5.9978  -5.9857  -5.9784
    -5.9784  -5.9784  -5.9671  -5.9670  -5.9669  -5.8978  -5.8964  -5.8934
    -5.8934  -5.8933  -5.8932  -5.8931  -5.8930  -5.8929  -5.8929  -5.8764
    -5.8764  -5.8764  -5.8762  -5.8762  -5.8762  -5.8645  -5.8644  -5.8644
    -5.8632  -5.8381  -5.8379  -5.8378  -5.7866  -5.7866  -5.7866  -5.7793
    -5.7791  -5.7791  -5.7127  -5.7126  -5.7124  -5.7115  -5.7074  -5.7073
    -5.7071  -5.7070  -5.7070  -5.7070  -5.6570  -5.6569  -5.6569  -5.6567
    -5.6567  -5.6567  -5.6224  -5.6223  -5.6221  -5.6169  -5.6168  -5.6166
    -5.5982  -5.5981  -5.5979  -5.5937  -5.5937  -5.5937  -5.5900  -5.5900
    -5.5899  -5.5899  -5.5898  -5.5898  -5.5747  -5.5747  -5.5747  -5.5745
    -5.5745  -5.5744  -5.5519  -5.5517  -5.5517  -5.5383  -5.5222  -5.5083
    -5.5083  -5.5083  -5.5081  -5.5081  -5.5081  -5.5021  -5.5021  -5.5021
    -5.5002  -5.5001  -5.5001  -5.4999  -5.4998  -5.4998  -5.4953  -5.4953
    -5.4953  -5.4620  -5.4606  -5.4606  -5.4603  -5.4510  -5.4508  -5.4508
    -5.4476  -5.4475  -5.4473  -5.4289  -5.4288  -5.4286  -5.4266  -5.4266
    -5.4266  -5.4092  -5.4092  -5.4091  -5.3629  -5.3628  -5.3626  -5.3038
    -5.3037  -5.3036  -5.3036  -5.3034  -5.3034  -5.2839  -5.2839  -5.2837
    -5.2837  -5.2836  -5.2835  -5.2131  -5.2130  -5.2129  -5.0149  -5.0149
    -5.0149  -3.8284  -3.8284  -3.8284  -3.5630  -3.5630  -3.5630  -3.5628
    -3.5628  -3.5628  -3.0355  -3.0354  -3.0351  -2.0775  -2.0775  -2.0774
    -2.0773  -2.0772  -2.0772  -1.4988  -1.4988  -1.4988  -0.0205  -0.0204
    -0.0203   0.0731   0.0731   0.0734   0.1529   0.1529   0.1529   0.1531
     0.1531   0.1531   0.5138   0.5138   0.5139   1.1444   1.1446   1.1446
     2.0401   2.2395   2.2395   2.2395   2.3134   2.3749   2.7044   2.7045
     2.7046   3.2828   3.6794   3.6795   3.6797   3.8584   3.9042   3.9043
     3.9044   4.1291   4.1291   4.1291   4.1293   4.1293   4.1293   4.3292
     4.3292   4.3292   4.3292   4.3292   4.3292   4.4328   4.6052   4.6053
     4.6054   5.4551   5.4551   5.4551   5.6861   5.6861   5.6862   5.6966
     5.8987   5.8987   5.8987   5.9053   5.9053   5.9053   5.9053   5.9053
     5.9053   6.1644   6.4418   6.8303   6.8303   6.8303   7.0012   7.0012
     7.0012   7.0013   7.0013   7.0013   7.0093   7.0093   7.0094   7.2153
     7.2154   7.2155   7.4801   7.4801   7.4801   7.7328   7.7328   7.7328
     7.7907   7.7907   7.7908   8.3737   8.3737   8.3737   8.3737   8.3737
     8.3738   8.6590   8.6590   8.6590   8.7648   8.7648   8.7648   8.7908
     8.7908   8.7908   8.8204   8.8337   8.8337   8.8338   8.9622   8.9622

     occupation numbers 
     1.0000   1.0000   1.0000   1.0000   1.0000   1.0000   1.0000   1.0000
     1.0000   1.0000   1.0000   1.0000   1.0000   1.0000   1.0000   1.0000
     1.0000   1.0000   1.0000   1.0000   1.0000   1.0000   1.0000   1.0000
     1.0000   1.0000   1.0000   1.0000   1.0000   1.0000   1.0000   1.0000
     1.0000   1.0000   1.0000   1.0000   1.0000   1.0000   1.0000   1.0000
     1.0000   1.0000   1.0000   1.0000   1.0000   1.0000   1.0000   1.0000
     1.0000   1.0000   1.0000   1.0000   1.0000   1.0000   1.0000   1.0000
     1.0000   1.0000   1.0000   1.0000   1.0000   1.0000   1.0000   1.0000
     1.0000   1.0000   1.0000   1.0000   1.0000   1.0000   1.0000   1.0000
     1.0000   1.0000   1.0000   1.0000   1.0000   1.0000   1.0000   1.0000
     1.0000   1.0000   1.0000   1.0000   1.0000   1.0000   1.0000   1.0000
     1.0000   1.0000   1.0000   1.0000   1.0000   1.0000   1.0000   1.0000
     1.0000   1.0000   1.0000   1.0000   1.0000   1.0000   1.0000   1.0000
     1.0000   1.0000   1.0000   1.0000   1.0000   1.0000   1.0000   1.0000
     1.0000   1.0000   1.0000   1.0000   1.0000   1.0000   1.0000   1.0000
     1.0000   1.0000   1.0000   1.0000   1.0000   1.0000   1.0000   1.0000
     1.0000   1.0000   1.0000   1.0000   1.0000   1.0000   1.0000   1.0000
     1.0000   1.0000   1.0000   1.0000   1.0000   1.0000   1.0000   1.0000
     1.0000   1.0000   1.0000   1.0000   1.0000   1.0000   1.0000   1.0000
     1.0000   1.0000   1.0000   1.0000   1.0000   1.0000   1.0000   1.0000
     1.0000   1.0000   1.0000   1.0000   1.0000   1.0000   1.0000   1.0000
     1.0000   1.0000   1.0000   1.0000   1.0000   1.0000   1.0000   1.0000
     1.0000   1.0000   1.0000   1.0000   1.0000   1.0000   1.0000   1.0000
     1.0000   1.0000   1.0000   1.0000   1.0000   1.0000   1.0000   1.0000
     1.0000   1.0000   1.0000   1.0000   1.0000   1.0000   1.0000   1.0000
     1.0000   1.0000   1.0000   1.0000   1.0000   1.0000   1.0000   1.0000
     1.0000   1.0000   1.0000   1.0000   1.0000   1.0000   1.0000   1.0000
     1.0000   1.0000   1.0000   1.0000   1.0000   1.0000   1.0000   1.0000
     1.0000   1.0000   1.0000   1.0000   1.0000   1.0000   1.0000   1.0000
     1.0000   1.0000   1.0000   1.0000   1.0000   1.0000   1.0000   1.0000
     1.0000   1.0000   1.0000   1.0000   1.0000   1.0000   1.0000   1.0000
     1.0000   1.0000   1.0000   1.0000   1.0000   1.0000   1.0000   1.0000
     1.0000   1.0000   1.0000   1.0000   1.0000   1.0000   1.0000   1.0000
     1.0000   1.0000   1.0000   1.0000   1.0000   1.0000   1.0000   1.0000
     1.0000   1.0000   1.0000   1.0000   1.0000   1.0000   1.0000   1.0000
     1.0000   1.0000   1.0000   1.0000   1.0000   1.0000   1.0000   1.0000
     1.0000   1.0000   1.0000   1.0000   1.0000   1.0000   1.0000   1.0000
     1.0000   1.0000   1.0000   1.0000   1.0000   1.0000   1.0000   1.0000
     1.0000   1.0000   1.0000   1.0000   1.0000   1.0000   1.0000   1.0000
     1.0000   1.0000   1.0000   1.0000   1.0000   1.0000   1.0000   1.0000
     1.0000   1.0000   1.0000   1.0000   1.0000   1.0000   1.0000   1.0000
     1.0000   1.0000   1.0000   1.0000   1.0000   1.0000   1.0000   1.0000
     1.0000   1.0000   1.0000   1.0000   1.0000   1.0000   1.0000   1.0000
     1.0000   1.0000   1.0000   1.0000   1.0000   1.0000   1.0000   1.0000
     1.0000   1.0000   1.0000   1.0000   1.0000   1.0000   1.0000   1.0000
     1.0000   1.0000   1.0000   1.0000   1.0000   1.0000   1.0000   1.0000
     1.0000   1.0000   1.0000   1.0000   1.0000   1.0000   1.0000   1.0000
     1.0000   1.0000   1.0000   1.0000   1.0000   1.0000   1.0000   1.0000
     1.0000   1.0000   1.0000   1.0000   1.0000   1.0000   1.0000   1.0000
     1.0000   1.0000   1.0000   1.0000   1.0000   1.0000   1.0000   1.0000
     1.0000   1.0000   1.0000   1.0000   1.0000   1.0000   1.0000   1.0000
     1.0000   1.0000   1.0000   1.0000   1.0000   1.0000   1.0000   1.0000
     1.0000   1.0000   1.0000   1.0000   1.0000   1.0000   1.0000   1.0000
     1.0000   1.0000   1.0000   1.0000   1.0000   1.0000   1.0000   1.0000
     1.0000   1.0000   1.0000   1.0000   1.0000   1.0000   1.0000   1.0000
     1.0000   1.0000   1.0000   1.0000   1.0000   1.0000   1.0000   1.0000
     1.0000   1.0000   1.0000   1.0000   1.0000   1.0000   1.0000   1.0000
     1.0000   1.0000   1.0000   1.0000   1.0000   1.0000   1.0000   1.0000
     1.0000   1.0000   1.0000   1.0000   1.0000   1.0000   1.0000   1.0000
     1.0000   1.0000   1.0001   1.0001   1.0001   1.0738   1.0737   1.0737
     0.0002   0.0000   0.0000   0.0000   0.0000   0.0000   0.0000   0.0000
     0.0000   0.0000   0.0000   0.0000   0.0000   0.0000   0.0000   0.0000
     0.0000   0.0000   0.0000   0.0000   0.0000   0.0000   0.0000   0.0000
     0.0000   0.0000   0.0000   0.0000   0.0000   0.0000   0.0000   0.0000
     0.0000   0.0000   0.0000   0.0000   0.0000   0.0000   0.0000   0.0000
     0.0000   0.0000   0.0000   0.0000   0.0000   0.0000   0.0000   0.0000
     0.0000   0.0000   0.0000   0.0000   0.0000   0.0000   0.0000   0.0000
     0.0000   0.0000   0.0000   0.0000   0.0000   0.0000   0.0000   0.0000
     0.0000   0.0000   0.0000   0.0000   0.0000   0.0000   0.0000   0.0000
     0.0000   0.0000   0.0000   0.0000   0.0000   0.0000   0.0000   0.0000
     0.0000   0.0000   0.0000   0.0000   0.0000   0.0000   0.0000   0.0000
     0.0000   0.0000   0.0000   0.0000   0.0000   0.0000   0.0000   0.0000

          k = 0.3333-0.1925 0.0000 ( 64840 PWs)   bands (ev):

  -125.1565-125.1559-125.1553-125.1552-125.1545-125.1544-125.1540-125.1539
  -125.1538-125.1535-125.1535-125.1532-125.1531-125.1530-125.1525-125.1525
  -124.9036-124.9035-124.9030-124.9029-124.9024-124.9023-124.9023-124.9022
  -124.9016-124.9015-124.9015-124.9014-124.9011-124.9010-124.9009-124.9009
  -124.9009-124.9008-124.9005-124.9005-124.9005-124.9004-124.9004-124.9004
  -124.9002-124.9001-124.9001-124.9001-124.8998-124.8997-124.8997-124.8996
   -79.3245 -79.3245 -79.3234 -79.3213 -79.3213 -79.3195 -79.3195 -79.3168
   -79.3168 -79.3168 -79.3127 -79.3127 -79.3095 -79.3095 -79.3041 -79.3041
   -79.3036 -79.3036 -79.3009 -79.3009 -79.3004 -79.3004 -79.2990 -79.2987
   -79.2985 -79.2983 -79.2977 -79.2976 -79.2969 -79.2967 -79.2967 -79.2966
   -79.2966 -79.2962 -79.2960 -79.2959 -79.2956 -79.2956 -79.2953 -79.2951
   -79.2951 -79.2946 -79.2945 -79.2940 -79.2939 -79.2921 -79.2920 -79.2903
   -79.0661 -79.0661 -79.0660 -79.0660 -79.0650 -79.0649 -79.0629 -79.0629
   -79.0628 -79.0628 -79.0611 -79.0611 -79.0611 -79.0611 -79.0592 -79.0590
   -79.0585 -79.0585 -79.0585 -79.0584 -79.0584 -79.0584 -79.0583 -79.0583
   -79.0579 -79.0578 -79.0577 -79.0576 -79.0569 -79.0569 -79.0568 -79.0568
   -79.0565 -79.0564 -79.0563 -79.0562 -79.0561 -79.0561 -79.0558 -79.0557
   -79.0557 -79.0557 -79.0556 -79.0556 -79.0554 -79.0554 -79.0553 -79.0553
   -79.0550 -79.0550 -79.0549 -79.0549 -79.0543 -79.0543 -79.0542 -79.0542
   -79.0511 -79.0511 -79.0510 -79.0510 -79.0457 -79.0457 -79.0456 -79.0456
   -79.0453 -79.0453 -79.0452 -79.0452 -79.0425 -79.0425 -79.0425 -79.0425
   -79.0421 -79.0420 -79.0420 -79.0420 -79.0404 -79.0403 -79.0402 -79.0401
   -79.0385 -79.0384 -79.0383 -79.0383 -79.0383 -79.0382 -79.0356 -79.0356
   -79.0356 -79.0355 -79.0337 -79.0337 -79.0337 -79.0336 -79.0320 -79.0319
    -8.4810  -7.8830  -7.3554  -7.3554  -7.2653  -7.0460  -6.9755  -6.9285
    -6.9285  -6.9276  -6.8544  -6.8544  -6.8378  -6.7983  -6.7522  -6.7315
    -6.7315  -6.7200  -6.7200  -6.6955  -6.6638  -6.6523  -6.6523  -6.6480
    -6.6356  -6.6356  -6.6293  -6.6293  -6.6182  -6.6182  -6.5820  -6.5820
    -6.5682  -6.5682  -6.5644  -6.5644  -6.5612  -6.5612  -6.5584  -6.5395
    -6.5395  -6.5300  -6.5300  -6.5110  -6.5110  -6.4857  -6.4857  -6.4643
    -6.4597  -6.4597  -6.3700  -6.3700  -6.3691  -6.3691  -6.3675  -6.3675
    -6.3656  -6.3561  -6.3561  -6.3540  -6.3540  -6.3198  -6.3124  -6.3082
    -6.2810  -6.2810  -6.2784  -6.2784  -6.2731  -6.2731  -6.2728  -6.2728
    -6.2672  -6.2672  -6.2657  -6.2657  -6.2441  -6.2390  -6.2154  -6.2154
    -6.1770  -6.1701  -6.1701  -6.1627  -6.1553  -6.1553  -6.1495  -6.1495
    -6.1336  -6.1336  -6.1320  -6.1320  -6.1250  -6.1250  -6.1075  -6.0962
    -6.0962  -6.0433  -6.0433  -6.0263  -6.0263  -6.0196  -6.0177  -6.0177
    -6.0121  -6.0110  -5.9940  -5.9897  -5.9857  -5.9857  -5.9642  -5.9457
    -5.9457  -5.9383  -5.9383  -5.9377  -5.9377  -5.9286  -5.9286  -5.9137
    -5.9067  -5.8964  -5.8927  -5.8871  -5.8818  -5.8818  -5.8643  -5.8643
    -5.8636  -5.8459  -5.8459  -5.8442  -5.8442  -5.8347  -5.8347  -5.8301
    -5.8301  -5.8298  -5.8298  -5.8183  -5.8030  -5.8030  -5.7891  -5.7891
    -5.7842  -5.7842  -5.7840  -5.7443  -5.7371  -5.7371  -5.7284  -5.7284
    -5.7272  -5.7272  -5.7213  -5.7213  -5.7103  -5.7103  -5.6983  -5.6968
    -5.6968  -5.6885  -5.6834  -5.6661  -5.6626  -5.6626  -5.6545  -5.6545
    -5.6200  -5.6175  -5.6175  -5.6084  -5.6084  -5.6079  -5.6017  -5.6017
    -5.5938  -5.5938  -5.5840  -5.5825  -5.5791  -5.5791  -5.5773  -5.5773
    -5.5767  -5.5767  -5.5715  -5.5715  -5.5647  -5.5498  -5.5498  -5.5495
    -5.5495  -5.5421  -5.5421  -5.5392  -5.5266  -5.5266  -5.5134  -5.5134
    -5.5096  -5.4890  -5.4890  -5.4816  -5.4816  -5.4807  -5.4797  -5.4797
    -5.4772  -5.4758  -5.4638  -5.4563  -5.4538  -5.4538  -5.4517  -5.4517
    -5.4322  -5.4308  -5.4308  -5.4291  -5.4285  -5.4285  -5.4229  -5.4229
    -5.4228  -5.4104  -5.4076  -5.4076  -5.3893  -5.3686  -5.3686  -5.3483
    -5.3483  -5.3448  -5.3448  -5.3318  -5.3287  -5.3287  -5.3268  -5.2105
    -5.2105  -5.2027  -5.2027  -5.1721  -5.1709  -5.1162  -4.9951  -4.9951
    -4.7222  -4.7222  -4.6385  -3.8305  -3.8305  -3.6831  -3.6831  -3.3383
    -3.1395  -2.8820  -2.8136  -2.4042  -2.4042  -2.3939  -2.3939  -2.0213
    -2.0213  -1.5355  -1.5355  -1.3347  -1.3347  -1.3275  -0.8051  -0.5401
    -0.5401  -0.4637  -0.1461  -0.1461  -0.1377  -0.1377  -0.0824  -0.0824
     0.3306   0.6911   0.8056   0.8056   1.0734   1.0734   1.3964   1.3964
     1.5006   1.5006   2.3166   2.3166   2.4572   2.4572   2.7961   2.7961
     2.9196   3.0555   3.0555   3.1010   3.2813   3.4088   3.4088   3.7658
     3.7658   3.8258   3.8258   3.8778   4.0988   4.1563   4.1563   4.4722
     4.4722   4.7065   4.7065   5.0095   5.0095   5.1211   5.1211   5.1240
     5.2852   5.4901   5.6295   5.6295   5.6584   5.7365   5.7365   5.8862
     6.1028   6.1448   6.1448   6.2305   6.2450   6.2450   6.3050   6.3276
     6.3276   6.4187   6.4861   6.4861   6.5518   6.5518   6.6097   6.7148
     6.7148   6.8493   6.8493   6.8693   6.8693   7.0355   7.2087   7.2497
     7.4499   7.4499   7.5838   7.5838   7.6492   7.6492   7.6562   7.6562
     7.8060   7.8060   7.8409   7.8409   7.9448   7.9448   8.0034   8.0034
     8.2670   8.3688   8.4244   8.5425   8.5665   8.6916   8.6916   8.7289
     8.7289   8.8352   8.8352   8.8612   8.8612   8.8794   8.8797   8.9342

     occupation numbers 
     1.0000   1.0000   1.0000   1.0000   1.0000   1.0000   1.0000   1.0000
     1.0000   1.0000   1.0000   1.0000   1.0000   1.0000   1.0000   1.0000
     1.0000   1.0000   1.0000   1.0000   1.0000   1.0000   1.0000   1.0000
     1.0000   1.0000   1.0000   1.0000   1.0000   1.0000   1.0000   1.0000
     1.0000   1.0000   1.0000   1.0000   1.0000   1.0000   1.0000   1.0000
     1.0000   1.0000   1.0000   1.0000   1.0000   1.0000   1.0000   1.0000
     1.0000   1.0000   1.0000   1.0000   1.0000   1.0000   1.0000   1.0000
     1.0000   1.0000   1.0000   1.0000   1.0000   1.0000   1.0000   1.0000
     1.0000   1.0000   1.0000   1.0000   1.0000   1.0000   1.0000   1.0000
     1.0000   1.0000   1.0000   1.0000   1.0000   1.0000   1.0000   1.0000
     1.0000   1.0000   1.0000   1.0000   1.0000   1.0000   1.0000   1.0000
     1.0000   1.0000   1.0000   1.0000   1.0000   1.0000   1.0000   1.0000
     1.0000   1.0000   1.0000   1.0000   1.0000   1.0000   1.0000   1.0000
     1.0000   1.0000   1.0000   1.0000   1.0000   1.0000   1.0000   1.0000
     1.0000   1.0000   1.0000   1.0000   1.0000   1.0000   1.0000   1.0000
     1.0000   1.0000   1.0000   1.0000   1.0000   1.0000   1.0000   1.0000
     1.0000   1.0000   1.0000   1.0000   1.0000   1.0000   1.0000   1.0000
     1.0000   1.0000   1.0000   1.0000   1.0000   1.0000   1.0000   1.0000
     1.0000   1.0000   1.0000   1.0000   1.0000   1.0000   1.0000   1.0000
     1.0000   1.0000   1.0000   1.0000   1.0000   1.0000   1.0000   1.0000
     1.0000   1.0000   1.0000   1.0000   1.0000   1.0000   1.0000   1.0000
     1.0000   1.0000   1.0000   1.0000   1.0000   1.0000   1.0000   1.0000
     1.0000   1.0000   1.0000   1.0000   1.0000   1.0000   1.0000   1.0000
     1.0000   1.0000   1.0000   1.0000   1.0000   1.0000   1.0000   1.0000
     1.0000   1.0000   1.0000   1.0000   1.0000   1.0000   1.0000   1.0000
     1.0000   1.0000   1.0000   1.0000   1.0000   1.0000   1.0000   1.0000
     1.0000   1.0000   1.0000   1.0000   1.0000   1.0000   1.0000   1.0000
     1.0000   1.0000   1.0000   1.0000   1.0000   1.0000   1.0000   1.0000
     1.0000   1.0000   1.0000   1.0000   1.0000   1.0000   1.0000   1.0000
     1.0000   1.0000   1.0000   1.0000   1.0000   1.0000   1.0000   1.0000
     1.0000   1.0000   1.0000   1.0000   1.0000   1.0000   1.0000   1.0000
     1.0000   1.0000   1.0000   1.0000   1.0000   1.0000   1.0000   1.0000
     1.0000   1.0000   1.0000   1.0000   1.0000   1.0000   1.0000   1.0000
     1.0000   1.0000   1.0000   1.0000   1.0000   1.0000   1.0000   1.0000
     1.0000   1.0000   1.0000   1.0000   1.0000   1.0000   1.0000   1.0000
     1.0000   1.0000   1.0000   1.0000   1.0000   1.0000   1.0000   1.0000
     1.0000   1.0000   1.0000   1.0000   1.0000   1.0000   1.0000   1.0000
     1.0000   1.0000   1.0000   1.0000   1.0000   1.0000   1.0000   1.0000
     1.0000   1.0000   1.0000   1.0000   1.0000   1.0000   1.0000   1.0000
     1.0000   1.0000   1.0000   1.0000   1.0000   1.0000   1.0000   1.0000
     1.0000   1.0000   1.0000   1.0000   1.0000   1.0000   1.0000   1.0000
     1.0000   1.0000   1.0000   1.0000   1.0000   1.0000   1.0000   1.0000
     1.0000   1.0000   1.0000   1.0000   1.0000   1.0000   1.0000   1.0000
     1.0000   1.0000   1.0000   1.0000   1.0000   1.0000   1.0000   1.0000
     1.0000   1.0000   1.0000   1.0000   1.0000   1.0000   1.0000   1.0000
     1.0000   1.0000   1.0000   1.0000   1.0000   1.0000   1.0000   1.0000
     1.0000   1.0000   1.0000   1.0000   1.0000   1.0000   1.0000   1.0000
     1.0000   1.0000   1.0000   1.0000   1.0000   1.0000   1.0000   1.0000
     1.0000   1.0000   1.0000   1.0000   1.0000   1.0000   1.0000   1.0000
     1.0000   1.0000   1.0000   1.0000   1.0000   1.0000   1.0000   1.0000
     1.0000   1.0000   1.0000   1.0000   1.0000   1.0000   1.0000   1.0000
     1.0000   1.0000   1.0000   1.0000   1.0000   1.0000   1.0000   1.0000
     1.0000   1.0000   1.0000   1.0000   1.0000   1.0000   1.0000   1.0000
     1.0000   1.0000   1.0000   1.0000   1.0000   1.0000   1.0000   1.0000
     1.0000   1.0000   1.0000   1.0000   1.0000   1.0000   1.0000   1.0000
     1.0000   1.0000   1.0000   1.0000   1.0000   1.0000   1.0000   1.0000
     1.0000   1.0000   1.0000   1.0000   1.0000   1.0000   1.0000   1.0000
     1.0000   1.0000   1.0000   1.0000   1.0000   1.0000   1.0000   1.0000
     1.0000   1.0000   1.0000   1.0000   1.0000   1.0000   1.0000   1.0000
     1.0000   1.0023   1.0113   1.0113   1.0820   1.0820   0.6239   0.6239
     0.3486   0.3486   0.0000   0.0000   0.0000   0.0000   0.0000   0.0000
     0.0000   0.0000   0.0000   0.0000   0.0000   0.0000   0.0000   0.0000
     0.0000   0.0000   0.0000   0.0000   0.0000   0.0000   0.0000   0.0000
     0.0000   0.0000   0.0000   0.0000   0.0000   0.0000   0.0000   0.0000
     0.0000   0.0000   0.0000   0.0000   0.0000   0.0000   0.0000   0.0000
     0.0000   0.0000   0.0000   0.0000   0.0000   0.0000   0.0000   0.0000
     0.0000   0.0000   0.0000   0.0000   0.0000   0.0000   0.0000   0.0000
     0.0000   0.0000   0.0000   0.0000   0.0000   0.0000   0.0000   0.0000
     0.0000   0.0000   0.0000   0.0000   0.0000   0.0000   0.0000   0.0000
     0.0000   0.0000   0.0000   0.0000   0.0000   0.0000   0.0000   0.0000
     0.0000   0.0000   0.0000   0.0000   0.0000   0.0000   0.0000   0.0000
     0.0000   0.0000   0.0000   0.0000   0.0000   0.0000   0.0000   0.0000

     the Fermi energy is     1.4793 ev

!    total energy              =  -22154.24863696 Ry
     estimated scf accuracy    <       0.00000060 Ry
     smearing contrib. (-TS)   =      -0.00985746 Ry
     internal energy E=F+TS    =  -22154.23877950 Ry

     The total energy is F=E-TS. E is the sum of the following terms:
     one-electron contribution = -144861.50987245 Ry
     hartree contribution      =   72362.14411981 Ry
     xc contribution           =   -2024.12097056 Ry
     ewald contribution        =   52369.24794369 Ry

     convergence has been achieved in  10 iterations

     Writing all to output data dir ./tmp/Zn002.save/ :
     XML data file, charge density, pseudopotentials, collected wavefunctions

     init_run     :     56.18s CPU     56.59s WALL (       1 calls)
     electrons    :   2294.03s CPU   2311.19s WALL (       1 calls)

     Called by init_run:
     wfcinit      :     54.88s CPU     55.24s WALL (       1 calls)
     wfcinit:atom :      0.04s CPU      0.06s WALL (       5 calls)
     wfcinit:wfcr :     54.32s CPU     54.60s WALL (       5 calls)
     potinit      :      0.08s CPU      0.09s WALL (       1 calls)
     hinit0       :      0.03s CPU      0.04s WALL (       1 calls)

     Called by electrons:
     c_bands      :   2131.01s CPU   2146.88s WALL (      11 calls)
     sum_band     :    153.42s CPU    154.37s WALL (      11 calls)
     v_of_rho     :      0.75s CPU      0.79s WALL (      11 calls)
     v_h          :      0.05s CPU      0.06s WALL (      11 calls)
     v_xc         :      0.70s CPU      0.73s WALL (      11 calls)
     newd         :      9.59s CPU      9.85s WALL (      11 calls)
     mix_rho      :      0.09s CPU      0.10s WALL (      11 calls)

     Called by c_bands:
     init_us_2    :      2.13s CPU      2.14s WALL (     115 calls)
     cegterg      :   2126.63s CPU   2142.45s WALL (      55 calls)

     Called by sum_band:
     sum_band:wei :      0.03s CPU      0.03s WALL (      11 calls)
     sum_band:loo :    143.58s CPU    144.26s WALL (      11 calls)
     sum_band:buf :      0.46s CPU      0.46s WALL (      55 calls)
     sum_band:ini :      1.02s CPU      1.02s WALL (      55 calls)
     sum_band:cal :    122.31s CPU    122.83s WALL (      55 calls)
     sum_band:bec :      1.12s CPU      1.12s WALL (      55 calls)
     addusdens    :      9.64s CPU      9.91s WALL (      11 calls)
                                        0.00s GPU  (      11 calls)
     addusd:skk   :      0.09s CPU      0.10s WALL (      11 calls)
                                        0.00s GPU  (      11 calls)

     Called by *egterg:
     cdiaghg      :    160.69s CPU    166.99s WALL (     369 calls)
     cegterg:over :    320.85s CPU    321.92s WALL (     319 calls)
     cegterg:upda :    146.37s CPU    147.22s WALL (     319 calls)
     cegterg:last :    503.50s CPU    506.38s WALL (     110 calls)
     cdiaghg:chol :      9.58s CPU      9.60s WALL (     369 calls)
     cdiaghg:inve :      1.59s CPU      1.59s WALL (     369 calls)
     cdiaghg:para :     40.82s CPU     41.62s WALL (     738 calls)
     h_psi        :    669.49s CPU    672.63s WALL (     379 calls)
     s_psi        :    281.79s CPU    282.45s WALL (     379 calls)
     g_psi        :      0.29s CPU      0.29s WALL (     319 calls)

     Called by h_psi:
     h_psi:calbec :    297.53s CPU    298.89s WALL (     379 calls)
     vloc_psi     :     86.09s CPU     86.74s WALL (     379 calls)
     add_vuspsi   :    285.03s CPU    285.72s WALL (     379 calls)

     General routines
     calbec       :    419.84s CPU    421.73s WALL (     434 calls)
     fft          :      0.46s CPU      0.52s WALL (     141 calls)
     ffts         :      0.02s CPU      0.03s WALL (      22 calls)
     fftw         :     91.12s CPU     91.78s WALL (  185278 calls)
     interpolate  :      0.05s CPU      0.05s WALL (      11 calls)

     Parallel routines

     PWSCF        :  39m11.33s CPU  39m32.64s WALL


   This run was terminated on:   1:46:11  27Mar2025            

=------------------------------------------------------------------------------=
   JOB DONE.
=------------------------------------------------------------------------------=
