--------------------------------------------------------------------------
By default, for Open MPI 4.0 and later, infiniband ports on a device
are not used by default.  The intent is to use UCX for these devices.
You can override this policy by setting the btl_openib_allow_ib MCA parameter
to true.

  Local host:              psid00
  Local adapter:           mlx5_0
  Local port:              1

--------------------------------------------------------------------------
--------------------------------------------------------------------------
WARNING: There was an error initializing an OpenFabrics device.

  Local host:   psid00
  Local device: mlx5_0
--------------------------------------------------------------------------

     Program PWSCF v.7.3.1 starts on  3Feb1998 at  4:27:24 

     This program is part of the open-source Quantum ESPRESSO suite
     for quantum simulation of materials; please cite
         "P. Giannozzi et al., J. Phys.:Condens. Matter 21 395502 (2009);
         "P. Giannozzi et al., J. Phys.:Condens. Matter 29 465901 (2017);
         "P. Giannozzi et al., J. Chem. Phys. 152 154105 (2020);
          URL http://www.quantum-espresso.org", 
     in publications or presentations arising from this work. More details at
     http://www.quantum-espresso.org/quote

     Parallel version (MPI), running on    35 processors

     MPI processes distributed on     1 nodes
     499 MiB available memory on the printing compute node when the environment starts

     Waiting for input...
     Reading input from standard input

     Current dimensions of program PWSCF are:
     Max number of different atomic species (ntypx) = 10
     Max number of k-points (npk) =  40000
     Max angular momentum in pseudopotentials (lmaxx) =  4
     Found identity + ( -0.5000  0.0000  0.0000) symmetry
     This is a supercell, fractional translations are disabled

     R & G space division:  proc/nbgrp/npool/nimage =      35
     Subspace diagonalization in iterative solution of the eigenvalue problem:
     one sub-group per band group will be used
     custom distributed-memory algorithm (size of sub-group:  5*  5 procs)


     Parallelization info
     --------------------
     sticks:   dense  smooth     PW     G-vecs:    dense   smooth      PW
     Min         184      92     26                27222     9632    1424
     Max         185      95     27                27231     9637    1431
     Sum        6457    3241    913               952925   337189   49919

     Using Slab Decomposition



     bravais-lattice index     =            0
     lattice parameter (alat)  =      19.7617  a.u.
     unit-cell volume          =   15176.5939 (a.u.)^3
     number of atoms/cell      =           48
     number of atomic types    =            1
     number of electrons       =       960.00
     number of Kohn-Sham states=          576
     kinetic-energy cutoff     =      30.0000  Ry
     charge density cutoff     =     240.0000  Ry
     scf convergence threshold =      1.0E-06
     mixing beta               =       0.4000
     number of iterations used =            8  plain     mixing
     Exchange-correlation= SLA  PW   PBE  PBE
                           (   1   4   3   4   0   0   0)

     celldm(1)=  19.761696  celldm(2)=   0.000000  celldm(3)=   0.000000
     celldm(4)=   0.000000  celldm(5)=   0.000000  celldm(6)=   0.000000

     crystal axes: (cart. coord. in units of alat)
               a(1) = (   1.000000   0.000000   0.000000 )  
               a(2) = (  -0.500000   0.866025   0.000000 )  
               a(3) = (   0.000000   0.000000   2.270759 )  

     reciprocal axes: (cart. coord. in units 2 pi/alat)
               b(1) = (  1.000000  0.577350 -0.000000 )  
               b(2) = (  0.000000  1.154701  0.000000 )  
               b(3) = (  0.000000 -0.000000  0.440381 )  


     PseudoPot. # 1 for Zn read from file:
     /home/ys/qepseudo/SSSP_1.3.0_PBE_efficiency/Zn_pbe_v1.uspp.F.UPF
     MD5 check sum: df62231357ef9e81f77b2b3087fa5675
     Pseudo is Ultrasoft, Zval = 20.0
     Generated by new atomic code, or converted to UPF format
     Using radial grid of  943 points,  6 beta functions with: 
                l(1) =   0
                l(2) =   0
                l(3) =   1
                l(4) =   1
                l(5) =   2
                l(6) =   2
     Q(r) pseudized with  8 coefficients,  rinner =    1.100   1.100   1.100
                                                       1.100   1.100

     atomic species   valence    mass     pseudopotential
     Zn               20.00    65.38000     Zn( 1.00)

     No symmetry found


                                    s                        frac. trans.

      isym =  1     identity                                     

 cryst.   s( 1) = (     1          0          0      )
                  (     0          1          0      )
                  (     0          0          1      )

 cart.    s( 1) = (  1.0000000  0.0000000  0.0000000 )
                  (  0.0000000  1.0000000  0.0000000 )
                  (  0.0000000  0.0000000  1.0000000 )


   Cartesian axes

     site n.     atom                  positions (alat units)
         1        Zn     tau(   1) = (   0.0000000   0.1443375   0.1164998  )
         2        Zn     tau(   2) = (   0.5000000   0.1443375   0.1164998  )
         3        Zn     tau(   3) = (   0.0000000   0.1443375   0.5824993  )
         4        Zn     tau(   4) = (   0.5000000   0.1443375   0.5824993  )
         5        Zn     tau(   5) = (  -0.1250000   0.3608439   0.1164998  )
         6        Zn     tau(   6) = (   0.3750000   0.3608439   0.1164998  )
         7        Zn     tau(   7) = (  -0.1250000   0.3608439   0.5824993  )
         8        Zn     tau(   8) = (   0.3750000   0.3608439   0.5824993  )
         9        Zn     tau(   9) = (  -0.2500000   0.5773502   0.1164998  )
        10        Zn     tau(  10) = (   0.2500000   0.5773502   0.1164998  )
        11        Zn     tau(  11) = (  -0.2500000   0.5773502   0.5824993  )
        12        Zn     tau(  12) = (   0.2500000   0.5773502   0.5824993  )
        13        Zn     tau(  13) = (  -0.3750000   0.7938567   0.1164998  )
        14        Zn     tau(  14) = (   0.1250000   0.7938567   0.1164998  )
        15        Zn     tau(  15) = (  -0.3750000   0.7938567   0.5824993  )
        16        Zn     tau(  16) = (   0.1250000   0.7938567   0.5824993  )
        17        Zn     tau(  17) = (   0.2500000   0.1443375   0.1164998  )
        18        Zn     tau(  18) = (   0.7500000   0.1443375   0.1164998  )
        19        Zn     tau(  19) = (   0.2500000   0.1443375   0.5824993  )
        20        Zn     tau(  20) = (   0.7500000   0.1443375   0.5824993  )
        21        Zn     tau(  21) = (   0.1250000   0.3608439   0.1164998  )
        22        Zn     tau(  22) = (   0.6250000   0.3608439   0.1164998  )
        23        Zn     tau(  23) = (   0.1250000   0.3608439   0.5824993  )
        24        Zn     tau(  24) = (   0.6250000   0.3608439   0.5824993  )
        25        Zn     tau(  25) = (   0.0000000   0.5773502   0.1164998  )
        26        Zn     tau(  26) = (   0.5000000   0.5773502   0.1164998  )
        27        Zn     tau(  27) = (   0.0000000   0.5773502   0.5824993  )
        28        Zn     tau(  28) = (   0.5000000   0.5773502   0.5824993  )
        29        Zn     tau(  29) = (  -0.1250000   0.7938567   0.1164998  )
        30        Zn     tau(  30) = (   0.3750000   0.7938567   0.1164998  )
        31        Zn     tau(  31) = (  -0.1250000   0.7938567   0.5824993  )
        32        Zn     tau(  32) = (   0.3750000   0.7938567   0.5824993  )
        33        Zn     tau(  33) = (   0.1250000   0.0721688   0.3494996  )
        34        Zn     tau(  34) = (   0.6250000   0.0721688   0.3494996  )
        35        Zn     tau(  35) = (   0.0000000   0.2886752   0.3494996  )
        36        Zn     tau(  36) = (   0.5000000   0.2886752   0.3494996  )
        37        Zn     tau(  37) = (  -0.1250000   0.5051815   0.3494996  )
        38        Zn     tau(  38) = (   0.3750000   0.5051815   0.3494996  )
        39        Zn     tau(  39) = (  -0.2500000   0.7216879   0.3494996  )
        40        Zn     tau(  40) = (   0.2500000   0.7216879   0.3494996  )
        41        Zn     tau(  41) = (   0.3750000   0.0721688   0.3494996  )
        42        Zn     tau(  42) = (   0.8750000   0.0721688   0.3494996  )
        43        Zn     tau(  43) = (   0.2500000   0.2886752   0.3494996  )
        44        Zn     tau(  44) = (   0.7500000   0.2886752   0.3494996  )
        45        Zn     tau(  45) = (   0.1250000   0.5051815   0.3494996  )
        46        Zn     tau(  46) = (   0.6250000   0.5051815   0.3494996  )
        47        Zn     tau(  47) = (   0.0000000   0.7216879   0.3494996  )
        48        Zn     tau(  48) = (   0.5000000   0.7216879   0.3494996  )

   Crystallographic axes

     site n.     atom                  positions (cryst. coord.)
         1        Zn     tau(   1) = (  0.0833333  0.1666666  0.0513044  )
         2        Zn     tau(   2) = (  0.5833333  0.1666666  0.0513044  )
         3        Zn     tau(   3) = (  0.0833333  0.1666666  0.2565219  )
         4        Zn     tau(   4) = (  0.5833333  0.1666666  0.2565219  )
         5        Zn     tau(   5) = (  0.0833333  0.4166666  0.0513044  )
         6        Zn     tau(   6) = (  0.5833333  0.4166666  0.0513044  )
         7        Zn     tau(   7) = (  0.0833333  0.4166666  0.2565219  )
         8        Zn     tau(   8) = (  0.5833333  0.4166666  0.2565219  )
         9        Zn     tau(   9) = (  0.0833333  0.6666666  0.0513044  )
        10        Zn     tau(  10) = (  0.5833333  0.6666666  0.0513044  )
        11        Zn     tau(  11) = (  0.0833333  0.6666666  0.2565219  )
        12        Zn     tau(  12) = (  0.5833333  0.6666666  0.2565219  )
        13        Zn     tau(  13) = (  0.0833333  0.9166667  0.0513044  )
        14        Zn     tau(  14) = (  0.5833334  0.9166667  0.0513044  )
        15        Zn     tau(  15) = (  0.0833333  0.9166667  0.2565219  )
        16        Zn     tau(  16) = (  0.5833334  0.9166667  0.2565219  )
        17        Zn     tau(  17) = (  0.3333333  0.1666666  0.0513044  )
        18        Zn     tau(  18) = (  0.8333334  0.1666666  0.0513044  )
        19        Zn     tau(  19) = (  0.3333333  0.1666666  0.2565219  )
        20        Zn     tau(  20) = (  0.8333334  0.1666666  0.2565219  )
        21        Zn     tau(  21) = (  0.3333333  0.4166666  0.0513044  )
        22        Zn     tau(  22) = (  0.8333333  0.4166666  0.0513044  )
        23        Zn     tau(  23) = (  0.3333333  0.4166666  0.2565219  )
        24        Zn     tau(  24) = (  0.8333333  0.4166666  0.2565219  )
        25        Zn     tau(  25) = (  0.3333333  0.6666666  0.0513044  )
        26        Zn     tau(  26) = (  0.8333333  0.6666666  0.0513044  )
        27        Zn     tau(  27) = (  0.3333333  0.6666666  0.2565219  )
        28        Zn     tau(  28) = (  0.8333333  0.6666666  0.2565219  )
        29        Zn     tau(  29) = (  0.3333334  0.9166667  0.0513044  )
        30        Zn     tau(  30) = (  0.8333334  0.9166667  0.0513044  )
        31        Zn     tau(  31) = (  0.3333334  0.9166667  0.2565219  )
        32        Zn     tau(  32) = (  0.8333334  0.9166667  0.2565219  )
        33        Zn     tau(  33) = (  0.1666667  0.0833334  0.1539131  )
        34        Zn     tau(  34) = (  0.6666667  0.0833334  0.1539131  )
        35        Zn     tau(  35) = (  0.1666667  0.3333334  0.1539131  )
        36        Zn     tau(  36) = (  0.6666667  0.3333334  0.1539131  )
        37        Zn     tau(  37) = (  0.1666667  0.5833334  0.1539131  )
        38        Zn     tau(  38) = (  0.6666667  0.5833334  0.1539131  )
        39        Zn     tau(  39) = (  0.1666667  0.8333334  0.1539131  )
        40        Zn     tau(  40) = (  0.6666667  0.8333334  0.1539131  )
        41        Zn     tau(  41) = (  0.4166667  0.0833334  0.1539131  )
        42        Zn     tau(  42) = (  0.9166667  0.0833334  0.1539131  )
        43        Zn     tau(  43) = (  0.4166667  0.3333334  0.1539131  )
        44        Zn     tau(  44) = (  0.9166667  0.3333334  0.1539131  )
        45        Zn     tau(  45) = (  0.4166667  0.5833334  0.1539131  )
        46        Zn     tau(  46) = (  0.9166667  0.5833334  0.1539131  )
        47        Zn     tau(  47) = (  0.4166667  0.8333334  0.1539131  )
        48        Zn     tau(  48) = (  0.9166667  0.8333334  0.1539131  )

     number of k points=    10  Marzari-Vanderbilt smearing, width (Ry)=  0.0200
                       cart. coord. in units 2pi/alat
        k(    1) = (   0.0000000   0.0000000   0.0000000), wk =   0.1250000
        k(    2) = (   0.0000000   0.2886751   0.0000000), wk =   0.2500000
        k(    3) = (   0.0000000  -0.5773503   0.0000000), wk =   0.1250000
        k(    4) = (   0.2500000   0.1443376   0.0000000), wk =   0.2500000
        k(    5) = (   0.2500000   0.4330127   0.0000000), wk =   0.2500000
        k(    6) = (   0.2500000  -0.4330127   0.0000000), wk =   0.2500000
        k(    7) = (   0.2500000  -0.1443376   0.0000000), wk =   0.2500000
        k(    8) = (  -0.5000000  -0.2886751   0.0000000), wk =   0.1250000
        k(    9) = (  -0.5000000   0.0000000   0.0000000), wk =   0.2500000
        k(   10) = (  -0.5000000  -0.8660254   0.0000000), wk =   0.1250000

                       cryst. coord.
        k(    1) = (   0.0000000   0.0000000   0.0000000), wk =   0.1250000
        k(    2) = (   0.0000000   0.2500000   0.0000000), wk =   0.2500000
        k(    3) = (   0.0000000  -0.5000000   0.0000000), wk =   0.1250000
        k(    4) = (   0.2500000   0.0000000   0.0000000), wk =   0.2500000
        k(    5) = (   0.2500000   0.2500000   0.0000000), wk =   0.2500000
        k(    6) = (   0.2500000  -0.5000000   0.0000000), wk =   0.2500000
        k(    7) = (   0.2500000  -0.2500000   0.0000000), wk =   0.2500000
        k(    8) = (  -0.5000000   0.0000000   0.0000000), wk =   0.1250000
        k(    9) = (  -0.5000000   0.2500000   0.0000000), wk =   0.2500000
        k(   10) = (  -0.5000000  -0.5000000   0.0000000), wk =   0.1250000

     Dense  grid:   952925 G-vectors     FFT dimensions: ( 100, 100, 225)

     Smooth grid:   337189 G-vectors     FFT dimensions: (  72,  72, 160)

     Dynamical RAM for                 wfc:      10.57 MB

     Dynamical RAM for     wfc (w. buffer):     116.31 MB

     Dynamical RAM for           str. fact:       0.42 MB

     Dynamical RAM for           local pot:       0.00 MB

     Dynamical RAM for          nlocal pot:      15.86 MB

     Dynamical RAM for                qrad:       1.24 MB

     Dynamical RAM for          rho,v,vnew:       2.85 MB

     Dynamical RAM for               rhoin:       0.95 MB

     Dynamical RAM for            rho*nmix:       6.65 MB

     Dynamical RAM for           G-vectors:       1.63 MB

     Dynamical RAM for          h,s,v(r/c):       2.42 MB

     Dynamical RAM for          <psi|beta>:       7.59 MB

     Dynamical RAM for                 psi:      21.15 MB

     Dynamical RAM for                hpsi:      21.15 MB

     Dynamical RAM for                spsi:      21.15 MB

     Dynamical RAM for      wfcinit/wfcrot:      31.83 MB

     Dynamical RAM for           addusdens:      97.20 MB

     Estimated static dynamical RAM per process >     142.76 MB

     Estimated max dynamical RAM per process >     246.61 MB

     Estimated total dynamical RAM >       8.43 GB

     Initial potential from superposition of free atoms

     starting charge     959.9932, renormalised to     960.0000

     negative rho (up, down):  3.795E-04 0.000E+00
     Starting wfcs are  624 randomized atomic wfcs
[psid00:19631] 34 more processes have sent help message help-mpi-btl-openib.txt / ib port not selected
[psid00:19631] Set MCA parameter "orte_base_help_aggregate" to 0 to see all help / error messages
[psid00:19631] 34 more processes have sent help message help-mpi-btl-openib.txt / error in device init

     total cpu time spent up to now is       73.8 secs

     Self-consistent Calculation

     iteration #  1     ecut=    30.00 Ry     beta= 0.40
     Davidson diagonalization with overlap

---- Real-time Memory Report at c_bands before calling an iterative solver
           200 MiB given to the printing process from OS
             0 MiB allocation reported by mallinfo(arena+hblkhd)
          1191 MiB available memory on the node where the printing process lives
------------------
     ethr =  1.00E-02,  avg # of iterations =  9.0

     Threshold (ethr) on eigenvalues was too large:
     Diagonalizing with lowered threshold

     Davidson diagonalization with overlap

---- Real-time Memory Report at c_bands before calling an iterative solver
           271 MiB given to the printing process from OS
             0 MiB allocation reported by mallinfo(arena+hblkhd)
         12752 MiB available memory on the node where the printing process lives
------------------
     ethr =  2.08E-04,  avg # of iterations =  9.6

     negative rho (up, down):  6.758E-04 0.000E+00

     total cpu time spent up to now is      659.1 secs

     total energy              =  -22150.91305094 Ry
     estimated scf accuracy    <       2.16134240 Ry

     iteration #  2     ecut=    30.00 Ry     beta= 0.40
     Davidson diagonalization with overlap

---- Real-time Memory Report at c_bands before calling an iterative solver
           271 MiB given to the printing process from OS
             0 MiB allocation reported by mallinfo(arena+hblkhd)
         12496 MiB available memory on the node where the printing process lives
------------------
     ethr =  2.25E-04,  avg # of iterations =  2.0

     negative rho (up, down):  1.261E-03 0.000E+00

     total cpu time spent up to now is      945.2 secs

     total energy              =  -22151.53350054 Ry
     estimated scf accuracy    <       0.32914867 Ry

     iteration #  3     ecut=    30.00 Ry     beta= 0.40
     Davidson diagonalization with overlap

---- Real-time Memory Report at c_bands before calling an iterative solver
           273 MiB given to the printing process from OS
             0 MiB allocation reported by mallinfo(arena+hblkhd)
         12176 MiB available memory on the node where the printing process lives
------------------
     c_bands:  1 eigenvalues not converged
     ethr =  3.43E-05,  avg # of iterations =  9.9

     negative rho (up, down):  1.387E-03 0.000E+00

     total cpu time spent up to now is     1254.6 secs

     total energy              =  -22151.57400002 Ry
     estimated scf accuracy    <       0.04053323 Ry

     iteration #  4     ecut=    30.00 Ry     beta= 0.40
     Davidson diagonalization with overlap

---- Real-time Memory Report at c_bands before calling an iterative solver
           273 MiB given to the printing process from OS
             0 MiB allocation reported by mallinfo(arena+hblkhd)
         11853 MiB available memory on the node where the printing process lives
------------------
     ethr =  4.22E-06,  avg # of iterations = 12.5

     negative rho (up, down):  1.600E-03 0.000E+00

     total cpu time spent up to now is     1611.1 secs

     total energy              =  -22151.57575245 Ry
     estimated scf accuracy    <       0.04172042 Ry

     iteration #  5     ecut=    30.00 Ry     beta= 0.40
     Davidson diagonalization with overlap

---- Real-time Memory Report at c_bands before calling an iterative solver
           274 MiB given to the printing process from OS
             0 MiB allocation reported by mallinfo(arena+hblkhd)
         11510 MiB available memory on the node where the printing process lives
------------------
     ethr =  4.22E-06,  avg # of iterations =  3.7

     negative rho (up, down):  1.596E-03 0.000E+00

     total cpu time spent up to now is     1873.6 secs

     total energy              =  -22151.57953107 Ry
     estimated scf accuracy    <       0.00371937 Ry

     iteration #  6     ecut=    30.00 Ry     beta= 0.40
     Davidson diagonalization with overlap

---- Real-time Memory Report at c_bands before calling an iterative solver
           274 MiB given to the printing process from OS
             0 MiB allocation reported by mallinfo(arena+hblkhd)
         11233 MiB available memory on the node where the printing process lives
------------------
     ethr =  3.87E-07,  avg # of iterations =  2.4

     negative rho (up, down):  1.591E-03 0.000E+00

     total cpu time spent up to now is     2164.2 secs

     total energy              =  -22151.58013371 Ry
     estimated scf accuracy    <       0.00044933 Ry

     iteration #  7     ecut=    30.00 Ry     beta= 0.40
     Davidson diagonalization with overlap

---- Real-time Memory Report at c_bands before calling an iterative solver
           274 MiB given to the printing process from OS
             0 MiB allocation reported by mallinfo(arena+hblkhd)
         10978 MiB available memory on the node where the printing process lives
------------------
     ethr =  4.68E-08,  avg # of iterations =  3.5

     negative rho (up, down):  1.610E-03 0.000E+00

     total cpu time spent up to now is     2423.6 secs

     total energy              =  -22151.58016410 Ry
     estimated scf accuracy    <       0.00196530 Ry

     iteration #  8     ecut=    30.00 Ry     beta= 0.40
     Davidson diagonalization with overlap

---- Real-time Memory Report at c_bands before calling an iterative solver
           275 MiB given to the printing process from OS
             0 MiB allocation reported by mallinfo(arena+hblkhd)
         10696 MiB available memory on the node where the printing process lives
------------------
     ethr =  4.68E-08,  avg # of iterations =  1.7

     negative rho (up, down):  1.627E-03 0.000E+00

     total cpu time spent up to now is     2659.1 secs

     total energy              =  -22151.58022398 Ry
     estimated scf accuracy    <       0.00009363 Ry

     iteration #  9     ecut=    30.00 Ry     beta= 0.40
     Davidson diagonalization with overlap

---- Real-time Memory Report at c_bands before calling an iterative solver
           275 MiB given to the printing process from OS
             0 MiB allocation reported by mallinfo(arena+hblkhd)
         10433 MiB available memory on the node where the printing process lives
------------------
     ethr =  9.75E-09,  avg # of iterations =  2.3

     negative rho (up, down):  1.642E-03 0.000E+00

     total cpu time spent up to now is     2984.4 secs

     total energy              =  -22151.58025117 Ry
     estimated scf accuracy    <       0.00003071 Ry

     iteration # 10     ecut=    30.00 Ry     beta= 0.40
     Davidson diagonalization with overlap

---- Real-time Memory Report at c_bands before calling an iterative solver
           275 MiB given to the printing process from OS
             0 MiB allocation reported by mallinfo(arena+hblkhd)
         10472 MiB available memory on the node where the printing process lives
------------------
     ethr =  3.20E-09,  avg # of iterations =  2.0

     negative rho (up, down):  1.652E-03 0.000E+00

     total cpu time spent up to now is     3277.8 secs

     total energy              =  -22151.58026009 Ry
     estimated scf accuracy    <       0.00000194 Ry

     iteration # 11     ecut=    30.00 Ry     beta= 0.40
     Davidson diagonalization with overlap

---- Real-time Memory Report at c_bands before calling an iterative solver
           276 MiB given to the printing process from OS
             0 MiB allocation reported by mallinfo(arena+hblkhd)
         10049 MiB available memory on the node where the printing process lives
------------------
     ethr =  2.02E-10,  avg # of iterations =  1.9

     negative rho (up, down):  1.658E-03 0.000E+00

     total cpu time spent up to now is     3519.3 secs

     total energy              =  -22151.58025914 Ry
     estimated scf accuracy    <       0.00000232 Ry

     iteration # 12     ecut=    30.00 Ry     beta= 0.40
     Davidson diagonalization with overlap

---- Real-time Memory Report at c_bands before calling an iterative solver
           276 MiB given to the printing process from OS
             0 MiB allocation reported by mallinfo(arena+hblkhd)
         10012 MiB available memory on the node where the printing process lives
------------------
     ethr =  2.02E-10,  avg # of iterations =  2.0

     negative rho (up, down):  1.669E-03 0.000E+00

     total cpu time spent up to now is     3808.8 secs

     End of self-consistent calculation

          k = 0.0000 0.0000 0.0000 ( 42115 PWs)   bands (ev):

  -125.2467-125.2428-125.2428-125.2428-125.2428-125.2428-125.2428-125.2424
  -125.2424-125.2424-125.2418-125.2418-125.2418-125.2418-125.2418-125.2418
  -125.0464-125.0440-125.0417-125.0417-125.0417-125.0417-125.0417-125.0417
  -125.0412-125.0412-125.0412-125.0412-125.0412-125.0412-125.0411-125.0411
  -125.0411-125.0411-125.0411-125.0411-125.0410-125.0410-125.0410-125.0409
  -125.0409-125.0409-125.0397-125.0397-125.0397-125.0397-125.0397-125.0397
   -79.3562 -79.3562 -79.3562 -79.3469 -79.3469 -79.3469 -79.3469 -79.3469
   -79.3469 -79.3299 -79.3260 -79.3260 -79.3260 -79.3260 -79.3260 -79.3260
   -79.3258 -79.3257 -79.3257 -79.3257 -79.3257 -79.3257 -79.3257 -79.3257
   -79.3257 -79.3238 -79.3238 -79.3238 -79.3238 -79.3238 -79.3238 -79.3206
   -79.3206 -79.3206 -79.3206 -79.3206 -79.3206 -79.3197 -79.3197 -79.3162
   -79.3162 -79.3162 -79.3162 -79.3162 -79.3162 -79.3162 -79.3162 -79.3162
   -79.1516 -79.1516 -79.1516 -79.1512 -79.1512 -79.1512 -79.1464 -79.1430
   -79.1430 -79.1430 -79.1430 -79.1430 -79.1430 -79.1411 -79.1411 -79.1411
   -79.1411 -79.1411 -79.1411 -79.1358 -79.1358 -79.1358 -79.1349 -79.1349
   -79.1349 -79.1349 -79.1349 -79.1349 -79.1347 -79.1347 -79.1347 -79.1347
   -79.1347 -79.1347 -79.1312 -79.1312 -79.1312 -79.1312 -79.1312 -79.1312
   -79.1309 -79.1309 -79.1309 -79.1309 -79.1308 -79.1308 -79.1297 -79.1297
   -79.1297 -79.1252 -79.1222 -79.1222 -79.1222 -79.1222 -79.1222 -79.1222
   -79.1202 -79.1202 -79.1202 -79.1202 -79.1202 -79.1202 -79.1154 -79.1154
   -79.1153 -79.1153 -79.1153 -79.1150 -79.1150 -79.1150 -79.1150 -79.1150
   -79.1150 -79.1135 -79.1135 -79.1126 -79.1126 -79.1126 -79.1126 -79.1126
   -79.1126 -79.1114 -79.1114 -79.1114 -79.1114 -79.1114 -79.1114 -79.1093
   -79.1093 -79.1093 -79.1093 -79.1093 -79.1093 -79.1075 -79.1075 -79.1075
    -8.6183  -7.4163  -7.1329  -7.0862  -7.0862  -7.0862  -7.0862  -7.0861
    -7.0861  -6.9725  -6.9725  -6.9725  -6.7917  -6.7917  -6.7917  -6.7376
    -6.7376  -6.7376  -6.6471  -6.6471  -6.6471  -6.6471  -6.6471  -6.6471
    -6.6050  -6.6050  -6.6050  -6.5903  -6.5903  -6.5903  -6.5903  -6.5903
    -6.5903  -6.5517  -6.5517  -6.5517  -6.5517  -6.5516  -6.5516  -6.4980
    -6.4980  -6.4980  -6.4980  -6.4980  -6.4980  -6.4037  -6.4037  -6.4037
    -6.4037  -6.4037  -6.4037  -6.4034  -6.4034  -6.4034  -6.3516  -6.3483
    -6.3483  -6.3483  -6.3483  -6.3483  -6.3483  -6.2886  -6.2886  -6.2886
    -6.2886  -6.2886  -6.2886  -6.2380  -6.2380  -6.2380  -6.2380  -6.2380
    -6.2380  -6.2184  -6.2184  -6.2184  -6.2184  -6.2184  -6.2184  -6.2061
    -6.2061  -6.1983  -6.1983  -6.1983  -6.1983  -6.1983  -6.1983  -6.1747
    -6.1747  -6.1747  -6.1592  -6.1592  -6.1592  -6.1592  -6.1592  -6.1592
    -6.0634  -6.0634  -6.0634  -6.0634  -6.0634  -6.0634  -6.0038  -6.0038
    -5.9855  -5.9855  -5.9406  -5.9406  -5.9406  -5.9406  -5.9406  -5.9406
    -5.9394  -5.9394  -5.9394  -5.9394  -5.9394  -5.9394  -5.9159  -5.9159
    -5.9159  -5.8549  -5.8549  -5.8549  -5.8549  -5.8549  -5.8549  -5.8502
    -5.8502  -5.8502  -5.8502  -5.8502  -5.8502  -5.8448  -5.8448  -5.8448
    -5.8448  -5.8448  -5.8448  -5.8305  -5.8305  -5.8305  -5.8305  -5.8305
    -5.8305  -5.8303  -5.8303  -5.8303  -5.8303  -5.8303  -5.8303  -5.8080
    -5.8080  -5.8080  -5.8080  -5.8080  -5.8080  -5.7923  -5.7923  -5.7923
    -5.7923  -5.7923  -5.7923  -5.7760  -5.7760  -5.7760  -5.7760  -5.6998
    -5.6998  -5.6545  -5.6545  -5.6545  -5.6545  -5.6545  -5.6545  -5.6518
    -5.6518  -5.6518  -5.6518  -5.6518  -5.6518  -5.6167  -5.6167  -5.6167
    -5.6079  -5.6079  -5.6079  -5.6079  -5.6079  -5.6079  -5.5884  -5.5884
    -5.5884  -5.5884  -5.5884  -5.5884  -5.5736  -5.5736  -5.5736  -5.5736
    -5.5736  -5.5736  -5.5309  -5.5309  -5.5309  -5.5309  -5.5308  -5.5308
    -5.5207  -5.5207  -5.5207  -5.5189  -5.5189  -5.5189  -5.4835  -5.4835
    -5.4835  -5.4755  -5.4755  -5.4692  -5.4692  -5.4692  -5.4692  -5.4692
    -5.4692  -5.4359  -5.4359  -5.4112  -5.4112  -5.4112  -5.4112  -5.4112
    -5.4112  -5.3817  -5.3817  -5.3817  -5.3817  -5.3817  -5.3817  -5.3716
    -5.3716  -5.3716  -5.1662  -5.1662  -5.1662  -5.1634  -5.1634  -5.1634
    -4.4211  -4.4211  -4.4211  -4.4211  -4.4211  -4.4211  -3.4703  -2.1260
    -2.1260  -2.1260  -2.1260  -2.1260  -2.1260  -2.0281  -2.0281  -2.0281
    -2.0281  -2.0281  -2.0281  -0.8504  -0.8504  -0.8504  -0.7199  -0.6536
    -0.6536  -0.6536  -0.6536  -0.6536  -0.6536  -0.0988  -0.0987  -0.0987
     0.2431   0.2431   0.2431   1.5309   1.5309   1.5309   1.5309   1.5309
     1.5309   1.5644   1.5644   1.5645   1.5645   1.5645   1.5645   2.2959
     2.2959   2.2959   3.0960   3.2997   3.2997   3.2997   4.1410   4.1410
     4.1410   4.8719   4.8719   4.8720   4.8720   4.8720   4.8720   5.0870
     5.3489   5.4116   5.4116   5.4116   5.4116   5.4116   5.4116   5.4346
     5.4346   5.4346   5.4346   5.4346   5.4346   5.5888   5.5888   5.5888
     5.5888   5.5888   5.5888   6.2454   6.4618   6.5563   6.5563   6.5563
     6.8841   6.8841   6.8841   6.8841   6.8841   6.8841   7.0080   7.0080
     7.0080   7.0080   7.0080   7.0080   7.1754   7.1754   7.1754   7.1754
     7.1754   7.1755   7.1852   7.1852   7.1852   7.1852   7.1852   7.1852
     8.0838   8.0838   8.0838   8.0838   8.0838   8.0838   8.1404   8.1404
     8.1404   8.1404   8.1404   8.1404   8.2492   8.2492   8.2492   8.2492
     8.2492   8.2492   8.2649   8.3458   8.3458   8.3458   8.4016   9.2787

     occupation numbers 
     1.0000   1.0000   1.0000   1.0000   1.0000   1.0000   1.0000   1.0000
     1.0000   1.0000   1.0000   1.0000   1.0000   1.0000   1.0000   1.0000
     1.0000   1.0000   1.0000   1.0000   1.0000   1.0000   1.0000   1.0000
     1.0000   1.0000   1.0000   1.0000   1.0000   1.0000   1.0000   1.0000
     1.0000   1.0000   1.0000   1.0000   1.0000   1.0000   1.0000   1.0000
     1.0000   1.0000   1.0000   1.0000   1.0000   1.0000   1.0000   1.0000
     1.0000   1.0000   1.0000   1.0000   1.0000   1.0000   1.0000   1.0000
     1.0000   1.0000   1.0000   1.0000   1.0000   1.0000   1.0000   1.0000
     1.0000   1.0000   1.0000   1.0000   1.0000   1.0000   1.0000   1.0000
     1.0000   1.0000   1.0000   1.0000   1.0000   1.0000   1.0000   1.0000
     1.0000   1.0000   1.0000   1.0000   1.0000   1.0000   1.0000   1.0000
     1.0000   1.0000   1.0000   1.0000   1.0000   1.0000   1.0000   1.0000
     1.0000   1.0000   1.0000   1.0000   1.0000   1.0000   1.0000   1.0000
     1.0000   1.0000   1.0000   1.0000   1.0000   1.0000   1.0000   1.0000
     1.0000   1.0000   1.0000   1.0000   1.0000   1.0000   1.0000   1.0000
     1.0000   1.0000   1.0000   1.0000   1.0000   1.0000   1.0000   1.0000
     1.0000   1.0000   1.0000   1.0000   1.0000   1.0000   1.0000   1.0000
     1.0000   1.0000   1.0000   1.0000   1.0000   1.0000   1.0000   1.0000
     1.0000   1.0000   1.0000   1.0000   1.0000   1.0000   1.0000   1.0000
     1.0000   1.0000   1.0000   1.0000   1.0000   1.0000   1.0000   1.0000
     1.0000   1.0000   1.0000   1.0000   1.0000   1.0000   1.0000   1.0000
     1.0000   1.0000   1.0000   1.0000   1.0000   1.0000   1.0000   1.0000
     1.0000   1.0000   1.0000   1.0000   1.0000   1.0000   1.0000   1.0000
     1.0000   1.0000   1.0000   1.0000   1.0000   1.0000   1.0000   1.0000
     1.0000   1.0000   1.0000   1.0000   1.0000   1.0000   1.0000   1.0000
     1.0000   1.0000   1.0000   1.0000   1.0000   1.0000   1.0000   1.0000
     1.0000   1.0000   1.0000   1.0000   1.0000   1.0000   1.0000   1.0000
     1.0000   1.0000   1.0000   1.0000   1.0000   1.0000   1.0000   1.0000
     1.0000   1.0000   1.0000   1.0000   1.0000   1.0000   1.0000   1.0000
     1.0000   1.0000   1.0000   1.0000   1.0000   1.0000   1.0000   1.0000
     1.0000   1.0000   1.0000   1.0000   1.0000   1.0000   1.0000   1.0000
     1.0000   1.0000   1.0000   1.0000   1.0000   1.0000   1.0000   1.0000
     1.0000   1.0000   1.0000   1.0000   1.0000   1.0000   1.0000   1.0000
     1.0000   1.0000   1.0000   1.0000   1.0000   1.0000   1.0000   1.0000
     1.0000   1.0000   1.0000   1.0000   1.0000   1.0000   1.0000   1.0000
     1.0000   1.0000   1.0000   1.0000   1.0000   1.0000   1.0000   1.0000
     1.0000   1.0000   1.0000   1.0000   1.0000   1.0000   1.0000   1.0000
     1.0000   1.0000   1.0000   1.0000   1.0000   1.0000   1.0000   1.0000
     1.0000   1.0000   1.0000   1.0000   1.0000   1.0000   1.0000   1.0000
     1.0000   1.0000   1.0000   1.0000   1.0000   1.0000   1.0000   1.0000
     1.0000   1.0000   1.0000   1.0000   1.0000   1.0000   1.0000   1.0000
     1.0000   1.0000   1.0000   1.0000   1.0000   1.0000   1.0000   1.0000
     1.0000   1.0000   1.0000   1.0000   1.0000   1.0000   1.0000   1.0000
     1.0000   1.0000   1.0000   1.0000   1.0000   1.0000   1.0000   1.0000
     1.0000   1.0000   1.0000   1.0000   1.0000   1.0000   1.0000   1.0000
     1.0000   1.0000   1.0000   1.0000   1.0000   1.0000   1.0000   1.0000
     1.0000   1.0000   1.0000   1.0000   1.0000   1.0000   1.0000   1.0000
     1.0000   1.0000   1.0000   1.0000   1.0000   1.0000   1.0000   1.0000
     1.0000   1.0000   1.0000   1.0000   1.0000   1.0000   1.0000   1.0000
     1.0000   1.0000   1.0000   1.0000   1.0000   1.0000   1.0000   1.0000
     1.0000   1.0000   1.0000   1.0000   1.0000   1.0000   1.0000   1.0000
     1.0000   1.0000   1.0000   1.0000   1.0000   1.0000   1.0000   1.0000
     1.0000   1.0000   1.0000   1.0000   1.0000   1.0000   1.0000   1.0000
     1.0000   1.0000   1.0000   1.0000   1.0000   1.0000   1.0000   1.0000
     1.0000   1.0000   1.0000   1.0000   1.0000   1.0000   1.0000   1.0000
     1.0000   1.0000   1.0000   1.0000   1.0000   1.0000   1.0000   1.0000
     1.0000   1.0000   1.0000   1.0000   1.0000   1.0000   1.0000   1.0000
     1.0000   1.0000   1.0000   1.0000   1.0000   1.0000   1.0000   1.0000
     1.0000   1.0000   1.0000   1.0000   1.0000   1.0000   1.0000   1.0000
     1.0000   1.0000   1.0000   0.1753   0.1753   0.1753   0.1753   0.1753
     0.1753   0.1283   0.1283   0.1283   0.1283   0.1283   0.1283   0.0000
     0.0000   0.0000   0.0000   0.0000   0.0000   0.0000   0.0000   0.0000
     0.0000   0.0000   0.0000   0.0000   0.0000   0.0000   0.0000   0.0000
     0.0000   0.0000   0.0000   0.0000   0.0000   0.0000   0.0000   0.0000
     0.0000   0.0000   0.0000   0.0000   0.0000   0.0000   0.0000   0.0000
     0.0000   0.0000   0.0000   0.0000   0.0000   0.0000   0.0000   0.0000
     0.0000   0.0000   0.0000   0.0000   0.0000   0.0000   0.0000   0.0000
     0.0000   0.0000   0.0000   0.0000   0.0000   0.0000   0.0000   0.0000
     0.0000   0.0000   0.0000   0.0000   0.0000   0.0000   0.0000   0.0000
     0.0000   0.0000   0.0000   0.0000   0.0000   0.0000   0.0000   0.0000
     0.0000   0.0000   0.0000   0.0000   0.0000   0.0000   0.0000   0.0000
     0.0000   0.0000   0.0000   0.0000   0.0000   0.0000   0.0000   0.0000

          k = 0.0000 0.2887 0.0000 ( 42110 PWs)   bands (ev):

  -125.2455-125.2431-125.2428-125.2428-125.2427-125.2427-125.2426-125.2425
  -125.2425-125.2423-125.2423-125.2422-125.2422-125.2420-125.2420-125.2417
  -125.0454-125.0425-125.0420-125.0417-125.0417-125.0415-125.0415-125.0415
  -125.0415-125.0413-125.0413-125.0412-125.0412-125.0411-125.0411-125.0411
  -125.0410-125.0410-125.0409-125.0409-125.0408-125.0408-125.0407-125.0407
  -125.0407-125.0407-125.0407-125.0407-125.0405-125.0405-125.0403-125.0402
   -79.3556 -79.3556 -79.3543 -79.3485 -79.3485 -79.3478 -79.3478 -79.3434
   -79.3434 -79.3318 -79.3294 -79.3294 -79.3284 -79.3276 -79.3276 -79.3273
   -79.3272 -79.3270 -79.3270 -79.3265 -79.3265 -79.3264 -79.3264 -79.3258
   -79.3258 -79.3256 -79.3256 -79.3251 -79.3251 -79.3236 -79.3236 -79.3229
   -79.3229 -79.3222 -79.3199 -79.3199 -79.3181 -79.3181 -79.3169 -79.3161
   -79.3150 -79.3148 -79.3142 -79.3133 -79.3133 -79.3133 -79.3133 -79.3125
   -79.1514 -79.1513 -79.1513 -79.1503 -79.1503 -79.1474 -79.1453 -79.1453
   -79.1442 -79.1442 -79.1436 -79.1434 -79.1434 -79.1407 -79.1407 -79.1386
   -79.1386 -79.1386 -79.1386 -79.1383 -79.1369 -79.1369 -79.1363 -79.1352
   -79.1352 -79.1345 -79.1344 -79.1344 -79.1337 -79.1337 -79.1335 -79.1335
   -79.1333 -79.1333 -79.1316 -79.1316 -79.1315 -79.1315 -79.1313 -79.1313
   -79.1312 -79.1312 -79.1309 -79.1302 -79.1302 -79.1300 -79.1300 -79.1296
   -79.1286 -79.1273 -79.1262 -79.1262 -79.1255 -79.1249 -79.1232 -79.1232
   -79.1222 -79.1222 -79.1221 -79.1221 -79.1219 -79.1219 -79.1203 -79.1203
   -79.1193 -79.1193 -79.1167 -79.1167 -79.1166 -79.1166 -79.1141 -79.1141
   -79.1140 -79.1134 -79.1134 -79.1131 -79.1131 -79.1123 -79.1118 -79.1114
   -79.1097 -79.1090 -79.1090 -79.1090 -79.1085 -79.1085 -79.1085 -79.1082
   -79.1080 -79.1079 -79.1079 -79.1076 -79.1070 -79.1060 -79.1060 -79.1058
    -8.4995  -7.6194  -7.3175  -7.2536  -7.2536  -7.0681  -6.9556  -6.9327
    -6.9327  -6.8964  -6.8800  -6.8800  -6.7723  -6.7584  -6.7584  -6.7251
    -6.7246  -6.7224  -6.7027  -6.7027  -6.6491  -6.6400  -6.6369  -6.6369
    -6.6351  -6.6351  -6.6040  -6.6040  -6.5888  -6.5888  -6.5865  -6.5772
    -6.5772  -6.5720  -6.5720  -6.5710  -6.5710  -6.5673  -6.5673  -6.5563
    -6.5563  -6.5329  -6.5329  -6.4909  -6.4909  -6.4662  -6.4662  -6.4488
    -6.4488  -6.4480  -6.3937  -6.3882  -6.3882  -6.3880  -6.3880  -6.3865
    -6.3865  -6.3424  -6.3424  -6.3369  -6.3221  -6.2963  -6.2963  -6.2958
    -6.2958  -6.2952  -6.2952  -6.2904  -6.2806  -6.2806  -6.2722  -6.2722
    -6.2688  -6.2688  -6.2590  -6.2590  -6.2554  -6.2500  -6.2500  -6.2263
    -6.2179  -6.1946  -6.1946  -6.1887  -6.1887  -6.1775  -6.1775  -6.1733
    -6.1672  -6.1672  -6.1557  -6.1395  -6.1395  -6.1210  -6.1210  -6.1142
    -6.1142  -6.0349  -6.0349  -6.0279  -6.0279  -6.0245  -6.0162  -6.0144
    -6.0069  -6.0013  -6.0013  -5.9976  -5.9976  -5.9954  -5.9894  -5.9894
    -5.9748  -5.9714  -5.9714  -5.9553  -5.9541  -5.9541  -5.9514  -5.9511
    -5.9287  -5.9287  -5.9175  -5.9175  -5.9091  -5.8809  -5.8767  -5.8767
    -5.8677  -5.8677  -5.8630  -5.8630  -5.8599  -5.8561  -5.8561  -5.8553
    -5.8553  -5.8337  -5.8336  -5.8227  -5.8204  -5.8204  -5.8099  -5.8099
    -5.7944  -5.7911  -5.7911  -5.7823  -5.7823  -5.7798  -5.7798  -5.7771
    -5.7771  -5.7765  -5.7765  -5.7632  -5.7516  -5.7516  -5.7327  -5.7159
    -5.7159  -5.7157  -5.7113  -5.7113  -5.7040  -5.6984  -5.6984  -5.6939
    -5.6939  -5.6934  -5.6870  -5.6870  -5.6862  -5.6586  -5.6431  -5.6431
    -5.6416  -5.6389  -5.6389  -5.6293  -5.6293  -5.6290  -5.6290  -5.6246
    -5.6246  -5.6236  -5.6119  -5.6079  -5.6079  -5.6011  -5.6011  -5.5871
    -5.5871  -5.5668  -5.5668  -5.5504  -5.5423  -5.5395  -5.5395  -5.5364
    -5.5364  -5.5345  -5.5345  -5.5266  -5.5266  -5.5169  -5.5106  -5.5072
    -5.5058  -5.5058  -5.5029  -5.4934  -5.4882  -5.4882  -5.4783  -5.4765
    -5.4765  -5.4676  -5.4676  -5.4569  -5.4569  -5.4549  -5.4367  -5.4367
    -5.4351  -5.4278  -5.4256  -5.4131  -5.4104  -5.4104  -5.4032  -5.4032
    -5.4027  -5.3920  -5.3920  -5.3827  -5.3827  -5.3744  -5.3744  -5.2227
    -5.2227  -5.2168  -5.2168  -5.1974  -5.1965  -5.1948  -5.1948  -4.9911
    -4.9605  -4.6705  -4.6705  -3.8972  -3.8972  -3.4903  -3.4221  -3.4221
    -3.3843  -2.6868  -2.3123  -2.3123  -2.2342  -2.0419  -2.0419  -1.9852
    -1.9852  -1.5202  -1.5202  -1.3040  -1.3040  -1.1195  -0.8000  -0.5916
    -0.5916  -0.5730  -0.5730  -0.5607   0.0190   0.0190   0.2650   0.2650
     0.5489   0.5489   0.6194   0.8726   0.8852   0.8852   1.1680   1.1680
     1.5514   1.5514   2.2097   2.2097   2.6385   2.6832   2.6832   2.7045
     2.7716   2.7716   2.9472   2.9472   3.2080   3.5370   3.6861   3.6861
     3.8996   3.8996   4.1004   4.1680   4.1680   4.5447   4.5447   4.8017
     4.8017   4.8344   4.8344   5.1427   5.1427   5.1512   5.1512   5.1999
     5.4147   5.4147   5.4639   5.5540   5.6422   5.7788   5.7788   5.7945
     6.0850   6.0850   6.1011   6.3032   6.3032   6.3615   6.3832   6.5505
     6.5505   6.5743   6.5906   6.5906   6.7031   6.8421   6.8421   7.0128
     7.0128   7.0723   7.0723   7.1635   7.1635   7.2860   7.2989   7.2989
     7.4335   7.4335   7.4498   7.4498   7.4727   7.6490   7.6490   7.7428
     7.7454   7.7454   7.7473   7.7473   7.9199   7.9199   7.9399   7.9399
     8.0214   8.0214   8.2175   8.3175   8.3805   8.5135   8.6807   8.6808
     8.6895   8.7672   8.8106   8.8106   8.8117   8.8117   8.8204   8.8204

     occupation numbers 
     1.0000   1.0000   1.0000   1.0000   1.0000   1.0000   1.0000   1.0000
     1.0000   1.0000   1.0000   1.0000   1.0000   1.0000   1.0000   1.0000
     1.0000   1.0000   1.0000   1.0000   1.0000   1.0000   1.0000   1.0000
     1.0000   1.0000   1.0000   1.0000   1.0000   1.0000   1.0000   1.0000
     1.0000   1.0000   1.0000   1.0000   1.0000   1.0000   1.0000   1.0000
     1.0000   1.0000   1.0000   1.0000   1.0000   1.0000   1.0000   1.0000
     1.0000   1.0000   1.0000   1.0000   1.0000   1.0000   1.0000   1.0000
     1.0000   1.0000   1.0000   1.0000   1.0000   1.0000   1.0000   1.0000
     1.0000   1.0000   1.0000   1.0000   1.0000   1.0000   1.0000   1.0000
     1.0000   1.0000   1.0000   1.0000   1.0000   1.0000   1.0000   1.0000
     1.0000   1.0000   1.0000   1.0000   1.0000   1.0000   1.0000   1.0000
     1.0000   1.0000   1.0000   1.0000   1.0000   1.0000   1.0000   1.0000
     1.0000   1.0000   1.0000   1.0000   1.0000   1.0000   1.0000   1.0000
     1.0000   1.0000   1.0000   1.0000   1.0000   1.0000   1.0000   1.0000
     1.0000   1.0000   1.0000   1.0000   1.0000   1.0000   1.0000   1.0000
     1.0000   1.0000   1.0000   1.0000   1.0000   1.0000   1.0000   1.0000
     1.0000   1.0000   1.0000   1.0000   1.0000   1.0000   1.0000   1.0000
     1.0000   1.0000   1.0000   1.0000   1.0000   1.0000   1.0000   1.0000
     1.0000   1.0000   1.0000   1.0000   1.0000   1.0000   1.0000   1.0000
     1.0000   1.0000   1.0000   1.0000   1.0000   1.0000   1.0000   1.0000
     1.0000   1.0000   1.0000   1.0000   1.0000   1.0000   1.0000   1.0000
     1.0000   1.0000   1.0000   1.0000   1.0000   1.0000   1.0000   1.0000
     1.0000   1.0000   1.0000   1.0000   1.0000   1.0000   1.0000   1.0000
     1.0000   1.0000   1.0000   1.0000   1.0000   1.0000   1.0000   1.0000
     1.0000   1.0000   1.0000   1.0000   1.0000   1.0000   1.0000   1.0000
     1.0000   1.0000   1.0000   1.0000   1.0000   1.0000   1.0000   1.0000
     1.0000   1.0000   1.0000   1.0000   1.0000   1.0000   1.0000   1.0000
     1.0000   1.0000   1.0000   1.0000   1.0000   1.0000   1.0000   1.0000
     1.0000   1.0000   1.0000   1.0000   1.0000   1.0000   1.0000   1.0000
     1.0000   1.0000   1.0000   1.0000   1.0000   1.0000   1.0000   1.0000
     1.0000   1.0000   1.0000   1.0000   1.0000   1.0000   1.0000   1.0000
     1.0000   1.0000   1.0000   1.0000   1.0000   1.0000   1.0000   1.0000
     1.0000   1.0000   1.0000   1.0000   1.0000   1.0000   1.0000   1.0000
     1.0000   1.0000   1.0000   1.0000   1.0000   1.0000   1.0000   1.0000
     1.0000   1.0000   1.0000   1.0000   1.0000   1.0000   1.0000   1.0000
     1.0000   1.0000   1.0000   1.0000   1.0000   1.0000   1.0000   1.0000
     1.0000   1.0000   1.0000   1.0000   1.0000   1.0000   1.0000   1.0000
     1.0000   1.0000   1.0000   1.0000   1.0000   1.0000   1.0000   1.0000
     1.0000   1.0000   1.0000   1.0000   1.0000   1.0000   1.0000   1.0000
     1.0000   1.0000   1.0000   1.0000   1.0000   1.0000   1.0000   1.0000
     1.0000   1.0000   1.0000   1.0000   1.0000   1.0000   1.0000   1.0000
     1.0000   1.0000   1.0000   1.0000   1.0000   1.0000   1.0000   1.0000
     1.0000   1.0000   1.0000   1.0000   1.0000   1.0000   1.0000   1.0000
     1.0000   1.0000   1.0000   1.0000   1.0000   1.0000   1.0000   1.0000
     1.0000   1.0000   1.0000   1.0000   1.0000   1.0000   1.0000   1.0000
     1.0000   1.0000   1.0000   1.0000   1.0000   1.0000   1.0000   1.0000
     1.0000   1.0000   1.0000   1.0000   1.0000   1.0000   1.0000   1.0000
     1.0000   1.0000   1.0000   1.0000   1.0000   1.0000   1.0000   1.0000
     1.0000   1.0000   1.0000   1.0000   1.0000   1.0000   1.0000   1.0000
     1.0000   1.0000   1.0000   1.0000   1.0000   1.0000   1.0000   1.0000
     1.0000   1.0000   1.0000   1.0000   1.0000   1.0000   1.0000   1.0000
     1.0000   1.0000   1.0000   1.0000   1.0000   1.0000   1.0000   1.0000
     1.0000   1.0000   1.0000   1.0000   1.0000   1.0000   1.0000   1.0000
     1.0000   1.0000   1.0000   1.0000   1.0000   1.0000   1.0000   1.0000
     1.0000   1.0000   1.0000   1.0000   1.0000   1.0000   1.0000   1.0000
     1.0000   1.0000   1.0000   1.0000   1.0000   1.0000   1.0000   1.0000
     1.0000   1.0000   1.0000   1.0000   1.0000   1.0000   1.0000   1.0000
     1.0000   1.0000   1.0000   1.0000   1.0000   1.0000   1.0000   1.0000
     1.0000   1.0000   1.0000   1.0000   1.0000   1.0000   1.0000   1.0000
     1.0006   1.0006   1.0019   1.0397   1.0437   1.0437   1.0042   1.0042
     0.1454   0.1454   0.0000   0.0000   0.0000   0.0000   0.0000   0.0000
     0.0000   0.0000   0.0000   0.0000   0.0000   0.0000   0.0000   0.0000
     0.0000   0.0000   0.0000   0.0000   0.0000   0.0000   0.0000   0.0000
     0.0000   0.0000   0.0000   0.0000   0.0000   0.0000   0.0000   0.0000
     0.0000   0.0000   0.0000   0.0000   0.0000   0.0000   0.0000   0.0000
     0.0000   0.0000   0.0000   0.0000   0.0000   0.0000   0.0000   0.0000
     0.0000   0.0000   0.0000   0.0000   0.0000   0.0000   0.0000   0.0000
     0.0000   0.0000   0.0000   0.0000   0.0000   0.0000   0.0000   0.0000
     0.0000   0.0000   0.0000   0.0000   0.0000   0.0000   0.0000   0.0000
     0.0000   0.0000   0.0000   0.0000   0.0000   0.0000   0.0000   0.0000
     0.0000   0.0000   0.0000   0.0000   0.0000   0.0000   0.0000   0.0000
     0.0000   0.0000   0.0000   0.0000   0.0000   0.0000   0.0000   0.0000

          k = 0.0000-0.5774 0.0000 ( 42168 PWs)   bands (ev):

  -125.2445-125.2444-125.2431-125.2431-125.2427-125.2427-125.2427-125.2426
  -125.2426-125.2426-125.2425-125.2425-125.2422-125.2422-125.2422-125.2422
  -125.0439-125.0439-125.0422-125.0422-125.0421-125.0421-125.0418-125.0417
  -125.0417-125.0417-125.0417-125.0417-125.0417-125.0417-125.0413-125.0413
  -125.0410-125.0410-125.0410-125.0410-125.0409-125.0409-125.0408-125.0408
  -125.0408-125.0408-125.0407-125.0407-125.0407-125.0407-125.0406-125.0406
   -79.3515 -79.3515 -79.3515 -79.3515 -79.3484 -79.3484 -79.3475 -79.3474
   -79.3346 -79.3346 -79.3346 -79.3346 -79.3340 -79.3340 -79.3294 -79.3294
   -79.3288 -79.3288 -79.3275 -79.3275 -79.3261 -79.3261 -79.3261 -79.3261
   -79.3258 -79.3258 -79.3258 -79.3258 -79.3256 -79.3256 -79.3240 -79.3240
   -79.3240 -79.3240 -79.3193 -79.3193 -79.3182 -79.3182 -79.3182 -79.3181
   -79.3165 -79.3165 -79.3142 -79.3142 -79.3141 -79.3141 -79.3113 -79.3112
   -79.1493 -79.1493 -79.1493 -79.1493 -79.1446 -79.1446 -79.1443 -79.1443
   -79.1443 -79.1442 -79.1438 -79.1438 -79.1437 -79.1437 -79.1425 -79.1425
   -79.1417 -79.1417 -79.1375 -79.1375 -79.1366 -79.1366 -79.1352 -79.1352
   -79.1350 -79.1350 -79.1350 -79.1350 -79.1337 -79.1336 -79.1327 -79.1327
   -79.1326 -79.1326 -79.1315 -79.1315 -79.1315 -79.1315 -79.1314 -79.1314
   -79.1314 -79.1314 -79.1303 -79.1303 -79.1303 -79.1303 -79.1293 -79.1293
   -79.1293 -79.1293 -79.1293 -79.1293 -79.1293 -79.1293 -79.1293 -79.1293
   -79.1291 -79.1291 -79.1267 -79.1267 -79.1228 -79.1228 -79.1228 -79.1228
   -79.1196 -79.1196 -79.1196 -79.1196 -79.1187 -79.1187 -79.1140 -79.1140
   -79.1140 -79.1140 -79.1136 -79.1136 -79.1122 -79.1122 -79.1122 -79.1122
   -79.1111 -79.1111 -79.1104 -79.1104 -79.1094 -79.1094 -79.1083 -79.1083
   -79.1082 -79.1082 -79.1074 -79.1074 -79.1064 -79.1064 -79.1054 -79.1054
    -8.1518  -8.1518  -7.3192  -7.3192  -7.0477  -7.0477  -6.9142  -6.9142
    -6.9097  -6.9097  -6.8155  -6.8154  -6.8154  -6.8154  -6.7156  -6.7156
    -6.7023  -6.7023  -6.7023  -6.7023  -6.6838  -6.6838  -6.6743  -6.6742
    -6.6742  -6.6742  -6.6112  -6.6112  -6.5986  -6.5986  -6.5986  -6.5986
    -6.5523  -6.5523  -6.5523  -6.5523  -6.5453  -6.5453  -6.5312  -6.5312
    -6.5254  -6.5254  -6.5254  -6.5254  -6.5239  -6.5239  -6.4948  -6.4948
    -6.4927  -6.4927  -6.4927  -6.4927  -6.3831  -6.3831  -6.3672  -6.3672
    -6.3629  -6.3629  -6.3611  -6.3611  -6.3611  -6.3611  -6.3423  -6.3423
    -6.3423  -6.3423  -6.3102  -6.3102  -6.2899  -6.2899  -6.2899  -6.2899
    -6.2817  -6.2817  -6.2743  -6.2743  -6.2429  -6.2428  -6.2149  -6.2149
    -6.1892  -6.1892  -6.1766  -6.1766  -6.1600  -6.1600  -6.1600  -6.1600
    -6.1276  -6.1276  -6.1276  -6.1276  -6.1086  -6.1086  -6.1040  -6.1040
    -6.1024  -6.1024  -6.0977  -6.0977  -6.0880  -6.0879  -6.0665  -6.0665
    -6.0665  -6.0665  -6.0246  -6.0246  -6.0190  -6.0190  -5.9887  -5.9887
    -5.9843  -5.9843  -5.9526  -5.9526  -5.9526  -5.9526  -5.8967  -5.8967
    -5.8930  -5.8930  -5.8909  -5.8909  -5.8858  -5.8858  -5.8858  -5.8858
    -5.8701  -5.8701  -5.8667  -5.8667  -5.8539  -5.8539  -5.8539  -5.8539
    -5.8440  -5.8440  -5.8418  -5.8418  -5.8418  -5.8418  -5.8357  -5.8357
    -5.8323  -5.8323  -5.8323  -5.8323  -5.7588  -5.7588  -5.7557  -5.7557
    -5.7532  -5.7532  -5.7256  -5.7256  -5.7256  -5.7256  -5.7182  -5.7182
    -5.7028  -5.7028  -5.6884  -5.6884  -5.6883  -5.6883  -5.6775  -5.6775
    -5.6526  -5.6526  -5.6279  -5.6279  -5.6087  -5.6087  -5.6087  -5.6087
    -5.6086  -5.6086  -5.6086  -5.6086  -5.6067  -5.6067  -5.6040  -5.6040
    -5.5828  -5.5828  -5.5828  -5.5828  -5.5756  -5.5756  -5.5730  -5.5730
    -5.5719  -5.5719  -5.5579  -5.5579  -5.5464  -5.5464  -5.5464  -5.5464
    -5.5367  -5.5367  -5.5367  -5.5367  -5.5234  -5.5234  -5.5105  -5.5105
    -5.5036  -5.5036  -5.5036  -5.5036  -5.4965  -5.4965  -5.4931  -5.4930
    -5.4924  -5.4924  -5.4902  -5.4902  -5.4867  -5.4866  -5.4461  -5.4461
    -5.4445  -5.4445  -5.4445  -5.4445  -5.4106  -5.4106  -5.4106  -5.4106
    -5.3455  -5.3455  -5.3455  -5.3455  -5.3266  -5.3266  -5.3266  -5.3266
    -5.2954  -5.2954  -5.2932  -5.2932  -5.2864  -5.2864  -4.7381  -4.7381
    -4.4559  -4.4559  -4.4559  -4.4559  -3.7442  -3.7442  -3.1288  -3.1288
    -3.0757  -3.0757  -3.0757  -3.0757  -2.4029  -2.4029  -2.2462  -2.2462
    -1.7743  -1.7743  -1.7743  -1.7743  -0.7590  -0.7590  -0.7590  -0.7590
    -0.3342  -0.3342  -0.3342  -0.3342  -0.1018  -0.1018   0.0126   0.0126
     1.0037   1.0037   1.0341   1.0341   1.3232   1.3232   1.3626   1.3626
     1.3626   1.3626   2.2087   2.2087   2.8935   2.8935   2.8935   2.8935
     3.0847   3.0847   3.0847   3.0847   3.3146   3.3146   3.5430   3.5430
     3.8580   3.8580   3.8580   3.8580   3.9827   3.9827   4.2467   4.2467
     4.4355   4.4355   4.7388   4.7388   4.8412   4.8412   5.4967   5.4967
     5.5381   5.5381   5.7902   5.7902   5.8089   5.8089   5.9156   5.9156
     5.9156   5.9156   5.9829   5.9829   5.9829   5.9829   6.1416   6.1416
     6.1416   6.1416   6.4390   6.4390   6.5555   6.5555   6.7090   6.7090
     6.7276   6.7276   6.8610   6.8610   6.9116   6.9116   7.0078   7.0078
     7.0078   7.0078   7.6315   7.6315   7.8093   7.8093   8.0586   8.0586
     8.0910   8.0910   8.0910   8.0910   8.2747   8.2747   8.5607   8.5607
     8.5607   8.5607   8.6338   8.6338   8.6338   8.6338   8.7262   8.7262
     8.7397   8.7397   8.8478   8.8478   8.9920   8.9920   8.9920   8.9920

     occupation numbers 
     1.0000   1.0000   1.0000   1.0000   1.0000   1.0000   1.0000   1.0000
     1.0000   1.0000   1.0000   1.0000   1.0000   1.0000   1.0000   1.0000
     1.0000   1.0000   1.0000   1.0000   1.0000   1.0000   1.0000   1.0000
     1.0000   1.0000   1.0000   1.0000   1.0000   1.0000   1.0000   1.0000
     1.0000   1.0000   1.0000   1.0000   1.0000   1.0000   1.0000   1.0000
     1.0000   1.0000   1.0000   1.0000   1.0000   1.0000   1.0000   1.0000
     1.0000   1.0000   1.0000   1.0000   1.0000   1.0000   1.0000   1.0000
     1.0000   1.0000   1.0000   1.0000   1.0000   1.0000   1.0000   1.0000
     1.0000   1.0000   1.0000   1.0000   1.0000   1.0000   1.0000   1.0000
     1.0000   1.0000   1.0000   1.0000   1.0000   1.0000   1.0000   1.0000
     1.0000   1.0000   1.0000   1.0000   1.0000   1.0000   1.0000   1.0000
     1.0000   1.0000   1.0000   1.0000   1.0000   1.0000   1.0000   1.0000
     1.0000   1.0000   1.0000   1.0000   1.0000   1.0000   1.0000   1.0000
     1.0000   1.0000   1.0000   1.0000   1.0000   1.0000   1.0000   1.0000
     1.0000   1.0000   1.0000   1.0000   1.0000   1.0000   1.0000   1.0000
     1.0000   1.0000   1.0000   1.0000   1.0000   1.0000   1.0000   1.0000
     1.0000   1.0000   1.0000   1.0000   1.0000   1.0000   1.0000   1.0000
     1.0000   1.0000   1.0000   1.0000   1.0000   1.0000   1.0000   1.0000
     1.0000   1.0000   1.0000   1.0000   1.0000   1.0000   1.0000   1.0000
     1.0000   1.0000   1.0000   1.0000   1.0000   1.0000   1.0000   1.0000
     1.0000   1.0000   1.0000   1.0000   1.0000   1.0000   1.0000   1.0000
     1.0000   1.0000   1.0000   1.0000   1.0000   1.0000   1.0000   1.0000
     1.0000   1.0000   1.0000   1.0000   1.0000   1.0000   1.0000   1.0000
     1.0000   1.0000   1.0000   1.0000   1.0000   1.0000   1.0000   1.0000
     1.0000   1.0000   1.0000   1.0000   1.0000   1.0000   1.0000   1.0000
     1.0000   1.0000   1.0000   1.0000   1.0000   1.0000   1.0000   1.0000
     1.0000   1.0000   1.0000   1.0000   1.0000   1.0000   1.0000   1.0000
     1.0000   1.0000   1.0000   1.0000   1.0000   1.0000   1.0000   1.0000
     1.0000   1.0000   1.0000   1.0000   1.0000   1.0000   1.0000   1.0000
     1.0000   1.0000   1.0000   1.0000   1.0000   1.0000   1.0000   1.0000
     1.0000   1.0000   1.0000   1.0000   1.0000   1.0000   1.0000   1.0000
     1.0000   1.0000   1.0000   1.0000   1.0000   1.0000   1.0000   1.0000
     1.0000   1.0000   1.0000   1.0000   1.0000   1.0000   1.0000   1.0000
     1.0000   1.0000   1.0000   1.0000   1.0000   1.0000   1.0000   1.0000
     1.0000   1.0000   1.0000   1.0000   1.0000   1.0000   1.0000   1.0000
     1.0000   1.0000   1.0000   1.0000   1.0000   1.0000   1.0000   1.0000
     1.0000   1.0000   1.0000   1.0000   1.0000   1.0000   1.0000   1.0000
     1.0000   1.0000   1.0000   1.0000   1.0000   1.0000   1.0000   1.0000
     1.0000   1.0000   1.0000   1.0000   1.0000   1.0000   1.0000   1.0000
     1.0000   1.0000   1.0000   1.0000   1.0000   1.0000   1.0000   1.0000
     1.0000   1.0000   1.0000   1.0000   1.0000   1.0000   1.0000   1.0000
     1.0000   1.0000   1.0000   1.0000   1.0000   1.0000   1.0000   1.0000
     1.0000   1.0000   1.0000   1.0000   1.0000   1.0000   1.0000   1.0000
     1.0000   1.0000   1.0000   1.0000   1.0000   1.0000   1.0000   1.0000
     1.0000   1.0000   1.0000   1.0000   1.0000   1.0000   1.0000   1.0000
     1.0000   1.0000   1.0000   1.0000   1.0000   1.0000   1.0000   1.0000
     1.0000   1.0000   1.0000   1.0000   1.0000   1.0000   1.0000   1.0000
     1.0000   1.0000   1.0000   1.0000   1.0000   1.0000   1.0000   1.0000
     1.0000   1.0000   1.0000   1.0000   1.0000   1.0000   1.0000   1.0000
     1.0000   1.0000   1.0000   1.0000   1.0000   1.0000   1.0000   1.0000
     1.0000   1.0000   1.0000   1.0000   1.0000   1.0000   1.0000   1.0000
     1.0000   1.0000   1.0000   1.0000   1.0000   1.0000   1.0000   1.0000
     1.0000   1.0000   1.0000   1.0000   1.0000   1.0000   1.0000   1.0000
     1.0000   1.0000   1.0000   1.0000   1.0000   1.0000   1.0000   1.0000
     1.0000   1.0000   1.0000   1.0000   1.0000   1.0000   1.0000   1.0000
     1.0000   1.0000   1.0000   1.0000   1.0000   1.0000   1.0000   1.0000
     1.0000   1.0000   1.0000   1.0000   1.0000   1.0000   1.0000   1.0000
     1.0000   1.0000   1.0000   1.0000   1.0000   1.0000   1.0000   1.0000
     1.0000   1.0000   1.0000   1.0000   1.0000   1.0000   1.0000   1.0000
     1.0801   1.0801   1.0833   1.0833   0.6669   0.6669   0.5580   0.5580
     0.5580   0.5580   0.0000   0.0000   0.0000   0.0000   0.0000   0.0000
     0.0000   0.0000   0.0000   0.0000   0.0000   0.0000   0.0000   0.0000
     0.0000   0.0000   0.0000   0.0000   0.0000   0.0000   0.0000   0.0000
     0.0000   0.0000   0.0000   0.0000   0.0000   0.0000   0.0000   0.0000
     0.0000   0.0000   0.0000   0.0000   0.0000   0.0000   0.0000   0.0000
     0.0000   0.0000   0.0000   0.0000   0.0000   0.0000   0.0000   0.0000
     0.0000   0.0000   0.0000   0.0000   0.0000   0.0000   0.0000   0.0000
     0.0000   0.0000   0.0000   0.0000   0.0000   0.0000   0.0000   0.0000
     0.0000   0.0000   0.0000   0.0000   0.0000   0.0000   0.0000   0.0000
     0.0000   0.0000   0.0000   0.0000   0.0000   0.0000   0.0000   0.0000
     0.0000   0.0000   0.0000   0.0000   0.0000   0.0000   0.0000   0.0000
     0.0000   0.0000   0.0000   0.0000   0.0000   0.0000   0.0000   0.0000

          k = 0.2500 0.1443 0.0000 ( 42110 PWs)   bands (ev):

  -125.2455-125.2431-125.2428-125.2428-125.2427-125.2427-125.2426-125.2425
  -125.2425-125.2423-125.2423-125.2422-125.2422-125.2420-125.2420-125.2417
  -125.0454-125.0425-125.0420-125.0417-125.0417-125.0415-125.0415-125.0415
  -125.0415-125.0413-125.0413-125.0412-125.0412-125.0411-125.0411-125.0411
  -125.0410-125.0410-125.0409-125.0409-125.0408-125.0408-125.0407-125.0407
  -125.0407-125.0407-125.0407-125.0407-125.0405-125.0405-125.0403-125.0402
   -79.3556 -79.3556 -79.3543 -79.3485 -79.3485 -79.3478 -79.3478 -79.3434
   -79.3434 -79.3318 -79.3294 -79.3294 -79.3284 -79.3276 -79.3276 -79.3273
   -79.3272 -79.3270 -79.3270 -79.3265 -79.3265 -79.3264 -79.3264 -79.3258
   -79.3258 -79.3256 -79.3256 -79.3251 -79.3251 -79.3236 -79.3236 -79.3229
   -79.3229 -79.3222 -79.3199 -79.3199 -79.3181 -79.3181 -79.3169 -79.3161
   -79.3150 -79.3148 -79.3142 -79.3133 -79.3133 -79.3133 -79.3133 -79.3125
   -79.1514 -79.1513 -79.1513 -79.1503 -79.1503 -79.1474 -79.1453 -79.1453
   -79.1442 -79.1442 -79.1436 -79.1434 -79.1434 -79.1407 -79.1407 -79.1386
   -79.1386 -79.1386 -79.1386 -79.1383 -79.1369 -79.1369 -79.1363 -79.1352
   -79.1352 -79.1345 -79.1344 -79.1344 -79.1337 -79.1337 -79.1335 -79.1335
   -79.1333 -79.1333 -79.1316 -79.1316 -79.1315 -79.1315 -79.1313 -79.1313
   -79.1312 -79.1312 -79.1309 -79.1302 -79.1302 -79.1300 -79.1300 -79.1296
   -79.1286 -79.1273 -79.1262 -79.1262 -79.1255 -79.1249 -79.1232 -79.1232
   -79.1222 -79.1222 -79.1221 -79.1221 -79.1219 -79.1219 -79.1203 -79.1203
   -79.1193 -79.1193 -79.1167 -79.1167 -79.1166 -79.1166 -79.1141 -79.1141
   -79.1140 -79.1134 -79.1134 -79.1131 -79.1131 -79.1123 -79.1118 -79.1114
   -79.1097 -79.1090 -79.1090 -79.1090 -79.1085 -79.1085 -79.1085 -79.1082
   -79.1080 -79.1079 -79.1079 -79.1076 -79.1070 -79.1060 -79.1060 -79.1058
    -8.4995  -7.6194  -7.3175  -7.2536  -7.2536  -7.0681  -6.9556  -6.9327
    -6.9327  -6.8964  -6.8800  -6.8800  -6.7723  -6.7584  -6.7584  -6.7251
    -6.7246  -6.7224  -6.7027  -6.7027  -6.6491  -6.6400  -6.6369  -6.6369
    -6.6351  -6.6351  -6.6040  -6.6040  -6.5888  -6.5888  -6.5865  -6.5772
    -6.5772  -6.5720  -6.5720  -6.5710  -6.5710  -6.5673  -6.5673  -6.5563
    -6.5563  -6.5329  -6.5329  -6.4909  -6.4909  -6.4662  -6.4662  -6.4488
    -6.4488  -6.4480  -6.3937  -6.3882  -6.3882  -6.3880  -6.3880  -6.3865
    -6.3865  -6.3424  -6.3424  -6.3369  -6.3221  -6.2963  -6.2963  -6.2958
    -6.2958  -6.2952  -6.2952  -6.2904  -6.2806  -6.2806  -6.2722  -6.2722
    -6.2688  -6.2688  -6.2590  -6.2590  -6.2554  -6.2500  -6.2500  -6.2263
    -6.2179  -6.1946  -6.1946  -6.1887  -6.1887  -6.1775  -6.1775  -6.1733
    -6.1672  -6.1672  -6.1557  -6.1395  -6.1395  -6.1210  -6.1210  -6.1142
    -6.1142  -6.0349  -6.0349  -6.0279  -6.0279  -6.0245  -6.0162  -6.0144
    -6.0069  -6.0013  -6.0013  -5.9976  -5.9976  -5.9954  -5.9894  -5.9894
    -5.9748  -5.9714  -5.9714  -5.9553  -5.9541  -5.9541  -5.9514  -5.9511
    -5.9287  -5.9287  -5.9175  -5.9175  -5.9091  -5.8809  -5.8767  -5.8767
    -5.8677  -5.8677  -5.8630  -5.8630  -5.8599  -5.8561  -5.8561  -5.8553
    -5.8553  -5.8337  -5.8336  -5.8227  -5.8204  -5.8204  -5.8099  -5.8099
    -5.7944  -5.7912  -5.7911  -5.7823  -5.7823  -5.7798  -5.7798  -5.7771
    -5.7771  -5.7765  -5.7765  -5.7632  -5.7516  -5.7516  -5.7327  -5.7159
    -5.7159  -5.7157  -5.7113  -5.7113  -5.7040  -5.6984  -5.6984  -5.6939
    -5.6939  -5.6934  -5.6870  -5.6870  -5.6862  -5.6586  -5.6431  -5.6431
    -5.6416  -5.6389  -5.6389  -5.6293  -5.6293  -5.6290  -5.6290  -5.6246
    -5.6246  -5.6236  -5.6119  -5.6079  -5.6079  -5.6011  -5.6011  -5.5871
    -5.5871  -5.5668  -5.5668  -5.5504  -5.5423  -5.5395  -5.5395  -5.5364
    -5.5364  -5.5345  -5.5345  -5.5266  -5.5266  -5.5169  -5.5106  -5.5072
    -5.5058  -5.5058  -5.5029  -5.4934  -5.4882  -5.4882  -5.4783  -5.4765
    -5.4765  -5.4676  -5.4676  -5.4569  -5.4569  -5.4549  -5.4367  -5.4367
    -5.4351  -5.4278  -5.4256  -5.4131  -5.4104  -5.4104  -5.4032  -5.4032
    -5.4027  -5.3920  -5.3920  -5.3827  -5.3827  -5.3744  -5.3744  -5.2227
    -5.2227  -5.2168  -5.2168  -5.1974  -5.1965  -5.1948  -5.1948  -4.9911
    -4.9605  -4.6705  -4.6705  -3.8972  -3.8972  -3.4903  -3.4221  -3.4221
    -3.3843  -2.6868  -2.3123  -2.3123  -2.2342  -2.0419  -2.0419  -1.9852
    -1.9852  -1.5202  -1.5202  -1.3040  -1.3040  -1.1195  -0.8000  -0.5916
    -0.5916  -0.5730  -0.5730  -0.5607   0.0190   0.0190   0.2650   0.2650
     0.5489   0.5489   0.6194   0.8726   0.8852   0.8852   1.1680   1.1680
     1.5514   1.5514   2.2097   2.2097   2.6385   2.6832   2.6832   2.7045
     2.7716   2.7716   2.9472   2.9472   3.2080   3.5370   3.6861   3.6861
     3.8996   3.8996   4.1004   4.1680   4.1680   4.5447   4.5447   4.8017
     4.8017   4.8344   4.8344   5.1427   5.1427   5.1512   5.1512   5.1999
     5.4147   5.4147   5.4639   5.5540   5.6422   5.7788   5.7788   5.7945
     6.0850   6.0850   6.1011   6.3032   6.3032   6.3615   6.3832   6.5505
     6.5505   6.5743   6.5906   6.5906   6.7031   6.8421   6.8421   7.0128
     7.0128   7.0723   7.0723   7.1635   7.1635   7.2860   7.2989   7.2989
     7.4335   7.4335   7.4498   7.4498   7.4727   7.6490   7.6490   7.7428
     7.7454   7.7454   7.7473   7.7473   7.9199   7.9199   7.9399   7.9399
     8.0214   8.0214   8.2175   8.3175   8.3805   8.5135   8.6807   8.6808
     8.6895   8.7672   8.8106   8.8106   8.8117   8.8117   8.8204   8.8204

     occupation numbers 
     1.0000   1.0000   1.0000   1.0000   1.0000   1.0000   1.0000   1.0000
     1.0000   1.0000   1.0000   1.0000   1.0000   1.0000   1.0000   1.0000
     1.0000   1.0000   1.0000   1.0000   1.0000   1.0000   1.0000   1.0000
     1.0000   1.0000   1.0000   1.0000   1.0000   1.0000   1.0000   1.0000
     1.0000   1.0000   1.0000   1.0000   1.0000   1.0000   1.0000   1.0000
     1.0000   1.0000   1.0000   1.0000   1.0000   1.0000   1.0000   1.0000
     1.0000   1.0000   1.0000   1.0000   1.0000   1.0000   1.0000   1.0000
     1.0000   1.0000   1.0000   1.0000   1.0000   1.0000   1.0000   1.0000
     1.0000   1.0000   1.0000   1.0000   1.0000   1.0000   1.0000   1.0000
     1.0000   1.0000   1.0000   1.0000   1.0000   1.0000   1.0000   1.0000
     1.0000   1.0000   1.0000   1.0000   1.0000   1.0000   1.0000   1.0000
     1.0000   1.0000   1.0000   1.0000   1.0000   1.0000   1.0000   1.0000
     1.0000   1.0000   1.0000   1.0000   1.0000   1.0000   1.0000   1.0000
     1.0000   1.0000   1.0000   1.0000   1.0000   1.0000   1.0000   1.0000
     1.0000   1.0000   1.0000   1.0000   1.0000   1.0000   1.0000   1.0000
     1.0000   1.0000   1.0000   1.0000   1.0000   1.0000   1.0000   1.0000
     1.0000   1.0000   1.0000   1.0000   1.0000   1.0000   1.0000   1.0000
     1.0000   1.0000   1.0000   1.0000   1.0000   1.0000   1.0000   1.0000
     1.0000   1.0000   1.0000   1.0000   1.0000   1.0000   1.0000   1.0000
     1.0000   1.0000   1.0000   1.0000   1.0000   1.0000   1.0000   1.0000
     1.0000   1.0000   1.0000   1.0000   1.0000   1.0000   1.0000   1.0000
     1.0000   1.0000   1.0000   1.0000   1.0000   1.0000   1.0000   1.0000
     1.0000   1.0000   1.0000   1.0000   1.0000   1.0000   1.0000   1.0000
     1.0000   1.0000   1.0000   1.0000   1.0000   1.0000   1.0000   1.0000
     1.0000   1.0000   1.0000   1.0000   1.0000   1.0000   1.0000   1.0000
     1.0000   1.0000   1.0000   1.0000   1.0000   1.0000   1.0000   1.0000
     1.0000   1.0000   1.0000   1.0000   1.0000   1.0000   1.0000   1.0000
     1.0000   1.0000   1.0000   1.0000   1.0000   1.0000   1.0000   1.0000
     1.0000   1.0000   1.0000   1.0000   1.0000   1.0000   1.0000   1.0000
     1.0000   1.0000   1.0000   1.0000   1.0000   1.0000   1.0000   1.0000
     1.0000   1.0000   1.0000   1.0000   1.0000   1.0000   1.0000   1.0000
     1.0000   1.0000   1.0000   1.0000   1.0000   1.0000   1.0000   1.0000
     1.0000   1.0000   1.0000   1.0000   1.0000   1.0000   1.0000   1.0000
     1.0000   1.0000   1.0000   1.0000   1.0000   1.0000   1.0000   1.0000
     1.0000   1.0000   1.0000   1.0000   1.0000   1.0000   1.0000   1.0000
     1.0000   1.0000   1.0000   1.0000   1.0000   1.0000   1.0000   1.0000
     1.0000   1.0000   1.0000   1.0000   1.0000   1.0000   1.0000   1.0000
     1.0000   1.0000   1.0000   1.0000   1.0000   1.0000   1.0000   1.0000
     1.0000   1.0000   1.0000   1.0000   1.0000   1.0000   1.0000   1.0000
     1.0000   1.0000   1.0000   1.0000   1.0000   1.0000   1.0000   1.0000
     1.0000   1.0000   1.0000   1.0000   1.0000   1.0000   1.0000   1.0000
     1.0000   1.0000   1.0000   1.0000   1.0000   1.0000   1.0000   1.0000
     1.0000   1.0000   1.0000   1.0000   1.0000   1.0000   1.0000   1.0000
     1.0000   1.0000   1.0000   1.0000   1.0000   1.0000   1.0000   1.0000
     1.0000   1.0000   1.0000   1.0000   1.0000   1.0000   1.0000   1.0000
     1.0000   1.0000   1.0000   1.0000   1.0000   1.0000   1.0000   1.0000
     1.0000   1.0000   1.0000   1.0000   1.0000   1.0000   1.0000   1.0000
     1.0000   1.0000   1.0000   1.0000   1.0000   1.0000   1.0000   1.0000
     1.0000   1.0000   1.0000   1.0000   1.0000   1.0000   1.0000   1.0000
     1.0000   1.0000   1.0000   1.0000   1.0000   1.0000   1.0000   1.0000
     1.0000   1.0000   1.0000   1.0000   1.0000   1.0000   1.0000   1.0000
     1.0000   1.0000   1.0000   1.0000   1.0000   1.0000   1.0000   1.0000
     1.0000   1.0000   1.0000   1.0000   1.0000   1.0000   1.0000   1.0000
     1.0000   1.0000   1.0000   1.0000   1.0000   1.0000   1.0000   1.0000
     1.0000   1.0000   1.0000   1.0000   1.0000   1.0000   1.0000   1.0000
     1.0000   1.0000   1.0000   1.0000   1.0000   1.0000   1.0000   1.0000
     1.0000   1.0000   1.0000   1.0000   1.0000   1.0000   1.0000   1.0000
     1.0000   1.0000   1.0000   1.0000   1.0000   1.0000   1.0000   1.0000
     1.0000   1.0000   1.0000   1.0000   1.0000   1.0000   1.0000   1.0000
     1.0006   1.0006   1.0019   1.0397   1.0437   1.0437   1.0042   1.0042
     0.1454   0.1454   0.0000   0.0000   0.0000   0.0000   0.0000   0.0000
     0.0000   0.0000   0.0000   0.0000   0.0000   0.0000   0.0000   0.0000
     0.0000   0.0000   0.0000   0.0000   0.0000   0.0000   0.0000   0.0000
     0.0000   0.0000   0.0000   0.0000   0.0000   0.0000   0.0000   0.0000
     0.0000   0.0000   0.0000   0.0000   0.0000   0.0000   0.0000   0.0000
     0.0000   0.0000   0.0000   0.0000   0.0000   0.0000   0.0000   0.0000
     0.0000   0.0000   0.0000   0.0000   0.0000   0.0000   0.0000   0.0000
     0.0000   0.0000   0.0000   0.0000   0.0000   0.0000   0.0000   0.0000
     0.0000   0.0000   0.0000   0.0000   0.0000   0.0000   0.0000   0.0000
     0.0000   0.0000   0.0000   0.0000   0.0000   0.0000   0.0000   0.0000
     0.0000   0.0000   0.0000   0.0000   0.0000   0.0000   0.0000   0.0000
     0.0000   0.0000   0.0000   0.0000   0.0000   0.0000   0.0000   0.0000

          k = 0.2500 0.4330 0.0000 ( 42095 PWs)   bands (ev):

  -125.2444-125.2436-125.2435-125.2428-125.2428-125.2427-125.2425-125.2425
  -125.2423-125.2423-125.2422-125.2422-125.2420-125.2420-125.2420-125.2417
  -125.0440-125.0428-125.0428-125.0421-125.0419-125.0416-125.0416-125.0415
  -125.0415-125.0413-125.0412-125.0412-125.0412-125.0412-125.0412-125.0412
  -125.0411-125.0411-125.0410-125.0410-125.0409-125.0408-125.0408-125.0407
  -125.0406-125.0406-125.0406-125.0406-125.0404-125.0404-125.0400-125.0398
   -79.3547 -79.3519 -79.3519 -79.3491 -79.3491 -79.3432 -79.3428 -79.3428
   -79.3391 -79.3391 -79.3333 -79.3324 -79.3315 -79.3314 -79.3279 -79.3279
   -79.3278 -79.3278 -79.3262 -79.3260 -79.3255 -79.3254 -79.3246 -79.3245
   -79.3244 -79.3243 -79.3243 -79.3242 -79.3241 -79.3240 -79.3237 -79.3237
   -79.3233 -79.3204 -79.3203 -79.3196 -79.3176 -79.3176 -79.3172 -79.3172
   -79.3166 -79.3166 -79.3152 -79.3142 -79.3142 -79.3130 -79.3126 -79.3126
   -79.1520 -79.1487 -79.1487 -79.1478 -79.1464 -79.1464 -79.1454 -79.1454
   -79.1427 -79.1427 -79.1406 -79.1405 -79.1405 -79.1390 -79.1390 -79.1387
   -79.1380 -79.1378 -79.1378 -79.1359 -79.1359 -79.1351 -79.1351 -79.1347
   -79.1347 -79.1345 -79.1345 -79.1334 -79.1331 -79.1331 -79.1328 -79.1328
   -79.1322 -79.1319 -79.1319 -79.1316 -79.1316 -79.1315 -79.1314 -79.1311
   -79.1311 -79.1308 -79.1307 -79.1307 -79.1307 -79.1300 -79.1300 -79.1299
   -79.1295 -79.1295 -79.1291 -79.1287 -79.1273 -79.1266 -79.1266 -79.1256
   -79.1254 -79.1253 -79.1253 -79.1247 -79.1244 -79.1200 -79.1200 -79.1185
   -79.1185 -79.1178 -79.1170 -79.1170 -79.1165 -79.1147 -79.1147 -79.1137
   -79.1137 -79.1132 -79.1132 -79.1125 -79.1114 -79.1114 -79.1112 -79.1112
   -79.1110 -79.1110 -79.1107 -79.1107 -79.1107 -79.1107 -79.1104 -79.1095
   -79.1091 -79.1091 -79.1084 -79.1064 -79.1064 -79.1062 -79.1062 -79.1055
    -8.2658  -7.8203  -7.8203  -7.1316  -6.9554  -6.8993  -6.8993  -6.8526
    -6.8526  -6.8340  -6.8248  -6.8248  -6.8214  -6.8214  -6.7769  -6.7769
    -6.7603  -6.7603  -6.7195  -6.7195  -6.6925  -6.6742  -6.6742  -6.6739
    -6.6739  -6.6505  -6.6505  -6.6287  -6.6287  -6.6255  -6.6255  -6.6129
    -6.6057  -6.6057  -6.5578  -6.5578  -6.5402  -6.5402  -6.5251  -6.5251
    -6.5182  -6.5096  -6.5060  -6.4832  -6.4832  -6.4813  -6.4743  -6.4743
    -6.4706  -6.4706  -6.4660  -6.4387  -6.4387  -6.3825  -6.3770  -6.3770
    -6.3683  -6.3683  -6.3605  -6.3580  -6.3580  -6.3504  -6.3401  -6.3365
    -6.3365  -6.3285  -6.3201  -6.3201  -6.3162  -6.3137  -6.3137  -6.2918
    -6.2918  -6.2749  -6.2749  -6.2488  -6.2488  -6.2405  -6.2194  -6.2140
    -6.2127  -6.2127  -6.1966  -6.1966  -6.1794  -6.1794  -6.1746  -6.1535
    -6.1327  -6.1327  -6.1219  -6.1219  -6.1152  -6.1115  -6.0897  -6.0897
    -6.0706  -6.0687  -6.0687  -6.0642  -6.0515  -6.0515  -6.0418  -6.0418
    -6.0417  -6.0417  -6.0281  -6.0233  -6.0218  -5.9926  -5.9926  -5.9868
    -5.9868  -5.9815  -5.9716  -5.9713  -5.9713  -5.9669  -5.9617  -5.9491
    -5.9491  -5.9245  -5.9245  -5.9243  -5.9243  -5.9179  -5.9151  -5.9151
    -5.9134  -5.9109  -5.9109  -5.8879  -5.8816  -5.8816  -5.8723  -5.8517
    -5.8459  -5.8459  -5.8353  -5.8307  -5.8307  -5.8292  -5.8001  -5.8001
    -5.7756  -5.7756  -5.7726  -5.7726  -5.7364  -5.7364  -5.7363  -5.7347
    -5.7347  -5.7261  -5.7167  -5.7116  -5.7116  -5.7029  -5.7029  -5.6764
    -5.6763  -5.6763  -5.6707  -5.6707  -5.6652  -5.6652  -5.6610  -5.6609
    -5.6573  -5.6572  -5.6545  -5.6545  -5.6431  -5.6431  -5.6315  -5.6315
    -5.6313  -5.6313  -5.6260  -5.6231  -5.6173  -5.6173  -5.5955  -5.5955
    -5.5946  -5.5890  -5.5890  -5.5878  -5.5866  -5.5660  -5.5660  -5.5647
    -5.5647  -5.5595  -5.5519  -5.5453  -5.5453  -5.5448  -5.5447  -5.5432
    -5.5432  -5.5383  -5.5383  -5.5247  -5.5247  -5.5224  -5.5224  -5.5151
    -5.5151  -5.5145  -5.5063  -5.5063  -5.4950  -5.4909  -5.4909  -5.4856
    -5.4819  -5.4616  -5.4616  -5.4611  -5.4611  -5.4586  -5.4542  -5.4542
    -5.4508  -5.4460  -5.4221  -5.4188  -5.4188  -5.3916  -5.3916  -5.3621
    -5.3621  -5.3603  -5.3603  -5.3597  -5.3597  -5.3464  -5.3447  -5.3242
    -5.2773  -5.2773  -5.2721  -5.2721  -5.2041  -5.2041  -5.1155  -5.1155
    -4.4975  -4.2573  -4.2573  -4.0651  -4.0651  -3.2678  -3.2678  -3.2134
    -3.1610  -2.8928  -2.8928  -2.8649  -2.8649  -2.7898  -2.7898  -1.8067
    -1.8067  -1.7082  -1.7082  -1.4202  -1.4202  -0.8495  -0.4775  -0.4775
    -0.4291  -0.4291  -0.3358  -0.2520   0.2792   0.3371   0.3371   0.4211
     0.4211   0.6988   0.6988   0.7821   0.9588   0.9588   1.0700   1.4010
     1.4010   1.9593   1.9593   2.5162   2.5408   2.8070   2.9687   3.0725
     3.3147   3.3147   3.3553   3.3553   3.4301   3.4301   3.4316   3.5726
     3.5726   3.6652   3.8783   3.8783   4.3591   4.3591   4.3729   4.4249
     4.4340   4.4340   4.5565   4.5565   4.8840   4.9330   5.1237   5.1237
     5.2086   5.2086   5.4255   5.4407   5.4407   5.4428   5.4429   5.6939
     5.8763   5.8763   6.0790   6.1138   6.1138   6.1536   6.1536   6.5347
     6.5347   6.5933   6.6445   6.6445   6.6455   6.7993   6.9460   6.9890
     6.9890   7.0080   7.0336   7.0336   7.0557   7.0557   7.1606   7.1606
     7.2160   7.2160   7.2222   7.2222   7.2487   7.2487   7.5293   7.5293
     8.1007   8.2067   8.2067   8.3537   8.4286   8.4286   8.4306   8.5405
     8.5789   8.5789   8.5860   8.5860   8.6112   8.6298   8.6364   8.6364
     8.6742   8.6742   8.7366   8.7371   8.8842   8.8842   9.0707   9.0709

     occupation numbers 
     1.0000   1.0000   1.0000   1.0000   1.0000   1.0000   1.0000   1.0000
     1.0000   1.0000   1.0000   1.0000   1.0000   1.0000   1.0000   1.0000
     1.0000   1.0000   1.0000   1.0000   1.0000   1.0000   1.0000   1.0000
     1.0000   1.0000   1.0000   1.0000   1.0000   1.0000   1.0000   1.0000
     1.0000   1.0000   1.0000   1.0000   1.0000   1.0000   1.0000   1.0000
     1.0000   1.0000   1.0000   1.0000   1.0000   1.0000   1.0000   1.0000
     1.0000   1.0000   1.0000   1.0000   1.0000   1.0000   1.0000   1.0000
     1.0000   1.0000   1.0000   1.0000   1.0000   1.0000   1.0000   1.0000
     1.0000   1.0000   1.0000   1.0000   1.0000   1.0000   1.0000   1.0000
     1.0000   1.0000   1.0000   1.0000   1.0000   1.0000   1.0000   1.0000
     1.0000   1.0000   1.0000   1.0000   1.0000   1.0000   1.0000   1.0000
     1.0000   1.0000   1.0000   1.0000   1.0000   1.0000   1.0000   1.0000
     1.0000   1.0000   1.0000   1.0000   1.0000   1.0000   1.0000   1.0000
     1.0000   1.0000   1.0000   1.0000   1.0000   1.0000   1.0000   1.0000
     1.0000   1.0000   1.0000   1.0000   1.0000   1.0000   1.0000   1.0000
     1.0000   1.0000   1.0000   1.0000   1.0000   1.0000   1.0000   1.0000
     1.0000   1.0000   1.0000   1.0000   1.0000   1.0000   1.0000   1.0000
     1.0000   1.0000   1.0000   1.0000   1.0000   1.0000   1.0000   1.0000
     1.0000   1.0000   1.0000   1.0000   1.0000   1.0000   1.0000   1.0000
     1.0000   1.0000   1.0000   1.0000   1.0000   1.0000   1.0000   1.0000
     1.0000   1.0000   1.0000   1.0000   1.0000   1.0000   1.0000   1.0000
     1.0000   1.0000   1.0000   1.0000   1.0000   1.0000   1.0000   1.0000
     1.0000   1.0000   1.0000   1.0000   1.0000   1.0000   1.0000   1.0000
     1.0000   1.0000   1.0000   1.0000   1.0000   1.0000   1.0000   1.0000
     1.0000   1.0000   1.0000   1.0000   1.0000   1.0000   1.0000   1.0000
     1.0000   1.0000   1.0000   1.0000   1.0000   1.0000   1.0000   1.0000
     1.0000   1.0000   1.0000   1.0000   1.0000   1.0000   1.0000   1.0000
     1.0000   1.0000   1.0000   1.0000   1.0000   1.0000   1.0000   1.0000
     1.0000   1.0000   1.0000   1.0000   1.0000   1.0000   1.0000   1.0000
     1.0000   1.0000   1.0000   1.0000   1.0000   1.0000   1.0000   1.0000
     1.0000   1.0000   1.0000   1.0000   1.0000   1.0000   1.0000   1.0000
     1.0000   1.0000   1.0000   1.0000   1.0000   1.0000   1.0000   1.0000
     1.0000   1.0000   1.0000   1.0000   1.0000   1.0000   1.0000   1.0000
     1.0000   1.0000   1.0000   1.0000   1.0000   1.0000   1.0000   1.0000
     1.0000   1.0000   1.0000   1.0000   1.0000   1.0000   1.0000   1.0000
     1.0000   1.0000   1.0000   1.0000   1.0000   1.0000   1.0000   1.0000
     1.0000   1.0000   1.0000   1.0000   1.0000   1.0000   1.0000   1.0000
     1.0000   1.0000   1.0000   1.0000   1.0000   1.0000   1.0000   1.0000
     1.0000   1.0000   1.0000   1.0000   1.0000   1.0000   1.0000   1.0000
     1.0000   1.0000   1.0000   1.0000   1.0000   1.0000   1.0000   1.0000
     1.0000   1.0000   1.0000   1.0000   1.0000   1.0000   1.0000   1.0000
     1.0000   1.0000   1.0000   1.0000   1.0000   1.0000   1.0000   1.0000
     1.0000   1.0000   1.0000   1.0000   1.0000   1.0000   1.0000   1.0000
     1.0000   1.0000   1.0000   1.0000   1.0000   1.0000   1.0000   1.0000
     1.0000   1.0000   1.0000   1.0000   1.0000   1.0000   1.0000   1.0000
     1.0000   1.0000   1.0000   1.0000   1.0000   1.0000   1.0000   1.0000
     1.0000   1.0000   1.0000   1.0000   1.0000   1.0000   1.0000   1.0000
     1.0000   1.0000   1.0000   1.0000   1.0000   1.0000   1.0000   1.0000
     1.0000   1.0000   1.0000   1.0000   1.0000   1.0000   1.0000   1.0000
     1.0000   1.0000   1.0000   1.0000   1.0000   1.0000   1.0000   1.0000
     1.0000   1.0000   1.0000   1.0000   1.0000   1.0000   1.0000   1.0000
     1.0000   1.0000   1.0000   1.0000   1.0000   1.0000   1.0000   1.0000
     1.0000   1.0000   1.0000   1.0000   1.0000   1.0000   1.0000   1.0000
     1.0000   1.0000   1.0000   1.0000   1.0000   1.0000   1.0000   1.0000
     1.0000   1.0000   1.0000   1.0000   1.0000   1.0000   1.0000   1.0000
     1.0000   1.0000   1.0000   1.0000   1.0000   1.0000   1.0000   1.0000
     1.0000   1.0000   1.0000   1.0000   1.0000   1.0000   1.0000   1.0000
     1.0000   1.0000   1.0000   1.0000   1.0000   1.0000   1.0000   1.0000
     1.0000   1.0000   1.0000   1.0000   1.0000   1.0000   1.0000   1.0000
     1.0000   1.0060   1.0060   1.0167   1.0686   1.0686   1.0793   0.4540
     0.4540   0.0004   0.0004   0.0000   0.0000   0.0000   0.0000   0.0000
     0.0000   0.0000   0.0000   0.0000   0.0000   0.0000   0.0000   0.0000
     0.0000   0.0000   0.0000   0.0000   0.0000   0.0000   0.0000   0.0000
     0.0000   0.0000   0.0000   0.0000   0.0000   0.0000   0.0000   0.0000
     0.0000   0.0000   0.0000   0.0000   0.0000   0.0000   0.0000   0.0000
     0.0000   0.0000   0.0000   0.0000   0.0000   0.0000   0.0000   0.0000
     0.0000   0.0000   0.0000   0.0000   0.0000   0.0000   0.0000   0.0000
     0.0000   0.0000   0.0000   0.0000   0.0000   0.0000   0.0000   0.0000
     0.0000   0.0000   0.0000   0.0000   0.0000   0.0000   0.0000   0.0000
     0.0000   0.0000   0.0000   0.0000   0.0000   0.0000   0.0000   0.0000
     0.0000   0.0000   0.0000   0.0000   0.0000   0.0000   0.0000   0.0000
     0.0000   0.0000   0.0000   0.0000   0.0000   0.0000   0.0000   0.0000

          k = 0.2500-0.4330 0.0000 ( 42095 PWs)   bands (ev):

  -125.2444-125.2435-125.2435-125.2428-125.2428-125.2427-125.2425-125.2425
  -125.2423-125.2423-125.2422-125.2422-125.2420-125.2420-125.2420-125.2417
  -125.0440-125.0428-125.0428-125.0421-125.0419-125.0416-125.0416-125.0415
  -125.0415-125.0413-125.0412-125.0412-125.0412-125.0412-125.0412-125.0412
  -125.0411-125.0411-125.0410-125.0410-125.0409-125.0408-125.0408-125.0407
  -125.0406-125.0406-125.0406-125.0406-125.0404-125.0404-125.0400-125.0398
   -79.3547 -79.3519 -79.3519 -79.3491 -79.3491 -79.3432 -79.3428 -79.3428
   -79.3391 -79.3391 -79.3333 -79.3324 -79.3314 -79.3314 -79.3279 -79.3279
   -79.3278 -79.3278 -79.3262 -79.3260 -79.3254 -79.3254 -79.3245 -79.3245
   -79.3244 -79.3243 -79.3243 -79.3241 -79.3241 -79.3240 -79.3237 -79.3237
[...]
     1.0000   1.0000   1.0000   1.0000   1.0000   1.0000   1.0000   1.0000
     1.0000   1.0000   1.0000   1.0000   1.0000   1.0000   1.0000   1.0000
     1.0000   1.0000   1.0000   1.0000   1.0000   1.0000   1.0000   1.0000
     1.0000   1.0000   1.0000   1.0000   1.0000   1.0000   1.0000   1.0000
     1.0000   1.0000   1.0000   1.0000   1.0000   1.0000   1.0000   1.0000
     1.0000   1.0000   1.0000   1.0000   1.0000   1.0000   1.0000   1.0000
     1.0000   1.0000   1.0000   1.0000   1.0000   1.0000   1.0000   1.0000
     1.0000   1.0000   1.0000   1.0000   1.0000   1.0000   1.0000   1.0000
     1.0000   1.0000   1.0000   1.0000   1.0000   1.0000   1.0000   1.0000
     1.0000   1.0000   1.0000   1.0000   1.0000   1.0000   1.0000   1.0000
     1.0000   1.0000   1.0000   1.0000   1.0000   1.0000   1.0000   1.0000
     1.0000   1.0000   1.0000   1.0000   1.0000   1.0000   1.0000   1.0000
     1.0000   1.0000   1.0000   1.0000   1.0000   1.0000   1.0000   1.0000
     1.0000   1.0000   1.0000   1.0000   1.0000   1.0000   1.0000   1.0000
     1.0000   1.0000   1.0000   1.0000   1.0000   1.0000   1.0000   1.0000
     1.0000   1.0000   1.0000   1.0000   1.0000   1.0000   1.0000   1.0000
     1.0000   1.0000   1.0000   1.0000   1.0000   1.0000   1.0000   1.0000
     1.0000   1.0000   1.0000   1.0000   1.0000   1.0000   1.0000   1.0000
     1.0000   1.0000   1.0000   1.0000   1.0000   1.0000   1.0000   1.0000
     1.0000   1.0000   1.0000   1.0000   1.0000   1.0000   1.0000   1.0000
     1.0000   1.0000   1.0000   1.0000   1.0000   1.0000   1.0000   1.0000
     1.0000   1.0000   1.0000   1.0000   1.0000   1.0000   1.0000   1.0000
     1.0000   1.0000   1.0000   1.0000   1.0000   1.0000   1.0000   1.0000
     1.0000   1.0000   1.0000   1.0000   1.0000   1.0000   1.0000   1.0000
     1.0000   1.0000   1.0000   1.0000   1.0000   1.0000   1.0000   1.0000
     1.0000   1.0000   1.0000   1.0000   1.0000   1.0000   1.0000   1.0000
     1.0000   1.0000   1.0000   1.0000   1.0000   1.0000   1.0000   1.0000
     1.0000   1.0000   1.0000   1.0000   1.0000   1.0000   1.0000   1.0000
     1.0000   1.0000   1.0000   1.0000   1.0000   1.0000   1.0000   1.0000
     1.0000   1.0000   1.0000   1.0000   1.0000   1.0000   1.0000   1.0000
     1.0000   1.0000   1.0000   1.0000   1.0000   1.0000   1.0000   1.0000
     1.0000   1.0000   1.0000   1.0000   1.0000   1.0000   1.0000   1.0000
     1.0000   1.0000   1.0000   1.0000   1.0000   1.0000   1.0000   1.0000
     1.0000   1.0000   1.0000   1.0000   1.0000   1.0000   1.0000   1.0000
     1.0000   1.0000   1.0000   1.0000   1.0000   1.0000   1.0000   1.0000
     1.0000   1.0000   1.0000   1.0000   1.0000   1.0000   1.0000   1.0000
     1.0000   1.0000   1.0000   1.0000   1.0000   1.0000   1.0000   1.0000
     1.0000   1.0000   1.0000   1.0000   1.0000   1.0000   1.0000   1.0000
     1.0000   1.0000   1.0000   1.0000   1.0000   1.0000   1.0000   1.0000
     1.0000   1.0000   1.0000   1.0000   1.0000   1.0000   1.0000   1.0000
     1.0000   1.0060   1.0060   1.0167   1.0686   1.0686   1.0793   0.4540
     0.4540   0.0004   0.0004   0.0000   0.0000   0.0000   0.0000   0.0000
     0.0000   0.0000   0.0000   0.0000   0.0000   0.0000   0.0000   0.0000
     0.0000   0.0000   0.0000   0.0000   0.0000   0.0000   0.0000   0.0000
     0.0000   0.0000   0.0000   0.0000   0.0000   0.0000   0.0000   0.0000
     0.0000   0.0000   0.0000   0.0000   0.0000   0.0000   0.0000   0.0000
     0.0000   0.0000   0.0000   0.0000   0.0000   0.0000   0.0000   0.0000
     0.0000   0.0000   0.0000   0.0000   0.0000   0.0000   0.0000   0.0000
     0.0000   0.0000   0.0000   0.0000   0.0000   0.0000   0.0000   0.0000
     0.0000   0.0000   0.0000   0.0000   0.0000   0.0000   0.0000   0.0000
     0.0000   0.0000   0.0000   0.0000   0.0000   0.0000   0.0000   0.0000
     0.0000   0.0000   0.0000   0.0000   0.0000   0.0000   0.0000   0.0000
     0.0000   0.0000   0.0000   0.0000   0.0000   0.0000   0.0000   0.0000

          k =-0.5000-0.8660 0.0000 ( 42168 PWs)   bands (ev):

  -125.2445-125.2444-125.2431-125.2431-125.2427-125.2427-125.2426-125.2426
  -125.2426-125.2426-125.2425-125.2425-125.2422-125.2422-125.2422-125.2422
  -125.0440-125.0439-125.0422-125.0422-125.0421-125.0421-125.0418-125.0417
  -125.0417-125.0417-125.0417-125.0417-125.0417-125.0417-125.0413-125.0413
  -125.0410-125.0410-125.0410-125.0410-125.0409-125.0409-125.0408-125.0408
  -125.0408-125.0408-125.0407-125.0407-125.0407-125.0407-125.0406-125.0406
   -79.3515 -79.3515 -79.3515 -79.3514 -79.3484 -79.3484 -79.3475 -79.3474
   -79.3346 -79.3346 -79.3346 -79.3346 -79.3340 -79.3340 -79.3294 -79.3294
   -79.3288 -79.3288 -79.3275 -79.3275 -79.3261 -79.3261 -79.3261 -79.3261
   -79.3258 -79.3258 -79.3258 -79.3258 -79.3256 -79.3256 -79.3240 -79.3240
   -79.3240 -79.3240 -79.3193 -79.3193 -79.3182 -79.3182 -79.3182 -79.3182
   -79.3165 -79.3165 -79.3142 -79.3142 -79.3141 -79.3141 -79.3113 -79.3112
   -79.1493 -79.1493 -79.1493 -79.1493 -79.1446 -79.1446 -79.1443 -79.1443
   -79.1443 -79.1442 -79.1438 -79.1438 -79.1437 -79.1437 -79.1425 -79.1425
   -79.1417 -79.1417 -79.1375 -79.1375 -79.1366 -79.1366 -79.1352 -79.1352
   -79.1350 -79.1350 -79.1350 -79.1350 -79.1337 -79.1336 -79.1327 -79.1327
   -79.1326 -79.1326 -79.1315 -79.1315 -79.1315 -79.1315 -79.1314 -79.1314
   -79.1314 -79.1314 -79.1303 -79.1303 -79.1303 -79.1303 -79.1293 -79.1293
   -79.1293 -79.1293 -79.1293 -79.1293 -79.1293 -79.1293 -79.1293 -79.1293
   -79.1291 -79.1290 -79.1267 -79.1267 -79.1228 -79.1228 -79.1228 -79.1227
   -79.1196 -79.1196 -79.1196 -79.1195 -79.1187 -79.1187 -79.1140 -79.1140
   -79.1140 -79.1140 -79.1136 -79.1136 -79.1122 -79.1122 -79.1122 -79.1122
   -79.1111 -79.1111 -79.1104 -79.1104 -79.1094 -79.1094 -79.1083 -79.1083
   -79.1082 -79.1081 -79.1074 -79.1074 -79.1064 -79.1064 -79.1054 -79.1054
    -8.1518  -8.1518  -7.3192  -7.3192  -7.0477  -7.0477  -6.9142  -6.9142
    -6.9097  -6.9097  -6.8155  -6.8155  -6.8154  -6.8154  -6.7157  -6.7156
    -6.7023  -6.7023  -6.7023  -6.7023  -6.6838  -6.6838  -6.6743  -6.6743
    -6.6742  -6.6742  -6.6112  -6.6112  -6.5986  -6.5986  -6.5986  -6.5986
    -6.5523  -6.5523  -6.5523  -6.5523  -6.5453  -6.5453  -6.5312  -6.5312
    -6.5254  -6.5254  -6.5254  -6.5254  -6.5239  -6.5239  -6.4948  -6.4948
    -6.4927  -6.4927  -6.4927  -6.4927  -6.3831  -6.3831  -6.3672  -6.3672
    -6.3629  -6.3629  -6.3611  -6.3611  -6.3611  -6.3611  -6.3423  -6.3423
    -6.3423  -6.3423  -6.3102  -6.3102  -6.2899  -6.2899  -6.2899  -6.2899
    -6.2817  -6.2817  -6.2743  -6.2743  -6.2429  -6.2428  -6.2149  -6.2149
    -6.1892  -6.1892  -6.1766  -6.1766  -6.1600  -6.1600  -6.1600  -6.1600
    -6.1276  -6.1276  -6.1276  -6.1276  -6.1086  -6.1086  -6.1040  -6.1040
    -6.1024  -6.1024  -6.0977  -6.0977  -6.0880  -6.0879  -6.0665  -6.0665
    -6.0665  -6.0665  -6.0246  -6.0246  -6.0190  -6.0190  -5.9887  -5.9887
    -5.9843  -5.9843  -5.9526  -5.9526  -5.9526  -5.9526  -5.8967  -5.8967
    -5.8930  -5.8930  -5.8910  -5.8909  -5.8858  -5.8858  -5.8858  -5.8858
    -5.8701  -5.8701  -5.8667  -5.8667  -5.8539  -5.8539  -5.8539  -5.8539
    -5.8440  -5.8440  -5.8418  -5.8418  -5.8418  -5.8418  -5.8357  -5.8357
    -5.8323  -5.8323  -5.8323  -5.8323  -5.7588  -5.7588  -5.7557  -5.7557
    -5.7532  -5.7532  -5.7256  -5.7256  -5.7256  -5.7256  -5.7182  -5.7182
    -5.7028  -5.7028  -5.6884  -5.6884  -5.6883  -5.6883  -5.6775  -5.6775
    -5.6526  -5.6526  -5.6279  -5.6279  -5.6087  -5.6087  -5.6087  -5.6087
    -5.6086  -5.6086  -5.6086  -5.6086  -5.6067  -5.6067  -5.6040  -5.6040
    -5.5828  -5.5828  -5.5828  -5.5828  -5.5756  -5.5756  -5.5730  -5.5730
    -5.5719  -5.5719  -5.5579  -5.5579  -5.5464  -5.5464  -5.5464  -5.5464
    -5.5367  -5.5367  -5.5367  -5.5367  -5.5234  -5.5234  -5.5105  -5.5105
    -5.5036  -5.5036  -5.5036  -5.5036  -5.4965  -5.4965  -5.4931  -5.4930
    -5.4924  -5.4924  -5.4902  -5.4902  -5.4867  -5.4866  -5.4461  -5.4461
    -5.4445  -5.4445  -5.4445  -5.4445  -5.4106  -5.4106  -5.4106  -5.4106
    -5.3455  -5.3455  -5.3455  -5.3455  -5.3266  -5.3266  -5.3266  -5.3266
    -5.2954  -5.2954  -5.2932  -5.2932  -5.2864  -5.2864  -4.7381  -4.7381
    -4.4559  -4.4559  -4.4559  -4.4559  -3.7442  -3.7442  -3.1288  -3.1288
    -3.0757  -3.0757  -3.0757  -3.0757  -2.4029  -2.4029  -2.2462  -2.2462
    -1.7743  -1.7743  -1.7743  -1.7743  -0.7590  -0.7590  -0.7590  -0.7590
    -0.3342  -0.3342  -0.3342  -0.3342  -0.1018  -0.1018   0.0126   0.0126
     1.0037   1.0037   1.0341   1.0341   1.3232   1.3232   1.3626   1.3626
     1.3626   1.3626   2.2087   2.2087   2.8935   2.8935   2.8935   2.8935
     3.0847   3.0847   3.0847   3.0847   3.3146   3.3146   3.5430   3.5430
     3.8580   3.8580   3.8580   3.8580   3.9827   3.9828   4.2467   4.2467
     4.4355   4.4355   4.7388   4.7388   4.8412   4.8412   5.4967   5.4967
     5.5381   5.5381   5.7902   5.7902   5.8089   5.8089   5.9156   5.9156
     5.9156   5.9156   5.9829   5.9829   5.9829   5.9829   6.1416   6.1416
     6.1416   6.1416   6.4390   6.4390   6.5555   6.5555   6.7090   6.7090
     6.7276   6.7276   6.8610   6.8610   6.9116   6.9116   7.0078   7.0078
     7.0078   7.0078   7.6315   7.6315   7.8093   7.8093   8.0586   8.0586
     8.0910   8.0910   8.0910   8.0910   8.2747   8.2747   8.5607   8.5607
     8.5607   8.5607   8.6338   8.6338   8.6338   8.6338   8.7262   8.7262
     8.7397   8.7397   8.8478   8.8478   8.9919   8.9919   8.9919   8.9920

     occupation numbers 
     1.0000   1.0000   1.0000   1.0000   1.0000   1.0000   1.0000   1.0000
     1.0000   1.0000   1.0000   1.0000   1.0000   1.0000   1.0000   1.0000
     1.0000   1.0000   1.0000   1.0000   1.0000   1.0000   1.0000   1.0000
     1.0000   1.0000   1.0000   1.0000   1.0000   1.0000   1.0000   1.0000
     1.0000   1.0000   1.0000   1.0000   1.0000   1.0000   1.0000   1.0000
     1.0000   1.0000   1.0000   1.0000   1.0000   1.0000   1.0000   1.0000
     1.0000   1.0000   1.0000   1.0000   1.0000   1.0000   1.0000   1.0000
     1.0000   1.0000   1.0000   1.0000   1.0000   1.0000   1.0000   1.0000
     1.0000   1.0000   1.0000   1.0000   1.0000   1.0000   1.0000   1.0000
     1.0000   1.0000   1.0000   1.0000   1.0000   1.0000   1.0000   1.0000
     1.0000   1.0000   1.0000   1.0000   1.0000   1.0000   1.0000   1.0000
     1.0000   1.0000   1.0000   1.0000   1.0000   1.0000   1.0000   1.0000
     1.0000   1.0000   1.0000   1.0000   1.0000   1.0000   1.0000   1.0000
     1.0000   1.0000   1.0000   1.0000   1.0000   1.0000   1.0000   1.0000
     1.0000   1.0000   1.0000   1.0000   1.0000   1.0000   1.0000   1.0000
     1.0000   1.0000   1.0000   1.0000   1.0000   1.0000   1.0000   1.0000
     1.0000   1.0000   1.0000   1.0000   1.0000   1.0000   1.0000   1.0000
     1.0000   1.0000   1.0000   1.0000   1.0000   1.0000   1.0000   1.0000
     1.0000   1.0000   1.0000   1.0000   1.0000   1.0000   1.0000   1.0000
     1.0000   1.0000   1.0000   1.0000   1.0000   1.0000   1.0000   1.0000
     1.0000   1.0000   1.0000   1.0000   1.0000   1.0000   1.0000   1.0000
     1.0000   1.0000   1.0000   1.0000   1.0000   1.0000   1.0000   1.0000
     1.0000   1.0000   1.0000   1.0000   1.0000   1.0000   1.0000   1.0000
     1.0000   1.0000   1.0000   1.0000   1.0000   1.0000   1.0000   1.0000
     1.0000   1.0000   1.0000   1.0000   1.0000   1.0000   1.0000   1.0000
     1.0000   1.0000   1.0000   1.0000   1.0000   1.0000   1.0000   1.0000
     1.0000   1.0000   1.0000   1.0000   1.0000   1.0000   1.0000   1.0000
     1.0000   1.0000   1.0000   1.0000   1.0000   1.0000   1.0000   1.0000
     1.0000   1.0000   1.0000   1.0000   1.0000   1.0000   1.0000   1.0000
     1.0000   1.0000   1.0000   1.0000   1.0000   1.0000   1.0000   1.0000
     1.0000   1.0000   1.0000   1.0000   1.0000   1.0000   1.0000   1.0000
     1.0000   1.0000   1.0000   1.0000   1.0000   1.0000   1.0000   1.0000
     1.0000   1.0000   1.0000   1.0000   1.0000   1.0000   1.0000   1.0000
     1.0000   1.0000   1.0000   1.0000   1.0000   1.0000   1.0000   1.0000
     1.0000   1.0000   1.0000   1.0000   1.0000   1.0000   1.0000   1.0000
     1.0000   1.0000   1.0000   1.0000   1.0000   1.0000   1.0000   1.0000
     1.0000   1.0000   1.0000   1.0000   1.0000   1.0000   1.0000   1.0000
     1.0000   1.0000   1.0000   1.0000   1.0000   1.0000   1.0000   1.0000
     1.0000   1.0000   1.0000   1.0000   1.0000   1.0000   1.0000   1.0000
     1.0000   1.0000   1.0000   1.0000   1.0000   1.0000   1.0000   1.0000
     1.0000   1.0000   1.0000   1.0000   1.0000   1.0000   1.0000   1.0000
     1.0000   1.0000   1.0000   1.0000   1.0000   1.0000   1.0000   1.0000
     1.0000   1.0000   1.0000   1.0000   1.0000   1.0000   1.0000   1.0000
     1.0000   1.0000   1.0000   1.0000   1.0000   1.0000   1.0000   1.0000
     1.0000   1.0000   1.0000   1.0000   1.0000   1.0000   1.0000   1.0000
     1.0000   1.0000   1.0000   1.0000   1.0000   1.0000   1.0000   1.0000
     1.0000   1.0000   1.0000   1.0000   1.0000   1.0000   1.0000   1.0000
     1.0000   1.0000   1.0000   1.0000   1.0000   1.0000   1.0000   1.0000
     1.0000   1.0000   1.0000   1.0000   1.0000   1.0000   1.0000   1.0000
     1.0000   1.0000   1.0000   1.0000   1.0000   1.0000   1.0000   1.0000
     1.0000   1.0000   1.0000   1.0000   1.0000   1.0000   1.0000   1.0000
     1.0000   1.0000   1.0000   1.0000   1.0000   1.0000   1.0000   1.0000
     1.0000   1.0000   1.0000   1.0000   1.0000   1.0000   1.0000   1.0000
     1.0000   1.0000   1.0000   1.0000   1.0000   1.0000   1.0000   1.0000
     1.0000   1.0000   1.0000   1.0000   1.0000   1.0000   1.0000   1.0000
     1.0000   1.0000   1.0000   1.0000   1.0000   1.0000   1.0000   1.0000
     1.0000   1.0000   1.0000   1.0000   1.0000   1.0000   1.0000   1.0000
     1.0000   1.0000   1.0000   1.0000   1.0000   1.0000   1.0000   1.0000
     1.0000   1.0000   1.0000   1.0000   1.0000   1.0000   1.0000   1.0000
     1.0801   1.0801   1.0833   1.0833   0.6669   0.6669   0.5580   0.5580
     0.5580   0.5580   0.0000   0.0000   0.0000   0.0000   0.0000   0.0000
     0.0000   0.0000   0.0000   0.0000   0.0000   0.0000   0.0000   0.0000
     0.0000   0.0000   0.0000   0.0000   0.0000   0.0000   0.0000   0.0000
     0.0000   0.0000   0.0000   0.0000   0.0000   0.0000   0.0000   0.0000
     0.0000   0.0000   0.0000   0.0000   0.0000   0.0000   0.0000   0.0000
     0.0000   0.0000   0.0000   0.0000   0.0000   0.0000   0.0000   0.0000
     0.0000   0.0000   0.0000   0.0000   0.0000   0.0000   0.0000   0.0000
     0.0000   0.0000   0.0000   0.0000   0.0000   0.0000   0.0000   0.0000
     0.0000   0.0000   0.0000   0.0000   0.0000   0.0000   0.0000   0.0000
     0.0000   0.0000   0.0000   0.0000   0.0000   0.0000   0.0000   0.0000
     0.0000   0.0000   0.0000   0.0000   0.0000   0.0000   0.0000   0.0000
     0.0000   0.0000   0.0000   0.0000   0.0000   0.0000   0.0000   0.0000

     the Fermi energy is     1.4217 ev

!    total energy              =  -22151.58025964 Ry
     estimated scf accuracy    <          9.8E-09 Ry
     smearing contrib. (-TS)   =       0.00174860 Ry
     internal energy E=F+TS    =  -22151.58200824 Ry

     The total energy is F=E-TS. E is the sum of the following terms:
     one-electron contribution = -144854.40977671 Ry
     hartree contribution      =   72356.44912520 Ry
     xc contribution           =   -2022.86930043 Ry
     ewald contribution        =   52369.24794369 Ry

     convergence has been achieved in  12 iterations

     Writing all to output data dir ./tmp/Zn002.save/ :
     XML data file, charge density, pseudopotentials, collected wavefunctions

     init_run     :     72.49s CPU     73.59s WALL (       1 calls)
     electrons    :   3695.78s CPU   3735.07s WALL (       1 calls)

     Called by init_run:
     wfcinit      :     71.47s CPU     72.35s WALL (       1 calls)
     wfcinit:atom :      0.03s CPU      0.07s WALL (      10 calls)
     wfcinit:wfcr :     70.83s CPU     71.48s WALL (      10 calls)
     potinit      :      0.07s CPU      0.13s WALL (       1 calls)
     hinit0       :      0.02s CPU      0.03s WALL (       1 calls)

     Called by electrons:
     c_bands      :   3434.24s CPU   3470.44s WALL (      13 calls)
     sum_band     :    251.63s CPU    254.05s WALL (      13 calls)
     v_of_rho     :      0.71s CPU      0.78s WALL (      13 calls)
     v_h          :      0.04s CPU      0.05s WALL (      13 calls)
     v_xc         :      0.67s CPU      0.74s WALL (      13 calls)
     newd         :      9.76s CPU     10.51s WALL (      13 calls)
     mix_rho      :      0.07s CPU      0.08s WALL (      13 calls)

     Called by c_bands:
     init_us_2    :      3.21s CPU      3.24s WALL (     270 calls)
     cegterg      :   3427.33s CPU   3463.25s WALL (     130 calls)

     Called by sum_band:
     sum_band:wei :      0.07s CPU      0.07s WALL (      13 calls)
     sum_band:loo :    243.13s CPU    244.83s WALL (      13 calls)
     sum_band:buf :      0.57s CPU      0.76s WALL (     130 calls)
     sum_band:ini :      1.54s CPU      1.55s WALL (     130 calls)
     sum_band:cal :    210.06s CPU    211.26s WALL (     130 calls)
     sum_band:bec :      2.71s CPU      2.72s WALL (     130 calls)
     addusdens    :      8.30s CPU      8.99s WALL (      13 calls)
                                        0.00s GPU  (      13 calls)
     addusd:skk   :      0.08s CPU      0.09s WALL (      13 calls)
                                        0.00s GPU  (      13 calls)

     Called by *egterg:
     cdiaghg      :    389.84s CPU    404.49s WALL (     745 calls)
     cegterg:over :    502.44s CPU    504.66s WALL (     625 calls)
     cegterg:upda :    206.08s CPU    207.36s WALL (     625 calls)
     cegterg:last :    722.16s CPU    727.60s WALL (     256 calls)
     cdiaghg:chol :     24.69s CPU     24.76s WALL (     745 calls)
     cdiaghg:inve :      4.10s CPU      4.11s WALL (     745 calls)
     cdiaghg:para :    102.89s CPU    105.04s WALL (    1490 calls)
     h_psi        :   1091.67s CPU   1098.85s WALL (     765 calls)
     s_psi        :    450.79s CPU    451.96s WALL (     765 calls)
     g_psi        :      0.52s CPU      0.52s WALL (     625 calls)

     Called by h_psi:
     h_psi:calbec :    503.38s CPU    506.33s WALL (     765 calls)
     vloc_psi     :    128.97s CPU    130.13s WALL (     765 calls)
     add_vuspsi   :    458.62s CPU    460.36s WALL (     765 calls)

     General routines
     calbec       :    713.44s CPU    717.59s WALL (     895 calls)
     fft          :      0.42s CPU      0.46s WALL (     167 calls)
     ffts         :      0.02s CPU      0.02s WALL (      26 calls)
     fftw         :    135.88s CPU    137.07s WALL (  434816 calls)
     interpolate  :      0.04s CPU      0.05s WALL (      13 calls)

     Parallel routines

     PWSCF        :      1h 2m CPU      1h 3m WALL


   This run was terminated on:   5:30:58   3Feb1998            

=------------------------------------------------------------------------------=
   JOB DONE.
=------------------------------------------------------------------------------=
Note: The following floating-point exceptions are signalling: IEEE_DENORMAL
Note: The following floating-point exceptions are signalling: IEEE_DENORMAL
Note: The following floating-point exceptions are signalling: IEEE_DENORMAL
Note: The following floating-point exceptions are signalling: IEEE_DENORMAL
Note: The following floating-point exceptions are signalling: IEEE_DENORMAL
Note: The following floating-point exceptions are signalling: IEEE_DENORMAL
Note: The following floating-point exceptions are signalling: IEEE_DENORMAL
Note: The following floating-point exceptions are signalling: IEEE_DENORMAL
Note: The following floating-point exceptions are signalling: IEEE_DENORMAL
Note: The following floating-point exceptions are signalling: IEEE_DENORMAL
Note: The following floating-point exceptions are signalling: IEEE_DENORMAL
Note: The following floating-point exceptions are signalling: IEEE_DENORMAL
