--------------------------------------------------------------------------
By default, for Open MPI 4.0 and later, infiniband ports on a device
are not used by default.  The intent is to use UCX for these devices.
You can override this policy by setting the btl_openib_allow_ib MCA parameter
to true.

  Local host:              psid06
  Local adapter:           mlx4_0
  Local port:              1

--------------------------------------------------------------------------
--------------------------------------------------------------------------
WARNING: There was an error initializing an OpenFabrics device.

  Local host:   psid06
  Local device: mlx4_0
--------------------------------------------------------------------------

     Program PWSCF v.7.3.1 starts on 26Mar2025 at 16:18:47 

     This program is part of the open-source Quantum ESPRESSO suite
     for quantum simulation of materials; please cite
         "P. Giannozzi et al., J. Phys.:Condens. Matter 21 395502 (2009);
         "P. Giannozzi et al., J. Phys.:Condens. Matter 29 465901 (2017);
         "P. Giannozzi et al., J. Chem. Phys. 152 154105 (2020);
          URL http://www.quantum-espresso.org", 
     in publications or presentations arising from this work. More details at
     http://www.quantum-espresso.org/quote

     Parallel version (MPI), running on    33 processors

     MPI processes distributed on     1 nodes
     127771 MiB available memory on the printing compute node when the environment starts

     Waiting for input...
     Reading input from standard input

     Current dimensions of program PWSCF are:
     Max number of different atomic species (ntypx) = 10
     Max number of k-points (npk) =  40000
     Max angular momentum in pseudopotentials (lmaxx) =  4
     Found identity + ( -0.5000  0.0000  0.0000) symmetry
     This is a supercell, fractional translations are disabled

     R & G space division:  proc/nbgrp/npool/nimage =      33
     Subspace diagonalization in iterative solution of the eigenvalue problem:
     one sub-group per band group will be used
     custom distributed-memory algorithm (size of sub-group:  5*  5 procs)


     Parallelization info
     --------------------
     sticks:   dense  smooth     PW     G-vecs:    dense   smooth      PW
     Min         228     130     36                36393    15714    2270
     Max         230     131     37                36401    15723    2280
     Sum        7555    4303   1189              1201061   518755   75035

     Using Slab Decomposition



     bravais-lattice index     =            0
     lattice parameter (alat)  =      19.7617  a.u.
     unit-cell volume          =   15176.5939 (a.u.)^3
     number of atoms/cell      =           48
     number of atomic types    =            1
     number of electrons       =       960.00
     number of Kohn-Sham states=          576
     kinetic-energy cutoff     =      40.0000  Ry
     charge density cutoff     =     280.0000  Ry
     scf convergence threshold =      1.0E-06
     mixing beta               =       0.4000
     number of iterations used =            8  plain     mixing
     Exchange-correlation= SLA  PW   PBE  PBE
                           (   1   4   3   4   0   0   0)

     celldm(1)=  19.761696  celldm(2)=   0.000000  celldm(3)=   0.000000
     celldm(4)=   0.000000  celldm(5)=   0.000000  celldm(6)=   0.000000

     crystal axes: (cart. coord. in units of alat)
               a(1) = (   1.000000   0.000000   0.000000 )  
               a(2) = (  -0.500000   0.866025   0.000000 )  
               a(3) = (   0.000000   0.000000   2.270759 )  

     reciprocal axes: (cart. coord. in units 2 pi/alat)
               b(1) = (  1.000000  0.577350 -0.000000 )  
               b(2) = (  0.000000  1.154701  0.000000 )  
               b(3) = (  0.000000 -0.000000  0.440381 )  


     PseudoPot. # 1 for Zn read from file:
     /home/ys/qepseudo/SSSP_1.3.0_PBE_efficiency/Zn_pbe_v1.uspp.F.UPF
     MD5 check sum: df62231357ef9e81f77b2b3087fa5675
     Pseudo is Ultrasoft, Zval = 20.0
     Generated by new atomic code, or converted to UPF format
     Using radial grid of  943 points,  6 beta functions with: 
                l(1) =   0
                l(2) =   0
                l(3) =   1
                l(4) =   1
                l(5) =   2
                l(6) =   2
     Q(r) pseudized with  8 coefficients,  rinner =    1.100   1.100   1.100
                                                       1.100   1.100

     atomic species   valence    mass     pseudopotential
     Zn               20.00    65.38000     Zn( 1.00)

     No symmetry found


                                    s                        frac. trans.

      isym =  1     identity                                     

 cryst.   s( 1) = (     1          0          0      )
                  (     0          1          0      )
                  (     0          0          1      )

 cart.    s( 1) = (  1.0000000  0.0000000  0.0000000 )
                  (  0.0000000  1.0000000  0.0000000 )
                  (  0.0000000  0.0000000  1.0000000 )


   Cartesian axes

     site n.     atom                  positions (alat units)
         1        Zn     tau(   1) = (   0.0000000   0.1443375   0.1164998  )
         2        Zn     tau(   2) = (   0.5000000   0.1443375   0.1164998  )
         3        Zn     tau(   3) = (   0.0000000   0.1443375   0.5824993  )
         4        Zn     tau(   4) = (   0.5000000   0.1443375   0.5824993  )
         5        Zn     tau(   5) = (  -0.1250000   0.3608439   0.1164998  )
         6        Zn     tau(   6) = (   0.3750000   0.3608439   0.1164998  )
         7        Zn     tau(   7) = (  -0.1250000   0.3608439   0.5824993  )
         8        Zn     tau(   8) = (   0.3750000   0.3608439   0.5824993  )
         9        Zn     tau(   9) = (  -0.2500000   0.5773502   0.1164998  )
        10        Zn     tau(  10) = (   0.2500000   0.5773502   0.1164998  )
        11        Zn     tau(  11) = (  -0.2500000   0.5773502   0.5824993  )
        12        Zn     tau(  12) = (   0.2500000   0.5773502   0.5824993  )
        13        Zn     tau(  13) = (  -0.3750000   0.7938567   0.1164998  )
        14        Zn     tau(  14) = (   0.1250000   0.7938567   0.1164998  )
        15        Zn     tau(  15) = (  -0.3750000   0.7938567   0.5824993  )
        16        Zn     tau(  16) = (   0.1250000   0.7938567   0.5824993  )
        17        Zn     tau(  17) = (   0.2500000   0.1443375   0.1164998  )
        18        Zn     tau(  18) = (   0.7500000   0.1443375   0.1164998  )
        19        Zn     tau(  19) = (   0.2500000   0.1443375   0.5824993  )
        20        Zn     tau(  20) = (   0.7500000   0.1443375   0.5824993  )
        21        Zn     tau(  21) = (   0.1250000   0.3608439   0.1164998  )
        22        Zn     tau(  22) = (   0.6250000   0.3608439   0.1164998  )
        23        Zn     tau(  23) = (   0.1250000   0.3608439   0.5824993  )
        24        Zn     tau(  24) = (   0.6250000   0.3608439   0.5824993  )
        25        Zn     tau(  25) = (   0.0000000   0.5773502   0.1164998  )
        26        Zn     tau(  26) = (   0.5000000   0.5773502   0.1164998  )
        27        Zn     tau(  27) = (   0.0000000   0.5773502   0.5824993  )
        28        Zn     tau(  28) = (   0.5000000   0.5773502   0.5824993  )
        29        Zn     tau(  29) = (  -0.1250000   0.7938567   0.1164998  )
        30        Zn     tau(  30) = (   0.3750000   0.7938567   0.1164998  )
        31        Zn     tau(  31) = (  -0.1250000   0.7938567   0.5824993  )
        32        Zn     tau(  32) = (   0.3750000   0.7938567   0.5824993  )
        33        Zn     tau(  33) = (   0.1250000   0.0721688   0.3494996  )
        34        Zn     tau(  34) = (   0.6250000   0.0721688   0.3494996  )
        35        Zn     tau(  35) = (   0.0000000   0.2886752   0.3494996  )
        36        Zn     tau(  36) = (   0.5000000   0.2886752   0.3494996  )
        37        Zn     tau(  37) = (  -0.1250000   0.5051815   0.3494996  )
        38        Zn     tau(  38) = (   0.3750000   0.5051815   0.3494996  )
        39        Zn     tau(  39) = (  -0.2500000   0.7216879   0.3494996  )
        40        Zn     tau(  40) = (   0.2500000   0.7216879   0.3494996  )
        41        Zn     tau(  41) = (   0.3750000   0.0721688   0.3494996  )
        42        Zn     tau(  42) = (   0.8750000   0.0721688   0.3494996  )
        43        Zn     tau(  43) = (   0.2500000   0.2886752   0.3494996  )
        44        Zn     tau(  44) = (   0.7500000   0.2886752   0.3494996  )
        45        Zn     tau(  45) = (   0.1250000   0.5051815   0.3494996  )
        46        Zn     tau(  46) = (   0.6250000   0.5051815   0.3494996  )
        47        Zn     tau(  47) = (   0.0000000   0.7216879   0.3494996  )
        48        Zn     tau(  48) = (   0.5000000   0.7216879   0.3494996  )

   Crystallographic axes

     site n.     atom                  positions (cryst. coord.)
         1        Zn     tau(   1) = (  0.0833333  0.1666666  0.0513044  )
         2        Zn     tau(   2) = (  0.5833333  0.1666666  0.0513044  )
         3        Zn     tau(   3) = (  0.0833333  0.1666666  0.2565219  )
         4        Zn     tau(   4) = (  0.5833333  0.1666666  0.2565219  )
         5        Zn     tau(   5) = (  0.0833333  0.4166666  0.0513044  )
         6        Zn     tau(   6) = (  0.5833333  0.4166666  0.0513044  )
         7        Zn     tau(   7) = (  0.0833333  0.4166666  0.2565219  )
         8        Zn     tau(   8) = (  0.5833333  0.4166666  0.2565219  )
         9        Zn     tau(   9) = (  0.0833333  0.6666666  0.0513044  )
        10        Zn     tau(  10) = (  0.5833333  0.6666666  0.0513044  )
        11        Zn     tau(  11) = (  0.0833333  0.6666666  0.2565219  )
        12        Zn     tau(  12) = (  0.5833333  0.6666666  0.2565219  )
        13        Zn     tau(  13) = (  0.0833333  0.9166667  0.0513044  )
        14        Zn     tau(  14) = (  0.5833334  0.9166667  0.0513044  )
        15        Zn     tau(  15) = (  0.0833333  0.9166667  0.2565219  )
        16        Zn     tau(  16) = (  0.5833334  0.9166667  0.2565219  )
        17        Zn     tau(  17) = (  0.3333333  0.1666666  0.0513044  )
        18        Zn     tau(  18) = (  0.8333334  0.1666666  0.0513044  )
        19        Zn     tau(  19) = (  0.3333333  0.1666666  0.2565219  )
        20        Zn     tau(  20) = (  0.8333334  0.1666666  0.2565219  )
        21        Zn     tau(  21) = (  0.3333333  0.4166666  0.0513044  )
        22        Zn     tau(  22) = (  0.8333333  0.4166666  0.0513044  )
        23        Zn     tau(  23) = (  0.3333333  0.4166666  0.2565219  )
        24        Zn     tau(  24) = (  0.8333333  0.4166666  0.2565219  )
        25        Zn     tau(  25) = (  0.3333333  0.6666666  0.0513044  )
        26        Zn     tau(  26) = (  0.8333333  0.6666666  0.0513044  )
        27        Zn     tau(  27) = (  0.3333333  0.6666666  0.2565219  )
        28        Zn     tau(  28) = (  0.8333333  0.6666666  0.2565219  )
        29        Zn     tau(  29) = (  0.3333334  0.9166667  0.0513044  )
        30        Zn     tau(  30) = (  0.8333334  0.9166667  0.0513044  )
        31        Zn     tau(  31) = (  0.3333334  0.9166667  0.2565219  )
        32        Zn     tau(  32) = (  0.8333334  0.9166667  0.2565219  )
        33        Zn     tau(  33) = (  0.1666667  0.0833334  0.1539131  )
        34        Zn     tau(  34) = (  0.6666667  0.0833334  0.1539131  )
        35        Zn     tau(  35) = (  0.1666667  0.3333334  0.1539131  )
        36        Zn     tau(  36) = (  0.6666667  0.3333334  0.1539131  )
        37        Zn     tau(  37) = (  0.1666667  0.5833334  0.1539131  )
        38        Zn     tau(  38) = (  0.6666667  0.5833334  0.1539131  )
        39        Zn     tau(  39) = (  0.1666667  0.8333334  0.1539131  )
        40        Zn     tau(  40) = (  0.6666667  0.8333334  0.1539131  )
        41        Zn     tau(  41) = (  0.4166667  0.0833334  0.1539131  )
        42        Zn     tau(  42) = (  0.9166667  0.0833334  0.1539131  )
        43        Zn     tau(  43) = (  0.4166667  0.3333334  0.1539131  )
        44        Zn     tau(  44) = (  0.9166667  0.3333334  0.1539131  )
        45        Zn     tau(  45) = (  0.4166667  0.5833334  0.1539131  )
        46        Zn     tau(  46) = (  0.9166667  0.5833334  0.1539131  )
        47        Zn     tau(  47) = (  0.4166667  0.8333334  0.1539131  )
        48        Zn     tau(  48) = (  0.9166667  0.8333334  0.1539131  )

     number of k points=    10  Marzari-Vanderbilt smearing, width (Ry)=  0.0050
                       cart. coord. in units 2pi/alat
        k(    1) = (   0.0000000   0.0000000   0.0000000), wk =   0.1250000
        k(    2) = (   0.0000000   0.2886751   0.0000000), wk =   0.2500000
        k(    3) = (   0.0000000  -0.5773503   0.0000000), wk =   0.1250000
        k(    4) = (   0.2500000   0.1443376   0.0000000), wk =   0.2500000
        k(    5) = (   0.2500000   0.4330127   0.0000000), wk =   0.2500000
        k(    6) = (   0.2500000  -0.4330127   0.0000000), wk =   0.2500000
        k(    7) = (   0.2500000  -0.1443376   0.0000000), wk =   0.2500000
        k(    8) = (  -0.5000000  -0.2886751   0.0000000), wk =   0.1250000
        k(    9) = (  -0.5000000   0.0000000   0.0000000), wk =   0.2500000
        k(   10) = (  -0.5000000  -0.8660254   0.0000000), wk =   0.1250000

                       cryst. coord.
        k(    1) = (   0.0000000   0.0000000   0.0000000), wk =   0.1250000
        k(    2) = (   0.0000000   0.2500000   0.0000000), wk =   0.2500000
        k(    3) = (   0.0000000  -0.5000000   0.0000000), wk =   0.1250000
        k(    4) = (   0.2500000   0.0000000   0.0000000), wk =   0.2500000
        k(    5) = (   0.2500000   0.2500000   0.0000000), wk =   0.2500000
        k(    6) = (   0.2500000  -0.5000000   0.0000000), wk =   0.2500000
        k(    7) = (   0.2500000  -0.2500000   0.0000000), wk =   0.2500000
        k(    8) = (  -0.5000000   0.0000000   0.0000000), wk =   0.1250000
        k(    9) = (  -0.5000000   0.2500000   0.0000000), wk =   0.2500000
        k(   10) = (  -0.5000000  -0.5000000   0.0000000), wk =   0.1250000

     Dense  grid:  1201061 G-vectors     FFT dimensions: ( 108, 108, 240)

     Smooth grid:   518755 G-vectors     FFT dimensions: (  80,  80, 192)

     Dynamical RAM for                 wfc:      17.26 MB

     Dynamical RAM for     wfc (w. buffer):     189.88 MB

     Dynamical RAM for           str. fact:       0.56 MB

     Dynamical RAM for           local pot:       0.00 MB

     Dynamical RAM for          nlocal pot:      25.89 MB

     Dynamical RAM for                qrad:       1.34 MB

     Dynamical RAM for          rho,v,vnew:       3.80 MB

     Dynamical RAM for               rhoin:       1.27 MB

     Dynamical RAM for            rho*nmix:       8.89 MB

     Dynamical RAM for           G-vectors:       2.20 MB

     Dynamical RAM for          h,s,v(r/c):       2.42 MB

     Dynamical RAM for          <psi|beta>:       7.59 MB

     Dynamical RAM for                 psi:      34.52 MB

     Dynamical RAM for                hpsi:      34.52 MB

     Dynamical RAM for                spsi:      34.52 MB

     Dynamical RAM for      wfcinit/wfcrot:      46.32 MB

     Dynamical RAM for           addusdens:     129.95 MB

     Estimated static dynamical RAM per process >     229.61 MB

     Estimated max dynamical RAM per process >     368.45 MB

     Estimated total dynamical RAM >      11.87 GB

     Initial potential from superposition of free atoms

     starting charge     959.9932, renormalised to     960.0000

     negative rho (up, down):  4.194E-03 0.000E+00
     Starting wfcs are  624 randomized atomic wfcs
[psid06:141748] 32 more processes have sent help message help-mpi-btl-openib.txt / ib port not selected
[psid06:141748] Set MCA parameter "orte_base_help_aggregate" to 0 to see all help / error messages
[psid06:141748] 32 more processes have sent help message help-mpi-btl-openib.txt / error in device init

     total cpu time spent up to now is      113.9 secs

     Self-consistent Calculation

     iteration #  1     ecut=    40.00 Ry     beta= 0.40
     Davidson diagonalization with overlap

---- Real-time Memory Report at c_bands before calling an iterative solver
           299 MiB given to the printing process from OS
             0 MiB allocation reported by mallinfo(arena+hblkhd)
        119758 MiB available memory on the node where the printing process lives
------------------
     ethr =  1.00E-02,  avg # of iterations =  9.4

     Threshold (ethr) on eigenvalues was too large:
     Diagonalizing with lowered threshold

     Davidson diagonalization with overlap

---- Real-time Memory Report at c_bands before calling an iterative solver
           391 MiB given to the printing process from OS
             0 MiB allocation reported by mallinfo(arena+hblkhd)
        118620 MiB available memory on the node where the printing process lives
------------------
     ethr =  1.62E-04,  avg # of iterations = 11.3

     negative rho (up, down):  4.985E-03 0.000E+00

     total cpu time spent up to now is      998.1 secs

     total energy              =  -22153.85218545 Ry
     estimated scf accuracy    <       1.58139643 Ry

     iteration #  2     ecut=    40.00 Ry     beta= 0.40
     Davidson diagonalization with overlap

---- Real-time Memory Report at c_bands before calling an iterative solver
           401 MiB given to the printing process from OS
             0 MiB allocation reported by mallinfo(arena+hblkhd)
        118519 MiB available memory on the node where the printing process lives
------------------
     ethr =  1.65E-04,  avg # of iterations =  2.6

     negative rho (up, down):  5.516E-03 0.000E+00

     total cpu time spent up to now is     1430.2 secs

     total energy              =  -22154.23247840 Ry
     estimated scf accuracy    <       0.27819677 Ry

     iteration #  3     ecut=    40.00 Ry     beta= 0.40
     Davidson diagonalization with overlap

---- Real-time Memory Report at c_bands before calling an iterative solver
           404 MiB given to the printing process from OS
             0 MiB allocation reported by mallinfo(arena+hblkhd)
        118493 MiB available memory on the node where the printing process lives
------------------
     c_bands:  1 eigenvalues not converged
     ethr =  2.90E-05,  avg # of iterations =  8.5

     negative rho (up, down):  5.981E-03 0.000E+00

     total cpu time spent up to now is     1821.1 secs

     total energy              =  -22154.24987916 Ry
     estimated scf accuracy    <       0.04710922 Ry

     iteration #  4     ecut=    40.00 Ry     beta= 0.40
     Davidson diagonalization with overlap

---- Real-time Memory Report at c_bands before calling an iterative solver
           404 MiB given to the printing process from OS
             0 MiB allocation reported by mallinfo(arena+hblkhd)
        118472 MiB available memory on the node where the printing process lives
------------------
     ethr =  4.91E-06,  avg # of iterations = 12.3

     negative rho (up, down):  5.982E-03 0.000E+00

     total cpu time spent up to now is     2259.5 secs

     total energy              =  -22154.25158735 Ry
     estimated scf accuracy    <       0.00666970 Ry

     iteration #  5     ecut=    40.00 Ry     beta= 0.40
     Davidson diagonalization with overlap

---- Real-time Memory Report at c_bands before calling an iterative solver
           405 MiB given to the printing process from OS
             0 MiB allocation reported by mallinfo(arena+hblkhd)
        118454 MiB available memory on the node where the printing process lives
------------------
     ethr =  6.95E-07,  avg # of iterations =  2.0

     negative rho (up, down):  6.016E-03 0.000E+00

     total cpu time spent up to now is     2667.5 secs

     total energy              =  -22154.25216526 Ry
     estimated scf accuracy    <       0.00136049 Ry

     iteration #  6     ecut=    40.00 Ry     beta= 0.40
     Davidson diagonalization with overlap

---- Real-time Memory Report at c_bands before calling an iterative solver
           406 MiB given to the printing process from OS
             0 MiB allocation reported by mallinfo(arena+hblkhd)
        118434 MiB available memory on the node where the printing process lives
------------------
     ethr =  1.42E-07,  avg # of iterations =  2.0

     negative rho (up, down):  6.045E-03 0.000E+00

     total cpu time spent up to now is     3071.3 secs

     total energy              =  -22154.25242295 Ry
     estimated scf accuracy    <       0.00009739 Ry

     iteration #  7     ecut=    40.00 Ry     beta= 0.40
     Davidson diagonalization with overlap

---- Real-time Memory Report at c_bands before calling an iterative solver
           406 MiB given to the printing process from OS
             0 MiB allocation reported by mallinfo(arena+hblkhd)
        118418 MiB available memory on the node where the printing process lives
------------------
     ethr =  1.01E-08,  avg # of iterations =  2.0

     negative rho (up, down):  6.068E-03 0.000E+00

     total cpu time spent up to now is     3460.2 secs

     total energy              =  -22154.25240193 Ry
     estimated scf accuracy    <       0.00065313 Ry

     iteration #  8     ecut=    40.00 Ry     beta= 0.40
     Davidson diagonalization with overlap

---- Real-time Memory Report at c_bands before calling an iterative solver
           407 MiB given to the printing process from OS
             0 MiB allocation reported by mallinfo(arena+hblkhd)
        118401 MiB available memory on the node where the printing process lives
------------------
     ethr =  1.01E-08,  avg # of iterations =  1.9

     negative rho (up, down):  6.085E-03 0.000E+00

     total cpu time spent up to now is     3817.1 secs

     total energy              =  -22154.25242693 Ry
     estimated scf accuracy    <       0.00003609 Ry

     iteration #  9     ecut=    40.00 Ry     beta= 0.40
     Davidson diagonalization with overlap

---- Real-time Memory Report at c_bands before calling an iterative solver
           407 MiB given to the printing process from OS
             0 MiB allocation reported by mallinfo(arena+hblkhd)
        118381 MiB available memory on the node where the printing process lives
------------------
     ethr =  3.76E-09,  avg # of iterations =  2.0

     negative rho (up, down):  6.096E-03 0.000E+00

     total cpu time spent up to now is     4261.4 secs

     total energy              =  -22154.25243796 Ry
     estimated scf accuracy    <       0.00001056 Ry

     iteration # 10     ecut=    40.00 Ry     beta= 0.40
     Davidson diagonalization with overlap

---- Real-time Memory Report at c_bands before calling an iterative solver
           409 MiB given to the printing process from OS
             0 MiB allocation reported by mallinfo(arena+hblkhd)
        118363 MiB available memory on the node where the printing process lives
------------------
     ethr =  1.10E-09,  avg # of iterations =  2.0

     negative rho (up, down):  6.103E-03 0.000E+00

     total cpu time spent up to now is     4625.3 secs

     total energy              =  -22154.25243701 Ry
     estimated scf accuracy    <       0.00000467 Ry

     iteration # 11     ecut=    40.00 Ry     beta= 0.40
     Davidson diagonalization with overlap

---- Real-time Memory Report at c_bands before calling an iterative solver
           409 MiB given to the printing process from OS
             0 MiB allocation reported by mallinfo(arena+hblkhd)
        118363 MiB available memory on the node where the printing process lives
------------------
     ethr =  4.87E-10,  avg # of iterations =  2.0

     negative rho (up, down):  6.115E-03 0.000E+00

     total cpu time spent up to now is     5057.0 secs

     End of self-consistent calculation

          k = 0.0000 0.0000 0.0000 ( 64855 PWs)   bands (ev):

  -125.0245-125.0228-125.0228-125.0227-125.0227-125.0227-125.0227-125.0210
  -125.0210-125.0210-125.0210-125.0210-125.0210-125.0210-125.0210-125.0210
  -124.8506-124.8505-124.8489-124.8489-124.8489-124.8489-124.8489-124.8488
  -124.8488-124.8488-124.8488-124.8488-124.8488-124.8488-124.8472-124.8472
  -124.8471-124.8471-124.8471-124.8471-124.8471-124.8471-124.8471-124.8471
  -124.8471-124.8471-124.8471-124.8471-124.8471-124.8471-124.8470-124.8470
   -79.1906 -79.1906 -79.1906 -79.1839 -79.1839 -79.1839 -79.1839 -79.1839
   -79.1839 -79.1736 -79.1726 -79.1726 -79.1726 -79.1725 -79.1725 -79.1725
   -79.1716 -79.1716 -79.1716 -79.1716 -79.1716 -79.1716 -79.1705 -79.1705
   -79.1705 -79.1705 -79.1705 -79.1705 -79.1696 -79.1696 -79.1696 -79.1696
   -79.1696 -79.1696 -79.1696 -79.1696 -79.1696 -79.1639 -79.1639 -79.1639
   -79.1592 -79.1592 -79.1592 -79.1592 -79.1592 -79.1592 -79.1545 -79.1545
   -79.0134 -79.0134 -79.0134 -79.0133 -79.0133 -79.0133 -79.0080 -79.0077
   -79.0067 -79.0067 -79.0067 -79.0067 -79.0067 -79.0067 -79.0067 -79.0067
   -79.0067 -79.0067 -79.0067 -79.0067 -79.0060 -79.0060 -79.0060 -79.0060
   -79.0060 -79.0060 -79.0059 -79.0059 -79.0059 -79.0059 -79.0059 -79.0059
   -79.0041 -79.0041 -79.0041 -79.0041 -79.0041 -79.0041 -79.0041 -79.0041
   -79.0041 -79.0040 -79.0040 -79.0040 -79.0040 -79.0040 -79.0040 -79.0040
   -79.0040 -79.0040 -78.9954 -78.9954 -78.9954 -78.9954 -78.9954 -78.9954
   -78.9954 -78.9954 -78.9953 -78.9953 -78.9953 -78.9953 -78.9934 -78.9934
   -78.9934 -78.9934 -78.9934 -78.9934 -78.9933 -78.9933 -78.9933 -78.9933
   -78.9933 -78.9933 -78.9868 -78.9868 -78.9868 -78.9867 -78.9867 -78.9867
   -78.9821 -78.9821 -78.9821 -78.9821 -78.9821 -78.9821 -78.9820 -78.9820
   -78.9820 -78.9820 -78.9820 -78.9820 -78.9774 -78.9774 -78.9773 -78.9773
    -8.5912  -7.3841  -7.0641  -7.0362  -7.0362  -7.0362  -7.0362  -7.0362
    -7.0362  -6.8731  -6.8731  -6.8731  -6.7016  -6.7016  -6.7016  -6.6623
    -6.6623  -6.6623  -6.5597  -6.5597  -6.5597  -6.5597  -6.5597  -6.5597
    -6.5195  -6.5195  -6.5195  -6.5195  -6.5195  -6.5195  -6.5113  -6.5113
    -6.5113  -6.4439  -6.4439  -6.4439  -6.4439  -6.4439  -6.4439  -6.3928
    -6.3928  -6.3928  -6.3928  -6.3928  -6.3928  -6.3131  -6.3131  -6.3131
    -6.3114  -6.3114  -6.3114  -6.3114  -6.3114  -6.3114  -6.2446  -6.2446
    -6.2446  -6.2446  -6.2446  -6.2446  -6.2428  -6.1878  -6.1878  -6.1878
    -6.1878  -6.1878  -6.1878  -6.1480  -6.1480  -6.1480  -6.1480  -6.1480
    -6.1480  -6.1284  -6.1284  -6.1284  -6.1284  -6.1284  -6.1284  -6.0978
    -6.0978  -6.0978  -6.0978  -6.0978  -6.0978  -6.0810  -6.0810  -6.0810
    -6.0792  -6.0792  -6.0626  -6.0626  -6.0626  -6.0626  -6.0626  -6.0626
    -5.9638  -5.9638  -5.9638  -5.9638  -5.9638  -5.9638  -5.9015  -5.9015
    -5.8839  -5.8839  -5.8520  -5.8520  -5.8520  -5.8520  -5.8520  -5.8520
    -5.8430  -5.8430  -5.8430  -5.8430  -5.8430  -5.8430  -5.7969  -5.7969
    -5.7969  -5.7661  -5.7661  -5.7661  -5.7661  -5.7661  -5.7661  -5.7608
    -5.7608  -5.7608  -5.7608  -5.7608  -5.7608  -5.7561  -5.7561  -5.7561
    -5.7561  -5.7561  -5.7561  -5.7374  -5.7374  -5.7374  -5.7374  -5.7374
    -5.7374  -5.7094  -5.7094  -5.7094  -5.7093  -5.7093  -5.7093  -5.7000
    -5.6927  -5.6927  -5.6927  -5.6927  -5.6927  -5.6927  -5.6862  -5.6862
    -5.6862  -5.6862  -5.6862  -5.6862  -5.6731  -5.6730  -5.6730  -5.5733
    -5.5733  -5.5548  -5.5548  -5.5548  -5.5548  -5.5548  -5.5548  -5.5485
    -5.5485  -5.5485  -5.5485  -5.5485  -5.5485  -5.5295  -5.5295  -5.5295
    -5.5295  -5.5295  -5.5295  -5.5165  -5.5165  -5.5165  -5.4889  -5.4889
    -5.4889  -5.4889  -5.4889  -5.4889  -5.4801  -5.4801  -5.4801  -5.4801
    -5.4801  -5.4801  -5.4315  -5.4315  -5.4315  -5.4315  -5.4315  -5.4315
    -5.4135  -5.4135  -5.4135  -5.4099  -5.4099  -5.4099  -5.3815  -5.3815
    -5.3815  -5.3718  -5.3718  -5.3718  -5.3718  -5.3718  -5.3718  -5.3704
    -5.3704  -5.3458  -5.3458  -5.3035  -5.3035  -5.3035  -5.3035  -5.3035
    -5.3035  -5.2652  -5.2652  -5.2652  -5.2652  -5.2652  -5.2652  -5.2377
    -5.2377  -5.2377  -5.0579  -5.0579  -5.0579  -5.0578  -5.0578  -5.0578
    -4.3781  -4.3781  -4.3781  -4.3781  -4.3781  -4.3781  -3.4340  -2.0741
    -2.0741  -2.0741  -2.0741  -2.0741  -2.0741  -2.0016  -2.0016  -2.0016
    -2.0016  -2.0016  -2.0016  -0.8112  -0.8112  -0.8112  -0.6980  -0.6229
    -0.6229  -0.6229  -0.6229  -0.6229  -0.6229  -0.0575  -0.0575  -0.0575
     0.2621   0.2621   0.2621   1.5563   1.5563   1.5563   1.5563   1.5563
     1.5563   1.5962   1.5962   1.5962   1.5962   1.5962   1.5962   2.3266
     2.3266   2.3266   3.1188   3.3237   3.3237   3.3237   4.1588   4.1588
     4.1588   4.8929   4.8929   4.8929   4.8929   4.8929   4.8929   5.0689
     5.2559   5.4433   5.4433   5.4433   5.4433   5.4433   5.4433   5.4642
     5.4642   5.4642   5.4642   5.4642   5.4642   5.6354   5.6354   5.6354
     5.6354   5.6354   5.6354   6.1930   6.3920   6.5762   6.5762   6.5762
     6.8684   6.8684   6.8684   6.8684   6.8684   6.8684   7.0290   7.0290
     7.0290   7.0290   7.0290   7.0290   7.0919   7.0919   7.0919   7.0919
     7.0919   7.0919   7.2041   7.2041   7.2041   7.2041   7.2041   7.2041
     8.0323   8.0323   8.0323   8.0323   8.0323   8.0323   8.1552   8.1552
     8.1552   8.1552   8.1552   8.1552   8.1798   8.1798   8.1798   8.1798
     8.1798   8.1798   8.2004   8.3640   8.3938   8.3938   8.3938   9.3118

     occupation numbers 
     1.0000   1.0000   1.0000   1.0000   1.0000   1.0000   1.0000   1.0000
     1.0000   1.0000   1.0000   1.0000   1.0000   1.0000   1.0000   1.0000
     1.0000   1.0000   1.0000   1.0000   1.0000   1.0000   1.0000   1.0000
     1.0000   1.0000   1.0000   1.0000   1.0000   1.0000   1.0000   1.0000
     1.0000   1.0000   1.0000   1.0000   1.0000   1.0000   1.0000   1.0000
     1.0000   1.0000   1.0000   1.0000   1.0000   1.0000   1.0000   1.0000
     1.0000   1.0000   1.0000   1.0000   1.0000   1.0000   1.0000   1.0000
     1.0000   1.0000   1.0000   1.0000   1.0000   1.0000   1.0000   1.0000
     1.0000   1.0000   1.0000   1.0000   1.0000   1.0000   1.0000   1.0000
     1.0000   1.0000   1.0000   1.0000   1.0000   1.0000   1.0000   1.0000
     1.0000   1.0000   1.0000   1.0000   1.0000   1.0000   1.0000   1.0000
     1.0000   1.0000   1.0000   1.0000   1.0000   1.0000   1.0000   1.0000
     1.0000   1.0000   1.0000   1.0000   1.0000   1.0000   1.0000   1.0000
     1.0000   1.0000   1.0000   1.0000   1.0000   1.0000   1.0000   1.0000
     1.0000   1.0000   1.0000   1.0000   1.0000   1.0000   1.0000   1.0000
     1.0000   1.0000   1.0000   1.0000   1.0000   1.0000   1.0000   1.0000
     1.0000   1.0000   1.0000   1.0000   1.0000   1.0000   1.0000   1.0000
     1.0000   1.0000   1.0000   1.0000   1.0000   1.0000   1.0000   1.0000
     1.0000   1.0000   1.0000   1.0000   1.0000   1.0000   1.0000   1.0000
     1.0000   1.0000   1.0000   1.0000   1.0000   1.0000   1.0000   1.0000
     1.0000   1.0000   1.0000   1.0000   1.0000   1.0000   1.0000   1.0000
     1.0000   1.0000   1.0000   1.0000   1.0000   1.0000   1.0000   1.0000
     1.0000   1.0000   1.0000   1.0000   1.0000   1.0000   1.0000   1.0000
     1.0000   1.0000   1.0000   1.0000   1.0000   1.0000   1.0000   1.0000
     1.0000   1.0000   1.0000   1.0000   1.0000   1.0000   1.0000   1.0000
     1.0000   1.0000   1.0000   1.0000   1.0000   1.0000   1.0000   1.0000
     1.0000   1.0000   1.0000   1.0000   1.0000   1.0000   1.0000   1.0000
     1.0000   1.0000   1.0000   1.0000   1.0000   1.0000   1.0000   1.0000
     1.0000   1.0000   1.0000   1.0000   1.0000   1.0000   1.0000   1.0000
     1.0000   1.0000   1.0000   1.0000   1.0000   1.0000   1.0000   1.0000
     1.0000   1.0000   1.0000   1.0000   1.0000   1.0000   1.0000   1.0000
     1.0000   1.0000   1.0000   1.0000   1.0000   1.0000   1.0000   1.0000
     1.0000   1.0000   1.0000   1.0000   1.0000   1.0000   1.0000   1.0000
     1.0000   1.0000   1.0000   1.0000   1.0000   1.0000   1.0000   1.0000
     1.0000   1.0000   1.0000   1.0000   1.0000   1.0000   1.0000   1.0000
     1.0000   1.0000   1.0000   1.0000   1.0000   1.0000   1.0000   1.0000
     1.0000   1.0000   1.0000   1.0000   1.0000   1.0000   1.0000   1.0000
     1.0000   1.0000   1.0000   1.0000   1.0000   1.0000   1.0000   1.0000
     1.0000   1.0000   1.0000   1.0000   1.0000   1.0000   1.0000   1.0000
     1.0000   1.0000   1.0000   1.0000   1.0000   1.0000   1.0000   1.0000
     1.0000   1.0000   1.0000   1.0000   1.0000   1.0000   1.0000   1.0000
     1.0000   1.0000   1.0000   1.0000   1.0000   1.0000   1.0000   1.0000
     1.0000   1.0000   1.0000   1.0000   1.0000   1.0000   1.0000   1.0000
     1.0000   1.0000   1.0000   1.0000   1.0000   1.0000   1.0000   1.0000
     1.0000   1.0000   1.0000   1.0000   1.0000   1.0000   1.0000   1.0000
     1.0000   1.0000   1.0000   1.0000   1.0000   1.0000   1.0000   1.0000
     1.0000   1.0000   1.0000   1.0000   1.0000   1.0000   1.0000   1.0000
     1.0000   1.0000   1.0000   1.0000   1.0000   1.0000   1.0000   1.0000
     1.0000   1.0000   1.0000   1.0000   1.0000   1.0000   1.0000   1.0000
     1.0000   1.0000   1.0000   1.0000   1.0000   1.0000   1.0000   1.0000
     1.0000   1.0000   1.0000   1.0000   1.0000   1.0000   1.0000   1.0000
     1.0000   1.0000   1.0000   1.0000   1.0000   1.0000   1.0000   1.0000
     1.0000   1.0000   1.0000   1.0000   1.0000   1.0000   1.0000   1.0000
     1.0000   1.0000   1.0000   1.0000   1.0000   1.0000   1.0000   1.0000
     1.0000   1.0000   1.0000   1.0000   1.0000   1.0000   1.0000   1.0000
     1.0000   1.0000   1.0000   1.0000   1.0000   1.0000   1.0000   1.0000
     1.0000   1.0000   1.0000   1.0000   1.0000   1.0000   1.0000   1.0000
     1.0000   1.0000   1.0000   1.0000   1.0000   1.0000   1.0000   1.0000
     1.0000   1.0000   1.0000   1.0000   1.0000   1.0000   1.0000   1.0000
     1.0000   1.0000   1.0000   0.0026   0.0025   0.0025   0.0025   0.0025
     0.0025   0.0001   0.0001   0.0001   0.0001   0.0001   0.0001   0.0000
     0.0000   0.0000   0.0000   0.0000   0.0000   0.0000   0.0000   0.0000
     0.0000   0.0000   0.0000   0.0000   0.0000   0.0000   0.0000   0.0000
     0.0000   0.0000   0.0000   0.0000   0.0000   0.0000   0.0000   0.0000
     0.0000   0.0000   0.0000   0.0000   0.0000   0.0000   0.0000   0.0000
     0.0000   0.0000   0.0000   0.0000   0.0000   0.0000   0.0000   0.0000
     0.0000   0.0000   0.0000   0.0000   0.0000   0.0000   0.0000   0.0000
     0.0000   0.0000   0.0000   0.0000   0.0000   0.0000   0.0000   0.0000
     0.0000   0.0000   0.0000   0.0000   0.0000   0.0000   0.0000   0.0000
     0.0000   0.0000   0.0000   0.0000   0.0000   0.0000   0.0000   0.0000
     0.0000   0.0000   0.0000   0.0000   0.0000   0.0000   0.0000   0.0000
     0.0000   0.0000   0.0000   0.0000   0.0000   0.0000   0.0000   0.0000

          k = 0.0000 0.2887 0.0000 ( 64808 PWs)   bands (ev):

  -125.0243-125.0234-125.0230-125.0230-125.0223-125.0223-125.0221-125.0214
  -125.0214-125.0211-125.0210-125.0210-125.0210-125.0210-125.0207-125.0207
  -124.8505-124.8504-124.8495-124.8495-124.8491-124.8491-124.8491-124.8491
  -124.8485-124.8485-124.8484-124.8484-124.8482-124.8481-124.8475-124.8475
  -124.8475-124.8475-124.8473-124.8472-124.8471-124.8471-124.8471-124.8471
  -124.8471-124.8471-124.8471-124.8471-124.8469-124.8469-124.8468-124.8468
   -79.1898 -79.1898 -79.1892 -79.1852 -79.1852 -79.1843 -79.1843 -79.1824
   -79.1824 -79.1795 -79.1763 -79.1763 -79.1736 -79.1736 -79.1734 -79.1723
   -79.1719 -79.1719 -79.1711 -79.1711 -79.1708 -79.1700 -79.1700 -79.1697
   -79.1696 -79.1696 -79.1696 -79.1696 -79.1695 -79.1695 -79.1693 -79.1693
   -79.1692 -79.1692 -79.1668 -79.1668 -79.1656 -79.1647 -79.1647 -79.1636
   -79.1610 -79.1607 -79.1607 -79.1587 -79.1587 -79.1574 -79.1559 -79.1548
   -79.0126 -79.0126 -79.0125 -79.0125 -79.0120 -79.0119 -79.0080 -79.0080
   -79.0080 -79.0080 -79.0078 -79.0076 -79.0071 -79.0071 -79.0071 -79.0071
   -79.0067 -79.0066 -79.0063 -79.0063 -79.0062 -79.0062 -79.0056 -79.0056
   -79.0055 -79.0055 -79.0053 -79.0052 -79.0052 -79.0052 -79.0052 -79.0052
   -79.0045 -79.0045 -79.0045 -79.0044 -79.0042 -79.0042 -79.0041 -79.0041
   -79.0041 -79.0041 -79.0040 -79.0040 -79.0040 -79.0040 -79.0038 -79.0038
   -79.0037 -79.0037 -79.0023 -79.0022 -78.9991 -78.9991 -78.9990 -78.9990
   -78.9964 -78.9964 -78.9964 -78.9964 -78.9923 -78.9923 -78.9923 -78.9923
   -78.9921 -78.9921 -78.9920 -78.9920 -78.9897 -78.9897 -78.9897 -78.9897
   -78.9885 -78.9884 -78.9875 -78.9875 -78.9875 -78.9875 -78.9864 -78.9864
   -78.9839 -78.9838 -78.9836 -78.9836 -78.9835 -78.9835 -78.9816 -78.9816
   -78.9816 -78.9816 -78.9803 -78.9802 -78.9787 -78.9787 -78.9777 -78.9777
    -8.4724  -7.5888  -7.2842  -7.2168  -7.2168  -7.0013  -6.8571  -6.8309
    -6.8309  -6.8120  -6.8116  -6.8116  -6.6827  -6.6729  -6.6663  -6.6663
    -6.6467  -6.6448  -6.6223  -6.6223  -6.5682  -6.5575  -6.5460  -6.5460
    -6.5277  -6.5277  -6.5218  -6.5218  -6.5084  -6.5084  -6.4918  -6.4881
    -6.4881  -6.4856  -6.4855  -6.4845  -6.4845  -6.4630  -6.4630  -6.4517
    -6.4517  -6.4261  -6.4261  -6.3838  -6.3838  -6.3748  -6.3748  -6.3569
    -6.3569  -6.3496  -6.3014  -6.2969  -6.2969  -6.2928  -6.2928  -6.2900
    -6.2900  -6.2534  -6.2534  -6.2321  -6.2289  -6.2006  -6.2006  -6.1936
    -6.1936  -6.1929  -6.1929  -6.1904  -6.1904  -6.1883  -6.1825  -6.1825
    -6.1767  -6.1767  -6.1561  -6.1561  -6.1542  -6.1542  -6.1491  -6.1245
    -6.1011  -6.1011  -6.0985  -6.0985  -6.0952  -6.0756  -6.0756  -6.0735
    -6.0735  -6.0618  -6.0501  -6.0401  -6.0401  -6.0176  -6.0176  -6.0159
    -6.0159  -5.9447  -5.9447  -5.9298  -5.9298  -5.9285  -5.9245  -5.9221
    -5.9212  -5.9178  -5.9178  -5.8990  -5.8949  -5.8949  -5.8916  -5.8916
    -5.8751  -5.8751  -5.8739  -5.8606  -5.8548  -5.8492  -5.8492  -5.8387
    -5.8206  -5.8206  -5.8116  -5.8116  -5.7898  -5.7876  -5.7777  -5.7777
    -5.7723  -5.7723  -5.7639  -5.7639  -5.7540  -5.7540  -5.7527  -5.7527
    -5.7400  -5.7255  -5.7255  -5.7147  -5.7147  -5.7118  -5.7044  -5.7044
    -5.6913  -5.6913  -5.6905  -5.6889  -5.6889  -5.6822  -5.6822  -5.6724
    -5.6724  -5.6682  -5.6682  -5.6641  -5.6486  -5.6486  -5.6433  -5.6212
    -5.6190  -5.6190  -5.6113  -5.6113  -5.6017  -5.6017  -5.5996  -5.5996
    -5.5948  -5.5903  -5.5839  -5.5839  -5.5803  -5.5501  -5.5444  -5.5442
    -5.5442  -5.5358  -5.5358  -5.5321  -5.5321  -5.5275  -5.5275  -5.5213
    -5.5213  -5.5169  -5.5127  -5.5104  -5.5103  -5.5018  -5.5018  -5.4955
    -5.4955  -5.4767  -5.4767  -5.4393  -5.4384  -5.4343  -5.4343  -5.4322
    -5.4322  -5.4318  -5.4318  -5.4252  -5.4252  -5.4107  -5.4100  -5.4095
    -5.4095  -5.4036  -5.4013  -5.3959  -5.3861  -5.3861  -5.3809  -5.3809
    -5.3754  -5.3695  -5.3695  -5.3621  -5.3519  -5.3519  -5.3476  -5.3390
    -5.3276  -5.3207  -5.3207  -5.3176  -5.2955  -5.2955  -5.2855  -5.2855
    -5.2797  -5.2797  -5.2705  -5.2674  -5.2674  -5.2582  -5.2582  -5.1216
    -5.1216  -5.1159  -5.1159  -5.1098  -5.1098  -5.0921  -5.0914  -4.9255
    -4.9091  -4.6182  -4.6182  -3.8627  -3.8627  -3.4619  -3.3650  -3.3650
    -3.3488  -2.6558  -2.2835  -2.2835  -2.1923  -1.9916  -1.9916  -1.9540
    -1.9540  -1.4959  -1.4959  -1.2620  -1.2620  -1.0977  -0.7777  -0.5437
    -0.5437  -0.5430  -0.5430  -0.5377   0.0410   0.0410   0.2887   0.2887
     0.5876   0.5876   0.6486   0.9007   0.9155   0.9155   1.1989   1.1989
     1.5771   1.5771   2.2420   2.2420   2.6728   2.7209   2.7209   2.7368
     2.8002   2.8002   2.9721   2.9721   3.2306   3.5644   3.7164   3.7164
     3.9378   3.9378   4.1221   4.2010   4.2010   4.5659   4.5659   4.8202
     4.8202   4.8606   4.8606   5.1785   5.1785   5.1815   5.1815   5.1819
     5.3709   5.4353   5.4353   5.5829   5.6610   5.8082   5.8082   5.8173
     6.0841   6.1234   6.1234   6.2898   6.3091   6.3274   6.3274   6.5045
     6.5341   6.5341   6.6120   6.6120   6.7386   6.7486   6.7486   7.0287
     7.0287   7.1016   7.1016   7.1828   7.1828   7.2339   7.3307   7.3307
     7.4028   7.4195   7.4195   7.4723   7.4723   7.6589   7.6589   7.6735
     7.6735   7.6934   7.6934   7.7452   7.8501   7.8501   7.9748   7.9748
     8.0513   8.0513   8.1240   8.3160   8.3185   8.4757   8.6309   8.6309
     8.7031   8.7032   8.7072   8.8262   8.8262   8.8378   8.8378   8.8540

     occupation numbers 
     1.0000   1.0000   1.0000   1.0000   1.0000   1.0000   1.0000   1.0000
     1.0000   1.0000   1.0000   1.0000   1.0000   1.0000   1.0000   1.0000
     1.0000   1.0000   1.0000   1.0000   1.0000   1.0000   1.0000   1.0000
     1.0000   1.0000   1.0000   1.0000   1.0000   1.0000   1.0000   1.0000
     1.0000   1.0000   1.0000   1.0000   1.0000   1.0000   1.0000   1.0000
     1.0000   1.0000   1.0000   1.0000   1.0000   1.0000   1.0000   1.0000
     1.0000   1.0000   1.0000   1.0000   1.0000   1.0000   1.0000   1.0000
     1.0000   1.0000   1.0000   1.0000   1.0000   1.0000   1.0000   1.0000
     1.0000   1.0000   1.0000   1.0000   1.0000   1.0000   1.0000   1.0000
     1.0000   1.0000   1.0000   1.0000   1.0000   1.0000   1.0000   1.0000
     1.0000   1.0000   1.0000   1.0000   1.0000   1.0000   1.0000   1.0000
     1.0000   1.0000   1.0000   1.0000   1.0000   1.0000   1.0000   1.0000
     1.0000   1.0000   1.0000   1.0000   1.0000   1.0000   1.0000   1.0000
     1.0000   1.0000   1.0000   1.0000   1.0000   1.0000   1.0000   1.0000
     1.0000   1.0000   1.0000   1.0000   1.0000   1.0000   1.0000   1.0000
     1.0000   1.0000   1.0000   1.0000   1.0000   1.0000   1.0000   1.0000
     1.0000   1.0000   1.0000   1.0000   1.0000   1.0000   1.0000   1.0000
     1.0000   1.0000   1.0000   1.0000   1.0000   1.0000   1.0000   1.0000
     1.0000   1.0000   1.0000   1.0000   1.0000   1.0000   1.0000   1.0000
     1.0000   1.0000   1.0000   1.0000   1.0000   1.0000   1.0000   1.0000
     1.0000   1.0000   1.0000   1.0000   1.0000   1.0000   1.0000   1.0000
     1.0000   1.0000   1.0000   1.0000   1.0000   1.0000   1.0000   1.0000
     1.0000   1.0000   1.0000   1.0000   1.0000   1.0000   1.0000   1.0000
     1.0000   1.0000   1.0000   1.0000   1.0000   1.0000   1.0000   1.0000
     1.0000   1.0000   1.0000   1.0000   1.0000   1.0000   1.0000   1.0000
     1.0000   1.0000   1.0000   1.0000   1.0000   1.0000   1.0000   1.0000
     1.0000   1.0000   1.0000   1.0000   1.0000   1.0000   1.0000   1.0000
     1.0000   1.0000   1.0000   1.0000   1.0000   1.0000   1.0000   1.0000
     1.0000   1.0000   1.0000   1.0000   1.0000   1.0000   1.0000   1.0000
     1.0000   1.0000   1.0000   1.0000   1.0000   1.0000   1.0000   1.0000
     1.0000   1.0000   1.0000   1.0000   1.0000   1.0000   1.0000   1.0000
     1.0000   1.0000   1.0000   1.0000   1.0000   1.0000   1.0000   1.0000
     1.0000   1.0000   1.0000   1.0000   1.0000   1.0000   1.0000   1.0000
     1.0000   1.0000   1.0000   1.0000   1.0000   1.0000   1.0000   1.0000
     1.0000   1.0000   1.0000   1.0000   1.0000   1.0000   1.0000   1.0000
     1.0000   1.0000   1.0000   1.0000   1.0000   1.0000   1.0000   1.0000
     1.0000   1.0000   1.0000   1.0000   1.0000   1.0000   1.0000   1.0000
     1.0000   1.0000   1.0000   1.0000   1.0000   1.0000   1.0000   1.0000
     1.0000   1.0000   1.0000   1.0000   1.0000   1.0000   1.0000   1.0000
     1.0000   1.0000   1.0000   1.0000   1.0000   1.0000   1.0000   1.0000
     1.0000   1.0000   1.0000   1.0000   1.0000   1.0000   1.0000   1.0000
     1.0000   1.0000   1.0000   1.0000   1.0000   1.0000   1.0000   1.0000
     1.0000   1.0000   1.0000   1.0000   1.0000   1.0000   1.0000   1.0000
     1.0000   1.0000   1.0000   1.0000   1.0000   1.0000   1.0000   1.0000
     1.0000   1.0000   1.0000   1.0000   1.0000   1.0000   1.0000   1.0000
     1.0000   1.0000   1.0000   1.0000   1.0000   1.0000   1.0000   1.0000
     1.0000   1.0000   1.0000   1.0000   1.0000   1.0000   1.0000   1.0000
     1.0000   1.0000   1.0000   1.0000   1.0000   1.0000   1.0000   1.0000
     1.0000   1.0000   1.0000   1.0000   1.0000   1.0000   1.0000   1.0000
     1.0000   1.0000   1.0000   1.0000   1.0000   1.0000   1.0000   1.0000
     1.0000   1.0000   1.0000   1.0000   1.0000   1.0000   1.0000   1.0000
     1.0000   1.0000   1.0000   1.0000   1.0000   1.0000   1.0000   1.0000
     1.0000   1.0000   1.0000   1.0000   1.0000   1.0000   1.0000   1.0000
     1.0000   1.0000   1.0000   1.0000   1.0000   1.0000   1.0000   1.0000
     1.0000   1.0000   1.0000   1.0000   1.0000   1.0000   1.0000   1.0000
     1.0000   1.0000   1.0000   1.0000   1.0000   1.0000   1.0000   1.0000
     1.0000   1.0000   1.0000   1.0000   1.0000   1.0000   1.0000   1.0000
     1.0000   1.0000   1.0000   1.0000   1.0000   1.0000   1.0000   1.0000
     1.0000   1.0000   1.0000   1.0000   1.0000   1.0000   1.0000   1.0000
     1.0000   1.0000   1.0000   1.0000   1.0000   1.0000   1.0001   1.0001
     0.0006   0.0006   0.0000   0.0000   0.0000   0.0000   0.0000   0.0000
     0.0000   0.0000   0.0000   0.0000   0.0000   0.0000   0.0000   0.0000
     0.0000   0.0000   0.0000   0.0000   0.0000   0.0000   0.0000   0.0000
     0.0000   0.0000   0.0000   0.0000   0.0000   0.0000   0.0000   0.0000
     0.0000   0.0000   0.0000   0.0000   0.0000   0.0000   0.0000   0.0000
     0.0000   0.0000   0.0000   0.0000   0.0000   0.0000   0.0000   0.0000
     0.0000   0.0000   0.0000   0.0000   0.0000   0.0000   0.0000   0.0000
     0.0000   0.0000   0.0000   0.0000   0.0000   0.0000   0.0000   0.0000
     0.0000   0.0000   0.0000   0.0000   0.0000   0.0000   0.0000   0.0000
     0.0000   0.0000   0.0000   0.0000   0.0000   0.0000   0.0000   0.0000
     0.0000   0.0000   0.0000   0.0000   0.0000   0.0000   0.0000   0.0000
     0.0000   0.0000   0.0000   0.0000   0.0000   0.0000   0.0000   0.0000

          k = 0.0000-0.5774 0.0000 ( 64842 PWs)   bands (ev):

  -125.0240-125.0240-125.0231-125.0231-125.0219-125.0219-125.0219-125.0219
  -125.0215-125.0215-125.0210-125.0210-125.0210-125.0210-125.0206-125.0206
  -124.8501-124.8501-124.8500-124.8500-124.8492-124.8492-124.8492-124.8492
  -124.8480-124.8480-124.8480-124.8480-124.8480-124.8479-124.8479-124.8479
  -124.8476-124.8476-124.8476-124.8476-124.8471-124.8471-124.8471-124.8471
  -124.8471-124.8471-124.8471-124.8471-124.8468-124.8468-124.8467-124.8467
   -79.1878 -79.1878 -79.1878 -79.1878 -79.1853 -79.1853 -79.1843 -79.1843
   -79.1797 -79.1797 -79.1797 -79.1797 -79.1748 -79.1748 -79.1730 -79.1730
   -79.1720 -79.1720 -79.1706 -79.1706 -79.1706 -79.1706 -79.1702 -79.1702
   -79.1696 -79.1696 -79.1696 -79.1696 -79.1692 -79.1692 -79.1682 -79.1682
   -79.1667 -79.1667 -79.1667 -79.1667 -79.1634 -79.1634 -79.1634 -79.1634
   -79.1625 -79.1625 -79.1598 -79.1598 -79.1588 -79.1588 -79.1559 -79.1559
   -79.0106 -79.0106 -79.0106 -79.0106 -79.0105 -79.0105 -79.0105 -79.0105
   -79.0081 -79.0081 -79.0081 -79.0080 -79.0074 -79.0074 -79.0072 -79.0072
   -79.0071 -79.0071 -79.0070 -79.0070 -79.0064 -79.0064 -79.0063 -79.0063
   -79.0050 -79.0050 -79.0050 -79.0050 -79.0050 -79.0050 -79.0050 -79.0050
   -79.0047 -79.0046 -79.0046 -79.0046 -79.0041 -79.0041 -79.0041 -79.0041
   -79.0040 -79.0040 -79.0040 -79.0040 -79.0037 -79.0037 -79.0036 -79.0036
   -79.0026 -79.0026 -79.0026 -79.0026 -79.0025 -79.0025 -79.0025 -79.0025
   -78.9977 -78.9977 -78.9976 -78.9976 -78.9911 -78.9911 -78.9910 -78.9910
   -78.9896 -78.9896 -78.9895 -78.9895 -78.9895 -78.9895 -78.9895 -78.9895
   -78.9862 -78.9862 -78.9862 -78.9862 -78.9862 -78.9862 -78.9862 -78.9862
   -78.9854 -78.9854 -78.9854 -78.9854 -78.9826 -78.9826 -78.9826 -78.9826
   -78.9816 -78.9816 -78.9816 -78.9816 -78.9787 -78.9787 -78.9787 -78.9787
    -8.1244  -8.1244  -7.2857  -7.2857  -7.0093  -7.0093  -6.8351  -6.8351
    -6.8193  -6.8193  -6.7089  -6.7089  -6.7089  -6.7089  -6.6297  -6.6297
    -6.6095  -6.6095  -6.6095  -6.6095  -6.6074  -6.6074  -6.5770  -6.5770
    -6.5770  -6.5770  -6.5218  -6.5218  -6.5117  -6.5117  -6.5117  -6.5117
    -6.4855  -6.4855  -6.4556  -6.4556  -6.4556  -6.4556  -6.4393  -6.4393
    -6.4393  -6.4393  -6.4355  -6.4355  -6.4154  -6.4154  -6.4026  -6.4026
    -6.4026  -6.4026  -6.3868  -6.3868  -6.2877  -6.2877  -6.2754  -6.2754
    -6.2754  -6.2754  -6.2699  -6.2699  -6.2604  -6.2604  -6.2505  -6.2505
    -6.2505  -6.2505  -6.2081  -6.2081  -6.1998  -6.1998  -6.1998  -6.1998
    -6.1747  -6.1747  -6.1741  -6.1741  -6.1300  -6.1300  -6.1208  -6.1208
    -6.0958  -6.0958  -6.0816  -6.0816  -6.0627  -6.0627  -6.0627  -6.0627
    -6.0279  -6.0279  -6.0279  -6.0279  -6.0264  -6.0264  -6.0162  -6.0162
    -6.0064  -6.0064  -6.0015  -6.0015  -5.9701  -5.9701  -5.9701  -5.9701
    -5.9662  -5.9662  -5.9315  -5.9315  -5.9191  -5.9191  -5.8955  -5.8955
    -5.8890  -5.8890  -5.8408  -5.8408  -5.8408  -5.8408  -5.7976  -5.7976
    -5.7888  -5.7888  -5.7887  -5.7887  -5.7847  -5.7847  -5.7711  -5.7711
    -5.7696  -5.7696  -5.7668  -5.7668  -5.7502  -5.7502  -5.7502  -5.7502
    -5.7477  -5.7477  -5.7477  -5.7477  -5.7450  -5.7449  -5.7281  -5.7281
    -5.7280  -5.7280  -5.7154  -5.7154  -5.6597  -5.6597  -5.6579  -5.6579
    -5.6430  -5.6430  -5.6237  -5.6237  -5.6237  -5.6237  -5.6097  -5.6097
    -5.5969  -5.5969  -5.5859  -5.5859  -5.5859  -5.5859  -5.5750  -5.5750
    -5.5548  -5.5548  -5.5194  -5.5194  -5.5129  -5.5129  -5.5129  -5.5129
    -5.5056  -5.5056  -5.5048  -5.5048  -5.5031  -5.5031  -5.5031  -5.5031
    -5.4800  -5.4800  -5.4800  -5.4800  -5.4759  -5.4759  -5.4723  -5.4723
    -5.4651  -5.4651  -5.4645  -5.4645  -5.4454  -5.4454  -5.4454  -5.4454
    -5.4349  -5.4349  -5.4349  -5.4349  -5.4249  -5.4249  -5.4034  -5.4034
    -5.3947  -5.3947  -5.3895  -5.3895  -5.3883  -5.3883  -5.3876  -5.3876
    -5.3876  -5.3876  -5.3863  -5.3863  -5.3592  -5.3592  -5.3532  -5.3532
    -5.3366  -5.3366  -5.3366  -5.3366  -5.3083  -5.3083  -5.3083  -5.3083
    -5.2398  -5.2398  -5.2398  -5.2398  -5.2152  -5.2152  -5.2152  -5.2152
    -5.2115  -5.2115  -5.1879  -5.1879  -5.1850  -5.1850  -4.6818  -4.6818
    -4.3913  -4.3913  -4.3913  -4.3913  -3.6997  -3.6997  -3.0935  -3.0935
    -3.0439  -3.0439  -3.0439  -3.0439  -2.3733  -2.3733  -2.2223  -2.2223
    -1.7281  -1.7281  -1.7281  -1.7281  -0.7358  -0.7358  -0.7358  -0.7358
    -0.3082  -0.3082  -0.3082  -0.3082  -0.0754  -0.0754   0.0332   0.0332
     1.0535   1.0535   1.0647   1.0647   1.3656   1.3656   1.3942   1.3942
     1.3943   1.3943   2.2410   2.2410   2.9256   2.9256   2.9256   2.9256
     3.1175   3.1175   3.1176   3.1176   3.3395   3.3395   3.5656   3.5656
     3.8844   3.8844   3.8844   3.8844   4.0148   4.0148   4.2875   4.2875
     4.4568   4.4568   4.7661   4.7661   4.8870   4.8870   5.5029   5.5029
     5.5205   5.5205   5.7157   5.7157   5.8174   5.8174   5.9445   5.9445
     5.9445   5.9445   6.0017   6.0017   6.0017   6.0017   6.1643   6.1643
     6.1643   6.1643   6.4224   6.4224   6.5772   6.5772   6.6341   6.6341
     6.6567   6.6567   6.8418   6.8418   6.8771   6.8771   7.0425   7.0425
     7.0425   7.0425   7.5794   7.5794   7.7394   7.7394   8.0790   8.0790
     8.0930   8.0930   8.0930   8.0930   8.2964   8.2964   8.4673   8.4673
     8.4673   8.4673   8.6358   8.6358   8.6358   8.6358   8.6619   8.6620
     8.7557   8.7557   8.8097   8.8097   9.0112   9.0112   9.0112   9.0112

     occupation numbers 
     1.0000   1.0000   1.0000   1.0000   1.0000   1.0000   1.0000   1.0000
     1.0000   1.0000   1.0000   1.0000   1.0000   1.0000   1.0000   1.0000
     1.0000   1.0000   1.0000   1.0000   1.0000   1.0000   1.0000   1.0000
     1.0000   1.0000   1.0000   1.0000   1.0000   1.0000   1.0000   1.0000
     1.0000   1.0000   1.0000   1.0000   1.0000   1.0000   1.0000   1.0000
     1.0000   1.0000   1.0000   1.0000   1.0000   1.0000   1.0000   1.0000
     1.0000   1.0000   1.0000   1.0000   1.0000   1.0000   1.0000   1.0000
     1.0000   1.0000   1.0000   1.0000   1.0000   1.0000   1.0000   1.0000
     1.0000   1.0000   1.0000   1.0000   1.0000   1.0000   1.0000   1.0000
     1.0000   1.0000   1.0000   1.0000   1.0000   1.0000   1.0000   1.0000
     1.0000   1.0000   1.0000   1.0000   1.0000   1.0000   1.0000   1.0000
     1.0000   1.0000   1.0000   1.0000   1.0000   1.0000   1.0000   1.0000
     1.0000   1.0000   1.0000   1.0000   1.0000   1.0000   1.0000   1.0000
     1.0000   1.0000   1.0000   1.0000   1.0000   1.0000   1.0000   1.0000
     1.0000   1.0000   1.0000   1.0000   1.0000   1.0000   1.0000   1.0000
     1.0000   1.0000   1.0000   1.0000   1.0000   1.0000   1.0000   1.0000
     1.0000   1.0000   1.0000   1.0000   1.0000   1.0000   1.0000   1.0000
     1.0000   1.0000   1.0000   1.0000   1.0000   1.0000   1.0000   1.0000
     1.0000   1.0000   1.0000   1.0000   1.0000   1.0000   1.0000   1.0000
     1.0000   1.0000   1.0000   1.0000   1.0000   1.0000   1.0000   1.0000
     1.0000   1.0000   1.0000   1.0000   1.0000   1.0000   1.0000   1.0000
     1.0000   1.0000   1.0000   1.0000   1.0000   1.0000   1.0000   1.0000
     1.0000   1.0000   1.0000   1.0000   1.0000   1.0000   1.0000   1.0000
     1.0000   1.0000   1.0000   1.0000   1.0000   1.0000   1.0000   1.0000
     1.0000   1.0000   1.0000   1.0000   1.0000   1.0000   1.0000   1.0000
     1.0000   1.0000   1.0000   1.0000   1.0000   1.0000   1.0000   1.0000
     1.0000   1.0000   1.0000   1.0000   1.0000   1.0000   1.0000   1.0000
     1.0000   1.0000   1.0000   1.0000   1.0000   1.0000   1.0000   1.0000
     1.0000   1.0000   1.0000   1.0000   1.0000   1.0000   1.0000   1.0000
     1.0000   1.0000   1.0000   1.0000   1.0000   1.0000   1.0000   1.0000
     1.0000   1.0000   1.0000   1.0000   1.0000   1.0000   1.0000   1.0000
     1.0000   1.0000   1.0000   1.0000   1.0000   1.0000   1.0000   1.0000
     1.0000   1.0000   1.0000   1.0000   1.0000   1.0000   1.0000   1.0000
     1.0000   1.0000   1.0000   1.0000   1.0000   1.0000   1.0000   1.0000
     1.0000   1.0000   1.0000   1.0000   1.0000   1.0000   1.0000   1.0000
     1.0000   1.0000   1.0000   1.0000   1.0000   1.0000   1.0000   1.0000
     1.0000   1.0000   1.0000   1.0000   1.0000   1.0000   1.0000   1.0000
     1.0000   1.0000   1.0000   1.0000   1.0000   1.0000   1.0000   1.0000
     1.0000   1.0000   1.0000   1.0000   1.0000   1.0000   1.0000   1.0000
     1.0000   1.0000   1.0000   1.0000   1.0000   1.0000   1.0000   1.0000
     1.0000   1.0000   1.0000   1.0000   1.0000   1.0000   1.0000   1.0000
     1.0000   1.0000   1.0000   1.0000   1.0000   1.0000   1.0000   1.0000
     1.0000   1.0000   1.0000   1.0000   1.0000   1.0000   1.0000   1.0000
     1.0000   1.0000   1.0000   1.0000   1.0000   1.0000   1.0000   1.0000
     1.0000   1.0000   1.0000   1.0000   1.0000   1.0000   1.0000   1.0000
     1.0000   1.0000   1.0000   1.0000   1.0000   1.0000   1.0000   1.0000
     1.0000   1.0000   1.0000   1.0000   1.0000   1.0000   1.0000   1.0000
     1.0000   1.0000   1.0000   1.0000   1.0000   1.0000   1.0000   1.0000
     1.0000   1.0000   1.0000   1.0000   1.0000   1.0000   1.0000   1.0000
     1.0000   1.0000   1.0000   1.0000   1.0000   1.0000   1.0000   1.0000
     1.0000   1.0000   1.0000   1.0000   1.0000   1.0000   1.0000   1.0000
     1.0000   1.0000   1.0000   1.0000   1.0000   1.0000   1.0000   1.0000
     1.0000   1.0000   1.0000   1.0000   1.0000   1.0000   1.0000   1.0000
     1.0000   1.0000   1.0000   1.0000   1.0000   1.0000   1.0000   1.0000
     1.0000   1.0000   1.0000   1.0000   1.0000   1.0000   1.0000   1.0000
     1.0000   1.0000   1.0000   1.0000   1.0000   1.0000   1.0000   1.0000
     1.0000   1.0000   1.0000   1.0000   1.0000   1.0000   1.0000   1.0000
     1.0000   1.0000   1.0000   1.0000   1.0000   1.0000   1.0000   1.0000
     1.0000   1.0000   1.0000   1.0000   1.0000   1.0000   1.0000   1.0000
     1.0000   1.0000   1.0000   1.0000   1.0711   1.0711   0.9413   0.9413
     0.9413   0.9413   0.0000   0.0000   0.0000   0.0000   0.0000   0.0000
     0.0000   0.0000   0.0000   0.0000   0.0000   0.0000   0.0000   0.0000
     0.0000   0.0000   0.0000   0.0000   0.0000   0.0000   0.0000   0.0000
     0.0000   0.0000   0.0000   0.0000   0.0000   0.0000   0.0000   0.0000
     0.0000   0.0000   0.0000   0.0000   0.0000   0.0000   0.0000   0.0000
     0.0000   0.0000   0.0000   0.0000   0.0000   0.0000   0.0000   0.0000
     0.0000   0.0000   0.0000   0.0000   0.0000   0.0000   0.0000   0.0000
     0.0000   0.0000   0.0000   0.0000   0.0000   0.0000   0.0000   0.0000
     0.0000   0.0000   0.0000   0.0000   0.0000   0.0000   0.0000   0.0000
     0.0000   0.0000   0.0000   0.0000   0.0000   0.0000   0.0000   0.0000
     0.0000   0.0000   0.0000   0.0000   0.0000   0.0000   0.0000   0.0000
     0.0000   0.0000   0.0000   0.0000   0.0000   0.0000   0.0000   0.0000

          k = 0.2500 0.1443 0.0000 ( 64808 PWs)   bands (ev):

  -125.0243-125.0234-125.0230-125.0230-125.0223-125.0223-125.0221-125.0214
  -125.0214-125.0211-125.0210-125.0210-125.0210-125.0210-125.0207-125.0207
  -124.8505-124.8504-124.8495-124.8495-124.8491-124.8491-124.8491-124.8491
  -124.8485-124.8485-124.8484-124.8484-124.8482-124.8481-124.8475-124.8475
  -124.8475-124.8475-124.8473-124.8472-124.8472-124.8471-124.8471-124.8471
  -124.8471-124.8471-124.8470-124.8470-124.8469-124.8469-124.8468-124.8468
   -79.1898 -79.1898 -79.1892 -79.1852 -79.1852 -79.1843 -79.1843 -79.1824
   -79.1824 -79.1795 -79.1763 -79.1763 -79.1736 -79.1736 -79.1734 -79.1723
   -79.1719 -79.1719 -79.1711 -79.1711 -79.1708 -79.1700 -79.1700 -79.1697
   -79.1696 -79.1696 -79.1696 -79.1696 -79.1695 -79.1695 -79.1693 -79.1693
   -79.1692 -79.1692 -79.1668 -79.1668 -79.1656 -79.1647 -79.1647 -79.1636
   -79.1610 -79.1607 -79.1607 -79.1587 -79.1587 -79.1574 -79.1559 -79.1548
   -79.0126 -79.0126 -79.0125 -79.0125 -79.0120 -79.0119 -79.0080 -79.0080
   -79.0080 -79.0080 -79.0078 -79.0076 -79.0071 -79.0071 -79.0071 -79.0071
   -79.0067 -79.0066 -79.0063 -79.0063 -79.0062 -79.0062 -79.0056 -79.0056
   -79.0055 -79.0055 -79.0053 -79.0052 -79.0052 -79.0052 -79.0052 -79.0052
   -79.0045 -79.0045 -79.0044 -79.0044 -79.0042 -79.0042 -79.0041 -79.0041
   -79.0041 -79.0041 -79.0040 -79.0040 -79.0040 -79.0040 -79.0038 -79.0038
   -79.0037 -79.0037 -79.0023 -79.0022 -78.9991 -78.9991 -78.9990 -78.9990
   -78.9964 -78.9964 -78.9964 -78.9964 -78.9923 -78.9923 -78.9923 -78.9923
   -78.9921 -78.9921 -78.9920 -78.9920 -78.9897 -78.9897 -78.9897 -78.9897
   -78.9885 -78.9884 -78.9875 -78.9875 -78.9875 -78.9875 -78.9864 -78.9864
   -78.9839 -78.9838 -78.9836 -78.9836 -78.9835 -78.9835 -78.9816 -78.9816
   -78.9816 -78.9816 -78.9803 -78.9802 -78.9787 -78.9787 -78.9777 -78.9777
    -8.4724  -7.5888  -7.2842  -7.2168  -7.2168  -7.0013  -6.8571  -6.8309
    -6.8309  -6.8120  -6.8116  -6.8116  -6.6827  -6.6729  -6.6663  -6.6663
    -6.6467  -6.6448  -6.6223  -6.6223  -6.5682  -6.5575  -6.5460  -6.5460
    -6.5277  -6.5277  -6.5218  -6.5218  -6.5084  -6.5084  -6.4918  -6.4881
    -6.4881  -6.4855  -6.4855  -6.4845  -6.4845  -6.4630  -6.4630  -6.4517
    -6.4517  -6.4261  -6.4261  -6.3838  -6.3838  -6.3748  -6.3748  -6.3569
    -6.3569  -6.3496  -6.3014  -6.2969  -6.2969  -6.2928  -6.2928  -6.2900
    -6.2900  -6.2534  -6.2534  -6.2321  -6.2289  -6.2006  -6.2006  -6.1936
    -6.1936  -6.1929  -6.1929  -6.1904  -6.1904  -6.1883  -6.1825  -6.1825
    -6.1767  -6.1767  -6.1561  -6.1561  -6.1542  -6.1542  -6.1491  -6.1245
    -6.1011  -6.1011  -6.0985  -6.0985  -6.0952  -6.0756  -6.0756  -6.0735
    -6.0735  -6.0618  -6.0501  -6.0401  -6.0401  -6.0176  -6.0176  -6.0159
    -6.0159  -5.9447  -5.9447  -5.9298  -5.9298  -5.9285  -5.9245  -5.9221
    -5.9212  -5.9178  -5.9178  -5.8990  -5.8949  -5.8949  -5.8916  -5.8916
    -5.8751  -5.8751  -5.8739  -5.8606  -5.8548  -5.8492  -5.8492  -5.8387
    -5.8206  -5.8206  -5.8116  -5.8116  -5.7898  -5.7876  -5.7777  -5.7777
    -5.7723  -5.7723  -5.7639  -5.7639  -5.7540  -5.7540  -5.7527  -5.7527
    -5.7400  -5.7255  -5.7255  -5.7147  -5.7147  -5.7118  -5.7044  -5.7044
    -5.6913  -5.6913  -5.6905  -5.6889  -5.6889  -5.6822  -5.6822  -5.6724
    -5.6724  -5.6682  -5.6682  -5.6641  -5.6486  -5.6486  -5.6433  -5.6212
    -5.6190  -5.6190  -5.6113  -5.6113  -5.6017  -5.6017  -5.5996  -5.5996
    -5.5948  -5.5903  -5.5839  -5.5839  -5.5803  -5.5501  -5.5444  -5.5442
    -5.5442  -5.5358  -5.5358  -5.5321  -5.5321  -5.5275  -5.5275  -5.5213
    -5.5213  -5.5169  -5.5127  -5.5104  -5.5103  -5.5018  -5.5018  -5.4955
    -5.4955  -5.4767  -5.4767  -5.4393  -5.4384  -5.4343  -5.4343  -5.4322
    -5.4322  -5.4318  -5.4318  -5.4252  -5.4252  -5.4107  -5.4100  -5.4095
    -5.4095  -5.4036  -5.4013  -5.3959  -5.3861  -5.3861  -5.3809  -5.3809
    -5.3754  -5.3695  -5.3695  -5.3621  -5.3519  -5.3519  -5.3476  -5.3390
    -5.3276  -5.3207  -5.3207  -5.3176  -5.2955  -5.2955  -5.2855  -5.2855
    -5.2797  -5.2797  -5.2705  -5.2674  -5.2674  -5.2582  -5.2582  -5.1216
    -5.1216  -5.1159  -5.1159  -5.1098  -5.1098  -5.0921  -5.0914  -4.9255
    -4.9091  -4.6182  -4.6182  -3.8627  -3.8627  -3.4619  -3.3650  -3.3650
    -3.3488  -2.6558  -2.2835  -2.2835  -2.1923  -1.9916  -1.9916  -1.9540
    -1.9540  -1.4959  -1.4959  -1.2620  -1.2620  -1.0977  -0.7777  -0.5437
    -0.5437  -0.5430  -0.5430  -0.5377   0.0410   0.0410   0.2887   0.2887
     0.5876   0.5876   0.6486   0.9007   0.9155   0.9155   1.1989   1.1989
     1.5771   1.5771   2.2420   2.2420   2.6728   2.7209   2.7209   2.7368
     2.8002   2.8002   2.9721   2.9721   3.2306   3.5644   3.7164   3.7164
     3.9378   3.9378   4.1221   4.2010   4.2010   4.5659   4.5659   4.8202
     4.8202   4.8606   4.8606   5.1785   5.1785   5.1815   5.1815   5.1819
     5.3709   5.4353   5.4353   5.5829   5.6610   5.8082   5.8082   5.8173
     6.0841   6.1234   6.1234   6.2898   6.3091   6.3274   6.3274   6.5045
     6.5341   6.5341   6.6120   6.6120   6.7386   6.7486   6.7486   7.0287
     7.0287   7.1016   7.1016   7.1828   7.1828   7.2339   7.3307   7.3307
     7.4028   7.4195   7.4195   7.4723   7.4723   7.6589   7.6589   7.6735
     7.6735   7.6934   7.6934   7.7452   7.8501   7.8501   7.9748   7.9748
     8.0513   8.0513   8.1240   8.3160   8.3185   8.4757   8.6309   8.6309
     8.7031   8.7031   8.7072   8.8262   8.8262   8.8377   8.8377   8.8540

     occupation numbers 
     1.0000   1.0000   1.0000   1.0000   1.0000   1.0000   1.0000   1.0000
     1.0000   1.0000   1.0000   1.0000   1.0000   1.0000   1.0000   1.0000
     1.0000   1.0000   1.0000   1.0000   1.0000   1.0000   1.0000   1.0000
     1.0000   1.0000   1.0000   1.0000   1.0000   1.0000   1.0000   1.0000
     1.0000   1.0000   1.0000   1.0000   1.0000   1.0000   1.0000   1.0000
     1.0000   1.0000   1.0000   1.0000   1.0000   1.0000   1.0000   1.0000
     1.0000   1.0000   1.0000   1.0000   1.0000   1.0000   1.0000   1.0000
     1.0000   1.0000   1.0000   1.0000   1.0000   1.0000   1.0000   1.0000
     1.0000   1.0000   1.0000   1.0000   1.0000   1.0000   1.0000   1.0000
     1.0000   1.0000   1.0000   1.0000   1.0000   1.0000   1.0000   1.0000
     1.0000   1.0000   1.0000   1.0000   1.0000   1.0000   1.0000   1.0000
     1.0000   1.0000   1.0000   1.0000   1.0000   1.0000   1.0000   1.0000
     1.0000   1.0000   1.0000   1.0000   1.0000   1.0000   1.0000   1.0000
     1.0000   1.0000   1.0000   1.0000   1.0000   1.0000   1.0000   1.0000
     1.0000   1.0000   1.0000   1.0000   1.0000   1.0000   1.0000   1.0000
     1.0000   1.0000   1.0000   1.0000   1.0000   1.0000   1.0000   1.0000
     1.0000   1.0000   1.0000   1.0000   1.0000   1.0000   1.0000   1.0000
     1.0000   1.0000   1.0000   1.0000   1.0000   1.0000   1.0000   1.0000
     1.0000   1.0000   1.0000   1.0000   1.0000   1.0000   1.0000   1.0000
     1.0000   1.0000   1.0000   1.0000   1.0000   1.0000   1.0000   1.0000
     1.0000   1.0000   1.0000   1.0000   1.0000   1.0000   1.0000   1.0000
     1.0000   1.0000   1.0000   1.0000   1.0000   1.0000   1.0000   1.0000
     1.0000   1.0000   1.0000   1.0000   1.0000   1.0000   1.0000   1.0000
     1.0000   1.0000   1.0000   1.0000   1.0000   1.0000   1.0000   1.0000
     1.0000   1.0000   1.0000   1.0000   1.0000   1.0000   1.0000   1.0000
     1.0000   1.0000   1.0000   1.0000   1.0000   1.0000   1.0000   1.0000
     1.0000   1.0000   1.0000   1.0000   1.0000   1.0000   1.0000   1.0000
     1.0000   1.0000   1.0000   1.0000   1.0000   1.0000   1.0000   1.0000
     1.0000   1.0000   1.0000   1.0000   1.0000   1.0000   1.0000   1.0000
     1.0000   1.0000   1.0000   1.0000   1.0000   1.0000   1.0000   1.0000
     1.0000   1.0000   1.0000   1.0000   1.0000   1.0000   1.0000   1.0000
     1.0000   1.0000   1.0000   1.0000   1.0000   1.0000   1.0000   1.0000
     1.0000   1.0000   1.0000   1.0000   1.0000   1.0000   1.0000   1.0000
     1.0000   1.0000   1.0000   1.0000   1.0000   1.0000   1.0000   1.0000
     1.0000   1.0000   1.0000   1.0000   1.0000   1.0000   1.0000   1.0000
     1.0000   1.0000   1.0000   1.0000   1.0000   1.0000   1.0000   1.0000
     1.0000   1.0000   1.0000   1.0000   1.0000   1.0000   1.0000   1.0000
     1.0000   1.0000   1.0000   1.0000   1.0000   1.0000   1.0000   1.0000
     1.0000   1.0000   1.0000   1.0000   1.0000   1.0000   1.0000   1.0000
     1.0000   1.0000   1.0000   1.0000   1.0000   1.0000   1.0000   1.0000
     1.0000   1.0000   1.0000   1.0000   1.0000   1.0000   1.0000   1.0000
     1.0000   1.0000   1.0000   1.0000   1.0000   1.0000   1.0000   1.0000
     1.0000   1.0000   1.0000   1.0000   1.0000   1.0000   1.0000   1.0000
     1.0000   1.0000   1.0000   1.0000   1.0000   1.0000   1.0000   1.0000
     1.0000   1.0000   1.0000   1.0000   1.0000   1.0000   1.0000   1.0000
     1.0000   1.0000   1.0000   1.0000   1.0000   1.0000   1.0000   1.0000
     1.0000   1.0000   1.0000   1.0000   1.0000   1.0000   1.0000   1.0000
     1.0000   1.0000   1.0000   1.0000   1.0000   1.0000   1.0000   1.0000
     1.0000   1.0000   1.0000   1.0000   1.0000   1.0000   1.0000   1.0000
     1.0000   1.0000   1.0000   1.0000   1.0000   1.0000   1.0000   1.0000
     1.0000   1.0000   1.0000   1.0000   1.0000   1.0000   1.0000   1.0000
     1.0000   1.0000   1.0000   1.0000   1.0000   1.0000   1.0000   1.0000
     1.0000   1.0000   1.0000   1.0000   1.0000   1.0000   1.0000   1.0000
     1.0000   1.0000   1.0000   1.0000   1.0000   1.0000   1.0000   1.0000
     1.0000   1.0000   1.0000   1.0000   1.0000   1.0000   1.0000   1.0000
     1.0000   1.0000   1.0000   1.0000   1.0000   1.0000   1.0000   1.0000
     1.0000   1.0000   1.0000   1.0000   1.0000   1.0000   1.0000   1.0000
     1.0000   1.0000   1.0000   1.0000   1.0000   1.0000   1.0000   1.0000
     1.0000   1.0000   1.0000   1.0000   1.0000   1.0000   1.0000   1.0000
     1.0000   1.0000   1.0000   1.0000   1.0000   1.0000   1.0001   1.0001
     0.0006   0.0006   0.0000   0.0000   0.0000   0.0000   0.0000   0.0000
     0.0000   0.0000   0.0000   0.0000   0.0000   0.0000   0.0000   0.0000
     0.0000   0.0000   0.0000   0.0000   0.0000   0.0000   0.0000   0.0000
     0.0000   0.0000   0.0000   0.0000   0.0000   0.0000   0.0000   0.0000
     0.0000   0.0000   0.0000   0.0000   0.0000   0.0000   0.0000   0.0000
     0.0000   0.0000   0.0000   0.0000   0.0000   0.0000   0.0000   0.0000
     0.0000   0.0000   0.0000   0.0000   0.0000   0.0000   0.0000   0.0000
     0.0000   0.0000   0.0000   0.0000   0.0000   0.0000   0.0000   0.0000
     0.0000   0.0000   0.0000   0.0000   0.0000   0.0000   0.0000   0.0000
     0.0000   0.0000   0.0000   0.0000   0.0000   0.0000   0.0000   0.0000
     0.0000   0.0000   0.0000   0.0000   0.0000   0.0000   0.0000   0.0000
     0.0000   0.0000   0.0000   0.0000   0.0000   0.0000   0.0000   0.0000

          k = 0.2500 0.4330 0.0000 ( 64876 PWs)   bands (ev):

  -125.0241-125.0236-125.0236-125.0225-125.0225-125.0219-125.0217-125.0217
  -125.0214-125.0213-125.0213-125.0213-125.0209-125.0208-125.0208-125.0206
  -124.8502-124.8502-124.8498-124.8497-124.8497-124.8497-124.8486-124.8486
  -124.8486-124.8486-124.8481-124.8480-124.8479-124.8478-124.8478-124.8478
  -124.8475-124.8475-124.8474-124.8474-124.8474-124.8474-124.8473-124.8473
  -124.8470-124.8470-124.8469-124.8469-124.8469-124.8468-124.8467-124.8467
   -79.1889 -79.1872 -79.1872 -79.1867 -79.1867 -79.1846 -79.1846 -79.1825
   -79.1825 -79.1820 -79.1785 -79.1777 -79.1740 -79.1740 -79.1731 -79.1726
   -79.1726 -79.1713 -79.1713 -79.1706 -79.1705 -79.1705 -79.1704 -79.1704
   -79.1700 -79.1700 -79.1699 -79.1699 -79.1694 -79.1693 -79.1693 -79.1691
   -79.1672 -79.1654 -79.1653 -79.1639 -79.1639 -79.1639 -79.1632 -79.1632
   -79.1625 -79.1625 -79.1610 -79.1610 -79.1585 -79.1569 -79.1569 -79.1556
   -79.0117 -79.0116 -79.0100 -79.0100 -79.0100 -79.0100 -79.0095 -79.0095
   -79.0095 -79.0095 -79.0075 -79.0074 -79.0074 -79.0073 -79.0073 -79.0073
   -79.0070 -79.0070 -79.0068 -79.0068 -79.0057 -79.0057 -79.0056 -79.0056
   -79.0053 -79.0053 -79.0052 -79.0052 -79.0051 -79.0050 -79.0049 -79.0049
   -79.0049 -79.0048 -79.0048 -79.0048 -79.0045 -79.0045 -79.0044 -79.0044
   -79.0044 -79.0044 -79.0043 -79.0043 -79.0040 -79.0039 -79.0039 -79.0039
   -79.0038 -79.0038 -79.0037 -79.0036 -79.0013 -79.0013 -79.0005 -79.0005
   -78.9969 -78.9969 -78.9968 -78.9968 -78.9934 -78.9934 -78.9933 -78.9933
   -78.9900 -78.9900 -78.9882 -78.9882 -78.9882 -78.9882 -78.9868 -78.9868
   -78.9868 -78.9868 -78.9867 -78.9867 -78.9861 -78.9861 -78.9861 -78.9861
   -78.9854 -78.9854 -78.9854 -78.9853 -78.9839 -78.9839 -78.9839 -78.9839
   -78.9813 -78.9813 -78.9798 -78.9798 -78.9798 -78.9798 -78.9784 -78.9784
    -8.2386  -7.7918  -7.7918  -7.0954  -6.8858  -6.7991  -6.7991  -6.7757
    -6.7757  -6.7725  -6.7725  -6.7576  -6.7576  -6.7279  -6.6979  -6.6979
    -6.6581  -6.6581  -6.6295  -6.6295  -6.5937  -6.5926  -6.5926  -6.5642
    -6.5642  -6.5624  -6.5624  -6.5488  -6.5488  -6.5290  -6.5290  -6.5271
    -6.5007  -6.5007  -6.4732  -6.4732  -6.4485  -6.4485  -6.4428  -6.4285
    -6.4285  -6.4204  -6.4050  -6.3928  -6.3928  -6.3810  -6.3810  -6.3794
    -6.3794  -6.3770  -6.3587  -6.3514  -6.3514  -6.2860  -6.2860  -6.2795
    -6.2762  -6.2762  -6.2584  -6.2554  -6.2535  -6.2535  -6.2411  -6.2411
    -6.2405  -6.2284  -6.2284  -6.2188  -6.2144  -6.2075  -6.2075  -6.2044
    -6.2044  -6.1828  -6.1828  -6.1476  -6.1476  -6.1311  -6.1244  -6.1225
    -6.1225  -6.1133  -6.0918  -6.0918  -6.0800  -6.0800  -6.0747  -6.0681
    -6.0392  -6.0392  -6.0266  -6.0266  -6.0245  -6.0058  -6.0057  -5.9902
    -5.9760  -5.9752  -5.9749  -5.9749  -5.9651  -5.9651  -5.9554  -5.9554
    -5.9534  -5.9534  -5.9410  -5.9302  -5.9280  -5.8900  -5.8837  -5.8837
    -5.8773  -5.8731  -5.8731  -5.8724  -5.8692  -5.8692  -5.8548  -5.8474
    -5.8474  -5.8271  -5.8271  -5.8189  -5.8189  -5.8159  -5.8159  -5.8029
    -5.8029  -5.7947  -5.7943  -5.7943  -5.7803  -5.7625  -5.7625  -5.7550
    -5.7385  -5.7385  -5.7281  -5.7281  -5.7269  -5.7261  -5.6841  -5.6841
    -5.6802  -5.6802  -5.6679  -5.6679  -5.6373  -5.6359  -5.6359  -5.6334
    -5.6334  -5.6240  -5.6079  -5.6079  -5.5993  -5.5992  -5.5992  -5.5768
    -5.5768  -5.5759  -5.5677  -5.5677  -5.5627  -5.5627  -5.5619  -5.5619
    -5.5613  -5.5613  -5.5553  -5.5553  -5.5434  -5.5434  -5.5319  -5.5319
    -5.5311  -5.5282  -5.5282  -5.5230  -5.5230  -5.5217  -5.4917  -5.4917
    -5.4887  -5.4887  -5.4848  -5.4835  -5.4824  -5.4643  -5.4643  -5.4638
    -5.4638  -5.4633  -5.4531  -5.4455  -5.4455  -5.4361  -5.4360  -5.4353
    -5.4353  -5.4324  -5.4324  -5.4235  -5.4235  -5.4230  -5.4230  -5.4146
    -5.4146  -5.4057  -5.4046  -5.4046  -5.3929  -5.3928  -5.3928  -5.3856
    -5.3786  -5.3689  -5.3689  -5.3575  -5.3489  -5.3489  -5.3404  -5.3381
    -5.3363  -5.3363  -5.3189  -5.3048  -5.3048  -5.2911  -5.2911  -5.2614
    -5.2614  -5.2582  -5.2567  -5.2567  -5.2501  -5.2501  -5.2432  -5.2124
    -5.1722  -5.1722  -5.1692  -5.1692  -5.1223  -5.1223  -5.0423  -5.0423
    -4.4294  -4.2053  -4.2053  -4.0253  -4.0253  -3.2161  -3.2161  -3.1787
    -3.1272  -2.8480  -2.8480  -2.8321  -2.8321  -2.7629  -2.7629  -1.7787
    -1.7787  -1.6827  -1.6827  -1.3960  -1.3960  -0.8256  -0.4562  -0.4562
    -0.3820  -0.3820  -0.2916  -0.2267   0.3218   0.3651   0.3651   0.4434
     0.4435   0.7206   0.7206   0.8062   0.9874   0.9874   1.1170   1.4441
     1.4441   1.9914   1.9914   2.5484   2.5694   2.8505   3.0013   3.1198
     3.3547   3.3547   3.3814   3.3814   3.4540   3.4625   3.4625   3.5959
     3.5959   3.6893   3.9002   3.9002   4.3909   4.3909   4.4087   4.4424
     4.4619   4.4619   4.5963   4.5963   4.8961   4.9534   5.1531   5.1531
     5.2294   5.2294   5.4077   5.4632   5.4632   5.4810   5.4810   5.6008
     5.8590   5.8590   6.0603   6.0603   6.0995   6.1403   6.1403   6.5410
     6.5518   6.5518   6.6614   6.6622   6.6622   6.7294   6.9659   7.0035
     7.0035   7.0154   7.0154   7.0224   7.0584   7.0584   7.1788   7.1788
     7.1934   7.1934   7.2069   7.2069   7.2321   7.2321   7.4360   7.4360
     8.0882   8.2265   8.2265   8.3439   8.3762   8.3771   8.3771   8.5167
     8.5167   8.5467   8.5695   8.6001   8.6001   8.6192   8.6192   8.6761
     8.6962   8.6962   8.6986   8.7694   8.7963   8.7963   9.0066   9.0067

     occupation numbers 
     1.0000   1.0000   1.0000   1.0000   1.0000   1.0000   1.0000   1.0000
     1.0000   1.0000   1.0000   1.0000   1.0000   1.0000   1.0000   1.0000
     1.0000   1.0000   1.0000   1.0000   1.0000   1.0000   1.0000   1.0000
     1.0000   1.0000   1.0000   1.0000   1.0000   1.0000   1.0000   1.0000
     1.0000   1.0000   1.0000   1.0000   1.0000   1.0000   1.0000   1.0000
     1.0000   1.0000   1.0000   1.0000   1.0000   1.0000   1.0000   1.0000
     1.0000   1.0000   1.0000   1.0000   1.0000   1.0000   1.0000   1.0000
     1.0000   1.0000   1.0000   1.0000   1.0000   1.0000   1.0000   1.0000
     1.0000   1.0000   1.0000   1.0000   1.0000   1.0000   1.0000   1.0000
     1.0000   1.0000   1.0000   1.0000   1.0000   1.0000   1.0000   1.0000
     1.0000   1.0000   1.0000   1.0000   1.0000   1.0000   1.0000   1.0000
     1.0000   1.0000   1.0000   1.0000   1.0000   1.0000   1.0000   1.0000
     1.0000   1.0000   1.0000   1.0000   1.0000   1.0000   1.0000   1.0000
     1.0000   1.0000   1.0000   1.0000   1.0000   1.0000   1.0000   1.0000
     1.0000   1.0000   1.0000   1.0000   1.0000   1.0000   1.0000   1.0000
     1.0000   1.0000   1.0000   1.0000   1.0000   1.0000   1.0000   1.0000
     1.0000   1.0000   1.0000   1.0000   1.0000   1.0000   1.0000   1.0000
     1.0000   1.0000   1.0000   1.0000   1.0000   1.0000   1.0000   1.0000
     1.0000   1.0000   1.0000   1.0000   1.0000   1.0000   1.0000   1.0000
     1.0000   1.0000   1.0000   1.0000   1.0000   1.0000   1.0000   1.0000
     1.0000   1.0000   1.0000   1.0000   1.0000   1.0000   1.0000   1.0000
     1.0000   1.0000   1.0000   1.0000   1.0000   1.0000   1.0000   1.0000
     1.0000   1.0000   1.0000   1.0000   1.0000   1.0000   1.0000   1.0000
     1.0000   1.0000   1.0000   1.0000   1.0000   1.0000   1.0000   1.0000
     1.0000   1.0000   1.0000   1.0000   1.0000   1.0000   1.0000   1.0000
     1.0000   1.0000   1.0000   1.0000   1.0000   1.0000   1.0000   1.0000
     1.0000   1.0000   1.0000   1.0000   1.0000   1.0000   1.0000   1.0000
     1.0000   1.0000   1.0000   1.0000   1.0000   1.0000   1.0000   1.0000
     1.0000   1.0000   1.0000   1.0000   1.0000   1.0000   1.0000   1.0000
     1.0000   1.0000   1.0000   1.0000   1.0000   1.0000   1.0000   1.0000
     1.0000   1.0000   1.0000   1.0000   1.0000   1.0000   1.0000   1.0000
     1.0000   1.0000   1.0000   1.0000   1.0000   1.0000   1.0000   1.0000
     1.0000   1.0000   1.0000   1.0000   1.0000   1.0000   1.0000   1.0000
     1.0000   1.0000   1.0000   1.0000   1.0000   1.0000   1.0000   1.0000
     1.0000   1.0000   1.0000   1.0000   1.0000   1.0000   1.0000   1.0000
     1.0000   1.0000   1.0000   1.0000   1.0000   1.0000   1.0000   1.0000
     1.0000   1.0000   1.0000   1.0000   1.0000   1.0000   1.0000   1.0000
     1.0000   1.0000   1.0000   1.0000   1.0000   1.0000   1.0000   1.0000
     1.0000   1.0000   1.0000   1.0000   1.0000   1.0000   1.0000   1.0000
     1.0000   1.0000   1.0000   1.0000   1.0000   1.0000   1.0000   1.0000
     1.0000   1.0000   1.0000   1.0000   1.0000   1.0000   1.0000   1.0000
     1.0000   1.0000   1.0000   1.0000   1.0000   1.0000   1.0000   1.0000
     1.0000   1.0000   1.0000   1.0000   1.0000   1.0000   1.0000   1.0000
     1.0000   1.0000   1.0000   1.0000   1.0000   1.0000   1.0000   1.0000
     1.0000   1.0000   1.0000   1.0000   1.0000   1.0000   1.0000   1.0000
     1.0000   1.0000   1.0000   1.0000   1.0000   1.0000   1.0000   1.0000
     1.0000   1.0000   1.0000   1.0000   1.0000   1.0000   1.0000   1.0000
     1.0000   1.0000   1.0000   1.0000   1.0000   1.0000   1.0000   1.0000
     1.0000   1.0000   1.0000   1.0000   1.0000   1.0000   1.0000   1.0000
     1.0000   1.0000   1.0000   1.0000   1.0000   1.0000   1.0000   1.0000
     1.0000   1.0000   1.0000   1.0000   1.0000   1.0000   1.0000   1.0000
     1.0000   1.0000   1.0000   1.0000   1.0000   1.0000   1.0000   1.0000
     1.0000   1.0000   1.0000   1.0000   1.0000   1.0000   1.0000   1.0000
     1.0000   1.0000   1.0000   1.0000   1.0000   1.0000   1.0000   1.0000
     1.0000   1.0000   1.0000   1.0000   1.0000   1.0000   1.0000   1.0000
     1.0000   1.0000   1.0000   1.0000   1.0000   1.0000   1.0000   1.0000
     1.0000   1.0000   1.0000   1.0000   1.0000   1.0000   1.0000   1.0000
     1.0000   1.0000   1.0000   1.0000   1.0000   1.0000   1.0000   1.0000
     1.0000   1.0000   1.0000   1.0000   1.0000   1.0000   1.0000   1.0000
     1.0000   1.0000   1.0000   1.0000   1.0000   1.0000   1.0000   0.4379
     0.4379   0.0000   0.0000   0.0000   0.0000   0.0000   0.0000   0.0000
     0.0000   0.0000   0.0000   0.0000   0.0000   0.0000   0.0000   0.0000
     0.0000   0.0000   0.0000   0.0000   0.0000   0.0000   0.0000   0.0000
     0.0000   0.0000   0.0000   0.0000   0.0000   0.0000   0.0000   0.0000
     0.0000   0.0000   0.0000   0.0000   0.0000   0.0000   0.0000   0.0000
     0.0000   0.0000   0.0000   0.0000   0.0000   0.0000   0.0000   0.0000
     0.0000   0.0000   0.0000   0.0000   0.0000   0.0000   0.0000   0.0000
     0.0000   0.0000   0.0000   0.0000   0.0000   0.0000   0.0000   0.0000
     0.0000   0.0000   0.0000   0.0000   0.0000   0.0000   0.0000   0.0000
     0.0000   0.0000   0.0000   0.0000   0.0000   0.0000   0.0000   0.0000
     0.0000   0.0000   0.0000   0.0000   0.0000   0.0000   0.0000   0.0000
     0.0000   0.0000   0.0000   0.0000   0.0000   0.0000   0.0000   0.0000

          k = 0.2500-0.4330 0.0000 ( 64876 PWs)   bands (ev):

  -125.0241-125.0236-125.0236-125.0225-125.0225-125.0219-125.0217-125.0217
  -125.0214-125.0213-125.0213-125.0213-125.0209-125.0208-125.0208-125.0206
  -124.8502-124.8502-124.8498-124.8497-124.8497-124.8497-124.8486-124.8486
  -124.8486-124.8486-124.8481-124.8480-124.8479-124.8478-124.8478-124.8478
  -124.8475-124.8475-124.8474-124.8474-124.8474-124.8474-124.8473-124.8473
  -124.8470-124.8469-124.8469-124.8469-124.8469-124.8468-124.8467-124.8467
   -79.1889 -79.1872 -79.1872 -79.1867 -79.1867 -79.1846 -79.1846 -79.1825
   -79.1825 -79.1820 -79.1785 -79.1777 -79.1740 -79.1740 -79.1731 -79.1726
   -79.1726 -79.1713 -79.1713 -79.1706 -79.1705 -79.1705 -79.1704 -79.1704
   -79.1700 -79.1700 -79.1699 -79.1699 -79.1694 -79.1693 -79.1693 -79.1691
   -79.1672 -79.1654 -79.1653 -79.1639 -79.1639 -79.1639 -79.1632 -79.1632
   -79.1625 -79.1625 -79.1610 -79.1610 -79.1585 -79.1569 -79.1569 -79.1556
   -79.0117 -79.0116 -79.0100 -79.0100 -79.0100 -79.0100 -79.0095 -79.0095
   -79.0095 -79.0095 -79.0075 -79.0074 -79.0074 -79.0073 -79.0073 -79.0073
   -79.0070 -79.0070 -79.0068 -79.0068 -79.0057 -79.0057 -79.0056 -79.0056
   -79.0053 -79.0053 -79.0053 -79.0052 -79.0051 -79.0050 -79.0049 -79.0049
   -79.0049 -79.0048 -79.0048 -79.0048 -79.0045 -79.0045 -79.0044 -79.0044
   -79.0044 -79.0044 -79.0043 -79.0043 -79.0040 -79.0039 -79.0039 -79.0039
   -79.0038 -79.0038 -79.0037 -79.0036 -79.0013 -79.0013 -79.0005 -79.0005
[...]
     1.0000   1.0000   1.0000   1.0000   1.0000   1.0000   1.0000   1.0000
     1.0000   1.0000   1.0000   1.0000   1.0000   1.0000   1.0000   1.0000
     1.0000   1.0000   1.0000   1.0000   1.0000   1.0000   1.0000   1.0000
     1.0000   1.0000   1.0000   1.0000   1.0000   1.0000   1.0000   1.0000
     1.0000   1.0000   1.0000   1.0000   1.0000   1.0000   1.0000   1.0000
     1.0000   1.0000   1.0000   1.0000   1.0000   1.0000   1.0000   1.0000
     1.0000   1.0000   1.0000   1.0000   1.0000   1.0000   1.0000   1.0000
     1.0000   1.0000   1.0000   1.0000   1.0000   1.0000   1.0000   1.0000
     1.0000   1.0000   1.0000   1.0000   1.0000   1.0000   1.0000   1.0000
     1.0000   1.0000   1.0000   1.0000   1.0000   1.0000   1.0000   1.0000
     1.0000   1.0000   1.0000   1.0000   1.0000   1.0000   1.0000   1.0000
     1.0000   1.0000   1.0000   1.0000   1.0000   1.0000   1.0000   1.0000
     1.0000   1.0000   1.0000   1.0000   1.0000   1.0000   1.0000   1.0000
     1.0000   1.0000   1.0000   1.0000   1.0000   1.0000   1.0000   1.0000
     1.0000   1.0000   1.0000   1.0000   1.0000   1.0000   1.0000   1.0000
     1.0000   1.0000   1.0000   1.0000   1.0000   1.0000   1.0000   1.0000
     1.0000   1.0000   1.0000   1.0000   1.0000   1.0000   1.0000   1.0000
     1.0000   1.0000   1.0000   1.0000   1.0000   1.0000   1.0000   1.0000
     1.0000   1.0000   1.0000   1.0000   1.0000   1.0000   1.0000   1.0000
     1.0000   1.0000   1.0000   1.0000   1.0000   1.0000   1.0000   1.0000
     1.0000   1.0000   1.0000   1.0000   1.0000   1.0000   1.0000   1.0000
     1.0000   1.0000   1.0000   1.0000   1.0000   1.0000   1.0000   1.0000
     1.0000   1.0000   1.0000   1.0000   1.0000   1.0000   1.0000   1.0000
     1.0000   1.0000   1.0000   1.0000   1.0000   1.0000   1.0000   1.0000
     1.0000   1.0000   1.0000   1.0000   1.0000   1.0000   1.0000   1.0000
     1.0000   1.0000   1.0000   1.0000   1.0000   1.0000   1.0000   1.0000
     1.0000   1.0000   1.0000   1.0000   1.0000   1.0000   1.0000   1.0000
     1.0000   1.0000   1.0000   1.0000   1.0000   1.0000   1.0000   1.0000
     1.0000   1.0000   1.0000   1.0000   1.0000   1.0000   1.0000   1.0000
     1.0000   1.0000   1.0000   1.0000   1.0000   1.0000   1.0000   1.0000
     1.0000   1.0000   1.0000   1.0000   1.0000   1.0000   1.0000   1.0000
     1.0000   1.0000   1.0000   1.0000   1.0000   1.0000   1.0000   1.0000
     1.0000   1.0000   1.0000   1.0000   1.0000   1.0000   1.0000   1.0000
     1.0000   1.0000   1.0000   1.0000   1.0000   1.0000   1.0000   1.0000
     1.0000   1.0000   1.0000   1.0000   1.0000   1.0000   1.0000   1.0000
     1.0000   1.0000   1.0000   1.0000   1.0000   1.0000   1.0000   1.0000
     1.0000   1.0000   1.0000   1.0000   1.0000   1.0000   1.0000   1.0000
     1.0000   1.0000   1.0000   1.0000   1.0000   1.0000   1.0000   1.0000
     1.0000   1.0000   1.0000   1.0000   1.0000   1.0000   1.0000   1.0000
     1.0000   1.0000   1.0000   1.0000   1.0000   1.0000   1.0000   1.0000
     1.0000   1.0000   1.0000   1.0000   1.0000   1.0000   1.0000   0.4379
     0.4379   0.0000   0.0000   0.0000   0.0000   0.0000   0.0000   0.0000
     0.0000   0.0000   0.0000   0.0000   0.0000   0.0000   0.0000   0.0000
     0.0000   0.0000   0.0000   0.0000   0.0000   0.0000   0.0000   0.0000
     0.0000   0.0000   0.0000   0.0000   0.0000   0.0000   0.0000   0.0000
     0.0000   0.0000   0.0000   0.0000   0.0000   0.0000   0.0000   0.0000
     0.0000   0.0000   0.0000   0.0000   0.0000   0.0000   0.0000   0.0000
     0.0000   0.0000   0.0000   0.0000   0.0000   0.0000   0.0000   0.0000
     0.0000   0.0000   0.0000   0.0000   0.0000   0.0000   0.0000   0.0000
     0.0000   0.0000   0.0000   0.0000   0.0000   0.0000   0.0000   0.0000
     0.0000   0.0000   0.0000   0.0000   0.0000   0.0000   0.0000   0.0000
     0.0000   0.0000   0.0000   0.0000   0.0000   0.0000   0.0000   0.0000
     0.0000   0.0000   0.0000   0.0000   0.0000   0.0000   0.0000   0.0000

          k =-0.5000-0.8660 0.0000 ( 64842 PWs)   bands (ev):

  -125.0240-125.0240-125.0231-125.0231-125.0219-125.0219-125.0219-125.0219
  -125.0215-125.0215-125.0210-125.0210-125.0210-125.0210-125.0206-125.0206
  -124.8501-124.8501-124.8501-124.8500-124.8492-124.8492-124.8492-124.8492
  -124.8480-124.8480-124.8480-124.8480-124.8480-124.8480-124.8479-124.8479
  -124.8477-124.8476-124.8476-124.8476-124.8472-124.8471-124.8471-124.8471
  -124.8471-124.8471-124.8471-124.8470-124.8468-124.8468-124.8467-124.8467
   -79.1878 -79.1878 -79.1878 -79.1878 -79.1853 -79.1853 -79.1843 -79.1843
   -79.1797 -79.1797 -79.1797 -79.1797 -79.1748 -79.1748 -79.1730 -79.1730
   -79.1720 -79.1720 -79.1706 -79.1706 -79.1706 -79.1706 -79.1702 -79.1702
   -79.1696 -79.1696 -79.1696 -79.1696 -79.1692 -79.1692 -79.1682 -79.1682
   -79.1667 -79.1667 -79.1667 -79.1667 -79.1634 -79.1634 -79.1634 -79.1634
   -79.1625 -79.1625 -79.1598 -79.1598 -79.1588 -79.1588 -79.1559 -79.1558
   -79.0106 -79.0106 -79.0106 -79.0106 -79.0105 -79.0105 -79.0105 -79.0105
   -79.0081 -79.0081 -79.0081 -79.0080 -79.0074 -79.0074 -79.0072 -79.0072
   -79.0071 -79.0071 -79.0070 -79.0070 -79.0064 -79.0064 -79.0063 -79.0063
   -79.0050 -79.0050 -79.0050 -79.0050 -79.0050 -79.0050 -79.0050 -79.0050
   -79.0047 -79.0046 -79.0046 -79.0046 -79.0041 -79.0041 -79.0041 -79.0041
   -79.0040 -79.0040 -79.0040 -79.0040 -79.0037 -79.0037 -79.0036 -79.0036
   -79.0026 -79.0026 -79.0026 -79.0026 -79.0025 -79.0025 -79.0025 -79.0025
   -78.9977 -78.9977 -78.9976 -78.9976 -78.9911 -78.9911 -78.9910 -78.9910
   -78.9896 -78.9896 -78.9895 -78.9895 -78.9895 -78.9895 -78.9895 -78.9895
   -78.9862 -78.9862 -78.9862 -78.9862 -78.9862 -78.9862 -78.9862 -78.9862
   -78.9854 -78.9854 -78.9854 -78.9854 -78.9826 -78.9826 -78.9826 -78.9826
   -78.9816 -78.9816 -78.9816 -78.9816 -78.9788 -78.9787 -78.9787 -78.9787
    -8.1244  -8.1244  -7.2857  -7.2857  -7.0093  -7.0093  -6.8351  -6.8351
    -6.8193  -6.8193  -6.7089  -6.7089  -6.7089  -6.7089  -6.6297  -6.6297
    -6.6095  -6.6095  -6.6095  -6.6095  -6.6074  -6.6074  -6.5770  -6.5770
    -6.5770  -6.5770  -6.5218  -6.5218  -6.5117  -6.5117  -6.5117  -6.5117
    -6.4855  -6.4855  -6.4556  -6.4556  -6.4556  -6.4556  -6.4393  -6.4393
    -6.4393  -6.4393  -6.4355  -6.4355  -6.4154  -6.4154  -6.4026  -6.4026
    -6.4026  -6.4026  -6.3868  -6.3868  -6.2877  -6.2877  -6.2754  -6.2754
    -6.2754  -6.2754  -6.2699  -6.2699  -6.2604  -6.2604  -6.2505  -6.2505
    -6.2505  -6.2505  -6.2081  -6.2081  -6.1998  -6.1998  -6.1998  -6.1998
    -6.1747  -6.1747  -6.1741  -6.1741  -6.1300  -6.1300  -6.1208  -6.1208
    -6.0958  -6.0958  -6.0816  -6.0816  -6.0627  -6.0627  -6.0627  -6.0627
    -6.0279  -6.0279  -6.0279  -6.0279  -6.0264  -6.0264  -6.0162  -6.0162
    -6.0064  -6.0064  -6.0015  -6.0015  -5.9701  -5.9701  -5.9701  -5.9701
    -5.9662  -5.9662  -5.9315  -5.9315  -5.9191  -5.9191  -5.8955  -5.8955
    -5.8890  -5.8890  -5.8408  -5.8408  -5.8408  -5.8408  -5.7976  -5.7976
    -5.7888  -5.7888  -5.7888  -5.7887  -5.7847  -5.7847  -5.7711  -5.7711
    -5.7696  -5.7696  -5.7668  -5.7668  -5.7502  -5.7502  -5.7502  -5.7502
    -5.7477  -5.7477  -5.7477  -5.7477  -5.7450  -5.7449  -5.7281  -5.7281
    -5.7280  -5.7280  -5.7154  -5.7154  -5.6597  -5.6597  -5.6579  -5.6579
    -5.6430  -5.6430  -5.6237  -5.6237  -5.6237  -5.6237  -5.6097  -5.6097
    -5.5969  -5.5969  -5.5859  -5.5859  -5.5859  -5.5859  -5.5750  -5.5750
    -5.5548  -5.5548  -5.5194  -5.5194  -5.5129  -5.5129  -5.5129  -5.5129
    -5.5056  -5.5056  -5.5048  -5.5048  -5.5031  -5.5031  -5.5031  -5.5031
    -5.4800  -5.4800  -5.4800  -5.4800  -5.4759  -5.4759  -5.4723  -5.4723
    -5.4651  -5.4651  -5.4645  -5.4645  -5.4454  -5.4454  -5.4454  -5.4454
    -5.4349  -5.4349  -5.4349  -5.4349  -5.4249  -5.4249  -5.4034  -5.4034
    -5.3947  -5.3947  -5.3895  -5.3895  -5.3883  -5.3883  -5.3876  -5.3876
    -5.3876  -5.3876  -5.3863  -5.3863  -5.3592  -5.3592  -5.3532  -5.3532
    -5.3366  -5.3366  -5.3366  -5.3366  -5.3083  -5.3083  -5.3083  -5.3083
    -5.2398  -5.2398  -5.2398  -5.2398  -5.2152  -5.2152  -5.2152  -5.2152
    -5.2115  -5.2115  -5.1879  -5.1879  -5.1850  -5.1850  -4.6818  -4.6818
    -4.3913  -4.3913  -4.3913  -4.3913  -3.6997  -3.6997  -3.0935  -3.0935
    -3.0439  -3.0439  -3.0439  -3.0439  -2.3733  -2.3733  -2.2223  -2.2223
    -1.7281  -1.7281  -1.7281  -1.7281  -0.7358  -0.7358  -0.7358  -0.7358
    -0.3082  -0.3082  -0.3082  -0.3082  -0.0754  -0.0754   0.0332   0.0332
     1.0535   1.0535   1.0647   1.0647   1.3656   1.3656   1.3942   1.3942
     1.3943   1.3943   2.2410   2.2410   2.9256   2.9256   2.9256   2.9256
     3.1175   3.1175   3.1176   3.1176   3.3395   3.3395   3.5656   3.5656
     3.8844   3.8844   3.8844   3.8844   4.0148   4.0148   4.2875   4.2875
     4.4568   4.4568   4.7661   4.7661   4.8870   4.8870   5.5029   5.5029
     5.5205   5.5205   5.7157   5.7157   5.8174   5.8174   5.9445   5.9445
     5.9445   5.9445   6.0017   6.0017   6.0017   6.0017   6.1643   6.1643
     6.1643   6.1643   6.4224   6.4224   6.5772   6.5772   6.6341   6.6341
     6.6567   6.6567   6.8418   6.8418   6.8771   6.8771   7.0425   7.0425
     7.0425   7.0425   7.5794   7.5794   7.7394   7.7394   8.0790   8.0790
     8.0930   8.0930   8.0930   8.0930   8.2964   8.2964   8.4673   8.4673
     8.4673   8.4673   8.6358   8.6358   8.6358   8.6358   8.6619   8.6619
     8.7557   8.7557   8.8097   8.8097   9.0112   9.0112   9.0112   9.0112

     occupation numbers 
     1.0000   1.0000   1.0000   1.0000   1.0000   1.0000   1.0000   1.0000
     1.0000   1.0000   1.0000   1.0000   1.0000   1.0000   1.0000   1.0000
     1.0000   1.0000   1.0000   1.0000   1.0000   1.0000   1.0000   1.0000
     1.0000   1.0000   1.0000   1.0000   1.0000   1.0000   1.0000   1.0000
     1.0000   1.0000   1.0000   1.0000   1.0000   1.0000   1.0000   1.0000
     1.0000   1.0000   1.0000   1.0000   1.0000   1.0000   1.0000   1.0000
     1.0000   1.0000   1.0000   1.0000   1.0000   1.0000   1.0000   1.0000
     1.0000   1.0000   1.0000   1.0000   1.0000   1.0000   1.0000   1.0000
     1.0000   1.0000   1.0000   1.0000   1.0000   1.0000   1.0000   1.0000
     1.0000   1.0000   1.0000   1.0000   1.0000   1.0000   1.0000   1.0000
     1.0000   1.0000   1.0000   1.0000   1.0000   1.0000   1.0000   1.0000
     1.0000   1.0000   1.0000   1.0000   1.0000   1.0000   1.0000   1.0000
     1.0000   1.0000   1.0000   1.0000   1.0000   1.0000   1.0000   1.0000
     1.0000   1.0000   1.0000   1.0000   1.0000   1.0000   1.0000   1.0000
     1.0000   1.0000   1.0000   1.0000   1.0000   1.0000   1.0000   1.0000
     1.0000   1.0000   1.0000   1.0000   1.0000   1.0000   1.0000   1.0000
     1.0000   1.0000   1.0000   1.0000   1.0000   1.0000   1.0000   1.0000
     1.0000   1.0000   1.0000   1.0000   1.0000   1.0000   1.0000   1.0000
     1.0000   1.0000   1.0000   1.0000   1.0000   1.0000   1.0000   1.0000
     1.0000   1.0000   1.0000   1.0000   1.0000   1.0000   1.0000   1.0000
     1.0000   1.0000   1.0000   1.0000   1.0000   1.0000   1.0000   1.0000
     1.0000   1.0000   1.0000   1.0000   1.0000   1.0000   1.0000   1.0000
     1.0000   1.0000   1.0000   1.0000   1.0000   1.0000   1.0000   1.0000
     1.0000   1.0000   1.0000   1.0000   1.0000   1.0000   1.0000   1.0000
     1.0000   1.0000   1.0000   1.0000   1.0000   1.0000   1.0000   1.0000
     1.0000   1.0000   1.0000   1.0000   1.0000   1.0000   1.0000   1.0000
     1.0000   1.0000   1.0000   1.0000   1.0000   1.0000   1.0000   1.0000
     1.0000   1.0000   1.0000   1.0000   1.0000   1.0000   1.0000   1.0000
     1.0000   1.0000   1.0000   1.0000   1.0000   1.0000   1.0000   1.0000
     1.0000   1.0000   1.0000   1.0000   1.0000   1.0000   1.0000   1.0000
     1.0000   1.0000   1.0000   1.0000   1.0000   1.0000   1.0000   1.0000
     1.0000   1.0000   1.0000   1.0000   1.0000   1.0000   1.0000   1.0000
     1.0000   1.0000   1.0000   1.0000   1.0000   1.0000   1.0000   1.0000
     1.0000   1.0000   1.0000   1.0000   1.0000   1.0000   1.0000   1.0000
     1.0000   1.0000   1.0000   1.0000   1.0000   1.0000   1.0000   1.0000
     1.0000   1.0000   1.0000   1.0000   1.0000   1.0000   1.0000   1.0000
     1.0000   1.0000   1.0000   1.0000   1.0000   1.0000   1.0000   1.0000
     1.0000   1.0000   1.0000   1.0000   1.0000   1.0000   1.0000   1.0000
     1.0000   1.0000   1.0000   1.0000   1.0000   1.0000   1.0000   1.0000
     1.0000   1.0000   1.0000   1.0000   1.0000   1.0000   1.0000   1.0000
     1.0000   1.0000   1.0000   1.0000   1.0000   1.0000   1.0000   1.0000
     1.0000   1.0000   1.0000   1.0000   1.0000   1.0000   1.0000   1.0000
     1.0000   1.0000   1.0000   1.0000   1.0000   1.0000   1.0000   1.0000
     1.0000   1.0000   1.0000   1.0000   1.0000   1.0000   1.0000   1.0000
     1.0000   1.0000   1.0000   1.0000   1.0000   1.0000   1.0000   1.0000
     1.0000   1.0000   1.0000   1.0000   1.0000   1.0000   1.0000   1.0000
     1.0000   1.0000   1.0000   1.0000   1.0000   1.0000   1.0000   1.0000
     1.0000   1.0000   1.0000   1.0000   1.0000   1.0000   1.0000   1.0000
     1.0000   1.0000   1.0000   1.0000   1.0000   1.0000   1.0000   1.0000
     1.0000   1.0000   1.0000   1.0000   1.0000   1.0000   1.0000   1.0000
     1.0000   1.0000   1.0000   1.0000   1.0000   1.0000   1.0000   1.0000
     1.0000   1.0000   1.0000   1.0000   1.0000   1.0000   1.0000   1.0000
     1.0000   1.0000   1.0000   1.0000   1.0000   1.0000   1.0000   1.0000
     1.0000   1.0000   1.0000   1.0000   1.0000   1.0000   1.0000   1.0000
     1.0000   1.0000   1.0000   1.0000   1.0000   1.0000   1.0000   1.0000
     1.0000   1.0000   1.0000   1.0000   1.0000   1.0000   1.0000   1.0000
     1.0000   1.0000   1.0000   1.0000   1.0000   1.0000   1.0000   1.0000
     1.0000   1.0000   1.0000   1.0000   1.0000   1.0000   1.0000   1.0000
     1.0000   1.0000   1.0000   1.0000   1.0000   1.0000   1.0000   1.0000
     1.0000   1.0000   1.0000   1.0000   1.0711   1.0711   0.9413   0.9413
     0.9413   0.9413   0.0000   0.0000   0.0000   0.0000   0.0000   0.0000
     0.0000   0.0000   0.0000   0.0000   0.0000   0.0000   0.0000   0.0000
     0.0000   0.0000   0.0000   0.0000   0.0000   0.0000   0.0000   0.0000
     0.0000   0.0000   0.0000   0.0000   0.0000   0.0000   0.0000   0.0000
     0.0000   0.0000   0.0000   0.0000   0.0000   0.0000   0.0000   0.0000
     0.0000   0.0000   0.0000   0.0000   0.0000   0.0000   0.0000   0.0000
     0.0000   0.0000   0.0000   0.0000   0.0000   0.0000   0.0000   0.0000
     0.0000   0.0000   0.0000   0.0000   0.0000   0.0000   0.0000   0.0000
     0.0000   0.0000   0.0000   0.0000   0.0000   0.0000   0.0000   0.0000
     0.0000   0.0000   0.0000   0.0000   0.0000   0.0000   0.0000   0.0000
     0.0000   0.0000   0.0000   0.0000   0.0000   0.0000   0.0000   0.0000
     0.0000   0.0000   0.0000   0.0000   0.0000   0.0000   0.0000   0.0000

     the Fermi energy is     1.4478 ev

!    total energy              =  -22154.25243793 Ry
     estimated scf accuracy    <       0.00000053 Ry
     smearing contrib. (-TS)   =      -0.00048093 Ry
     internal energy E=F+TS    =  -22154.25195700 Ry

     The total energy is F=E-TS. E is the sum of the following terms:
     one-electron contribution = -144867.05725731 Ry
     hartree contribution      =   72367.71659160 Ry
     xc contribution           =   -2024.15923498 Ry
     ewald contribution        =   52369.24794370 Ry

     convergence has been achieved in  11 iterations

     Writing all to output data dir ./tmp/Zn002.save/ :
     XML data file, charge density, pseudopotentials, collected wavefunctions

     init_run     :    113.07s CPU    113.84s WALL (       1 calls)
     electrons    :   4909.61s CPU   4943.20s WALL (       1 calls)

     Called by init_run:
     wfcinit      :    111.78s CPU    112.49s WALL (       1 calls)
     wfcinit:atom :      0.08s CPU      0.13s WALL (      10 calls)
     wfcinit:wfcr :    110.65s CPU    111.22s WALL (      10 calls)
     potinit      :      0.07s CPU      0.08s WALL (       1 calls)
     hinit0       :      0.03s CPU      0.04s WALL (       1 calls)

     Called by electrons:
     c_bands      :   4568.76s CPU   4600.08s WALL (      12 calls)
     sum_band     :    330.29s CPU    332.16s WALL (      12 calls)
     v_of_rho     :      0.81s CPU      0.85s WALL (      12 calls)
     v_h          :      0.05s CPU      0.06s WALL (      12 calls)
     v_xc         :      0.76s CPU      0.79s WALL (      12 calls)
     newd         :     10.49s CPU     10.79s WALL (      12 calls)
     mix_rho      :      0.10s CPU      0.11s WALL (      12 calls)

     Called by c_bands:
     init_us_2    :      4.73s CPU      4.75s WALL (     250 calls)
     cegterg      :   4559.25s CPU   4590.42s WALL (     120 calls)

     Called by sum_band:
     sum_band:wei :      0.05s CPU      0.05s WALL (      12 calls)
     sum_band:loo :    319.62s CPU    321.17s WALL (      12 calls)
     sum_band:buf :      1.05s CPU      1.08s WALL (     120 calls)
     sum_band:ini :      2.26s CPU      2.27s WALL (     120 calls)
     sum_band:cal :    273.28s CPU    274.50s WALL (     120 calls)
     sum_band:bec :      2.44s CPU      2.45s WALL (     120 calls)
     addusdens    :     10.43s CPU     10.73s WALL (      12 calls)
                                        0.00s GPU  (      12 calls)
     addusd:skk   :      0.10s CPU      0.11s WALL (      12 calls)
                                        0.00s GPU  (      12 calls)

     Called by *egterg:
     cdiaghg      :    297.56s CPU    308.14s WALL (     690 calls)
     cegterg:over :    713.04s CPU    715.39s WALL (     580 calls)
     cegterg:upda :    314.51s CPU    316.33s WALL (     580 calls)
     cegterg:last :   1091.88s CPU   1098.09s WALL (     239 calls)
     cdiaghg:chol :     18.82s CPU     18.87s WALL (     690 calls)
     cdiaghg:inve :      2.98s CPU      2.99s WALL (     690 calls)
     cdiaghg:para :     77.86s CPU     79.32s WALL (    1380 calls)
     h_psi        :   1426.44s CPU   1433.20s WALL (     710 calls)
     s_psi        :    592.04s CPU    593.44s WALL (     710 calls)
     g_psi        :      0.62s CPU      0.62s WALL (     580 calls)

     Called by h_psi:
     h_psi:calbec :    646.85s CPU    649.78s WALL (     710 calls)
     vloc_psi     :    182.94s CPU    184.35s WALL (     710 calls)
     add_vuspsi   :    594.82s CPU    596.27s WALL (     710 calls)

     General routines
     calbec       :    920.13s CPU    924.28s WALL (     830 calls)
     fft          :      0.53s CPU      0.60s WALL (     154 calls)
     ffts         :      0.02s CPU      0.03s WALL (      24 calls)
     fftw         :    195.34s CPU    196.77s WALL (  395822 calls)
     interpolate  :      0.05s CPU      0.06s WALL (      12 calls)

     Parallel routines

     PWSCF        :      1h23m CPU      1h24m WALL


   This run was terminated on:  17:43:15  26Mar2025            

=------------------------------------------------------------------------------=
   JOB DONE.
=------------------------------------------------------------------------------=
Note: The following floating-point exceptions are signalling: IEEE_DENORMAL
Note: The following floating-point exceptions are signalling: IEEE_DENORMAL
Note: The following floating-point exceptions are signalling: IEEE_DENORMAL
Note: The following floating-point exceptions are signalling: IEEE_DENORMAL
Note: The following floating-point exceptions are signalling: IEEE_DENORMAL
Note: The following floating-point exceptions are signalling: IEEE_DENORMAL
Note: The following floating-point exceptions are signalling: IEEE_DENORMAL
Note: The following floating-point exceptions are signalling: IEEE_DENORMAL
Note: The following floating-point exceptions are signalling: IEEE_DENORMAL
Note: The following floating-point exceptions are signalling: IEEE_DENORMAL
Note: The following floating-point exceptions are signalling: IEEE_DENORMAL
Note: The following floating-point exceptions are signalling: IEEE_DENORMAL
