--------------------------------------------------------------------------
By default, for Open MPI 4.0 and later, infiniband ports on a device
are not used by default.  The intent is to use UCX for these devices.
You can override this policy by setting the btl_openib_allow_ib MCA parameter
to true.

  Local host:              psid04
  Local adapter:           mlx5_0
  Local port:              1

--------------------------------------------------------------------------
--------------------------------------------------------------------------
WARNING: There was an error initializing an OpenFabrics device.

  Local host:   psid04
  Local device: mlx5_0
--------------------------------------------------------------------------

     Program PWSCF v.7.3.1 starts on 17Mar2025 at 14:35: 5 

     This program is part of the open-source Quantum ESPRESSO suite
     for quantum simulation of materials; please cite
         "P. Giannozzi et al., J. Phys.:Condens. Matter 21 395502 (2009);
         "P. Giannozzi et al., J. Phys.:Condens. Matter 29 465901 (2017);
         "P. Giannozzi et al., J. Chem. Phys. 152 154105 (2020);
          URL http://www.quantum-espresso.org", 
     in publications or presentations arising from this work. More details at
     http://www.quantum-espresso.org/quote

     Parallel version (MPI), running on    32 processors

     MPI processes distributed on     1 nodes
     112483 MiB available memory on the printing compute node when the environment starts

     Waiting for input...
     Reading input from standard input
Warning: card &CELL ignored
Warning: card   CELL_DOFREE = 'ALL' ignored
Warning: card / ignored

     Current dimensions of program PWSCF are:
     Max number of different atomic species (ntypx) = 10
     Max number of k-points (npk) =  40000
     Max angular momentum in pseudopotentials (lmaxx) =  4
     Found identity + (  0.5000  0.0000  0.0000) symmetry
     This is a supercell, fractional translations are disabled

     R & G space division:  proc/nbgrp/npool/nimage =      32
     Subspace diagonalization in iterative solution of the eigenvalue problem:
     one sub-group per band group will be used
     custom distributed-memory algorithm (size of sub-group:  5*  5 procs)


     Parallelization info
     --------------------
     sticks:   dense  smooth     PW     G-vecs:    dense   smooth      PW
     Min         101     101     26                10531    10531    1466
     Max         102     102     27                10543    10543    1481
     Sum        3241    3241    859               337189   337189   47187

     Using Slab Decomposition



     bravais-lattice index     =            0
     lattice parameter (alat)  =      19.7617  a.u.
     unit-cell volume          =   15176.5939 (a.u.)^3
     number of atoms/cell      =           64
     number of atomic types    =            1
     number of electrons       =      1280.00
     number of Kohn-Sham states=          768
     kinetic-energy cutoff     =      30.0000  Ry
     charge density cutoff     =     120.0000  Ry
     scf convergence threshold =      7.3E-07
     mixing beta               =       0.7000
     number of iterations used =            8  plain     mixing
     energy convergence thresh.=      1.0E-05
     force convergence thresh. =      5.0E-04
     Exchange-correlation= SLA  PW   PBE  PBE
                           (   1   4   3   4   0   0   0)
     nstep                     =          100


     celldm(1)=  19.761696  celldm(2)=   0.000000  celldm(3)=   0.000000
     celldm(4)=   0.000000  celldm(5)=   0.000000  celldm(6)=   0.000000

     crystal axes: (cart. coord. in units of alat)
               a(1) = (   1.000000   0.000000   0.000000 )  
               a(2) = (  -0.500000   0.866025   0.000000 )  
               a(3) = (   0.000000   0.000000   2.270759 )  

     reciprocal axes: (cart. coord. in units 2 pi/alat)
               b(1) = (  1.000000  0.577350 -0.000000 )  
               b(2) = (  0.000000  1.154701  0.000000 )  
               b(3) = (  0.000000 -0.000000  0.440381 )  


     PseudoPot. # 1 for Zn read from file:
     /home/ys/qepseudo/SSSP_1.3.0_PBE_efficiency/Zn_pbe_v1.uspp.F.UPF
     MD5 check sum: df62231357ef9e81f77b2b3087fa5675
     Pseudo is Ultrasoft, Zval = 20.0
     Generated by new atomic code, or converted to UPF format
     Using radial grid of  943 points,  6 beta functions with: 
                l(1) =   0
                l(2) =   0
                l(3) =   1
                l(4) =   1
                l(5) =   2
                l(6) =   2
     Q(r) pseudized with  8 coefficients,  rinner =    1.100   1.100   1.100
                                                       1.100   1.100

     atomic species   valence    mass     pseudopotential
     Zn               20.00    65.38000     Zn( 1.00)

     No symmetry found


                                    s                        frac. trans.

      isym =  1     identity                                     

 cryst.   s( 1) = (     1          0          0      )
                  (     0          1          0      )
                  (     0          0          1      )

 cart.    s( 1) = (  1.0000000  0.0000000  0.0000000 )
                  (  0.0000000  1.0000000  0.0000000 )
                  (  0.0000000  0.0000000  1.0000000 )


   Cartesian axes

     site n.     atom                  positions (alat units)
         1        Zn     tau(   1) = (  -0.0000000   0.1443376   0.1164999  )
         2        Zn     tau(   2) = (   0.5000000   0.1443376   0.1164999  )
         3        Zn     tau(   3) = (  -0.0000001   0.1447994   0.5968783  )
         4        Zn     tau(   4) = (   0.4999999   0.1447994   0.5968783  )
         5        Zn     tau(   5) = (  -0.1250000   0.3608439   0.1164999  )
         6        Zn     tau(   6) = (   0.3750000   0.3608439   0.1164999  )
         7        Zn     tau(   7) = (  -0.1250002   0.3613666   0.5969173  )
         8        Zn     tau(   8) = (   0.3749998   0.3613666   0.5969173  )
         9        Zn     tau(   9) = (  -0.2500000   0.5773503   0.1164999  )
        10        Zn     tau(  10) = (   0.2500000   0.5773503   0.1164999  )
        11        Zn     tau(  11) = (  -0.2500000   0.5778387   0.5969571  )
        12        Zn     tau(  12) = (   0.2500000   0.5778387   0.5969571  )
        13        Zn     tau(  13) = (  -0.3750000   0.7938566   0.1164999  )
        14        Zn     tau(  14) = (   0.1250000   0.7938566   0.1164999  )
        15        Zn     tau(  15) = (  -0.3749999   0.7942897   0.5969345  )
        16        Zn     tau(  16) = (   0.1250001   0.7942897   0.5969345  )
        17        Zn     tau(  17) = (   0.2500000   0.1443376   0.1164999  )
        18        Zn     tau(  18) = (   0.7500000   0.1443376   0.1164999  )
        19        Zn     tau(  19) = (   0.2500003   0.1447995   0.5968785  )
        20        Zn     tau(  20) = (   0.7500003   0.1447995   0.5968785  )
        21        Zn     tau(  21) = (   0.1250000   0.3608439   0.1164999  )
        22        Zn     tau(  22) = (   0.6250000   0.3608439   0.1164999  )
        23        Zn     tau(  23) = (   0.1250002   0.3613668   0.5969171  )
        24        Zn     tau(  24) = (   0.6250002   0.3613668   0.5969171  )
        25        Zn     tau(  25) = (  -0.0000000   0.5773503   0.1164999  )
        26        Zn     tau(  26) = (   0.5000000   0.5773503   0.1164999  )
        27        Zn     tau(  27) = (   0.0000001   0.5778388   0.5969569  )
        28        Zn     tau(  28) = (   0.5000001   0.5778388   0.5969569  )
        29        Zn     tau(  29) = (  -0.1250000   0.7938566   0.1164999  )
        30        Zn     tau(  30) = (   0.3750000   0.7938566   0.1164999  )
        31        Zn     tau(  31) = (  -0.1250001   0.7942898   0.5969345  )
        32        Zn     tau(  32) = (   0.3749999   0.7942898   0.5969345  )
        33        Zn     tau(  33) = (   0.1250000   0.0721688   0.3494996  )
        34        Zn     tau(  34) = (   0.6250000   0.0721688   0.3494996  )
        35        Zn     tau(  35) = (   0.1249999   0.0711665   0.8442470  )
        36        Zn     tau(  36) = (   0.6249999   0.0711665   0.8442470  )
        37        Zn     tau(  37) = (   0.0000000   0.2886751   0.3494996  )
        38        Zn     tau(  38) = (   0.5000000   0.2886751   0.3494996  )
        39        Zn     tau(  39) = (   0.0000001   0.2877304   0.8442679  )
        40        Zn     tau(  40) = (   0.5000001   0.2877304   0.8442679  )
        41        Zn     tau(  41) = (  -0.1250000   0.5051815   0.3494996  )
        42        Zn     tau(  42) = (   0.3750000   0.5051815   0.3494996  )
        43        Zn     tau(  43) = (  -0.1249999   0.5042379   0.8439934  )
        44        Zn     tau(  44) = (   0.3750001   0.5042379   0.8439934  )
        45        Zn     tau(  45) = (  -0.2500000   0.7216878   0.3494996  )
        46        Zn     tau(  46) = (   0.2500000   0.7216878   0.3494996  )
        47        Zn     tau(  47) = (  -0.2500000   0.7206870   0.8439737  )
        48        Zn     tau(  48) = (   0.2500000   0.7206870   0.8439737  )
        49        Zn     tau(  49) = (   0.3750000   0.0721688   0.3494996  )
        50        Zn     tau(  50) = (   0.8750000   0.0721688   0.3494996  )
        51        Zn     tau(  51) = (   0.3750001   0.0711664   0.8442470  )
        52        Zn     tau(  52) = (   0.8750001   0.0711664   0.8442470  )
        53        Zn     tau(  53) = (   0.2500000   0.2886751   0.3494996  )
        54        Zn     tau(  54) = (   0.7500000   0.2886751   0.3494996  )
        55        Zn     tau(  55) = (   0.2500000   0.2877304   0.8442683  )
        56        Zn     tau(  56) = (   0.7500000   0.2877304   0.8442683  )
        57        Zn     tau(  57) = (   0.1250000   0.5051815   0.3494996  )
        58        Zn     tau(  58) = (   0.6250000   0.5051815   0.3494996  )
        59        Zn     tau(  59) = (   0.1249999   0.5042378   0.8439933  )
        60        Zn     tau(  60) = (   0.6249999   0.5042378   0.8439933  )
        61        Zn     tau(  61) = (   0.0000000   0.7216878   0.3494996  )
        62        Zn     tau(  62) = (   0.5000000   0.7216878   0.3494996  )
        63        Zn     tau(  63) = (   0.0000001   0.7206869   0.8439736  )
        64        Zn     tau(  64) = (   0.5000001   0.7206869   0.8439736  )

   Crystallographic axes

     site n.     atom                  positions (cryst. coord.)
         1        Zn     tau(   1) = (  0.0833333  0.1666667  0.0513044  )
         2        Zn     tau(   2) = (  0.5833333  0.1666667  0.0513044  )
         3        Zn     tau(   3) = (  0.0835998  0.1671999  0.2628541  )
         4        Zn     tau(   4) = (  0.5835998  0.1671999  0.2628541  )
         5        Zn     tau(   5) = (  0.0833333  0.4166667  0.0513044  )
         6        Zn     tau(   6) = (  0.5833333  0.4166667  0.0513044  )
         7        Zn     tau(   7) = (  0.0836350  0.4172702  0.2628713  )
         8        Zn     tau(   8) = (  0.5836350  0.4172702  0.2628713  )
         9        Zn     tau(   9) = (  0.0833333  0.6666667  0.0513044  )
        10        Zn     tau(  10) = (  0.5833333  0.6666667  0.0513044  )
        11        Zn     tau(  11) = (  0.0836154  0.6672307  0.2628888  )
        12        Zn     tau(  12) = (  0.5836154  0.6672307  0.2628888  )
        13        Zn     tau(  13) = (  0.0833333  0.9166667  0.0513044  )
        14        Zn     tau(  14) = (  0.5833333  0.9166667  0.0513044  )
        15        Zn     tau(  15) = (  0.0835834  0.9171667  0.2628789  )
        16        Zn     tau(  16) = (  0.5835834  0.9171667  0.2628789  )
        17        Zn     tau(  17) = (  0.3333333  0.1666667  0.0513044  )
        18        Zn     tau(  18) = (  0.8333333  0.1666667  0.0513044  )
        19        Zn     tau(  19) = (  0.3336003  0.1672000  0.2628542  )
        20        Zn     tau(  20) = (  0.8336003  0.1672000  0.2628542  )
        21        Zn     tau(  21) = (  0.3333333  0.4166667  0.0513044  )
        22        Zn     tau(  22) = (  0.8333333  0.4166667  0.0513044  )
        23        Zn     tau(  23) = (  0.3336354  0.4172704  0.2628712  )
        24        Zn     tau(  24) = (  0.8336354  0.4172704  0.2628712  )
        25        Zn     tau(  25) = (  0.3333333  0.6666667  0.0513044  )
        26        Zn     tau(  26) = (  0.8333333  0.6666667  0.0513044  )
        27        Zn     tau(  27) = (  0.3336155  0.6672308  0.2628887  )
        28        Zn     tau(  28) = (  0.8336155  0.6672308  0.2628887  )
        29        Zn     tau(  29) = (  0.3333333  0.9166667  0.0513044  )
        30        Zn     tau(  30) = (  0.8333333  0.9166667  0.0513044  )
        31        Zn     tau(  31) = (  0.3335833  0.9171668  0.2628788  )
        32        Zn     tau(  32) = (  0.8335833  0.9171668  0.2628788  )
        33        Zn     tau(  33) = (  0.1666667  0.0833333  0.1539131  )
        34        Zn     tau(  34) = (  0.6666667  0.0833333  0.1539131  )
        35        Zn     tau(  35) = (  0.1660879  0.0821760  0.3717907  )
        36        Zn     tau(  36) = (  0.6660879  0.0821760  0.3717907  )
        37        Zn     tau(  37) = (  0.1666667  0.3333333  0.1539131  )
        38        Zn     tau(  38) = (  0.6666667  0.3333333  0.1539131  )
        39        Zn     tau(  39) = (  0.1661213  0.3322425  0.3717999  )
        40        Zn     tau(  40) = (  0.6661213  0.3322425  0.3717999  )
        41        Zn     tau(  41) = (  0.1666667  0.5833333  0.1539131  )
        42        Zn     tau(  42) = (  0.6666667  0.5833333  0.1539131  )
        43        Zn     tau(  43) = (  0.1661220  0.5822437  0.3716790  )
        44        Zn     tau(  44) = (  0.6661220  0.5822437  0.3716790  )
        45        Zn     tau(  45) = (  0.1666667  0.8333333  0.1539131  )
        46        Zn     tau(  46) = (  0.6666667  0.8333333  0.1539131  )
        47        Zn     tau(  47) = (  0.1660889  0.8321777  0.3716703  )
        48        Zn     tau(  48) = (  0.6660889  0.8321777  0.3716703  )
        49        Zn     tau(  49) = (  0.4166667  0.0833333  0.1539131  )
        50        Zn     tau(  50) = (  0.9166667  0.0833333  0.1539131  )
        51        Zn     tau(  51) = (  0.4160881  0.0821759  0.3717907  )
        52        Zn     tau(  52) = (  0.9160881  0.0821759  0.3717907  )
        53        Zn     tau(  53) = (  0.4166667  0.3333333  0.1539131  )
        54        Zn     tau(  54) = (  0.9166667  0.3333333  0.1539131  )
        55        Zn     tau(  55) = (  0.4161212  0.3322424  0.3718001  )
        56        Zn     tau(  56) = (  0.9161212  0.3322424  0.3718001  )
        57        Zn     tau(  57) = (  0.4166667  0.5833333  0.1539131  )
        58        Zn     tau(  58) = (  0.9166667  0.5833333  0.1539131  )
        59        Zn     tau(  59) = (  0.4161218  0.5822437  0.3716790  )
        60        Zn     tau(  60) = (  0.9161218  0.5822437  0.3716790  )
        61        Zn     tau(  61) = (  0.4166667  0.8333333  0.1539131  )
        62        Zn     tau(  62) = (  0.9166667  0.8333333  0.1539131  )
        63        Zn     tau(  63) = (  0.4160889  0.8321776  0.3716703  )
        64        Zn     tau(  64) = (  0.9160889  0.8321776  0.3716703  )

     number of k points=     5  Marzari-Vanderbilt smearing, width (Ry)=  0.0200
                       cart. coord. in units 2pi/alat
        k(    1) = (   0.0000000   0.0000000   0.0000000), wk =   0.2222222
        k(    2) = (   0.0000000   0.3849002   0.0000000), wk =   0.4444444
        k(    3) = (   0.3333333   0.1924501   0.0000000), wk =   0.4444444
        k(    4) = (   0.3333333   0.5773503   0.0000000), wk =   0.4444444
        k(    5) = (   0.3333333  -0.1924501   0.0000000), wk =   0.4444444

                       cryst. coord.
        k(    1) = (   0.0000000   0.0000000   0.0000000), wk =   0.2222222
        k(    2) = (   0.0000000   0.3333333   0.0000000), wk =   0.4444444
        k(    3) = (   0.3333333   0.0000000   0.0000000), wk =   0.4444444
        k(    4) = (   0.3333333   0.3333333   0.0000000), wk =   0.4444444
        k(    5) = (   0.3333333  -0.3333333   0.0000000), wk =   0.4444444

     Dense  grid:   337189 G-vectors     FFT dimensions: (  72,  72, 160)

     Dynamical RAM for                 wfc:      15.42 MB

     Dynamical RAM for     wfc (w. buffer):      92.53 MB

     Dynamical RAM for           str. fact:       0.16 MB

     Dynamical RAM for           local pot:       0.00 MB

     Dynamical RAM for          nlocal pot:      23.13 MB

     Dynamical RAM for                qrad:       0.88 MB

     Dynamical RAM for          rho,v,vnew:       1.08 MB

     Dynamical RAM for               rhoin:       0.36 MB

     Dynamical RAM for            rho*nmix:       2.57 MB

     Dynamical RAM for           G-vectors:       0.68 MB

     Dynamical RAM for          h,s,v(r/c):       4.31 MB

     Dynamical RAM for          <psi|beta>:      13.50 MB

     Dynamical RAM for                 psi:      30.84 MB

     Dynamical RAM for                hpsi:      30.84 MB

     Dynamical RAM for                spsi:      30.84 MB

     Dynamical RAM for      wfcinit/wfcrot:      49.26 MB

     Dynamical RAM for           addusdens:      40.19 MB

     Dynamical RAM for          addusforce:      60.78 MB

     Dynamical RAM for         addusstress:      32.31 MB

     Estimated static dynamical RAM per process >     120.13 MB

     Estimated max dynamical RAM per process >     233.05 MB

     Estimated total dynamical RAM >       7.28 GB

     Initial potential from superposition of free atoms

     starting charge    1279.9910, renormalised to    1280.0000

     negative rho (up, down):  1.593E-03 0.000E+00
     Starting wfcs are  832 randomized atomic wfcs
[psid04:144520] 31 more processes have sent help message help-mpi-btl-openib.txt / ib port not selected
[psid04:144520] Set MCA parameter "orte_base_help_aggregate" to 0 to see all help / error messages
[psid04:144520] 31 more processes have sent help message help-mpi-btl-openib.txt / error in device init

     total cpu time spent up to now is       65.3 secs

     Self-consistent Calculation

     iteration #  1     ecut=    30.00 Ry     beta= 0.70
     Davidson diagonalization with overlap

---- Real-time Memory Report at c_bands before calling an iterative solver
           196 MiB given to the printing process from OS
             0 MiB allocation reported by mallinfo(arena+hblkhd)
        108318 MiB available memory on the node where the printing process lives
------------------
     ethr =  1.00E-02,  avg # of iterations =  8.8

     Threshold (ethr) on eigenvalues was too large:
     Diagonalizing with lowered threshold

     Davidson diagonalization with overlap

---- Real-time Memory Report at c_bands before calling an iterative solver
           270 MiB given to the printing process from OS
             0 MiB allocation reported by mallinfo(arena+hblkhd)
        106854 MiB available memory on the node where the printing process lives
------------------
     ethr =  2.06E-04,  avg # of iterations =  6.2

     negative rho (up, down):  5.842E-03 0.000E+00

     total cpu time spent up to now is      588.6 secs

     total energy              =  -29534.08873738 Ry
     estimated scf accuracy    <       2.84079618 Ry

     iteration #  2     ecut=    30.00 Ry     beta= 0.70
     Davidson diagonalization with overlap

---- Real-time Memory Report at c_bands before calling an iterative solver
           270 MiB given to the printing process from OS
             0 MiB allocation reported by mallinfo(arena+hblkhd)
        106853 MiB available memory on the node where the printing process lives
------------------
     ethr =  2.22E-04,  avg # of iterations =  3.0

     negative rho (up, down):  7.178E-03 0.000E+00

     total cpu time spent up to now is      900.3 secs

     total energy              =  -29534.74884810 Ry
     estimated scf accuracy    <       4.65790166 Ry

     iteration #  3     ecut=    30.00 Ry     beta= 0.70
     Davidson diagonalization with overlap

---- Real-time Memory Report at c_bands before calling an iterative solver
           272 MiB given to the printing process from OS
             0 MiB allocation reported by mallinfo(arena+hblkhd)
        106754 MiB available memory on the node where the printing process lives
------------------
     ethr =  2.22E-04,  avg # of iterations =  4.0

     negative rho (up, down):  7.484E-03 0.000E+00

     total cpu time spent up to now is     1173.4 secs

     total energy              =  -29535.44384734 Ry
     estimated scf accuracy    <       0.78461362 Ry

     iteration #  4     ecut=    30.00 Ry     beta= 0.70
     Davidson diagonalization with overlap

---- Real-time Memory Report at c_bands before calling an iterative solver
           273 MiB given to the printing process from OS
             0 MiB allocation reported by mallinfo(arena+hblkhd)
        106744 MiB available memory on the node where the printing process lives
------------------
     ethr =  6.13E-05,  avg # of iterations = 11.2

     negative rho (up, down):  9.121E-03 0.000E+00

     total cpu time spent up to now is     1430.7 secs

     total energy              =  -29535.50785512 Ry
     estimated scf accuracy    <       1.46003451 Ry

     iteration #  5     ecut=    30.00 Ry     beta= 0.70
     Davidson diagonalization with overlap

---- Real-time Memory Report at c_bands before calling an iterative solver
           273 MiB given to the printing process from OS
             0 MiB allocation reported by mallinfo(arena+hblkhd)
        106732 MiB available memory on the node where the printing process lives
------------------
     ethr =  6.13E-05,  avg # of iterations =  5.4

     negative rho (up, down):  9.419E-03 0.000E+00

     total cpu time spent up to now is     1661.2 secs

     total energy              =  -29535.56933410 Ry
     estimated scf accuracy    <       0.22679913 Ry

     iteration #  6     ecut=    30.00 Ry     beta= 0.70
     Davidson diagonalization with overlap

---- Real-time Memory Report at c_bands before calling an iterative solver
           273 MiB given to the printing process from OS
             0 MiB allocation reported by mallinfo(arena+hblkhd)
        106721 MiB available memory on the node where the printing process lives
------------------
     ethr =  1.77E-05,  avg # of iterations =  7.6

     negative rho (up, down):  9.603E-03 0.000E+00

     total cpu time spent up to now is     1898.2 secs

     total energy              =  -29535.59266223 Ry
     estimated scf accuracy    <       0.01684712 Ry

     iteration #  7     ecut=    30.00 Ry     beta= 0.70
     Davidson diagonalization with overlap

---- Real-time Memory Report at c_bands before calling an iterative solver
           274 MiB given to the printing process from OS
             0 MiB allocation reported by mallinfo(arena+hblkhd)
        106711 MiB available memory on the node where the printing process lives
------------------
     ethr =  1.32E-06,  avg # of iterations =  9.0

     negative rho (up, down):  9.709E-03 0.000E+00

     total cpu time spent up to now is     2140.4 secs

     total energy              =  -29535.59428873 Ry
     estimated scf accuracy    <       0.00134070 Ry

     iteration #  8     ecut=    30.00 Ry     beta= 0.70
     Davidson diagonalization with overlap

---- Real-time Memory Report at c_bands before calling an iterative solver
           274 MiB given to the printing process from OS
             0 MiB allocation reported by mallinfo(arena+hblkhd)
        106700 MiB available memory on the node where the printing process lives
------------------
     ethr =  1.05E-07,  avg # of iterations =  2.0

     negative rho (up, down):  9.779E-03 0.000E+00

     total cpu time spent up to now is     2381.3 secs

     total energy              =  -29535.59441687 Ry
     estimated scf accuracy    <       0.00035340 Ry

     iteration #  9     ecut=    30.00 Ry     beta= 0.70
     Davidson diagonalization with overlap

---- Real-time Memory Report at c_bands before calling an iterative solver
           274 MiB given to the printing process from OS
             0 MiB allocation reported by mallinfo(arena+hblkhd)
        106689 MiB available memory on the node where the printing process lives
------------------
     ethr =  2.76E-08,  avg # of iterations =  2.0

     negative rho (up, down):  9.782E-03 0.000E+00

     total cpu time spent up to now is     2630.2 secs

     total energy              =  -29535.59448505 Ry
     estimated scf accuracy    <       0.00000849 Ry

     iteration # 10     ecut=    30.00 Ry     beta= 0.70
     Davidson diagonalization with overlap

---- Real-time Memory Report at c_bands before calling an iterative solver
           275 MiB given to the printing process from OS
             0 MiB allocation reported by mallinfo(arena+hblkhd)
        106676 MiB available memory on the node where the printing process lives
------------------
     ethr =  6.63E-10,  avg # of iterations =  2.0

     negative rho (up, down):  9.781E-03 0.000E+00

     total cpu time spent up to now is     2888.2 secs

     total energy              =  -29535.59448542 Ry
     estimated scf accuracy    <       0.00000427 Ry

     iteration # 11     ecut=    30.00 Ry     beta= 0.70
     Davidson diagonalization with overlap

---- Real-time Memory Report at c_bands before calling an iterative solver
           275 MiB given to the printing process from OS
             0 MiB allocation reported by mallinfo(arena+hblkhd)
        106664 MiB available memory on the node where the printing process lives
------------------
     ethr =  3.34E-10,  avg # of iterations =  2.0

     negative rho (up, down):  9.781E-03 0.000E+00

     total cpu time spent up to now is     3127.6 secs

     total energy              =  -29535.59448592 Ry
     estimated scf accuracy    <       0.00000214 Ry

     iteration # 12     ecut=    30.00 Ry     beta= 0.70
     Davidson diagonalization with overlap

---- Real-time Memory Report at c_bands before calling an iterative solver
           275 MiB given to the printing process from OS
             0 MiB allocation reported by mallinfo(arena+hblkhd)
        106664 MiB available memory on the node where the printing process lives
------------------
     ethr =  1.67E-10,  avg # of iterations =  2.0

     negative rho (up, down):  9.782E-03 0.000E+00

     total cpu time spent up to now is     3341.7 secs

     End of self-consistent calculation

          k = 0.0000 0.0000 0.0000 ( 42115 PWs)   bands (ev):

  -123.2416-123.2379-123.2379-123.2378-123.2377-123.2376-123.2376-123.2374
  -123.2373-123.2372-123.2368-123.2368-123.2367-123.2366-123.2365-123.2365
  -123.1535-123.1505-123.1505-123.1501-123.1501-123.1494-123.1493-123.1493
  -123.1491-123.1486-123.1486-123.1482-123.1481-123.1474-123.1474-123.1473
  -123.0794-123.0756-123.0756-123.0756-123.0756-123.0755-123.0755-123.0752
  -123.0752-123.0751-123.0747-123.0747-123.0746-123.0746-123.0745-123.0745
  -123.0131-123.0098-123.0098-123.0097-123.0092-123.0092-123.0092-123.0091
  -123.0090-123.0082-123.0082-123.0082-123.0078-123.0076-123.0076-123.0076
   -77.3499 -77.3498 -77.3498 -77.3405 -77.3405 -77.3405 -77.3405 -77.3404
   -77.3404 -77.3285 -77.3252 -77.3252 -77.3251 -77.3250 -77.3249 -77.3249
   -77.3248 -77.3246 -77.3245 -77.3244 -77.3244 -77.3243 -77.3242 -77.3241
   -77.3241 -77.3175 -77.3175 -77.3174 -77.3174 -77.3173 -77.3173 -77.3145
   -77.3145 -77.3144 -77.3144 -77.3143 -77.3143 -77.3132 -77.3131 -77.3099
   -77.3098 -77.3097 -77.3097 -77.3097 -77.3096 -77.3095 -77.3095 -77.3095
   -77.2613 -77.2611 -77.2610 -77.2521 -77.2521 -77.2517 -77.2516 -77.2513
   -77.2513 -77.2407 -77.2386 -77.2385 -77.2385 -77.2377 -77.2376 -77.2375
   -77.2374 -77.2368 -77.2368 -77.2367 -77.2367 -77.2359 -77.2358 -77.2357
   -77.2357 -77.2292 -77.2292 -77.2288 -77.2286 -77.2284 -77.2284 -77.2259
   -77.2259 -77.2257 -77.2255 -77.2252 -77.2252 -77.2244 -77.2238 -77.2219
   -77.2211 -77.2209 -77.2208 -77.2208 -77.2207 -77.2202 -77.2202 -77.2198
   -77.1844 -77.1844 -77.1844 -77.1750 -77.1750 -77.1749 -77.1749 -77.1749
   -77.1749 -77.1729 -77.1703 -77.1702 -77.1702 -77.1702 -77.1701 -77.1701
   -77.1701 -77.1700 -77.1700 -77.1697 -77.1697 -77.1697 -77.1696 -77.1696
   -77.1696 -77.1517 -77.1517 -77.1516 -77.1516 -77.1516 -77.1516 -77.1487
   -77.1487 -77.1486 -77.1486 -77.1486 -77.1486 -77.1474 -77.1474 -77.1443
   -77.1442 -77.1442 -77.1440 -77.1440 -77.1439 -77.1439 -77.1439 -77.1439
   -77.1167 -77.1167 -77.1166 -77.1095 -77.1077 -77.1077 -77.1075 -77.1075
   -77.1072 -77.1072 -77.1069 -77.1069 -77.1069 -77.1068 -77.1066 -77.1066
   -77.1066 -77.1058 -77.1057 -77.1056 -77.1055 -77.1054 -77.1053 -77.1053
   -77.1053 -77.0847 -77.0847 -77.0844 -77.0842 -77.0841 -77.0841 -77.0814
   -77.0814 -77.0812 -77.0811 -77.0809 -77.0809 -77.0800 -77.0797 -77.0776
   -77.0768 -77.0768 -77.0767 -77.0767 -77.0765 -77.0763 -77.0763 -77.0761
    -6.6040  -5.8597  -5.2186  -5.1188  -5.0489  -5.0489  -5.0482  -5.0482
    -5.0481  -5.0481  -4.9518  -4.9518  -4.9518  -4.8543  -4.8543  -4.8542
    -4.7823  -4.7823  -4.7823  -4.7366  -4.7366  -4.7355  -4.7355  -4.7353
    -4.7353  -4.6870  -4.6870  -4.6867  -4.6424  -4.6424  -4.6424  -4.6424
    -4.6423  -4.6423  -4.6045  -4.6045  -4.6042  -4.5279  -4.5279  -4.5278
    -4.5278  -4.5277  -4.5277  -4.5277  -4.5277  -4.5269  -4.5269  -4.5263
    -4.5263  -4.4925  -4.4924  -4.4919  -4.4871  -4.4871  -4.4870  -4.4869
    -4.4869  -4.4869  -4.4196  -4.4196  -4.4191  -4.4190  -4.4190  -4.4190
    -4.3912  -4.3512  -4.3512  -4.3509  -4.3509  -4.3508  -4.3508  -4.3321
    -4.3321  -4.3312  -4.3312  -4.3311  -4.3311  -4.3120  -4.3114  -4.3114
    -4.3064  -4.3064  -4.3062  -4.3062  -4.3059  -4.3059  -4.3046  -4.3045
    -4.3045  -4.3045  -4.3039  -4.3039  -4.2542  -4.2542  -4.2535  -4.2535
    -4.2534  -4.2534  -4.2016  -4.2015  -4.2008  -4.2008  -4.1998  -4.1998
    -4.1954  -4.1953  -4.1819  -4.1819  -4.1815  -4.1815  -4.1812  -4.1812
    -4.1761  -4.1716  -4.1715  -4.1472  -4.1472  -4.1471  -4.1471  -4.1467
    -4.1467  -4.1451  -4.1001  -4.1001  -4.0973  -4.0973  -4.0971  -4.0971
    -4.0968  -4.0968  -4.0881  -4.0881  -4.0877  -4.0877  -4.0875  -4.0875
    -4.0380  -4.0380  -4.0375  -4.0375  -4.0365  -4.0364  -4.0267  -4.0267
    -3.9993  -3.9993  -3.9992  -3.9992  -3.9991  -3.9991  -3.9515  -3.9515
    -3.9424  -3.9424  -3.9423  -3.9423  -3.9422  -3.9421  -3.9196  -3.9196
    -3.9191  -3.9191  -3.9189  -3.9189  -3.9017  -3.9017  -3.9016  -3.8886
    -3.8886  -3.8884  -3.8884  -3.8884  -3.8884  -3.8737  -3.8737  -3.8725
    -3.8725  -3.8720  -3.8720  -3.8645  -3.8645  -3.8643  -3.8643  -3.8640
    -3.8640  -3.8321  -3.8321  -3.8320  -3.8320  -3.8317  -3.8317  -3.8269
    -3.8269  -3.8234  -3.8207  -3.8207  -3.8206  -3.8206  -3.8204  -3.8204
    -3.8154  -3.8154  -3.8151  -3.8151  -3.8146  -3.8146  -3.7967  -3.7967
    -3.7966  -3.7965  -3.7965  -3.7965  -3.7582  -3.7582  -3.7567  -3.7567
    -3.7566  -3.7566  -3.7375  -3.7375  -3.7371  -3.7037  -3.7037  -3.7036
    -3.7036  -3.7034  -3.7034  -3.7004  -3.7004  -3.7003  -3.7002  -3.7001
    -3.7001  -3.6987  -3.6980  -3.6843  -3.6843  -3.6836  -3.6836  -3.6833
    -3.6833  -3.6756  -3.6756  -3.6755  -3.6755  -3.6752  -3.6752  -3.6541
    -3.6541  -3.6536  -3.6536  -3.6534  -3.6534  -3.6084  -3.6084  -3.6081
    -3.6081  -3.6081  -3.6081  -3.6081  -3.6081  -3.6043  -3.5892  -3.5891
    -3.5891  -3.5797  -3.5788  -3.5637  -3.5612  -3.5612  -3.5456  -3.5456
    -3.5454  -3.5454  -3.5454  -3.5454  -3.5373  -3.5370  -3.5370  -3.5303
    -3.5302  -3.5294  -3.5294  -3.5293  -3.5293  -3.5233  -3.5233  -3.5232
    -3.5232  -3.5232  -3.5232  -3.4853  -3.4853  -3.4848  -3.4832  -3.4832
    -3.4814  -3.4814  -3.4806  -3.4806  -3.4806  -3.4806  -3.4347  -3.4332
    -3.4209  -3.4209  -3.4208  -3.4208  -3.4208  -3.4208  -3.3826  -3.3826
    -3.3825  -3.3825  -3.3816  -3.3816  -3.3640  -3.3640  -3.3640  -3.2751
    -3.2750  -3.2750  -3.2192  -3.1975  -3.1975  -3.1975  -3.1298  -3.1298
    -3.1298  -3.0944  -3.0944  -3.0932  -3.0932  -3.0925  -3.0925  -1.6977
    -1.6977  -1.6976  -1.6976  -1.6972  -1.6972  -1.3298  -0.1548  -0.1548
    -0.1544  -0.1544  -0.1542  -0.1542   0.0936   0.0936   0.0937   0.0937
     0.0939   0.0939   0.6493   0.6493   0.6495   0.6495   0.6496   0.6496
     0.9057   1.1509   1.1509   1.1543   1.7162   1.7188   1.7188   1.9895
     1.9895   1.9903   2.0361   2.0361   2.0362   2.0362   2.0365   2.0365
     2.2750   2.2894   2.2895   3.1966   3.1966   3.1972   3.1972   3.1980
     3.1981   3.6388   3.6388   3.6390   3.6390   3.6393   3.6393   3.7316
     4.3037   4.3037   4.3193   4.6106   4.6106   4.6106   5.3407   5.3407
     5.3551   5.6304   5.6304   5.6311   5.6311   5.6311   5.6312   6.2599
     6.2665   6.2665   6.2728   7.0595   7.0595   7.0626   7.0626   7.0632
     7.0632   7.1869   7.2072   7.4087   7.4087   7.4095   7.4095   7.4112
     7.4113   7.5734   7.5735   7.5752   7.5752   7.5764   7.5765   8.0309
     8.0309   8.0318   8.0318   8.0324   8.0324   8.2327   8.2328   8.2494
     8.2575   8.2575   8.2593   8.2593   8.2617   8.2617   8.3229   8.3229
     8.3286   8.3286   8.3296   8.3296   8.7882   9.0026   9.0026   9.0028
     9.0029   9.0030   9.0030   9.0296   9.0373   9.0373   9.0374   9.0374
     9.0376   9.0377   9.2488   9.2488   9.2508   9.2508   9.2521   9.2521
     9.7419   9.7419   9.7445   9.7445   9.7458   9.7458   9.7872   9.7872
     9.7877   9.7877   9.7879   9.7880   9.8180   9.8471   9.8471  10.6009
    10.6009  10.6018  10.6018  10.6020  10.6020  10.7963  10.7963  10.7968
    10.7968  10.7975  10.7977  10.8664  10.8665  10.8709  11.2716  11.2716
    11.2722  11.2722  11.2723  11.2724  11.3405  11.3406  11.3409  11.3415

     occupation numbers 
     1.0000   1.0000   1.0000   1.0000   1.0000   1.0000   1.0000   1.0000
     1.0000   1.0000   1.0000   1.0000   1.0000   1.0000   1.0000   1.0000
     1.0000   1.0000   1.0000   1.0000   1.0000   1.0000   1.0000   1.0000
     1.0000   1.0000   1.0000   1.0000   1.0000   1.0000   1.0000   1.0000
     1.0000   1.0000   1.0000   1.0000   1.0000   1.0000   1.0000   1.0000
     1.0000   1.0000   1.0000   1.0000   1.0000   1.0000   1.0000   1.0000
     1.0000   1.0000   1.0000   1.0000   1.0000   1.0000   1.0000   1.0000
     1.0000   1.0000   1.0000   1.0000   1.0000   1.0000   1.0000   1.0000
     1.0000   1.0000   1.0000   1.0000   1.0000   1.0000   1.0000   1.0000
     1.0000   1.0000   1.0000   1.0000   1.0000   1.0000   1.0000   1.0000
     1.0000   1.0000   1.0000   1.0000   1.0000   1.0000   1.0000   1.0000
     1.0000   1.0000   1.0000   1.0000   1.0000   1.0000   1.0000   1.0000
     1.0000   1.0000   1.0000   1.0000   1.0000   1.0000   1.0000   1.0000
     1.0000   1.0000   1.0000   1.0000   1.0000   1.0000   1.0000   1.0000
     1.0000   1.0000   1.0000   1.0000   1.0000   1.0000   1.0000   1.0000
     1.0000   1.0000   1.0000   1.0000   1.0000   1.0000   1.0000   1.0000
     1.0000   1.0000   1.0000   1.0000   1.0000   1.0000   1.0000   1.0000
     1.0000   1.0000   1.0000   1.0000   1.0000   1.0000   1.0000   1.0000
     1.0000   1.0000   1.0000   1.0000   1.0000   1.0000   1.0000   1.0000
     1.0000   1.0000   1.0000   1.0000   1.0000   1.0000   1.0000   1.0000
     1.0000   1.0000   1.0000   1.0000   1.0000   1.0000   1.0000   1.0000
     1.0000   1.0000   1.0000   1.0000   1.0000   1.0000   1.0000   1.0000
     1.0000   1.0000   1.0000   1.0000   1.0000   1.0000   1.0000   1.0000
     1.0000   1.0000   1.0000   1.0000   1.0000   1.0000   1.0000   1.0000
     1.0000   1.0000   1.0000   1.0000   1.0000   1.0000   1.0000   1.0000
     1.0000   1.0000   1.0000   1.0000   1.0000   1.0000   1.0000   1.0000
     1.0000   1.0000   1.0000   1.0000   1.0000   1.0000   1.0000   1.0000
     1.0000   1.0000   1.0000   1.0000   1.0000   1.0000   1.0000   1.0000
     1.0000   1.0000   1.0000   1.0000   1.0000   1.0000   1.0000   1.0000
     1.0000   1.0000   1.0000   1.0000   1.0000   1.0000   1.0000   1.0000
     1.0000   1.0000   1.0000   1.0000   1.0000   1.0000   1.0000   1.0000
     1.0000   1.0000   1.0000   1.0000   1.0000   1.0000   1.0000   1.0000
     1.0000   1.0000   1.0000   1.0000   1.0000   1.0000   1.0000   1.0000
     1.0000   1.0000   1.0000   1.0000   1.0000   1.0000   1.0000   1.0000
     1.0000   1.0000   1.0000   1.0000   1.0000   1.0000   1.0000   1.0000
     1.0000   1.0000   1.0000   1.0000   1.0000   1.0000   1.0000   1.0000
     1.0000   1.0000   1.0000   1.0000   1.0000   1.0000   1.0000   1.0000
     1.0000   1.0000   1.0000   1.0000   1.0000   1.0000   1.0000   1.0000
     1.0000   1.0000   1.0000   1.0000   1.0000   1.0000   1.0000   1.0000
     1.0000   1.0000   1.0000   1.0000   1.0000   1.0000   1.0000   1.0000
     1.0000   1.0000   1.0000   1.0000   1.0000   1.0000   1.0000   1.0000
     1.0000   1.0000   1.0000   1.0000   1.0000   1.0000   1.0000   1.0000
     1.0000   1.0000   1.0000   1.0000   1.0000   1.0000   1.0000   1.0000
     1.0000   1.0000   1.0000   1.0000   1.0000   1.0000   1.0000   1.0000
     1.0000   1.0000   1.0000   1.0000   1.0000   1.0000   1.0000   1.0000
     1.0000   1.0000   1.0000   1.0000   1.0000   1.0000   1.0000   1.0000
     1.0000   1.0000   1.0000   1.0000   1.0000   1.0000   1.0000   1.0000
     1.0000   1.0000   1.0000   1.0000   1.0000   1.0000   1.0000   1.0000
     1.0000   1.0000   1.0000   1.0000   1.0000   1.0000   1.0000   1.0000
     1.0000   1.0000   1.0000   1.0000   1.0000   1.0000   1.0000   1.0000
     1.0000   1.0000   1.0000   1.0000   1.0000   1.0000   1.0000   1.0000
     1.0000   1.0000   1.0000   1.0000   1.0000   1.0000   1.0000   1.0000
     1.0000   1.0000   1.0000   1.0000   1.0000   1.0000   1.0000   1.0000
     1.0000   1.0000   1.0000   1.0000   1.0000   1.0000   1.0000   1.0000
     1.0000   1.0000   1.0000   1.0000   1.0000   1.0000   1.0000   1.0000
     1.0000   1.0000   1.0000   1.0000   1.0000   1.0000   1.0000   1.0000
     1.0000   1.0000   1.0000   1.0000   1.0000   1.0000   1.0000   1.0000
     1.0000   1.0000   1.0000   1.0000   1.0000   1.0000   1.0000   1.0000
     1.0000   1.0000   1.0000   1.0000   1.0000   1.0000   1.0000   1.0000
     1.0000   1.0000   1.0000   1.0000   1.0000   1.0000   1.0000   1.0000
     1.0000   1.0000   1.0000   1.0000   1.0000   1.0000   1.0000   1.0000
     1.0000   1.0000   1.0000   1.0000   1.0000   1.0000   1.0000   1.0000
     1.0000   1.0000   1.0000   1.0000   1.0000   1.0000   1.0000   1.0000
     1.0000   1.0000   1.0000   1.0000   1.0000   1.0000   1.0000   1.0000
     1.0000   1.0000   1.0000   1.0000   1.0000   1.0000   1.0000   1.0000
     1.0000   1.0000   1.0000   1.0000   1.0000   1.0000   1.0000   1.0000
     1.0000   1.0000   1.0000   1.0000   1.0000   1.0000   1.0000   1.0000
     1.0000   1.0000   1.0000   1.0000   1.0000   1.0000   1.0000   1.0000
     1.0000   1.0000   1.0000   1.0000   1.0000   1.0000   1.0000   1.0000
     1.0000   1.0000   1.0000   1.0000   1.0000   1.0000   1.0000   1.0000
     1.0000   1.0000   1.0000   1.0000   1.0000   1.0000   1.0000   1.0000
     1.0000   1.0000   1.0000   1.0000   1.0000   1.0000   1.0000   1.0000
     1.0000   1.0000   1.0000   1.0000   1.0000   1.0000   1.0000   1.0000
     1.0000   1.0000   1.0000   1.0000   1.0000   1.0000   1.0000   1.0000
     1.0000   1.0000   1.0000   1.0000   1.0000   1.0000   1.0000   1.0000
     1.0000   1.0000   1.0000   1.0000   1.0000   1.0000   1.0000   1.0000
     1.0000   1.0000   1.0000   1.0000   1.0000   1.0000   1.0000   1.0000
     1.0000   1.0000   1.0000   1.0000   1.0000   1.0000   1.0000   1.0000
     1.0000   1.0000   1.0000   1.0000   1.0000   1.0000   1.0000   1.0000
     1.0000   1.0000   1.0000   1.0480   1.0480   1.0482   1.0482   1.0485
     1.0485   0.6203   0.6203   0.6197   0.6197   0.6191   0.6190   0.3729
     0.0001   0.0001   0.0001   0.0000   0.0000   0.0000   0.0000   0.0000
     0.0000   0.0000   0.0000   0.0000   0.0000   0.0000   0.0000   0.0000
     0.0000   0.0000   0.0000   0.0000   0.0000   0.0000   0.0000   0.0000
     0.0000   0.0000   0.0000   0.0000   0.0000   0.0000   0.0000   0.0000
     0.0000   0.0000   0.0000   0.0000   0.0000   0.0000   0.0000   0.0000
     0.0000   0.0000   0.0000   0.0000   0.0000   0.0000   0.0000   0.0000
     0.0000   0.0000   0.0000   0.0000   0.0000   0.0000   0.0000   0.0000
     0.0000   0.0000   0.0000   0.0000   0.0000   0.0000   0.0000   0.0000
     0.0000   0.0000   0.0000   0.0000   0.0000   0.0000   0.0000   0.0000
     0.0000   0.0000   0.0000   0.0000   0.0000   0.0000   0.0000   0.0000
     0.0000   0.0000   0.0000   0.0000   0.0000   0.0000   0.0000   0.0000
     0.0000   0.0000   0.0000   0.0000   0.0000   0.0000   0.0000   0.0000
     0.0000   0.0000   0.0000   0.0000   0.0000   0.0000   0.0000   0.0000
     0.0000   0.0000   0.0000   0.0000   0.0000   0.0000   0.0000   0.0000
     0.0000   0.0000   0.0000   0.0000   0.0000   0.0000   0.0000   0.0000

          k = 0.0000 0.3849 0.0000 ( 42150 PWs)   bands (ev):

  -123.2402-123.2382-123.2380-123.2380-123.2377-123.2376-123.2376-123.2376
  -123.2374-123.2373-123.2373-123.2372-123.2372-123.2371-123.2370-123.2369
  -123.1522-123.1506-123.1506-123.1505-123.1502-123.1496-123.1495-123.1495
  -123.1492-123.1488-123.1488-123.1487-123.1480-123.1478-123.1478-123.1477
  -123.0780-123.0760-123.0758-123.0758-123.0755-123.0754-123.0754-123.0754
  -123.0753-123.0753-123.0752-123.0752-123.0752-123.0751-123.0751-123.0750
  -123.0118-123.0099-123.0099-123.0098-123.0097-123.0095-123.0095-123.0095
  -123.0089-123.0084-123.0084-123.0083-123.0081-123.0081-123.0081-123.0080
   -77.3488 -77.3487 -77.3450 -77.3423 -77.3423 -77.3413 -77.3413 -77.3350
   -77.3350 -77.3301 -77.3275 -77.3275 -77.3275 -77.3266 -77.3265 -77.3265
   -77.3262 -77.3250 -77.3248 -77.3248 -77.3245 -77.3245 -77.3243 -77.3243
   -77.3241 -77.3241 -77.3237 -77.3236 -77.3225 -77.3225 -77.3204 -77.3204
   -77.3165 -77.3165 -77.3151 -77.3151 -77.3126 -77.3126 -77.3098 -77.3091
   -77.3091 -77.3087 -77.3085 -77.3076 -77.3066 -77.3066 -77.3059 -77.3059
   -77.2601 -77.2599 -77.2562 -77.2535 -77.2533 -77.2523 -77.2523 -77.2460
   -77.2460 -77.2410 -77.2403 -77.2402 -77.2402 -77.2395 -77.2379 -77.2379
   -77.2379 -77.2374 -77.2374 -77.2371 -77.2370 -77.2369 -77.2369 -77.2363
   -77.2357 -77.2357 -77.2353 -77.2353 -77.2350 -77.2342 -77.2316 -77.2314
   -77.2274 -77.2274 -77.2263 -77.2261 -77.2239 -77.2239 -77.2212 -77.2201
   -77.2201 -77.2200 -77.2198 -77.2186 -77.2177 -77.2177 -77.2168 -77.2165
   -77.1834 -77.1834 -77.1796 -77.1769 -77.1769 -77.1759 -77.1759 -77.1727
   -77.1727 -77.1727 -77.1714 -77.1713 -77.1705 -77.1703 -77.1703 -77.1699
   -77.1699 -77.1698 -77.1698 -77.1694 -77.1694 -77.1693 -77.1693 -77.1681
   -77.1681 -77.1647 -77.1610 -77.1610 -77.1589 -77.1589 -77.1549 -77.1549
   -77.1508 -77.1508 -77.1496 -77.1496 -77.1468 -77.1468 -77.1438 -77.1436
   -77.1436 -77.1433 -77.1432 -77.1422 -77.1413 -77.1413 -77.1403 -77.1402
   -77.1158 -77.1158 -77.1120 -77.1094 -77.1093 -77.1091 -77.1091 -77.1089
   -77.1083 -77.1082 -77.1082 -77.1071 -77.1067 -77.1067 -77.1062 -77.1060
   -77.1060 -77.1058 -77.1057 -77.1053 -77.1053 -77.1040 -77.1039 -77.1019
   -77.1019 -77.0970 -77.0934 -77.0934 -77.0914 -77.0914 -77.0873 -77.0872
   -77.0831 -77.0831 -77.0821 -77.0821 -77.0795 -77.0795 -77.0769 -77.0761
   -77.0761 -77.0757 -77.0756 -77.0745 -77.0737 -77.0736 -77.0727 -77.0726
    -6.3917  -5.7869  -5.6616  -5.2537  -5.2537  -5.1365  -5.0857  -4.9979
    -4.9212  -4.8826  -4.8826  -4.8671  -4.8205  -4.7985  -4.7848  -4.7848
    -4.7841  -4.7841  -4.7587  -4.7587  -4.7511  -4.7491  -4.7210  -4.7210
    -4.7048  -4.6812  -4.6811  -4.6791  -4.6532  -4.6404  -4.6403  -4.6218
    -4.6218  -4.6207  -4.6207  -4.6081  -4.6081  -4.5934  -4.5934  -4.5791
    -4.5791  -4.5737  -4.5731  -4.5610  -4.5610  -4.5559  -4.5559  -4.5406
    -4.5406  -4.5061  -4.5061  -4.4980  -4.4980  -4.4811  -4.4810  -4.4810
    -4.4784  -4.4784  -4.4669  -4.4669  -4.4642  -4.4642  -4.4642  -4.4607
    -4.4606  -4.4115  -4.4115  -4.4087  -4.4087  -4.4067  -4.4067  -4.4059
    -4.4059  -4.3865  -4.3641  -4.3603  -4.3603  -4.3501  -4.3501  -4.3288
    -4.3288  -4.3235  -4.3235  -4.3182  -4.3182  -4.3170  -4.2939  -4.2939
    -4.2916  -4.2896  -4.2896  -4.2890  -4.2890  -4.2886  -4.2886  -4.2632
    -4.2632  -4.2602  -4.2601  -4.2574  -4.2447  -4.2447  -4.2414  -4.2414
    -4.2392  -4.2177  -4.2177  -4.2156  -4.2129  -4.1926  -4.1926  -4.1748
    -4.1748  -4.1576  -4.1529  -4.1528  -4.1497  -4.1468  -4.1404  -4.1397
    -4.1397  -4.1348  -4.1348  -4.1345  -4.1345  -4.1203  -4.1126  -4.1125
    -4.1009  -4.1009  -4.0889  -4.0889  -4.0796  -4.0796  -4.0755  -4.0742
    -4.0582  -4.0582  -4.0472  -4.0471  -4.0423  -4.0423  -4.0331  -4.0331
    -4.0206  -4.0206  -4.0184  -3.9983  -3.9983  -3.9916  -3.9888  -3.9888
    -3.9796  -3.9728  -3.9725  -3.9622  -3.9622  -3.9560  -3.9560  -3.9344
    -3.9344  -3.9279  -3.9279  -3.9192  -3.9187  -3.9187  -3.8996  -3.8979
    -3.8903  -3.8893  -3.8893  -3.8814  -3.8814  -3.8722  -3.8722  -3.8660
    -3.8660  -3.8578  -3.8543  -3.8543  -3.8520  -3.8470  -3.8470  -3.8463
    -3.8463  -3.8376  -3.8376  -3.8348  -3.8312  -3.8312  -3.8257  -3.8257
    -3.8115  -3.8115  -3.8007  -3.8007  -3.7820  -3.7811  -3.7811  -3.7772
    -3.7772  -3.7742  -3.7742  -3.7606  -3.7557  -3.7547  -3.7547  -3.7540
    -3.7526  -3.7526  -3.7442  -3.7442  -3.7434  -3.7434  -3.7368  -3.7368
    -3.7334  -3.7317  -3.7317  -3.7281  -3.7268  -3.7083  -3.7062  -3.7062
    -3.7043  -3.7043  -3.7013  -3.6904  -3.6904  -3.6777  -3.6777  -3.6707
    -3.6674  -3.6674  -3.6525  -3.6525  -3.6511  -3.6494  -3.6494  -3.6489
    -3.6489  -3.6461  -3.6444  -3.6444  -3.6398  -3.6331  -3.6331  -3.6156
    -3.6156  -3.6137  -3.6105  -3.6064  -3.6064  -3.6060  -3.6060  -3.6024
    -3.6024  -3.6020  -3.6020  -3.5919  -3.5915  -3.5915  -3.5870  -3.5828
    -3.5785  -3.5785  -3.5612  -3.5612  -3.5585  -3.5585  -3.5548  -3.5548
    -3.5429  -3.5406  -3.5334  -3.5334  -3.5325  -3.5267  -3.5218  -3.5218
    -3.5196  -3.5124  -3.5124  -3.5094  -3.5094  -3.5049  -3.5049  -3.5030
    -3.5027  -3.5027  -3.5004  -3.5004  -3.4903  -3.4879  -3.4870  -3.4862
    -3.4862  -3.4775  -3.4670  -3.4670  -3.4567  -3.4467  -3.4467  -3.4421
    -3.4421  -3.4382  -3.4253  -3.4253  -3.4193  -3.4055  -3.4049  -3.4049
    -3.3713  -3.3713  -3.3628  -3.3628  -3.3581  -3.3581  -3.3391  -3.3312
    -3.2907  -3.2907  -3.2701  -3.2701  -3.2541  -3.2253  -3.2253  -3.1864
    -3.0333  -3.0333  -2.9933  -2.6431  -2.5203  -2.3550  -2.3550  -2.0301
    -2.0301  -1.8360  -1.8329  -1.8329  -1.1795  -1.0722  -1.0722  -0.9275
    -0.9275  -0.7864  -0.7246  -0.3702  -0.2384  -0.2384  -0.0006  -0.0006
     0.0158   0.3302   0.3302   0.4992   0.4992   0.8008   0.8008   0.8204
     0.8204   1.1892   1.2658   1.2658   1.3503   1.3857   1.9446   1.9446
     1.9849   2.0052   2.0052   2.1647   2.1647   2.4251   2.4251   2.7260
     2.7260   2.7512   2.7512   2.8357   2.8934   2.8934   3.6444   3.6445
     3.9472   4.0166   4.0166   4.1094   4.1094   4.3774   4.3774   4.5542
     4.5542   4.5879   4.7569   4.8862   4.8863   4.9464   5.2192   5.2192
     5.4192   5.4192   5.4351   5.4351   5.5688   5.5688   5.5750   5.6568
     5.6568   5.9475   5.9475   6.1327   6.1327   6.4070   6.4460   6.4460
     6.4695   6.8147   6.8147   6.9901   7.0444   7.0444   7.0593   7.0643
     7.0644   7.1305   7.2348   7.2348   7.3895   7.4117   7.6237   7.6237
     7.6471   7.6471   7.7050   7.7050   7.8112   7.8552   7.8552   7.9177
     7.9177   7.9966   8.0244   8.2148   8.3612   8.3612   8.4490   8.4491
     8.6024   8.6024   8.6112   8.6348   8.6348   8.7858   8.7858   8.8517
     8.8517   8.9947   9.0042   9.0042   9.1876   9.1876   9.2304   9.2775
     9.3050   9.3998   9.3998   9.5958   9.5958   9.6102   9.8063   9.8063
     9.8234   9.8234   9.8262   9.8263   9.8304   9.8691   9.8691  10.0819
    10.0819  10.0942  10.0943  10.1352  10.2190  10.2190  10.4252  10.4252
    10.4847  10.4984  10.4984  10.5325  10.7128  10.7128  10.7237  10.7237
    10.7946  10.7946  10.8440  10.8440  10.9314  10.9314  11.0617  11.0617
    11.1012  11.1012  11.2098  11.3743  11.3743  11.3961  11.3961  11.6163

     occupation numbers 
     1.0000   1.0000   1.0000   1.0000   1.0000   1.0000   1.0000   1.0000
     1.0000   1.0000   1.0000   1.0000   1.0000   1.0000   1.0000   1.0000
     1.0000   1.0000   1.0000   1.0000   1.0000   1.0000   1.0000   1.0000
     1.0000   1.0000   1.0000   1.0000   1.0000   1.0000   1.0000   1.0000
     1.0000   1.0000   1.0000   1.0000   1.0000   1.0000   1.0000   1.0000
     1.0000   1.0000   1.0000   1.0000   1.0000   1.0000   1.0000   1.0000
     1.0000   1.0000   1.0000   1.0000   1.0000   1.0000   1.0000   1.0000
     1.0000   1.0000   1.0000   1.0000   1.0000   1.0000   1.0000   1.0000
     1.0000   1.0000   1.0000   1.0000   1.0000   1.0000   1.0000   1.0000
     1.0000   1.0000   1.0000   1.0000   1.0000   1.0000   1.0000   1.0000
     1.0000   1.0000   1.0000   1.0000   1.0000   1.0000   1.0000   1.0000
     1.0000   1.0000   1.0000   1.0000   1.0000   1.0000   1.0000   1.0000
     1.0000   1.0000   1.0000   1.0000   1.0000   1.0000   1.0000   1.0000
     1.0000   1.0000   1.0000   1.0000   1.0000   1.0000   1.0000   1.0000
     1.0000   1.0000   1.0000   1.0000   1.0000   1.0000   1.0000   1.0000
     1.0000   1.0000   1.0000   1.0000   1.0000   1.0000   1.0000   1.0000
     1.0000   1.0000   1.0000   1.0000   1.0000   1.0000   1.0000   1.0000
     1.0000   1.0000   1.0000   1.0000   1.0000   1.0000   1.0000   1.0000
     1.0000   1.0000   1.0000   1.0000   1.0000   1.0000   1.0000   1.0000
     1.0000   1.0000   1.0000   1.0000   1.0000   1.0000   1.0000   1.0000
     1.0000   1.0000   1.0000   1.0000   1.0000   1.0000   1.0000   1.0000
     1.0000   1.0000   1.0000   1.0000   1.0000   1.0000   1.0000   1.0000
     1.0000   1.0000   1.0000   1.0000   1.0000   1.0000   1.0000   1.0000
     1.0000   1.0000   1.0000   1.0000   1.0000   1.0000   1.0000   1.0000
     1.0000   1.0000   1.0000   1.0000   1.0000   1.0000   1.0000   1.0000
     1.0000   1.0000   1.0000   1.0000   1.0000   1.0000   1.0000   1.0000
     1.0000   1.0000   1.0000   1.0000   1.0000   1.0000   1.0000   1.0000
     1.0000   1.0000   1.0000   1.0000   1.0000   1.0000   1.0000   1.0000
     1.0000   1.0000   1.0000   1.0000   1.0000   1.0000   1.0000   1.0000
     1.0000   1.0000   1.0000   1.0000   1.0000   1.0000   1.0000   1.0000
     1.0000   1.0000   1.0000   1.0000   1.0000   1.0000   1.0000   1.0000
     1.0000   1.0000   1.0000   1.0000   1.0000   1.0000   1.0000   1.0000
     1.0000   1.0000   1.0000   1.0000   1.0000   1.0000   1.0000   1.0000
     1.0000   1.0000   1.0000   1.0000   1.0000   1.0000   1.0000   1.0000
     1.0000   1.0000   1.0000   1.0000   1.0000   1.0000   1.0000   1.0000
     1.0000   1.0000   1.0000   1.0000   1.0000   1.0000   1.0000   1.0000
     1.0000   1.0000   1.0000   1.0000   1.0000   1.0000   1.0000   1.0000
     1.0000   1.0000   1.0000   1.0000   1.0000   1.0000   1.0000   1.0000
     1.0000   1.0000   1.0000   1.0000   1.0000   1.0000   1.0000   1.0000
     1.0000   1.0000   1.0000   1.0000   1.0000   1.0000   1.0000   1.0000
     1.0000   1.0000   1.0000   1.0000   1.0000   1.0000   1.0000   1.0000
     1.0000   1.0000   1.0000   1.0000   1.0000   1.0000   1.0000   1.0000
     1.0000   1.0000   1.0000   1.0000   1.0000   1.0000   1.0000   1.0000
     1.0000   1.0000   1.0000   1.0000   1.0000   1.0000   1.0000   1.0000
     1.0000   1.0000   1.0000   1.0000   1.0000   1.0000   1.0000   1.0000
     1.0000   1.0000   1.0000   1.0000   1.0000   1.0000   1.0000   1.0000
     1.0000   1.0000   1.0000   1.0000   1.0000   1.0000   1.0000   1.0000
     1.0000   1.0000   1.0000   1.0000   1.0000   1.0000   1.0000   1.0000
     1.0000   1.0000   1.0000   1.0000   1.0000   1.0000   1.0000   1.0000
     1.0000   1.0000   1.0000   1.0000   1.0000   1.0000   1.0000   1.0000
     1.0000   1.0000   1.0000   1.0000   1.0000   1.0000   1.0000   1.0000
     1.0000   1.0000   1.0000   1.0000   1.0000   1.0000   1.0000   1.0000
     1.0000   1.0000   1.0000   1.0000   1.0000   1.0000   1.0000   1.0000
     1.0000   1.0000   1.0000   1.0000   1.0000   1.0000   1.0000   1.0000
     1.0000   1.0000   1.0000   1.0000   1.0000   1.0000   1.0000   1.0000
     1.0000   1.0000   1.0000   1.0000   1.0000   1.0000   1.0000   1.0000
     1.0000   1.0000   1.0000   1.0000   1.0000   1.0000   1.0000   1.0000
     1.0000   1.0000   1.0000   1.0000   1.0000   1.0000   1.0000   1.0000
     1.0000   1.0000   1.0000   1.0000   1.0000   1.0000   1.0000   1.0000
     1.0000   1.0000   1.0000   1.0000   1.0000   1.0000   1.0000   1.0000
     1.0000   1.0000   1.0000   1.0000   1.0000   1.0000   1.0000   1.0000
     1.0000   1.0000   1.0000   1.0000   1.0000   1.0000   1.0000   1.0000
     1.0000   1.0000   1.0000   1.0000   1.0000   1.0000   1.0000   1.0000
     1.0000   1.0000   1.0000   1.0000   1.0000   1.0000   1.0000   1.0000
     1.0000   1.0000   1.0000   1.0000   1.0000   1.0000   1.0000   1.0000
     1.0000   1.0000   1.0000   1.0000   1.0000   1.0000   1.0000   1.0000
     1.0000   1.0000   1.0000   1.0000   1.0000   1.0000   1.0000   1.0000
     1.0000   1.0000   1.0000   1.0000   1.0000   1.0000   1.0000   1.0000
     1.0000   1.0000   1.0000   1.0000   1.0000   1.0000   1.0000   1.0000
     1.0000   1.0000   1.0000   1.0000   1.0000   1.0000   1.0000   1.0000
     1.0000   1.0000   1.0000   1.0000   1.0000   1.0000   1.0000   1.0000
     1.0000   1.0000   1.0000   1.0000   1.0000   1.0000   1.0000   1.0000
     1.0000   1.0000   1.0000   1.0000   1.0000   1.0000   1.0000   1.0000
     1.0000   1.0000   1.0000   1.0000   1.0000   1.0000   1.0000   1.0000
     1.0000   1.0000   1.0000   1.0000   1.0000   1.0000   1.0000   1.0000
     1.0000   1.0000   1.0000   1.0000   1.0000   1.0000   1.0000   1.0000
     1.0000   1.0000   1.0000   1.0000   1.0000   1.0000   1.0000   1.0000
     1.0000   1.0000   1.0000   1.0000   1.0000   1.0000   1.0000   1.0000
     1.0000   1.0000   1.0000   1.0000   1.0000   1.0000   1.0000   1.0001
     1.0001   1.0001   1.0001   1.0005   1.0012   1.0012   0.6047   0.6047
     0.0519   0.0214   0.0214   0.0054   0.0054   0.0000   0.0000   0.0000
     0.0000   0.0000   0.0000   0.0000   0.0000   0.0000   0.0000   0.0000
     0.0000   0.0000   0.0000   0.0000   0.0000   0.0000   0.0000   0.0000
     0.0000   0.0000   0.0000   0.0000   0.0000   0.0000   0.0000   0.0000
     0.0000   0.0000   0.0000   0.0000   0.0000   0.0000   0.0000   0.0000
     0.0000   0.0000   0.0000   0.0000   0.0000   0.0000   0.0000   0.0000
     0.0000   0.0000   0.0000   0.0000   0.0000   0.0000   0.0000   0.0000
     0.0000   0.0000   0.0000   0.0000   0.0000   0.0000   0.0000   0.0000
     0.0000   0.0000   0.0000   0.0000   0.0000   0.0000   0.0000   0.0000
     0.0000   0.0000   0.0000   0.0000   0.0000   0.0000   0.0000   0.0000
     0.0000   0.0000   0.0000   0.0000   0.0000   0.0000   0.0000   0.0000
     0.0000   0.0000   0.0000   0.0000   0.0000   0.0000   0.0000   0.0000
     0.0000   0.0000   0.0000   0.0000   0.0000   0.0000   0.0000   0.0000
     0.0000   0.0000   0.0000   0.0000   0.0000   0.0000   0.0000   0.0000
     0.0000   0.0000   0.0000   0.0000   0.0000   0.0000   0.0000   0.0000
     0.0000   0.0000   0.0000   0.0000   0.0000   0.0000   0.0000   0.0000

          k = 0.3333 0.1925 0.0000 ( 42150 PWs)   bands (ev):

  -123.2402-123.2383-123.2380-123.2379-123.2377-123.2376-123.2376-123.2375
  -123.2375-123.2374-123.2373-123.2372-123.2371-123.2371-123.2370-123.2369
  -123.1522-123.1509-123.1505-123.1503-123.1501-123.1498-123.1495-123.1493
  -123.1492-123.1491-123.1487-123.1486-123.1481-123.1480-123.1477-123.1476
  -123.0780-123.0761-123.0758-123.0758-123.0755-123.0755-123.0754-123.0754
  -123.0753-123.0753-123.0753-123.0752-123.0751-123.0751-123.0751-123.0749
  -123.0118-123.0102-123.0098-123.0097-123.0097-123.0095-123.0095-123.0093
  -123.0089-123.0087-123.0083-123.0083-123.0082-123.0081-123.0081-123.0079
   -77.3487 -77.3487 -77.3451 -77.3423 -77.3423 -77.3414 -77.3414 -77.3350
   -77.3349 -77.3301 -77.3275 -77.3275 -77.3274 -77.3265 -77.3265 -77.3265
   -77.3262 -77.3251 -77.3247 -77.3247 -77.3244 -77.3244 -77.3244 -77.3243
   -77.3243 -77.3243 -77.3236 -77.3236 -77.3225 -77.3225 -77.3204 -77.3204
   -77.3165 -77.3165 -77.3152 -77.3151 -77.3126 -77.3126 -77.3098 -77.3092
   -77.3091 -77.3087 -77.3085 -77.3076 -77.3066 -77.3066 -77.3059 -77.3059
   -77.2599 -77.2598 -77.2564 -77.2535 -77.2534 -77.2523 -77.2522 -77.2460
   -77.2459 -77.2412 -77.2404 -77.2403 -77.2400 -77.2390 -77.2384 -77.2384
   -77.2376 -77.2375 -77.2373 -77.2371 -77.2370 -77.2370 -77.2365 -77.2364
   -77.2356 -77.2355 -77.2354 -77.2353 -77.2348 -77.2346 -77.2316 -77.2314
   -77.2276 -77.2273 -77.2266 -77.2260 -77.2238 -77.2238 -77.2210 -77.2203
   -77.2202 -77.2196 -77.2193 -77.2187 -77.2181 -77.2176 -77.2168 -77.2166
   -77.1834 -77.1833 -77.1796 -77.1769 -77.1769 -77.1759 -77.1759 -77.1727
   -77.1727 -77.1727 -77.1713 -77.1713 -77.1705 -77.1703 -77.1703 -77.1699
   -77.1699 -77.1698 -77.1698 -77.1694 -77.1694 -77.1693 -77.1693 -77.1681
   -77.1681 -77.1647 -77.1610 -77.1610 -77.1589 -77.1589 -77.1550 -77.1550
   -77.1508 -77.1508 -77.1496 -77.1496 -77.1468 -77.1468 -77.1437 -77.1437
   -77.1437 -77.1433 -77.1431 -77.1422 -77.1413 -77.1413 -77.1403 -77.1402
   -77.1158 -77.1157 -77.1122 -77.1094 -77.1093 -77.1091 -77.1091 -77.1088
   -77.1083 -77.1082 -77.1079 -77.1075 -77.1070 -77.1064 -77.1063 -77.1061
   -77.1061 -77.1057 -77.1056 -77.1051 -77.1050 -77.1041 -77.1040 -77.1019
   -77.1018 -77.0971 -77.0933 -77.0933 -77.0914 -77.0913 -77.0874 -77.0872
   -77.0832 -77.0830 -77.0823 -77.0819 -77.0795 -77.0795 -77.0767 -77.0761
   -77.0761 -77.0755 -77.0753 -77.0746 -77.0739 -77.0737 -77.0727 -77.0726
    -6.3917  -5.7869  -5.6616  -5.2536  -5.2535  -5.1366  -5.0857  -4.9980
    -4.9212  -4.8826  -4.8825  -4.8672  -4.8207  -4.7985  -4.7849  -4.7847
    -4.7840  -4.7839  -4.7585  -4.7583  -4.7512  -4.7495  -4.7210  -4.7209
    -4.7052  -4.6812  -4.6811  -4.6790  -4.6537  -4.6406  -4.6400  -4.6218
    -4.6216  -4.6207  -4.6207  -4.6080  -4.6079  -4.5935  -4.5935  -4.5792
    -4.5791  -4.5740  -4.5735  -4.5611  -4.5607  -4.5559  -4.5556  -4.5408
    -4.5407  -4.5062  -4.5062  -4.4980  -4.4973  -4.4812  -4.4808  -4.4806
    -4.4783  -4.4783  -4.4669  -4.4668  -4.4646  -4.4642  -4.4636  -4.4608
    -4.4603  -4.4118  -4.4116  -4.4086  -4.4085  -4.4070  -4.4066  -4.4058
    -4.4057  -4.3865  -4.3641  -4.3611  -4.3598  -4.3497  -4.3496  -4.3285
    -4.3281  -4.3236  -4.3235  -4.3181  -4.3176  -4.3166  -4.2946  -4.2940
    -4.2910  -4.2897  -4.2896  -4.2887  -4.2887  -4.2879  -4.2877  -4.2635
    -4.2633  -4.2607  -4.2602  -4.2575  -4.2450  -4.2447  -4.2422  -4.2416
    -4.2382  -4.2188  -4.2177  -4.2156  -4.2126  -4.1931  -4.1925  -4.1753
    -4.1749  -4.1574  -4.1572  -4.1530  -4.1492  -4.1426  -4.1404  -4.1398
    -4.1392  -4.1353  -4.1349  -4.1348  -4.1344  -4.1202  -4.1160  -4.1133
    -4.1008  -4.1006  -4.0890  -4.0888  -4.0792  -4.0788  -4.0754  -4.0715
    -4.0589  -4.0577  -4.0472  -4.0470  -4.0423  -4.0421  -4.0332  -4.0330
    -4.0210  -4.0208  -4.0191  -3.9983  -3.9975  -3.9916  -3.9900  -3.9882
    -3.9790  -3.9728  -3.9726  -3.9628  -3.9618  -3.9554  -3.9551  -3.9344
    -3.9340  -3.9269  -3.9267  -3.9208  -3.9187  -3.9186  -3.8994  -3.8977
    -3.8905  -3.8895  -3.8893  -3.8821  -3.8819  -3.8729  -3.8727  -3.8658
    -3.8657  -3.8581  -3.8551  -3.8540  -3.8516  -3.8477  -3.8469  -3.8467
    -3.8466  -3.8380  -3.8376  -3.8348  -3.8313  -3.8312  -3.8251  -3.8246
    -3.8117  -3.8111  -3.8010  -3.8007  -3.7818  -3.7816  -3.7813  -3.7782
    -3.7780  -3.7746  -3.7725  -3.7599  -3.7571  -3.7561  -3.7547  -3.7539
    -3.7524  -3.7514  -3.7444  -3.7444  -3.7439  -3.7438  -3.7364  -3.7361
    -3.7327  -3.7313  -3.7304  -3.7285  -3.7272  -3.7088  -3.7070  -3.7061
    -3.7039  -3.7034  -3.7017  -3.6910  -3.6908  -3.6780  -3.6779  -3.6696
    -3.6664  -3.6664  -3.6527  -3.6526  -3.6503  -3.6501  -3.6498  -3.6485
    -3.6484  -3.6462  -3.6443  -3.6430  -3.6419  -3.6334  -3.6332  -3.6158
    -3.6156  -3.6116  -3.6114  -3.6070  -3.6069  -3.6061  -3.6059  -3.6024
    -3.6022  -3.6014  -3.6014  -3.5920  -3.5916  -3.5915  -3.5879  -3.5829
    -3.5788  -3.5785  -3.5618  -3.5614  -3.5588  -3.5587  -3.5561  -3.5552
    -3.5427  -3.5405  -3.5334  -3.5334  -3.5322  -3.5255  -3.5222  -3.5218
    -3.5188  -3.5132  -3.5125  -3.5091  -3.5087  -3.5049  -3.5048  -3.5030
    -3.5026  -3.5024  -3.5016  -3.5001  -3.4915  -3.4880  -3.4878  -3.4871
    -3.4868  -3.4777  -3.4668  -3.4660  -3.4557  -3.4463  -3.4460  -3.4422
    -3.4421  -3.4370  -3.4253  -3.4252  -3.4193  -3.4055  -3.4049  -3.4049
    -3.3709  -3.3703  -3.3630  -3.3629  -3.3586  -3.3585  -3.3391  -3.3312
    -3.2907  -3.2907  -3.2697  -3.2696  -3.2541  -3.2254  -3.2252  -3.1865
    -3.0335  -3.0331  -2.9938  -2.6429  -2.5209  -2.3552  -2.3550  -2.0297
    -2.0294  -1.8355  -1.8330  -1.8327  -1.1796  -1.0723  -1.0722  -0.9277
    -0.9273  -0.7863  -0.7247  -0.3702  -0.2382  -0.2381  -0.0008  -0.0007
     0.0165   0.3300   0.3302   0.4992   0.4994   0.8004   0.8008   0.8203
     0.8206   1.1891   1.2650   1.2659   1.3501   1.3870   1.9447   1.9448
     1.9844   2.0050   2.0052   2.1640   2.1649   2.4219   2.4252   2.7264
     2.7268   2.7517   2.7518   2.8381   2.8879   2.8934   3.6429   3.6445
     3.9471   4.0180   4.0180   4.1089   4.1107   4.3796   4.3799   4.5541
     4.5612   4.5878   4.7542   4.8862   4.8944   4.9419   5.2193   5.2194
     5.4180   5.4203   5.4350   5.4384   5.5645   5.5646   5.5706   5.6568
     5.6620   5.9438   5.9438   6.1325   6.1359   6.3954   6.4459   6.4468
     6.4696   6.8120   6.8120   6.9877   7.0438   7.0448   7.0593   7.0652
     7.0744   7.1341   7.2348   7.2357   7.3895   7.4117   7.6231   7.6252
     7.6470   7.6471   7.7013   7.7053   7.8094   7.8555   7.8623   7.9186
     7.9191   7.9967   8.0243   8.2044   8.3616   8.3627   8.4484   8.4488
     8.6024   8.6024   8.6107   8.6348   8.6348   8.7858   8.7866   8.8520
     8.8612   8.9947   9.0006   9.0068   9.1880   9.1880   9.2304   9.2699
     9.3222   9.3946   9.3985   9.5959   9.5966   9.6103   9.8063   9.8065
     9.8136   9.8233   9.8256   9.8273   9.8304   9.8688   9.8752  10.0794
    10.0795  10.0823  10.0944  10.1384  10.2189  10.2190  10.4252  10.4254
    10.4862  10.4986  10.4996  10.5387  10.7090  10.7112  10.7231  10.7246
    10.7984  10.8062  10.8370  10.8438  10.9309  10.9314  11.0593  11.0599
    11.0962  11.1011  11.2158  11.3743  11.3759  11.3942  11.4068  11.6158

     occupation numbers 
     1.0000   1.0000   1.0000   1.0000   1.0000   1.0000   1.0000   1.0000
     1.0000   1.0000   1.0000   1.0000   1.0000   1.0000   1.0000   1.0000
     1.0000   1.0000   1.0000   1.0000   1.0000   1.0000   1.0000   1.0000
     1.0000   1.0000   1.0000   1.0000   1.0000   1.0000   1.0000   1.0000
     1.0000   1.0000   1.0000   1.0000   1.0000   1.0000   1.0000   1.0000
     1.0000   1.0000   1.0000   1.0000   1.0000   1.0000   1.0000   1.0000
     1.0000   1.0000   1.0000   1.0000   1.0000   1.0000   1.0000   1.0000
     1.0000   1.0000   1.0000   1.0000   1.0000   1.0000   1.0000   1.0000
     1.0000   1.0000   1.0000   1.0000   1.0000   1.0000   1.0000   1.0000
     1.0000   1.0000   1.0000   1.0000   1.0000   1.0000   1.0000   1.0000
     1.0000   1.0000   1.0000   1.0000   1.0000   1.0000   1.0000   1.0000
     1.0000   1.0000   1.0000   1.0000   1.0000   1.0000   1.0000   1.0000
     1.0000   1.0000   1.0000   1.0000   1.0000   1.0000   1.0000   1.0000
     1.0000   1.0000   1.0000   1.0000   1.0000   1.0000   1.0000   1.0000
     1.0000   1.0000   1.0000   1.0000   1.0000   1.0000   1.0000   1.0000
     1.0000   1.0000   1.0000   1.0000   1.0000   1.0000   1.0000   1.0000
     1.0000   1.0000   1.0000   1.0000   1.0000   1.0000   1.0000   1.0000
     1.0000   1.0000   1.0000   1.0000   1.0000   1.0000   1.0000   1.0000
     1.0000   1.0000   1.0000   1.0000   1.0000   1.0000   1.0000   1.0000
     1.0000   1.0000   1.0000   1.0000   1.0000   1.0000   1.0000   1.0000
     1.0000   1.0000   1.0000   1.0000   1.0000   1.0000   1.0000   1.0000
     1.0000   1.0000   1.0000   1.0000   1.0000   1.0000   1.0000   1.0000
     1.0000   1.0000   1.0000   1.0000   1.0000   1.0000   1.0000   1.0000
     1.0000   1.0000   1.0000   1.0000   1.0000   1.0000   1.0000   1.0000
     1.0000   1.0000   1.0000   1.0000   1.0000   1.0000   1.0000   1.0000
     1.0000   1.0000   1.0000   1.0000   1.0000   1.0000   1.0000   1.0000
     1.0000   1.0000   1.0000   1.0000   1.0000   1.0000   1.0000   1.0000
     1.0000   1.0000   1.0000   1.0000   1.0000   1.0000   1.0000   1.0000
     1.0000   1.0000   1.0000   1.0000   1.0000   1.0000   1.0000   1.0000
     1.0000   1.0000   1.0000   1.0000   1.0000   1.0000   1.0000   1.0000
     1.0000   1.0000   1.0000   1.0000   1.0000   1.0000   1.0000   1.0000
     1.0000   1.0000   1.0000   1.0000   1.0000   1.0000   1.0000   1.0000
     1.0000   1.0000   1.0000   1.0000   1.0000   1.0000   1.0000   1.0000
     1.0000   1.0000   1.0000   1.0000   1.0000   1.0000   1.0000   1.0000
     1.0000   1.0000   1.0000   1.0000   1.0000   1.0000   1.0000   1.0000
     1.0000   1.0000   1.0000   1.0000   1.0000   1.0000   1.0000   1.0000
     1.0000   1.0000   1.0000   1.0000   1.0000   1.0000   1.0000   1.0000
     1.0000   1.0000   1.0000   1.0000   1.0000   1.0000   1.0000   1.0000
     1.0000   1.0000   1.0000   1.0000   1.0000   1.0000   1.0000   1.0000
     1.0000   1.0000   1.0000   1.0000   1.0000   1.0000   1.0000   1.0000
     1.0000   1.0000   1.0000   1.0000   1.0000   1.0000   1.0000   1.0000
     1.0000   1.0000   1.0000   1.0000   1.0000   1.0000   1.0000   1.0000
     1.0000   1.0000   1.0000   1.0000   1.0000   1.0000   1.0000   1.0000
     1.0000   1.0000   1.0000   1.0000   1.0000   1.0000   1.0000   1.0000
     1.0000   1.0000   1.0000   1.0000   1.0000   1.0000   1.0000   1.0000
     1.0000   1.0000   1.0000   1.0000   1.0000   1.0000   1.0000   1.0000
     1.0000   1.0000   1.0000   1.0000   1.0000   1.0000   1.0000   1.0000
     1.0000   1.0000   1.0000   1.0000   1.0000   1.0000   1.0000   1.0000
     1.0000   1.0000   1.0000   1.0000   1.0000   1.0000   1.0000   1.0000
     1.0000   1.0000   1.0000   1.0000   1.0000   1.0000   1.0000   1.0000
     1.0000   1.0000   1.0000   1.0000   1.0000   1.0000   1.0000   1.0000
     1.0000   1.0000   1.0000   1.0000   1.0000   1.0000   1.0000   1.0000
     1.0000   1.0000   1.0000   1.0000   1.0000   1.0000   1.0000   1.0000
     1.0000   1.0000   1.0000   1.0000   1.0000   1.0000   1.0000   1.0000
     1.0000   1.0000   1.0000   1.0000   1.0000   1.0000   1.0000   1.0000
     1.0000   1.0000   1.0000   1.0000   1.0000   1.0000   1.0000   1.0000
     1.0000   1.0000   1.0000   1.0000   1.0000   1.0000   1.0000   1.0000
     1.0000   1.0000   1.0000   1.0000   1.0000   1.0000   1.0000   1.0000
     1.0000   1.0000   1.0000   1.0000   1.0000   1.0000   1.0000   1.0000
     1.0000   1.0000   1.0000   1.0000   1.0000   1.0000   1.0000   1.0000
     1.0000   1.0000   1.0000   1.0000   1.0000   1.0000   1.0000   1.0000
     1.0000   1.0000   1.0000   1.0000   1.0000   1.0000   1.0000   1.0000
     1.0000   1.0000   1.0000   1.0000   1.0000   1.0000   1.0000   1.0000
     1.0000   1.0000   1.0000   1.0000   1.0000   1.0000   1.0000   1.0000
     1.0000   1.0000   1.0000   1.0000   1.0000   1.0000   1.0000   1.0000
     1.0000   1.0000   1.0000   1.0000   1.0000   1.0000   1.0000   1.0000
     1.0000   1.0000   1.0000   1.0000   1.0000   1.0000   1.0000   1.0000
     1.0000   1.0000   1.0000   1.0000   1.0000   1.0000   1.0000   1.0000
     1.0000   1.0000   1.0000   1.0000   1.0000   1.0000   1.0000   1.0000
     1.0000   1.0000   1.0000   1.0000   1.0000   1.0000   1.0000   1.0000
     1.0000   1.0000   1.0000   1.0000   1.0000   1.0000   1.0000   1.0000
     1.0000   1.0000   1.0000   1.0000   1.0000   1.0000   1.0000   1.0000
     1.0000   1.0000   1.0000   1.0000   1.0000   1.0000   1.0000   1.0000
     1.0000   1.0000   1.0000   1.0000   1.0000   1.0000   1.0000   1.0000
     1.0000   1.0000   1.0000   1.0000   1.0000   1.0000   1.0000   1.0000
     1.0000   1.0000   1.0000   1.0000   1.0000   1.0000   1.0000   1.0000
     1.0000   1.0000   1.0000   1.0000   1.0000   1.0000   1.0000   1.0000
     1.0000   1.0000   1.0000   1.0000   1.0000   1.0000   1.0000   1.0000
     1.0000   1.0000   1.0000   1.0000   1.0000   1.0000   1.0000   1.0001
     1.0001   1.0001   1.0001   1.0005   1.0011   1.0012   0.6091   0.6045
     0.0519   0.0210   0.0210   0.0055   0.0053   0.0000   0.0000   0.0000
     0.0000   0.0000   0.0000   0.0000   0.0000   0.0000   0.0000   0.0000
     0.0000   0.0000   0.0000   0.0000   0.0000   0.0000   0.0000   0.0000
     0.0000   0.0000   0.0000   0.0000   0.0000   0.0000   0.0000   0.0000
     0.0000   0.0000   0.0000   0.0000   0.0000   0.0000   0.0000   0.0000
     0.0000   0.0000   0.0000   0.0000   0.0000   0.0000   0.0000   0.0000
     0.0000   0.0000   0.0000   0.0000   0.0000   0.0000   0.0000   0.0000
     0.0000   0.0000   0.0000   0.0000   0.0000   0.0000   0.0000   0.0000
     0.0000   0.0000   0.0000   0.0000   0.0000   0.0000   0.0000   0.0000
     0.0000   0.0000   0.0000   0.0000   0.0000   0.0000   0.0000   0.0000
     0.0000   0.0000   0.0000   0.0000   0.0000   0.0000   0.0000   0.0000
     0.0000   0.0000   0.0000   0.0000   0.0000   0.0000   0.0000   0.0000
     0.0000   0.0000   0.0000   0.0000   0.0000   0.0000   0.0000   0.0000
     0.0000   0.0000   0.0000   0.0000   0.0000   0.0000   0.0000   0.0000
     0.0000   0.0000   0.0000   0.0000   0.0000   0.0000   0.0000   0.0000
     0.0000   0.0000   0.0000   0.0000   0.0000   0.0000   0.0000   0.0000

          k = 0.3333 0.5774 0.0000 ( 42123 PWs)   bands (ev):

  -123.2389-123.2388-123.2386-123.2380-123.2379-123.2378-123.2377-123.2376
  -123.2375-123.2372-123.2371-123.2371-123.2370-123.2368-123.2368-123.2362
  -123.1514-123.1512-123.1506-123.1503-123.1501-123.1501-123.1494-123.1493
  -123.1491-123.1490-123.1487-123.1484-123.1483-123.1478-123.1476-123.1472
  -123.0767-123.0766-123.0766-123.0758-123.0757-123.0757-123.0757-123.0756
  -123.0756-123.0750-123.0750-123.0749-123.0749-123.0749-123.0749-123.0742
  -123.0108-123.0106-123.0100-123.0099-123.0098-123.0097-123.0094-123.0089
  -123.0089-123.0087-123.0085-123.0083-123.0081-123.0079-123.0079-123.0073
   -77.3457 -77.3456 -77.3456 -77.3379 -77.3379 -77.3377 -77.3377 -77.3376
   -77.3376 -77.3319 -77.3314 -77.3281 -77.3280 -77.3278 -77.3271 -77.3271
   -77.3271 -77.3258 -77.3258 -77.3257 -77.3241 -77.3241 -77.3239 -77.3239
   -77.3237 -77.3237 -77.3230 -77.3228 -77.3226 -77.3214 -77.3204 -77.3203
   -77.3203 -77.3147 -77.3147 -77.3147 -77.3111 -77.3110 -77.3109 -77.3109
   -77.3108 -77.3108 -77.3101 -77.3100 -77.3099 -77.3019 -77.3018 -77.3017
   -77.2571 -77.2566 -77.2563 -77.2496 -77.2493 -77.2490 -77.2490 -77.2484
   -77.2480 -77.2426 -77.2424 -77.2411 -77.2410 -77.2400 -77.2398 -77.2397
   -77.2391 -77.2372 -77.2372 -77.2370 -77.2368 -77.2365 -77.2364 -77.2361
   -77.2361 -77.2355 -77.2354 -77.2350 -77.2342 -77.2332 -77.2314 -77.2313
   -77.2312 -77.2257 -77.2256 -77.2256 -77.2232 -77.2225 -77.2221 -77.2220
   -77.2219 -77.2216 -77.2213 -77.2211 -77.2206 -77.2134 -77.2132 -77.2128
   -77.1803 -77.1802 -77.1802 -77.1729 -77.1729 -77.1728 -77.1726 -77.1726
   -77.1726 -77.1724 -77.1724 -77.1724 -77.1724 -77.1723 -77.1723 -77.1695
   -77.1695 -77.1694 -77.1694 -77.1694 -77.1694 -77.1684 -77.1683 -77.1683
   -77.1667 -77.1662 -77.1661 -77.1603 -77.1602 -77.1602 -77.1547 -77.1547
   -77.1547 -77.1491 -77.1491 -77.1491 -77.1455 -77.1455 -77.1454 -77.1454
   -77.1454 -77.1454 -77.1444 -77.1444 -77.1443 -77.1363 -77.1362 -77.1362
   -77.1129 -77.1125 -77.1124 -77.1098 -77.1098 -77.1091 -77.1090 -77.1089
   -77.1085 -77.1060 -77.1058 -77.1056 -77.1053 -77.1053 -77.1053 -77.1051
   -77.1049 -77.1049 -77.1049 -77.1045 -77.1043 -77.1042 -77.1041 -77.1037
   -77.1024 -77.0986 -77.0982 -77.0928 -77.0927 -77.0923 -77.0872 -77.0871
   -77.0871 -77.0815 -77.0815 -77.0815 -77.0787 -77.0782 -77.0779 -77.0779
   -77.0779 -77.0776 -77.0770 -77.0769 -77.0767 -77.0690 -77.0688 -77.0686
    -5.9807  -5.9800  -5.9792  -5.2942  -5.2926  -5.2908  -4.8715  -4.8714
    -4.8713  -4.8205  -4.8205  -4.8204  -4.8203  -4.8203  -4.8202  -4.7864
    -4.7856  -4.7842  -4.7199  -4.7195  -4.7192  -4.7192  -4.7191  -4.7181
    -4.7179  -4.7178  -4.7177  -4.6582  -4.6582  -4.6582  -4.6581  -4.6580
    -4.6579  -4.6378  -4.6377  -4.6375  -4.6336  -4.6336  -4.6335  -4.5852
    -4.5849  -4.5848  -4.5570  -4.5568  -4.5565  -4.5564  -4.5564  -4.5555
    -4.5036  -4.5036  -4.5036  -4.5033  -4.5032  -4.5029  -4.4940  -4.4939
    -4.4939  -4.4675  -4.4674  -4.4674  -4.4611  -4.4609  -4.4609  -4.4297
    -4.4296  -4.4294  -4.4204  -4.4167  -4.4167  -4.4167  -4.4130  -4.4128
    -4.4128  -4.4126  -4.4119  -4.4115  -4.3843  -4.3841  -4.3833  -4.3410
    -4.3311  -4.3309  -4.3307  -4.3272  -4.3269  -4.3269  -4.3221  -4.3048
    -4.3042  -4.3041  -4.2826  -4.2675  -4.2670  -4.2667  -4.2648  -4.2645
    -4.2645  -4.2641  -4.2630  -4.2620  -4.2620  -4.2617  -4.2616  -4.2613
    -4.2554  -4.2554  -4.2554  -4.2000  -4.2000  -4.2000  -4.1900  -4.1895
    -4.1892  -4.1877  -4.1732  -4.1732  -4.1731  -4.1658  -4.1658  -4.1656
    -4.1632  -4.1390  -4.1390  -4.1384  -4.1270  -4.1236  -4.1232  -4.1063
    -4.1052  -4.1027  -4.1027  -4.1023  -4.1020  -4.0995  -4.0995  -4.0988
    -4.0910  -4.0910  -4.0910  -4.0813  -4.0385  -4.0272  -4.0271  -4.0270
    -4.0219  -4.0217  -4.0212  -4.0204  -4.0204  -4.0203  -3.9841  -3.9739
    -3.9739  -3.9727  -3.9655  -3.9557  -3.9428  -3.9425  -3.9421  -3.9319
    -3.9315  -3.9308  -3.9308  -3.9304  -3.9294  -3.9239  -3.9238  -3.9238
    -3.9237  -3.9221  -3.9218  -3.9018  -3.9011  -3.8944  -3.8942  -3.8938
    -3.8938  -3.8937  -3.8935  -3.8673  -3.8673  -3.8672  -3.8561  -3.8561
    -3.8558  -3.8322  -3.7921  -3.7918  -3.7908  -3.7862  -3.7857  -3.7852
    -3.7632  -3.7626  -3.7612  -3.7612  -3.7522  -3.7519  -3.7515  -3.7470
    -3.7465  -3.7453  -3.7447  -3.7447  -3.7442  -3.7341  -3.7326  -3.7326
    -3.7318  -3.7317  -3.7310  -3.7294  -3.7293  -3.7286  -3.7281  -3.7270
    -3.7269  -3.7223  -3.7222  -3.7221  -3.7035  -3.7031  -3.7024  -3.7019
    -3.7019  -3.7019  -3.7018  -3.7017  -3.7017  -3.6515  -3.6513  -3.6510
    -3.6201  -3.6196  -3.6193  -3.6155  -3.6154  -3.6152  -3.6152  -3.6151
    -3.6151  -3.6132  -3.6108  -3.6108  -3.6104  -3.6027  -3.6026  -3.6026
    -3.6024  -3.6024  -3.6023  -3.5988  -3.5984  -3.5977  -3.5972  -3.5967
    -3.5962  -3.5955  -3.5794  -3.5791  -3.5791  -3.5741  -3.5730  -3.5728
    -3.5526  -3.5520  -3.5519  -3.5517  -3.5517  -3.5517  -3.5458  -3.5391
    -3.5391  -3.5389  -3.5389  -3.5387  -3.5387  -3.5386  -3.5385  -3.5385
    -3.5288  -3.5287  -3.5287  -3.5220  -3.5198  -3.5195  -3.5194  -3.5077
    -3.5077  -3.5076  -3.4987  -3.4980  -3.4978  -3.4727  -3.4725  -3.4723
    -3.4686  -3.4685  -3.4676  -3.4589  -3.4586  -3.4585  -3.4582  -3.4578
    -3.4570  -3.4437  -3.4437  -3.4434  -3.4434  -3.4433  -3.4429  -3.4097
    -3.4093  -3.4091  -3.3691  -3.3690  -3.3690  -3.3690  -3.3690  -3.3690
    -3.3042  -3.3042  -3.3042  -3.3042  -3.3039  -3.3037  -3.0607  -3.0607
    -3.0605  -2.6710  -2.6704  -2.6703  -2.4701  -2.4701  -2.4701  -1.5509
    -1.5508  -1.5503  -1.5503  -1.5502  -1.5496  -1.0932  -1.0928  -1.0927
    -0.8784  -0.8784  -0.8782  -0.7532  -0.7524  -0.7520  -0.7517  -0.7517
    -0.7502   0.6554   0.6557   0.6557   0.6640   0.6643   0.6644   0.6645
     0.6646   0.6646   1.7264   1.7265   1.7272   2.0405   2.0411   2.0428
     2.3054   2.3059   2.3060   2.3060   2.3060   2.3061   2.4551   2.4581
     2.4595   2.8227   2.8234   2.8253   3.0863   3.0952   3.0969   3.8913
     3.8923   3.8923   4.1740   4.2835   4.3163   4.3749   4.3753   4.3757
     4.8315   4.8318   4.8442   4.9273   5.0793   5.0876   5.0879   5.0880
     5.1832   5.7928   5.7934   5.7935   5.7935   5.7974   5.7985   6.0032
     6.0036   6.0144   6.2551   6.2555   6.2555   6.3634   6.3635   6.3636
     6.3639   6.3640   6.3649   6.5111   6.7659   6.7716   6.7718   6.7932
     6.8061   6.8622   6.8630   6.8638   7.1047   7.1048   7.1049   7.1052
     7.1102   7.1111   7.7927   7.7942   7.7945   7.7947   7.8203   7.8204
     7.8205   8.0574   8.0587   8.0591   8.0591   8.0594   8.0614   8.4353
     8.4792   8.5674   8.5675   8.5675   8.5677   8.5714   8.5727   8.6187
     8.6188   8.6188   8.9196   8.9201   8.9357   9.4053   9.4059   9.4065
     9.6074   9.6074   9.6075   9.6307   9.6310   9.6313   9.6448   9.6450
     9.6450   9.8313   9.8315   9.8317  10.2304  10.2318  10.2443  10.2446
    10.2447  10.2450  10.3282  10.3552  10.3556  10.6074  10.6077  10.6081
    10.6081  10.6084  10.6084  10.6839  10.6851  10.6855  10.8644  10.9334
    11.1967  11.1972  11.1973  11.3744  11.3752  11.3753  11.4130  11.4154
    11.4176  11.4447  11.4449  11.4458  11.4459  11.4460  11.4461  11.4867

     occupation numbers 
     1.0000   1.0000   1.0000   1.0000   1.0000   1.0000   1.0000   1.0000
     1.0000   1.0000   1.0000   1.0000   1.0000   1.0000   1.0000   1.0000
     1.0000   1.0000   1.0000   1.0000   1.0000   1.0000   1.0000   1.0000
     1.0000   1.0000   1.0000   1.0000   1.0000   1.0000   1.0000   1.0000
     1.0000   1.0000   1.0000   1.0000   1.0000   1.0000   1.0000   1.0000
     1.0000   1.0000   1.0000   1.0000   1.0000   1.0000   1.0000   1.0000
     1.0000   1.0000   1.0000   1.0000   1.0000   1.0000   1.0000   1.0000
     1.0000   1.0000   1.0000   1.0000   1.0000   1.0000   1.0000   1.0000
     1.0000   1.0000   1.0000   1.0000   1.0000   1.0000   1.0000   1.0000
     1.0000   1.0000   1.0000   1.0000   1.0000   1.0000   1.0000   1.0000
     1.0000   1.0000   1.0000   1.0000   1.0000   1.0000   1.0000   1.0000
     1.0000   1.0000   1.0000   1.0000   1.0000   1.0000   1.0000   1.0000
     1.0000   1.0000   1.0000   1.0000   1.0000   1.0000   1.0000   1.0000
     1.0000   1.0000   1.0000   1.0000   1.0000   1.0000   1.0000   1.0000
     1.0000   1.0000   1.0000   1.0000   1.0000   1.0000   1.0000   1.0000
     1.0000   1.0000   1.0000   1.0000   1.0000   1.0000   1.0000   1.0000
     1.0000   1.0000   1.0000   1.0000   1.0000   1.0000   1.0000   1.0000
     1.0000   1.0000   1.0000   1.0000   1.0000   1.0000   1.0000   1.0000
     1.0000   1.0000   1.0000   1.0000   1.0000   1.0000   1.0000   1.0000
     1.0000   1.0000   1.0000   1.0000   1.0000   1.0000   1.0000   1.0000
     1.0000   1.0000   1.0000   1.0000   1.0000   1.0000   1.0000   1.0000
     1.0000   1.0000   1.0000   1.0000   1.0000   1.0000   1.0000   1.0000
     1.0000   1.0000   1.0000   1.0000   1.0000   1.0000   1.0000   1.0000
     1.0000   1.0000   1.0000   1.0000   1.0000   1.0000   1.0000   1.0000
     1.0000   1.0000   1.0000   1.0000   1.0000   1.0000   1.0000   1.0000
     1.0000   1.0000   1.0000   1.0000   1.0000   1.0000   1.0000   1.0000
     1.0000   1.0000   1.0000   1.0000   1.0000   1.0000   1.0000   1.0000
     1.0000   1.0000   1.0000   1.0000   1.0000   1.0000   1.0000   1.0000
     1.0000   1.0000   1.0000   1.0000   1.0000   1.0000   1.0000   1.0000
     1.0000   1.0000   1.0000   1.0000   1.0000   1.0000   1.0000   1.0000
     1.0000   1.0000   1.0000   1.0000   1.0000   1.0000   1.0000   1.0000
     1.0000   1.0000   1.0000   1.0000   1.0000   1.0000   1.0000   1.0000
     1.0000   1.0000   1.0000   1.0000   1.0000   1.0000   1.0000   1.0000
     1.0000   1.0000   1.0000   1.0000   1.0000   1.0000   1.0000   1.0000
[...]
     atom   38 type  1   force =     0.00000000    0.00000000    0.00000000
     atom   39 type  1   force =     0.00000000    0.00000000    0.00000000
     atom   40 type  1   force =     0.00000000    0.00000000    0.00000000
     atom   41 type  1   force =     0.00000000    0.00000000    0.00000000
     atom   42 type  1   force =     0.00000000    0.00000000    0.00000000
     atom   43 type  1   force =     0.00000000    0.00000000    0.00000000
     atom   44 type  1   force =     0.00000000    0.00000000    0.00000000
     atom   45 type  1   force =     0.00000000    0.00000000    0.00000000
     atom   46 type  1   force =     0.00000000    0.00000000    0.00000000
     atom   47 type  1   force =     0.00000000    0.00000000    0.00000000
     atom   48 type  1   force =     0.00000000    0.00000000    0.00000000
     atom   49 type  1   force =     0.00000000    0.00000000    0.00000000
     atom   50 type  1   force =     0.00000000    0.00000000    0.00000000
     atom   51 type  1   force =     0.00000000    0.00000000    0.00000000
     atom   52 type  1   force =     0.00000000    0.00000000    0.00000000
     atom   53 type  1   force =     0.00000000    0.00000000    0.00000000
     atom   54 type  1   force =     0.00000000    0.00000000    0.00000000
     atom   55 type  1   force =     0.00000000    0.00000000    0.00000000
     atom   56 type  1   force =     0.00000000    0.00000000    0.00000000
     atom   57 type  1   force =     0.00000000    0.00000000    0.00000000
     atom   58 type  1   force =     0.00000000    0.00000000    0.00000000
     atom   59 type  1   force =     0.00000000    0.00000000    0.00000000
     atom   60 type  1   force =     0.00000000    0.00000000    0.00000000
     atom   61 type  1   force =     0.00000000    0.00000000    0.00000000
     atom   62 type  1   force =     0.00000000    0.00000000    0.00000000
     atom   63 type  1   force =     0.00000000    0.00000000    0.00000000
     atom   64 type  1   force =     0.00000000    0.00000000    0.00000000
     The SCF correction term to forces
     atom    1 type  1   force =     0.00000000    0.00000000   -0.00000000
     atom    2 type  1   force =    -0.00000000    0.00000000   -0.00000000
     atom    3 type  1   force =     0.00001981   -0.00003141   -0.00002400
     atom    4 type  1   force =    -0.00001838   -0.00002948   -0.00000521
     atom    5 type  1   force =     0.00000000   -0.00000000   -0.00000000
     atom    6 type  1   force =    -0.00000000   -0.00000000   -0.00000000
     atom    7 type  1   force =     0.00000375    0.00002225    0.00002107
     atom    8 type  1   force =    -0.00000394    0.00000818    0.00003306
     atom    9 type  1   force =     0.00000000    0.00000000   -0.00000000
     atom   10 type  1   force =    -0.00000000   -0.00000000   -0.00000000
     atom   11 type  1   force =    -0.00000069    0.00003856    0.00006938
     atom   12 type  1   force =     0.00000060    0.00001928    0.00007496
     atom   13 type  1   force =     0.00000000    0.00000000   -0.00000000
     atom   14 type  1   force =    -0.00000000    0.00000000   -0.00000000
     atom   15 type  1   force =     0.00001311   -0.00001429    0.00002443
     atom   16 type  1   force =    -0.00001206   -0.00002109    0.00004598
     atom   17 type  1   force =    -0.00000000   -0.00000000   -0.00000000
     atom   18 type  1   force =     0.00000000    0.00000000   -0.00000000
     atom   19 type  1   force =     0.00000625   -0.00003316   -0.00002481
     atom   20 type  1   force =    -0.00000667   -0.00002845   -0.00000472
     atom   21 type  1   force =    -0.00000000   -0.00000000   -0.00000000
     atom   22 type  1   force =     0.00000000   -0.00000000   -0.00000000
     atom   23 type  1   force =     0.00001149    0.00001199    0.00002106
     atom   24 type  1   force =    -0.00001179    0.00001872    0.00003238
     atom   25 type  1   force =    -0.00000000   -0.00000000   -0.00000000
     atom   26 type  1   force =     0.00000000   -0.00000000   -0.00000000
     atom   27 type  1   force =    -0.00000235    0.00003443    0.00007018
     atom   28 type  1   force =     0.00000250    0.00002677    0.00007440
     atom   29 type  1   force =    -0.00000000    0.00000000   -0.00000000
     atom   30 type  1   force =     0.00000000    0.00000000   -0.00000000
     atom   31 type  1   force =    -0.00000693   -0.00001150    0.00003237
     atom   32 type  1   force =     0.00000650   -0.00002381    0.00003922
     atom   33 type  1   force =     0.00000000    0.00000000    0.00000000
     atom   34 type  1   force =    -0.00000000    0.00000000    0.00000000
     atom   35 type  1   force =     0.00001348   -0.00004588   -0.00000977
     atom   36 type  1   force =    -0.00001292   -0.00004697   -0.00000064
     atom   37 type  1   force =     0.00000000   -0.00000000   -0.00000000
     atom   38 type  1   force =    -0.00000000   -0.00000000    0.00000000
     atom   39 type  1   force =     0.00000971    0.00003091    0.00000639
     atom   40 type  1   force =    -0.00000844    0.00002991    0.00000250
     atom   41 type  1   force =    -0.00000000   -0.00000000    0.00000000
     atom   42 type  1   force =     0.00000000   -0.00000000    0.00000000
     atom   43 type  1   force =    -0.00000077    0.00005488   -0.00000113
     atom   44 type  1   force =     0.00000062    0.00003938   -0.00000084
     atom   45 type  1   force =     0.00000000    0.00000000    0.00000000
     atom   46 type  1   force =    -0.00000000    0.00000000    0.00000000
     atom   47 type  1   force =     0.00000373   -0.00002852   -0.00001767
     atom   48 type  1   force =    -0.00000335   -0.00003555   -0.00000787
     atom   49 type  1   force =    -0.00000000    0.00000000    0.00000000
     atom   50 type  1   force =     0.00000000    0.00000000    0.00000000
     atom   51 type  1   force =     0.00000035   -0.00004271   -0.00001250
     atom   52 type  1   force =    -0.00000078   -0.00005065    0.00000200
     atom   53 type  1   force =    -0.00000000   -0.00000000    0.00000000
     atom   54 type  1   force =     0.00000000   -0.00000000   -0.00000000
     atom   55 type  1   force =     0.00001046    0.00002893   -0.00000123
     atom   56 type  1   force =    -0.00001091    0.00003142    0.00001029
     atom   57 type  1   force =    -0.00000000   -0.00000000    0.00000000
     atom   58 type  1   force =     0.00000000   -0.00000000    0.00000000
     atom   59 type  1   force =     0.00000709    0.00004806   -0.00000074
     atom   60 type  1   force =    -0.00000690    0.00004673   -0.00000131
     atom   61 type  1   force =    -0.00000000    0.00000000    0.00000000
     atom   62 type  1   force =     0.00000000    0.00000000    0.00000000
     atom   63 type  1   force =    -0.00000046   -0.00002645   -0.00001416
     atom   64 type  1   force =    -0.00000024   -0.00003960   -0.00001142

     Total force =     0.000790     Total SCF correction =     0.000264
     SCF correction compared to forces is large: reduce conv_thr to get better values


     Computing stress (Cartesian axis) and pressure

          total   stress  (Ry/bohr**3)                   (kbar)     P=     -304.38
  -0.00206742  -0.00000000  -0.00000000         -304.13       -0.00       -0.00
  -0.00000000  -0.00206736   0.00000009           -0.00     -304.12        0.01
  -0.00000000   0.00000009  -0.00207269           -0.00        0.01     -304.90

     kinetic stress (kbar)  16716.16      0.00     -0.00
                                0.00  16716.23      0.01
                               -0.00      0.01  16803.31

     local   stress (kbar)**********      0.00      0.00
                                0.00**********     -0.51
                                0.00     -0.511558169.46

     nonloc. stress (kbar)  -2011.97     -0.00     -0.00
                               -0.00  -2012.08      0.01
                               -0.00      0.01  -2076.14

     hartree stress (kbar) 805774.38     -0.00     -0.00
                               -0.00 805764.61      0.21
                               -0.00      0.21-731740.70

     exc-cor stress (kbar)  -8371.53     -0.00     -0.00
                               -0.00  -8371.54      0.00
                               -0.00      0.00  -8382.52

     corecor stress (kbar)      0.00      0.00      0.00
                                0.00      0.00      0.00
                                0.00      0.00      0.00

     ewald   stress (kbar) 726401.34     -0.00     -0.00
                               -0.00 726388.39      0.29
                               -0.00      0.29-833078.31

     hubbard stress (kbar)      0.00      0.00      0.00
                                0.00      0.00      0.00
                                0.00      0.00      0.00

     DFT-D   stress (kbar)      0.00      0.00      0.00
                                0.00      0.00      0.00
                                0.00      0.00      0.00

     XDM     stress (kbar)      0.00      0.00      0.00
                                0.00      0.00      0.00
                                0.00      0.00      0.00

     dft-nl  stress (kbar)      0.00      0.00      0.00
                                0.00      0.00      0.00
                                0.00      0.00      0.00

     TS-vdW  stress (kbar)      0.00      0.00      0.00
                                0.00      0.00      0.00
                                0.00      0.00      0.00

     MDB     stress (kbar)      0.00      0.00      0.00
                                0.00      0.00      0.00
                                0.00      0.00      0.00

     3D-RISM stress (kbar)      0.00      0.00      0.00
                                0.00      0.00      0.00
                                0.00      0.00      0.00

     Energy error            =      2.8E-06 Ry
     Gradient error          =      3.0E-04 Ry/Bohr

     bfgs converged in  21 scf cycles and  20 bfgs steps
     (criteria: energy <  1.0E-05 Ry, force <  5.0E-04 Ry/Bohr)

     End of BFGS Geometry Optimization

     Final energy             =  -29535.6004877469 Ry

     File ./tmp/Zn002_4x4x4_relax_ecutrho250_ecutwfc25.bfgs deleted, as requested
Begin final coordinates

ATOMIC_POSITIONS (angstrom)
Zn              -0.0000000130        1.5094013740        1.2182902100    0   0   0
Zn               5.2287196980        1.5094013740        1.2182902100    0   0   0
Zn              -0.0001147904        1.5043101809        6.1799357997
Zn               5.2288454070        1.5044302250        6.1804331964
Zn              -1.3071799410        3.7735034240        1.2182902100    0   0   0
Zn               3.9215397700        3.7735034240        1.2182902100    0   0   0
Zn              -1.3072634763        3.7691627981        6.1812707211
Zn               3.9216250935        3.7692349180        6.1813276933
Zn              -2.6143598690        6.0376054730        1.2182902100    0   0   0
Zn               2.6143598420        6.0376054730        1.2182902100    0   0   0
Zn              -2.6144295260        6.0323008964        6.1819336684
Zn               2.6144297942        6.0323575701        6.1819188219
Zn              -3.9215397970        8.3017075230        1.2182902100    0   0   0
Zn               1.3071799140        8.3017075230        1.2182902100    0   0   0
Zn              -3.9216413207        8.2955810258        6.1806708067
Zn               1.3072832678        8.2956657302        6.1812427741
Zn               2.6143598430        1.5094013740        1.2182902100    0   0   0
Zn               7.8430795540        1.5094013740        1.2182902100    0   0   0
Zn               2.6144773882        1.5044848069        6.1798904358
Zn               7.8429553627        1.5042671993        6.1804993318
Zn               1.3071799150        3.7735034240        1.2182902100    0   0   0
Zn               6.5358996260        3.7735034240        1.2182902100    0   0   0
Zn               1.3072696198        3.7692531159        6.1812255746
Zn               6.5358050752        3.7691401905        6.1814179712
Zn              -0.0000000130        6.0376054730        1.2182902100    0   0   0
Zn               5.2287196980        6.0376054730        1.2182902100    0   0   0
Zn               0.0000839467        6.0323508604        6.1820010370
Zn               5.2286363875        6.0323154820        6.1818367801
Zn              -1.3071799410        8.3017075230        1.2182902100    0   0   0
Zn               3.9215397700        8.3017075230        1.2182902100    0   0   0
Zn              -1.3070616409        8.2956708503        6.1808540142
Zn               3.9214341010        8.2955745820        6.1810867797
Zn               1.3071799410        0.7547006760        3.6548706290    0   0   0
Zn               6.5358996520        0.7547006760        3.6548706290    0   0   0
Zn               1.3072058794        0.7539874532        8.7046615890
Zn               6.5358795989        0.7539642470        8.7052265109
Zn               0.0000000130        3.0188027250        3.6548706290    0   0   0
Zn               5.2287197240        3.0188027250        3.6548706290    0   0   0
Zn               0.0000501424        3.0186237406        8.7053225205
Zn               5.2286697887        3.0186270197        8.7055570344
Zn              -1.3071799150        5.2829047750        3.6548706290    0   0   0
Zn               3.9215397960        5.2829047750        3.6548706290    0   0   0
Zn              -1.3071733423        5.2826412043        8.7073702738
Zn               3.9215228801        5.2826186608        8.7074835582
Zn              -2.6143598430        7.5470068250        3.6548706290    0   0   0
Zn               2.6143598680        7.5470068250        3.6548706290    0   0   0
Zn              -2.6143832609        7.5462581101        8.7069606987
Zn               2.6143924840        7.5461903022        8.7073015544
Zn               3.9215397970        0.7547006760        3.6548706290    0   0   0
Zn               9.1502595080        0.7547006760        3.6548706290    0   0   0
Zn               3.9215662330        0.7540325071        8.7049022335
Zn               9.1502429406        0.7539208008        8.7050385708
Zn               2.6143598690        3.0188027250        3.6548706290    0   0   0
Zn               7.8430795800        3.0188027250        3.6548706290    0   0   0
Zn               2.6144385595        3.0186388984        8.7053835466
Zn               7.8429902714        3.0186213515        8.7055169170
Zn               1.3071799410        5.2829047750        3.6548706290    0   0   0
Zn               6.5358996520        5.2829047750        3.6548706290    0   0   0
Zn               1.3072823210        5.2826221253        8.7074677416
Zn               6.5357995862        5.2826346883        8.7074092751
Zn               0.0000000130        7.5470068250        3.6548706290    0   0   0
Zn               5.2287197240        7.5470068250        3.6548706290    0   0   0
Zn               0.0000374924        7.5462466704        8.7071542322
Zn               5.2286839433        7.5462082058        8.7071156931
End final coordinates



     Writing all to output data dir ./tmp/Zn002_4x4x4_relax_ecutrho250_ecutwfc25.save/ :
     XML data file, charge density, pseudopotentials, collected wavefunctions

     init_run     :     64.68s CPU     65.18s WALL (       1 calls)
     electrons    :  46369.98s CPU  46756.35s WALL (      21 calls)
     update_pot   :      0.46s CPU      0.50s WALL (      20 calls)
     forces       :   1189.25s CPU   1195.99s WALL (      21 calls)
     stress       :   3239.31s CPU   3251.16s WALL (      21 calls)

     Called by init_run:
     wfcinit      :     64.25s CPU     64.74s WALL (       1 calls)
     wfcinit:atom :      0.04s CPU      0.07s WALL (       5 calls)
     wfcinit:wfcr :     63.73s CPU     64.13s WALL (       5 calls)
     potinit      :      0.02s CPU      0.02s WALL (       1 calls)
     hinit0       :      0.02s CPU      0.02s WALL (       1 calls)

     Called by electrons:
     c_bands      :  43420.41s CPU  43789.42s WALL (     189 calls)
     sum_band     :   2890.76s CPU   2907.18s WALL (     189 calls)
     v_of_rho     :      3.11s CPU      3.30s WALL (     189 calls)
     v_h          :      0.15s CPU      0.17s WALL (     189 calls)
     v_xc         :      2.96s CPU      3.13s WALL (     189 calls)
     newd         :     62.14s CPU     62.43s WALL (     189 calls)
     mix_rho      :      0.37s CPU      0.39s WALL (     189 calls)

     Called by c_bands:
     init_us_2    :     42.05s CPU     42.21s WALL (    2105 calls)
     cegterg      :  43341.27s CPU  43709.37s WALL (     945 calls)

     Called by sum_band:
     sum_band:wei :      0.72s CPU      0.73s WALL (     189 calls)
     sum_band:loo :   2837.71s CPU   2853.85s WALL (     189 calls)
     sum_band:buf :      7.46s CPU      7.51s WALL (     945 calls)
     sum_band:ini :     19.23s CPU     19.29s WALL (     945 calls)
     sum_band:cal :   2563.39s CPU   2577.27s WALL (     945 calls)
     sum_band:bec :     35.55s CPU     35.64s WALL (     945 calls)
     addusdens    :     49.27s CPU     49.43s WALL (     189 calls)
                                        0.00s GPU  (     189 calls)
     addusd:skk   :      0.73s CPU      0.74s WALL (     189 calls)
                                        0.00s GPU  (     189 calls)

     Called by *egterg:
     cdiaghg      :   3831.31s CPU   3979.59s WALL (    3218 calls)
     cegterg:over :   6974.25s CPU   7005.11s WALL (    2478 calls)
     cegterg:upda :   2845.82s CPU   2862.57s WALL (    2478 calls)
     cegterg:last :  10514.30s CPU  10591.33s WALL (    1970 calls)
     cdiaghg:chol :    310.73s CPU    311.52s WALL (    3218 calls)
     cdiaghg:inve :     44.56s CPU     44.68s WALL (    3218 calls)
     cdiaghg:para :   1239.31s CPU   1257.60s WALL (    6436 calls)
     h_psi        :  12196.52s CPU  12262.38s WALL (    3428 calls)
     s_psi        :   5230.37s CPU   5243.05s WALL (    3428 calls)
     g_psi        :      4.81s CPU      4.85s WALL (    2478 calls)

     Called by h_psi:
     h_psi:calbec :   5949.34s CPU   5981.84s WALL (    3428 calls)
     vloc_psi     :    978.33s CPU    987.49s WALL (    3428 calls)
     add_vuspsi   :   5255.97s CPU   5272.07s WALL (    3428 calls)

     General routines
     calbec       :   9987.08s CPU  10041.24s WALL (    4898 calls)
     fft          :      3.19s CPU      3.48s WALL (    2288 calls)
     ffts         :      0.16s CPU      0.19s WALL (     189 calls)
     fftw         :   1103.43s CPU   1114.03s WALL ( 4090978 calls)

     Parallel routines

     PWSCF        :     14h 7m CPU     14h14m WALL


   This run was terminated on:   4:49:46  18Mar2025            

=------------------------------------------------------------------------------=
   JOB DONE.
=------------------------------------------------------------------------------=
Note: The following floating-point exceptions are signalling: IEEE_DENORMAL
Note: The following floating-point exceptions are signalling: IEEE_DENORMAL
Note: The following floating-point exceptions are signalling: IEEE_DENORMAL
Note: The following floating-point exceptions are signalling: IEEE_DENORMAL
Note: The following floating-point exceptions are signalling: IEEE_DENORMAL
Note: The following floating-point exceptions are signalling: IEEE_DENORMAL
Note: The following floating-point exceptions are signalling: IEEE_DENORMAL
Note: The following floating-point exceptions are signalling: IEEE_DENORMAL
Note: The following floating-point exceptions are signalling: IEEE_DENORMAL
Note: The following floating-point exceptions are signalling: IEEE_DENORMAL
Note: The following floating-point exceptions are signalling: IEEE_DENORMAL
Note: The following floating-point exceptions are signalling: IEEE_DENORMAL
