--------------------------------------------------------------------------
By default, for Open MPI 4.0 and later, infiniband ports on a device
are not used by default.  The intent is to use UCX for these devices.
You can override this policy by setting the btl_openib_allow_ib MCA parameter
to true.

  Local host:              psid05
  Local adapter:           mlx4_0
  Local port:              1

--------------------------------------------------------------------------
--------------------------------------------------------------------------
WARNING: There was an error initializing an OpenFabrics device.

  Local host:   psid05
  Local device: mlx4_0
--------------------------------------------------------------------------

     Program PWSCF v.7.3.1 starts on 17Mar2025 at 17:25:44 

     This program is part of the open-source Quantum ESPRESSO suite
     for quantum simulation of materials; please cite
         "P. Giannozzi et al., J. Phys.:Condens. Matter 21 395502 (2009);
         "P. Giannozzi et al., J. Phys.:Condens. Matter 29 465901 (2017);
         "P. Giannozzi et al., J. Chem. Phys. 152 154105 (2020);
          URL http://www.quantum-espresso.org", 
     in publications or presentations arising from this work. More details at
     http://www.quantum-espresso.org/quote

     Parallel version (MPI), running on    32 processors

     MPI processes distributed on     1 nodes
     102657 MiB available memory on the printing compute node when the environment starts

     Waiting for input...
     Reading input from standard input
Warning: card &CELL ignored
Warning: card   CELL_DOFREE = 'ALL' ignored
Warning: card / ignored

     Current dimensions of program PWSCF are:
     Max number of different atomic species (ntypx) = 10
     Max number of k-points (npk) =  40000
     Max angular momentum in pseudopotentials (lmaxx) =  4
     Found identity + (  0.0000  0.5000  0.0000) symmetry
     This is a supercell, fractional translations are disabled

     R & G space division:  proc/nbgrp/npool/nimage =      32
     Subspace diagonalization in iterative solution of the eigenvalue problem:
     one sub-group per band group will be used
     custom distributed-memory algorithm (size of sub-group:  5*  5 procs)


     Parallelization info
     --------------------
     sticks:   dense  smooth     PW     G-vecs:    dense   smooth      PW
     Min         108     108     28                10997    10997    1499
     Max         109     109     29                11002    11002    1509
     Sum        3477    3477    923               351985   351985   48189

     Using Slab Decomposition



     bravais-lattice index     =            0
     lattice parameter (alat)  =      18.4179  a.u.
     unit-cell volume          =   15858.2170 (a.u.)^3
     number of atoms/cell      =           64
     number of atomic types    =            1
     number of electrons       =      1280.00
     number of Kohn-Sham states=          768
     kinetic-energy cutoff     =      30.0000  Ry
     charge density cutoff     =     120.0000  Ry
     scf convergence threshold =      7.3E-07
     mixing beta               =       0.7000
     number of iterations used =            8  plain     mixing
     energy convergence thresh.=      1.0E-05
     force convergence thresh. =      5.0E-04
     Exchange-correlation= SLA  PW   PBE  PBE
                           (   1   4   3   4   0   0   0)
     nstep                     =          100


     celldm(1)=  18.417879  celldm(2)=   0.000000  celldm(3)=   0.000000
     celldm(4)=   0.000000  celldm(5)=   0.000000  celldm(6)=   0.000000

     crystal axes: (cart. coord. in units of alat)
               a(1) = (   1.000000   0.000000   0.000000 )  
               a(2) = (   0.000000   1.072963   0.000000 )  
               a(3) = (   0.000000  -1.365810   2.365652 )  

     reciprocal axes: (cart. coord. in units 2 pi/alat)
               b(1) = (  1.000000  0.000000 -0.000000 )  
               b(2) = ( -0.000000  0.931999  0.538090 )  
               b(3) = (  0.000000  0.000000  0.422716 )  


     PseudoPot. # 1 for Zn read from file:
     /home/ys/qepseudo/SSSP_1.3.0_PBE_efficiency/Zn_pbe_v1.uspp.F.UPF
     MD5 check sum: df62231357ef9e81f77b2b3087fa5675
     Pseudo is Ultrasoft, Zval = 20.0
     Generated by new atomic code, or converted to UPF format
     Using radial grid of  943 points,  6 beta functions with: 
                l(1) =   0
                l(2) =   0
                l(3) =   1
                l(4) =   1
                l(5) =   2
                l(6) =   2
     Q(r) pseudized with  8 coefficients,  rinner =    1.100   1.100   1.100
                                                       1.100   1.100

     atomic species   valence    mass     pseudopotential
     Zn               20.00    65.38000     Zn( 1.00)

     No symmetry found


                                    s                        frac. trans.

      isym =  1     identity                                     

 cryst.   s( 1) = (     1          0          0      )
                  (     0          1          0      )
                  (     0          0          1      )

 cart.    s( 1) = (  1.0000000  0.0000000  0.0000000 )
                  (  0.0000000  1.0000000 -0.0000000 )
                  (  0.0000000  0.0000000  1.0000000 )


   Cartesian axes

     site n.     atom                  positions (alat units)
         1        Zn     tau(   1) = (   0.1250000   0.1341203   0.0774344  )
         2        Zn     tau(   2) = (   0.1250000   0.6706017   0.0774344  )
         3        Zn     tau(   3) = (   0.1250000   0.0000000   0.3097376  )
         4        Zn     tau(   4) = (   0.1250000   0.5364813   0.3097376  )
         5        Zn     tau(   5) = (   0.1252274  -0.1341230   0.5810209  )
         6        Zn     tau(   6) = (   0.1252274   0.4023583   0.5810209  )
         7        Zn     tau(   7) = (   0.1252343  -0.2682335   0.8536748  )
         8        Zn     tau(   8) = (   0.1252343   0.2682478   0.8536748  )
         9        Zn     tau(   9) = (   0.1250000   0.4023610   0.0774344  )
        10        Zn     tau(  10) = (   0.1250000   0.9388423   0.0774344  )
        11        Zn     tau(  11) = (   0.1250000   0.2682407   0.3097376  )
        12        Zn     tau(  12) = (   0.1250000   0.8047220   0.3097376  )
        13        Zn     tau(  13) = (   0.1252273   0.1341177   0.5810211  )
        14        Zn     tau(  14) = (   0.1252273   0.6705990   0.5810211  )
        15        Zn     tau(  15) = (   0.1252343   0.0000071   0.8536747  )
        16        Zn     tau(  16) = (   0.1252343   0.5364885   0.8536747  )
        17        Zn     tau(  17) = (   0.6250000   0.1341203   0.0774344  )
        18        Zn     tau(  18) = (   0.6250000   0.6706017   0.0774344  )
        19        Zn     tau(  19) = (   0.6250000   0.0000000   0.3097376  )
        20        Zn     tau(  20) = (   0.6250000   0.5364813   0.3097376  )
        21        Zn     tau(  21) = (   0.6247544  -0.1341232   0.5808336  )
        22        Zn     tau(  22) = (   0.6247544   0.4023581   0.5808336  )
        23        Zn     tau(  23) = (   0.6247716  -0.2682336   0.8536785  )
        24        Zn     tau(  24) = (   0.6247716   0.2682478   0.8536785  )
        25        Zn     tau(  25) = (   0.6250000   0.4023610   0.0774344  )
        26        Zn     tau(  26) = (   0.6250000   0.9388423   0.0774344  )
        27        Zn     tau(  27) = (   0.6250000   0.2682407   0.3097376  )
        28        Zn     tau(  28) = (   0.6250000   0.8047220   0.3097376  )
        29        Zn     tau(  29) = (   0.6247545   0.1341174   0.5808334  )
        30        Zn     tau(  30) = (   0.6247545   0.6705988   0.5808334  )
        31        Zn     tau(  31) = (   0.6247717   0.0000071   0.8536785  )
        32        Zn     tau(  32) = (   0.6247717   0.5364885   0.8536785  )
        33        Zn     tau(  33) = (   0.3750000  -0.0000000   0.1548688  )
        34        Zn     tau(  34) = (   0.3750000   0.5364813   0.1548688  )
        35        Zn     tau(  35) = (   0.3750000  -0.1341203   0.3871721  )
        36        Zn     tau(  36) = (   0.3750000   0.4023610   0.3871721  )
        37        Zn     tau(  37) = (   0.3749045  -0.2682370   0.6231456  )
        38        Zn     tau(  38) = (   0.3749045   0.2682443   0.6231456  )
        39        Zn     tau(  39) = (   0.3748936  -0.4023530   0.8690866  )
        40        Zn     tau(  40) = (   0.3748936   0.1341283   0.8690866  )
        41        Zn     tau(  41) = (   0.3750000   0.2682407   0.1548688  )
        42        Zn     tau(  42) = (   0.3750000   0.8047220   0.1548688  )
        43        Zn     tau(  43) = (   0.3750000   0.1341203   0.3871721  )
        44        Zn     tau(  44) = (   0.3750000   0.6706017   0.3871721  )
        45        Zn     tau(  45) = (   0.3749046   0.0000037   0.6231455  )
        46        Zn     tau(  46) = (   0.3749046   0.5364850   0.6231455  )
        47        Zn     tau(  47) = (   0.3748935  -0.1341123   0.8690865  )
        48        Zn     tau(  48) = (   0.3748935   0.4023690   0.8690865  )
        49        Zn     tau(  49) = (   0.8750000  -0.0000000   0.1548688  )
        50        Zn     tau(  50) = (   0.8750000   0.5364813   0.1548688  )
        51        Zn     tau(  51) = (   0.8750000  -0.1341203   0.3871721  )
        52        Zn     tau(  52) = (   0.8750000   0.4023610   0.3871721  )
        53        Zn     tau(  53) = (   0.8750648  -0.2682369   0.6230150  )
        54        Zn     tau(  54) = (   0.8750648   0.2682444   0.6230150  )
        55        Zn     tau(  55) = (   0.8751138  -0.4023527   0.8691801  )
        56        Zn     tau(  56) = (   0.8751138   0.1341286   0.8691801  )
        57        Zn     tau(  57) = (   0.8750000   0.2682407   0.1548688  )
        58        Zn     tau(  58) = (   0.8750000   0.8047220   0.1548688  )
        59        Zn     tau(  59) = (   0.8750000   0.1341203   0.3871721  )
        60        Zn     tau(  60) = (   0.8750000   0.6706017   0.3871721  )
        61        Zn     tau(  61) = (   0.8750650   0.0000037   0.6230149  )
        62        Zn     tau(  62) = (   0.8750650   0.5364850   0.6230149  )
        63        Zn     tau(  63) = (   0.8751139  -0.1341120   0.8691802  )
        64        Zn     tau(  64) = (   0.8751139   0.4023693   0.8691802  )

   Crystallographic axes

     site n.     atom                  positions (cryst. coord.)
         1        Zn     tau(   1) = (  0.1250000  0.1666667  0.0327328  )
         2        Zn     tau(   2) = (  0.1250000  0.6666667  0.0327328  )
         3        Zn     tau(   3) = (  0.1250000  0.1666667  0.1309312  )
         4        Zn     tau(   4) = (  0.1250000  0.6666667  0.1309312  )
         5        Zn     tau(   5) = (  0.1252274  0.1876389  0.2456071  )
         6        Zn     tau(   6) = (  0.1252274  0.6876389  0.2456071  )
         7        Zn     tau(   7) = (  0.1252343  0.2093604  0.3608623  )
         8        Zn     tau(   8) = (  0.1252343  0.7093604  0.3608623  )
         9        Zn     tau(   9) = (  0.1250000  0.4166667  0.0327328  )
        10        Zn     tau(  10) = (  0.1250000  0.9166667  0.0327328  )
        11        Zn     tau(  11) = (  0.1250000  0.4166667  0.1309312  )
        12        Zn     tau(  12) = (  0.1250000  0.9166667  0.1309312  )
        13        Zn     tau(  13) = (  0.1252273  0.4376390  0.2456071  )
        14        Zn     tau(  14) = (  0.1252273  0.9376390  0.2456071  )
        15        Zn     tau(  15) = (  0.1252343  0.4593603  0.3608623  )
        16        Zn     tau(  16) = (  0.1252343  0.9593603  0.3608623  )
        17        Zn     tau(  17) = (  0.6250000  0.1666667  0.0327328  )
        18        Zn     tau(  18) = (  0.6250000  0.6666667  0.0327328  )
        19        Zn     tau(  19) = (  0.6250000  0.1666667  0.1309312  )
        20        Zn     tau(  20) = (  0.6250000  0.6666667  0.1309312  )
        21        Zn     tau(  21) = (  0.6247544  0.1875379  0.2455279  )
        22        Zn     tau(  22) = (  0.6247544  0.6875379  0.2455279  )
        23        Zn     tau(  23) = (  0.6247716  0.2093623  0.3608639  )
        24        Zn     tau(  24) = (  0.6247716  0.7093623  0.3608639  )
        25        Zn     tau(  25) = (  0.6250000  0.4166667  0.0327328  )
        26        Zn     tau(  26) = (  0.6250000  0.9166667  0.0327328  )
        27        Zn     tau(  27) = (  0.6250000  0.4166667  0.1309312  )
        28        Zn     tau(  28) = (  0.6250000  0.9166667  0.1309312  )
        29        Zn     tau(  29) = (  0.6247545  0.4375378  0.2455278  )
        30        Zn     tau(  30) = (  0.6247545  0.9375378  0.2455278  )
        31        Zn     tau(  31) = (  0.6247717  0.4593623  0.3608639  )
        32        Zn     tau(  32) = (  0.6247717  0.9593623  0.3608639  )
        33        Zn     tau(  33) = (  0.3750000  0.0833333  0.0654656  )
        34        Zn     tau(  34) = (  0.3750000  0.5833333  0.0654656  )
        35        Zn     tau(  35) = (  0.3750000  0.0833333  0.1636640  )
        36        Zn     tau(  36) = (  0.3750000  0.5833333  0.1636640  )
        37        Zn     tau(  37) = (  0.3749045  0.0853117  0.2634138  )
        38        Zn     tau(  38) = (  0.3749045  0.5853117  0.2634138  )
        39        Zn     tau(  39) = (  0.3748936  0.0926541  0.3673772  )
        40        Zn     tau(  40) = (  0.3748936  0.5926541  0.3673772  )
        41        Zn     tau(  41) = (  0.3750000  0.3333333  0.0654656  )
        42        Zn     tau(  42) = (  0.3750000  0.8333333  0.0654656  )
        43        Zn     tau(  43) = (  0.3750000  0.3333333  0.1636640  )
        44        Zn     tau(  44) = (  0.3750000  0.8333333  0.1636640  )
        45        Zn     tau(  45) = (  0.3749046  0.3353117  0.2634138  )
        46        Zn     tau(  46) = (  0.3749046  0.8353117  0.2634138  )
        47        Zn     tau(  47) = (  0.3748935  0.3426540  0.3673771  )
        48        Zn     tau(  48) = (  0.3748935  0.8426540  0.3673771  )
        49        Zn     tau(  49) = (  0.8750000  0.0833333  0.0654656  )
        50        Zn     tau(  50) = (  0.8750000  0.5833333  0.0654656  )
        51        Zn     tau(  51) = (  0.8750000  0.0833333  0.1636640  )
        52        Zn     tau(  52) = (  0.8750000  0.5833333  0.1636640  )
        53        Zn     tau(  53) = (  0.8750648  0.0852415  0.2633587  )
        54        Zn     tau(  54) = (  0.8750648  0.5852415  0.2633587  )
        55        Zn     tau(  55) = (  0.8751138  0.0927046  0.3674167  )
        56        Zn     tau(  56) = (  0.8751138  0.5927046  0.3674167  )
        57        Zn     tau(  57) = (  0.8750000  0.3333333  0.0654656  )
        58        Zn     tau(  58) = (  0.8750000  0.8333333  0.0654656  )
        59        Zn     tau(  59) = (  0.8750000  0.3333333  0.1636640  )
        60        Zn     tau(  60) = (  0.8750000  0.8333333  0.1636640  )
        61        Zn     tau(  61) = (  0.8750650  0.3352414  0.2633586  )
        62        Zn     tau(  62) = (  0.8750650  0.8352414  0.2633586  )
        63        Zn     tau(  63) = (  0.8751139  0.3427047  0.3674167  )
        64        Zn     tau(  64) = (  0.8751139  0.8427047  0.3674167  )

     number of k points=     5  Marzari-Vanderbilt smearing, width (Ry)=  0.0200
                       cart. coord. in units 2pi/alat
        k(    1) = (   0.0000000   0.0000000   0.0000000), wk =   0.2222222
        k(    2) = (   0.0000000   0.3106663   0.1793633), wk =   0.4444444
        k(    3) = (   0.3333333   0.0000000   0.0000000), wk =   0.4444444
        k(    4) = (   0.3333333   0.3106663   0.1793633), wk =   0.4444444
        k(    5) = (   0.3333333  -0.3106663  -0.1793633), wk =   0.4444444

                       cryst. coord.
        k(    1) = (   0.0000000   0.0000000   0.0000000), wk =   0.2222222
        k(    2) = (   0.0000000   0.3333333  -0.0000000), wk =   0.4444444
        k(    3) = (   0.3333333   0.0000000   0.0000000), wk =   0.4444444
        k(    4) = (   0.3333333   0.3333333  -0.0000000), wk =   0.4444444
        k(    5) = (   0.3333333  -0.3333333   0.0000000), wk =   0.4444444

     Dense  grid:   351985 G-vectors     FFT dimensions: (  72,  72, 180)

     Dynamical RAM for                 wfc:      16.11 MB

     Dynamical RAM for     wfc (w. buffer):      96.68 MB

     Dynamical RAM for           str. fact:       0.17 MB

     Dynamical RAM for           local pot:       0.00 MB

     Dynamical RAM for          nlocal pot:      24.17 MB

     Dynamical RAM for                qrad:       0.88 MB

     Dynamical RAM for          rho,v,vnew:       1.22 MB

     Dynamical RAM for               rhoin:       0.41 MB

     Dynamical RAM for            rho*nmix:       2.69 MB

     Dynamical RAM for           G-vectors:       0.71 MB

     Dynamical RAM for          h,s,v(r/c):       4.31 MB

     Dynamical RAM for          <psi|beta>:      13.50 MB

     Dynamical RAM for                 psi:      32.23 MB

     Dynamical RAM for                hpsi:      32.23 MB

     Dynamical RAM for                spsi:      32.23 MB

     Dynamical RAM for      wfcinit/wfcrot:      50.76 MB

     Dynamical RAM for           addusdens:      41.97 MB

     Dynamical RAM for          addusforce:      63.46 MB

     Dynamical RAM for         addusstress:      33.74 MB

     Estimated static dynamical RAM per process >     125.75 MB

     Estimated max dynamical RAM per process >     242.93 MB

     Estimated total dynamical RAM >       7.59 GB

     Initial potential from superposition of free atoms

     starting charge    1279.9910, renormalised to    1280.0000

     negative rho (up, down):  1.583E-03 0.000E+00
     Starting wfcs are  832 randomized atomic wfcs
[psid05:111321] 31 more processes have sent help message help-mpi-btl-openib.txt / ib port not selected
[psid05:111321] Set MCA parameter "orte_base_help_aggregate" to 0 to see all help / error messages
[psid05:111321] 31 more processes have sent help message help-mpi-btl-openib.txt / error in device init

     total cpu time spent up to now is       66.6 secs

     Self-consistent Calculation

     iteration #  1     ecut=    30.00 Ry     beta= 0.70
     Davidson diagonalization with overlap

---- Real-time Memory Report at c_bands before calling an iterative solver
           203 MiB given to the printing process from OS
             0 MiB allocation reported by mallinfo(arena+hblkhd)
         98312 MiB available memory on the node where the printing process lives
------------------
     ethr =  1.00E-02,  avg # of iterations =  7.4

     Threshold (ethr) on eigenvalues was too large:
     Diagonalizing with lowered threshold

     Davidson diagonalization with overlap

---- Real-time Memory Report at c_bands before calling an iterative solver
           280 MiB given to the printing process from OS
             0 MiB allocation reported by mallinfo(arena+hblkhd)
         96975 MiB available memory on the node where the printing process lives
------------------
     ethr =  1.81E-04,  avg # of iterations =  7.0

     negative rho (up, down):  5.954E-03 0.000E+00

     total cpu time spent up to now is      587.8 secs

     total energy              =  -29533.85799681 Ry
     estimated scf accuracy    <       2.50968667 Ry

     iteration #  2     ecut=    30.00 Ry     beta= 0.70
     Davidson diagonalization with overlap

---- Real-time Memory Report at c_bands before calling an iterative solver
           294 MiB given to the printing process from OS
             0 MiB allocation reported by mallinfo(arena+hblkhd)
         96908 MiB available memory on the node where the printing process lives
------------------
     ethr =  1.96E-04,  avg # of iterations =  4.6

     negative rho (up, down):  7.091E-03 0.000E+00

     total cpu time spent up to now is      930.5 secs

     total energy              =  -29533.88774381 Ry
     estimated scf accuracy    <       5.97092132 Ry

     iteration #  3     ecut=    30.00 Ry     beta= 0.70
     Davidson diagonalization with overlap

---- Real-time Memory Report at c_bands before calling an iterative solver
           295 MiB given to the printing process from OS
             0 MiB allocation reported by mallinfo(arena+hblkhd)
         96862 MiB available memory on the node where the printing process lives
------------------
     ethr =  1.96E-04,  avg # of iterations =  9.4

     negative rho (up, down):  7.318E-03 0.000E+00

     total cpu time spent up to now is     1288.5 secs

     total energy              =  -29532.73138264 Ry
     estimated scf accuracy    <      60.24096386 Ry

     iteration #  4     ecut=    30.00 Ry     beta= 0.70
     Davidson diagonalization with overlap

---- Real-time Memory Report at c_bands before calling an iterative solver
           295 MiB given to the printing process from OS
             0 MiB allocation reported by mallinfo(arena+hblkhd)
         96851 MiB available memory on the node where the printing process lives
------------------
     ethr =  1.96E-04,  avg # of iterations =  7.6

     negative rho (up, down):  8.274E-03 0.000E+00

     total cpu time spent up to now is     1548.2 secs

     total energy              =  -29535.14740294 Ry
     estimated scf accuracy    <       0.16099865 Ry

     iteration #  5     ecut=    30.00 Ry     beta= 0.70
     Davidson diagonalization with overlap

---- Real-time Memory Report at c_bands before calling an iterative solver
           296 MiB given to the printing process from OS
             0 MiB allocation reported by mallinfo(arena+hblkhd)
         96839 MiB available memory on the node where the printing process lives
------------------
     ethr =  1.26E-05,  avg # of iterations = 14.4

     negative rho (up, down):  9.693E-03 0.000E+00

     total cpu time spent up to now is     1856.7 secs

     total energy              =  -29535.13894012 Ry
     estimated scf accuracy    <       0.75369101 Ry

     iteration #  6     ecut=    30.00 Ry     beta= 0.70
     Davidson diagonalization with overlap

---- Real-time Memory Report at c_bands before calling an iterative solver
           296 MiB given to the printing process from OS
             0 MiB allocation reported by mallinfo(arena+hblkhd)
         96830 MiB available memory on the node where the printing process lives
------------------
     ethr =  1.26E-05,  avg # of iterations = 12.4

     negative rho (up, down):  9.916E-03 0.000E+00

     total cpu time spent up to now is     2128.3 secs

     total energy              =  -29535.20135993 Ry
     estimated scf accuracy    <       0.00538287 Ry

     iteration #  7     ecut=    30.00 Ry     beta= 0.70
     Davidson diagonalization with overlap

---- Real-time Memory Report at c_bands before calling an iterative solver
           296 MiB given to the printing process from OS
             0 MiB allocation reported by mallinfo(arena+hblkhd)
         96810 MiB available memory on the node where the printing process lives
------------------
     ethr =  4.21E-07,  avg # of iterations =  5.4

     negative rho (up, down):  9.999E-03 0.000E+00

     total cpu time spent up to now is     2412.3 secs

     total energy              =  -29535.20249319 Ry
     estimated scf accuracy    <       0.00117156 Ry

     iteration #  8     ecut=    30.00 Ry     beta= 0.70
     Davidson diagonalization with overlap

---- Real-time Memory Report at c_bands before calling an iterative solver
           297 MiB given to the printing process from OS
             0 MiB allocation reported by mallinfo(arena+hblkhd)
         96800 MiB available memory on the node where the printing process lives
------------------
     ethr =  9.15E-08,  avg # of iterations =  2.0

     negative rho (up, down):  1.003E-02 0.000E+00

     total cpu time spent up to now is     2634.4 secs

     total energy              =  -29535.20266393 Ry
     estimated scf accuracy    <       0.00022180 Ry

     iteration #  9     ecut=    30.00 Ry     beta= 0.70
     Davidson diagonalization with overlap

---- Real-time Memory Report at c_bands before calling an iterative solver
           297 MiB given to the printing process from OS
             0 MiB allocation reported by mallinfo(arena+hblkhd)
         96791 MiB available memory on the node where the printing process lives
------------------
     ethr =  1.73E-08,  avg # of iterations =  2.0

     negative rho (up, down):  1.003E-02 0.000E+00

     total cpu time spent up to now is     2868.8 secs

     total energy              =  -29535.20268293 Ry
     estimated scf accuracy    <       0.00012331 Ry

     iteration # 10     ecut=    30.00 Ry     beta= 0.70
     Davidson diagonalization with overlap

---- Real-time Memory Report at c_bands before calling an iterative solver
           298 MiB given to the printing process from OS
             0 MiB allocation reported by mallinfo(arena+hblkhd)
         96779 MiB available memory on the node where the printing process lives
------------------
     ethr =  9.63E-09,  avg # of iterations =  2.0

     negative rho (up, down):  1.003E-02 0.000E+00

     total cpu time spent up to now is     3088.4 secs

     total energy              =  -29535.20270209 Ry
     estimated scf accuracy    <       0.00004403 Ry

     iteration # 11     ecut=    30.00 Ry     beta= 0.70
     Davidson diagonalization with overlap

---- Real-time Memory Report at c_bands before calling an iterative solver
           298 MiB given to the printing process from OS
             0 MiB allocation reported by mallinfo(arena+hblkhd)
         96772 MiB available memory on the node where the printing process lives
------------------
     ethr =  3.44E-09,  avg # of iterations =  2.0

     negative rho (up, down):  1.003E-02 0.000E+00

     total cpu time spent up to now is     3307.8 secs

     total energy              =  -29535.20270677 Ry
     estimated scf accuracy    <       0.00000553 Ry

     iteration # 12     ecut=    30.00 Ry     beta= 0.70
     Davidson diagonalization with overlap

---- Real-time Memory Report at c_bands before calling an iterative solver
           298 MiB given to the printing process from OS
             0 MiB allocation reported by mallinfo(arena+hblkhd)
         96769 MiB available memory on the node where the printing process lives
------------------
     ethr =  4.32E-10,  avg # of iterations =  2.0

     negative rho (up, down):  1.003E-02 0.000E+00

     total cpu time spent up to now is     3552.6 secs

     total energy              =  -29535.20270724 Ry
     estimated scf accuracy    <       0.00000681 Ry

     iteration # 13     ecut=    30.00 Ry     beta= 0.70
     Davidson diagonalization with overlap

---- Real-time Memory Report at c_bands before calling an iterative solver
           298 MiB given to the printing process from OS
             0 MiB allocation reported by mallinfo(arena+hblkhd)
         96770 MiB available memory on the node where the printing process lives
------------------
     ethr =  4.32E-10,  avg # of iterations =  2.0

     negative rho (up, down):  1.003E-02 0.000E+00

     total cpu time spent up to now is     3771.8 secs

     total energy              =  -29535.20270784 Ry
     estimated scf accuracy    <       0.00000395 Ry

     iteration # 14     ecut=    30.00 Ry     beta= 0.70
     Davidson diagonalization with overlap

---- Real-time Memory Report at c_bands before calling an iterative solver
           298 MiB given to the printing process from OS
             0 MiB allocation reported by mallinfo(arena+hblkhd)
         96769 MiB available memory on the node where the printing process lives
------------------
     ethr =  3.08E-10,  avg # of iterations =  1.0

     negative rho (up, down):  1.003E-02 0.000E+00

     total cpu time spent up to now is     3951.7 secs

     total energy              =  -29535.20270809 Ry
     estimated scf accuracy    <       0.00000254 Ry

     iteration # 15     ecut=    30.00 Ry     beta= 0.70
     Davidson diagonalization with overlap

---- Real-time Memory Report at c_bands before calling an iterative solver
           298 MiB given to the printing process from OS
             0 MiB allocation reported by mallinfo(arena+hblkhd)
         96767 MiB available memory on the node where the printing process lives
------------------
     ethr =  1.98E-10,  avg # of iterations =  1.0

     negative rho (up, down):  1.003E-02 0.000E+00

     total cpu time spent up to now is     4131.7 secs

     End of self-consistent calculation

          k = 0.0000 0.0000 0.0000 ( 44003 PWs)   bands (ev):

  -123.6202-123.6188-123.6187-123.6182-123.6178-123.6174-123.6174-123.6172
  -123.5526-123.5515-123.5514-123.5510-123.5481-123.5470-123.5470-123.5467
  -123.5466-123.5453-123.5453-123.5446-123.5443-123.5443-123.5443-123.5438
  -123.4301-123.4288-123.4287-123.4282-123.4280-123.4275-123.4275-123.4273
  -123.4257-123.4243-123.4243-123.4235-123.4234-123.4234-123.4233-123.4233
  -123.3894-123.3880-123.3880-123.3873-123.3870-123.3870-123.3870-123.3870
  -123.3396-123.3386-123.3385-123.3381-123.3348-123.3342-123.3342-123.3339
  -123.2684-123.2672-123.2672-123.2667-123.2655-123.2653-123.2652-123.2650
   -77.7225 -77.7194 -77.7130 -77.7116 -77.7116 -77.7116 -77.7113 -77.7107
   -77.7106 -77.7106 -77.7090 -77.7057 -77.7057 -77.7018 -77.7018 -77.6999
   -77.6994 -77.6994 -77.6985 -77.6981 -77.6981 -77.6977 -77.6905 -77.6836
   -77.6525 -77.6475 -77.6465 -77.6456 -77.6445 -77.6438 -77.6438 -77.6436
   -77.6432 -77.6420 -77.6412 -77.6412 -77.6411 -77.6411 -77.6401 -77.6390
   -77.6390 -77.6388 -77.6374 -77.6374 -77.6359 -77.6359 -77.6357 -77.6357
   -77.6353 -77.6343 -77.6337 -77.6323 -77.6323 -77.6317 -77.6316 -77.6311
   -77.6311 -77.6298 -77.6280 -77.6280 -77.6277 -77.6277 -77.6269 -77.6253
   -77.6253 -77.6242 -77.6229 -77.6229 -77.6218 -77.6163 -77.6144 -77.6020
   -77.5324 -77.5318 -77.5300 -77.5270 -77.5269 -77.5269 -77.5251 -77.5245
   -77.5208 -77.5207 -77.5199 -77.5199 -77.5197 -77.5196 -77.5186 -77.5178
   -77.5167 -77.5149 -77.5149 -77.5140 -77.5140 -77.5139 -77.5130 -77.5122
   -77.5122 -77.5121 -77.5119 -77.5119 -77.5119 -77.5119 -77.5113 -77.5113
   -77.5111 -77.5109 -77.5109 -77.5102 -77.5086 -77.5083 -77.5083 -77.5069
   -77.5066 -77.5066 -77.5047 -77.5047 -77.5018 -77.4991 -77.4989 -77.4989
   -77.4985 -77.4985 -77.4984 -77.4969 -77.4966 -77.4965 -77.4950 -77.4882
   -77.4832 -77.4807 -77.4743 -77.4698 -77.4698 -77.4633 -77.4628 -77.4628
   -77.4623 -77.4623 -77.4619 -77.4616 -77.4610 -77.4610 -77.4526 -77.4423
   -77.4398 -77.4382 -77.4371 -77.4371 -77.4359 -77.4347 -77.4336 -77.4329
   -77.4329 -77.4314 -77.4272 -77.4228 -77.4228 -77.4194 -77.4194 -77.4174
   -77.4147 -77.4147 -77.4145 -77.4141 -77.4141 -77.4128 -77.4083 -77.4004
   -77.3668 -77.3648 -77.3641 -77.3630 -77.3630 -77.3620 -77.3620 -77.3620
   -77.3617 -77.3614 -77.3613 -77.3613 -77.3598 -77.3562 -77.3542 -77.3542
   -77.3540 -77.3536 -77.3442 -77.3442 -77.3416 -77.3416 -77.3338 -77.3233
    -6.7794  -5.8577  -5.7156  -5.5090  -5.5090  -5.4283  -5.2796  -5.2146
    -5.2009  -5.1538  -5.1272  -5.1227  -5.1172  -5.1014  -5.1007  -5.0989
    -5.0938  -5.0506  -5.0496  -5.0349  -5.0349  -4.9722  -4.9699  -4.9699
    -4.9644  -4.9509  -4.9485  -4.9464  -4.9432  -4.9432  -4.9235  -4.9161
    -4.9147  -4.9147  -4.9102  -4.9074  -4.8963  -4.8963  -4.8848  -4.8827
    -4.8741  -4.8741  -4.8629  -4.8590  -4.8564  -4.8564  -4.8269  -4.8269
    -4.8253  -4.7992  -4.7958  -4.7958  -4.7947  -4.7730  -4.7730  -4.7715
    -4.7715  -4.7540  -4.7497  -4.7403  -4.7403  -4.7316  -4.7316  -4.6924
    -4.6924  -4.6914  -4.6880  -4.6880  -4.6864  -4.6863  -4.6863  -4.6810
    -4.6721  -4.6721  -4.6684  -4.6564  -4.6511  -4.6506  -4.6506  -4.6482
    -4.6482  -4.6446  -4.6334  -4.6334  -4.6317  -4.6255  -4.6036  -4.5839
    -4.5775  -4.5771  -4.5762  -4.5762  -4.5621  -4.5572  -4.5572  -4.5395
    -4.5331  -4.5267  -4.5267  -4.5221  -4.5091  -4.5091  -4.5078  -4.4950
    -4.4950  -4.4936  -4.4892  -4.4892  -4.4834  -4.4834  -4.4786  -4.4786
    -4.4642  -4.4452  -4.4390  -4.4390  -4.4354  -4.4354  -4.4330  -4.4279
    -4.4279  -4.4274  -4.4251  -4.4251  -4.4208  -4.4140  -4.4082  -4.4048
    -4.3955  -4.3955  -4.3955  -4.3951  -4.3885  -4.3885  -4.3742  -4.3679
    -4.3679  -4.3650  -4.3589  -4.3589  -4.3536  -4.3533  -4.3533  -4.3507
    -4.3507  -4.3321  -4.3284  -4.3141  -4.3141  -4.3132  -4.3093  -4.3076
    -4.3076  -4.3066  -4.3026  -4.2933  -4.2933  -4.2877  -4.2792  -4.2792
    -4.2787  -4.2724  -4.2530  -4.2504  -4.2504  -4.2489  -4.2489  -4.2409
    -4.2379  -4.2375  -4.2365  -4.2365  -4.2232  -4.2114  -4.2104  -4.2104
    -4.2097  -4.2097  -4.2096  -4.2072  -4.1980  -4.1972  -4.1972  -4.1954
    -4.1954  -4.1876  -4.1876  -4.1588  -4.1588  -4.1544  -4.1476  -4.1469
    -4.1415  -4.1338  -4.1338  -4.1307  -4.1307  -4.1296  -4.1296  -4.1291
    -4.1279  -4.1210  -4.1210  -4.0988  -4.0968  -4.0940  -4.0920  -4.0894
    -4.0894  -4.0842  -4.0824  -4.0824  -4.0824  -4.0810  -4.0791  -4.0791
    -4.0752  -4.0729  -4.0716  -4.0693  -4.0693  -4.0590  -4.0590  -4.0520
    -4.0468  -4.0441  -4.0425  -4.0425  -4.0395  -4.0369  -4.0329  -4.0328
    -4.0327  -4.0195  -4.0195  -4.0192  -4.0156  -4.0120  -4.0120  -4.0113
    -4.0113  -4.0094  -3.9952  -3.9952  -3.9729  -3.9729  -3.9714  -3.9669
    -3.9650  -3.9650  -3.9619  -3.9587  -3.9552  -3.9552  -3.9540  -3.9510
    -3.9504  -3.9484  -3.9484  -3.9440  -3.9374  -3.9374  -3.9313  -3.9236
    -3.9218  -3.9183  -3.9089  -3.9078  -3.9078  -3.9040  -3.9032  -3.8974
    -3.8814  -3.8814  -3.8806  -3.8751  -3.8703  -3.8703  -3.8701  -3.8701
    -3.8622  -3.8599  -3.8552  -3.8552  -3.8457  -3.8457  -3.8453  -3.8453
    -3.8426  -3.8426  -3.8421  -3.8409  -3.8397  -3.8337  -3.8321  -3.8099
    -3.7904  -3.7877  -3.7862  -3.7813  -3.7813  -3.7753  -3.7730  -3.7717
    -3.7712  -3.7712  -3.7660  -3.7635  -3.7573  -3.7573  -3.7524  -3.7471
    -3.7404  -3.7318  -3.7274  -3.7269  -3.7245  -3.7147  -3.6963  -3.6932
    -3.6852  -3.6726  -3.6592  -3.5427  -3.5423  -3.5246  -3.5246  -3.5054
    -3.4415  -3.3994  -3.3505  -3.0725  -3.0725  -2.9023  -2.9023  -2.1920
    -2.1920  -2.1082  -2.1082  -2.0933  -2.0933  -2.0258  -1.9360  -1.2405
    -0.5951  -0.5951  -0.5468  -0.5468  -0.4132  -0.4114  -0.0214  -0.0214
     0.1544   0.2159   0.3011   0.3939   0.6257   0.7517   0.7859   0.8893
     0.9405   1.1191   1.2167   1.3467   1.4304   1.4304   1.5304   1.6770
     1.6770   1.6793   1.7123   1.7123   1.7385   1.8208   1.8261   2.0751
     2.1177   2.1177   2.2322   2.5178   2.5178   2.6451   2.6725   2.6725
     2.6912   2.9280   2.9372   3.1447   3.1447   3.7255   3.7703   4.0759
     4.1222   4.1491   4.1491   4.1659   4.2265   4.2959   4.2959   4.3007
     4.3349   4.3349   4.6501   4.6501   4.8068   5.0995   5.1842   5.1842
     5.2680   5.5141   5.6994   5.7699   5.8276   6.0135   6.0480   6.0533
     6.1061   6.2420   6.2420   6.4105   6.4284   6.4581   6.4581   6.6774
     6.6869   6.6869   6.7769   6.8992   6.9068   6.9068   7.0297   7.0837
     7.0956   7.3093   7.3093   7.3104   7.3444   7.4651   7.4651   7.7387
     7.7869   7.7871   7.7871   8.1078   8.1078   8.1143   8.1578   8.2720
     8.2720   8.3927   8.4428   8.4428   8.4731   8.4997   8.4997   8.5234
     8.5652   8.6228   8.6408   8.6631   8.7127   8.7473   8.7934   8.8061
     8.8497   8.8748   8.9199   8.9199   9.0433   9.0433   9.0887   9.1119
     9.1119   9.3197   9.3197   9.3534   9.3706   9.3706   9.4243   9.4459
     9.4459   9.5291   9.5350   9.5540   9.6638   9.7112   9.7112   9.7382
     9.7382   9.7395   9.7395   9.9130   9.9130   9.9597   9.9597  10.2380
    10.2657  10.3306  10.3858  10.3858  10.4397  10.4397  10.5810  10.5879
    10.6151  10.6151  10.6151  10.7234  10.7451  10.7666  10.8732  10.8733

     occupation numbers 
     1.0000   1.0000   1.0000   1.0000   1.0000   1.0000   1.0000   1.0000
     1.0000   1.0000   1.0000   1.0000   1.0000   1.0000   1.0000   1.0000
     1.0000   1.0000   1.0000   1.0000   1.0000   1.0000   1.0000   1.0000
     1.0000   1.0000   1.0000   1.0000   1.0000   1.0000   1.0000   1.0000
     1.0000   1.0000   1.0000   1.0000   1.0000   1.0000   1.0000   1.0000
     1.0000   1.0000   1.0000   1.0000   1.0000   1.0000   1.0000   1.0000
     1.0000   1.0000   1.0000   1.0000   1.0000   1.0000   1.0000   1.0000
     1.0000   1.0000   1.0000   1.0000   1.0000   1.0000   1.0000   1.0000
     1.0000   1.0000   1.0000   1.0000   1.0000   1.0000   1.0000   1.0000
     1.0000   1.0000   1.0000   1.0000   1.0000   1.0000   1.0000   1.0000
     1.0000   1.0000   1.0000   1.0000   1.0000   1.0000   1.0000   1.0000
     1.0000   1.0000   1.0000   1.0000   1.0000   1.0000   1.0000   1.0000
     1.0000   1.0000   1.0000   1.0000   1.0000   1.0000   1.0000   1.0000
     1.0000   1.0000   1.0000   1.0000   1.0000   1.0000   1.0000   1.0000
     1.0000   1.0000   1.0000   1.0000   1.0000   1.0000   1.0000   1.0000
     1.0000   1.0000   1.0000   1.0000   1.0000   1.0000   1.0000   1.0000
     1.0000   1.0000   1.0000   1.0000   1.0000   1.0000   1.0000   1.0000
     1.0000   1.0000   1.0000   1.0000   1.0000   1.0000   1.0000   1.0000
     1.0000   1.0000   1.0000   1.0000   1.0000   1.0000   1.0000   1.0000
     1.0000   1.0000   1.0000   1.0000   1.0000   1.0000   1.0000   1.0000
     1.0000   1.0000   1.0000   1.0000   1.0000   1.0000   1.0000   1.0000
     1.0000   1.0000   1.0000   1.0000   1.0000   1.0000   1.0000   1.0000
     1.0000   1.0000   1.0000   1.0000   1.0000   1.0000   1.0000   1.0000
     1.0000   1.0000   1.0000   1.0000   1.0000   1.0000   1.0000   1.0000
     1.0000   1.0000   1.0000   1.0000   1.0000   1.0000   1.0000   1.0000
     1.0000   1.0000   1.0000   1.0000   1.0000   1.0000   1.0000   1.0000
     1.0000   1.0000   1.0000   1.0000   1.0000   1.0000   1.0000   1.0000
     1.0000   1.0000   1.0000   1.0000   1.0000   1.0000   1.0000   1.0000
     1.0000   1.0000   1.0000   1.0000   1.0000   1.0000   1.0000   1.0000
     1.0000   1.0000   1.0000   1.0000   1.0000   1.0000   1.0000   1.0000
     1.0000   1.0000   1.0000   1.0000   1.0000   1.0000   1.0000   1.0000
     1.0000   1.0000   1.0000   1.0000   1.0000   1.0000   1.0000   1.0000
     1.0000   1.0000   1.0000   1.0000   1.0000   1.0000   1.0000   1.0000
     1.0000   1.0000   1.0000   1.0000   1.0000   1.0000   1.0000   1.0000
     1.0000   1.0000   1.0000   1.0000   1.0000   1.0000   1.0000   1.0000
     1.0000   1.0000   1.0000   1.0000   1.0000   1.0000   1.0000   1.0000
     1.0000   1.0000   1.0000   1.0000   1.0000   1.0000   1.0000   1.0000
     1.0000   1.0000   1.0000   1.0000   1.0000   1.0000   1.0000   1.0000
     1.0000   1.0000   1.0000   1.0000   1.0000   1.0000   1.0000   1.0000
     1.0000   1.0000   1.0000   1.0000   1.0000   1.0000   1.0000   1.0000
     1.0000   1.0000   1.0000   1.0000   1.0000   1.0000   1.0000   1.0000
     1.0000   1.0000   1.0000   1.0000   1.0000   1.0000   1.0000   1.0000
     1.0000   1.0000   1.0000   1.0000   1.0000   1.0000   1.0000   1.0000
     1.0000   1.0000   1.0000   1.0000   1.0000   1.0000   1.0000   1.0000
     1.0000   1.0000   1.0000   1.0000   1.0000   1.0000   1.0000   1.0000
     1.0000   1.0000   1.0000   1.0000   1.0000   1.0000   1.0000   1.0000
     1.0000   1.0000   1.0000   1.0000   1.0000   1.0000   1.0000   1.0000
     1.0000   1.0000   1.0000   1.0000   1.0000   1.0000   1.0000   1.0000
     1.0000   1.0000   1.0000   1.0000   1.0000   1.0000   1.0000   1.0000
     1.0000   1.0000   1.0000   1.0000   1.0000   1.0000   1.0000   1.0000
     1.0000   1.0000   1.0000   1.0000   1.0000   1.0000   1.0000   1.0000
     1.0000   1.0000   1.0000   1.0000   1.0000   1.0000   1.0000   1.0000
     1.0000   1.0000   1.0000   1.0000   1.0000   1.0000   1.0000   1.0000
     1.0000   1.0000   1.0000   1.0000   1.0000   1.0000   1.0000   1.0000
     1.0000   1.0000   1.0000   1.0000   1.0000   1.0000   1.0000   1.0000
     1.0000   1.0000   1.0000   1.0000   1.0000   1.0000   1.0000   1.0000
     1.0000   1.0000   1.0000   1.0000   1.0000   1.0000   1.0000   1.0000
     1.0000   1.0000   1.0000   1.0000   1.0000   1.0000   1.0000   1.0000
     1.0000   1.0000   1.0000   1.0000   1.0000   1.0000   1.0000   1.0000
     1.0000   1.0000   1.0000   1.0000   1.0000   1.0000   1.0000   1.0000
     1.0000   1.0000   1.0000   1.0000   1.0000   1.0000   1.0000   1.0000
     1.0000   1.0000   1.0000   1.0000   1.0000   1.0000   1.0000   1.0000
     1.0000   1.0000   1.0000   1.0000   1.0000   1.0000   1.0000   1.0000
     1.0000   1.0000   1.0000   1.0000   1.0000   1.0000   1.0000   1.0000
     1.0000   1.0000   1.0000   1.0000   1.0000   1.0000   1.0000   1.0000
     1.0000   1.0000   1.0000   1.0000   1.0000   1.0000   1.0000   1.0000
     1.0000   1.0000   1.0000   1.0000   1.0000   1.0000   1.0000   1.0000
     1.0000   1.0000   1.0000   1.0000   1.0000   1.0000   1.0000   1.0000
     1.0000   1.0000   1.0000   1.0000   1.0000   1.0000   1.0000   1.0000
     1.0000   1.0000   1.0000   1.0000   1.0000   1.0000   1.0000   1.0000
     1.0000   1.0000   1.0000   1.0000   1.0000   1.0000   1.0000   1.0000
     1.0000   1.0000   1.0000   1.0000   1.0000   1.0000   1.0000   1.0000
     1.0000   1.0000   1.0000   1.0000   1.0000   1.0000   1.0000   1.0000
     1.0000   1.0000   1.0000   1.0000   1.0000   1.0000   1.0000   1.0000
     1.0000   1.0000   1.0000   1.0000   1.0000   1.0000   1.0000   1.0000
     1.0000   1.0000   1.0000   1.0000   1.0000   1.0000   1.0000   1.0000
     1.0000   1.0000   1.0000   1.0000   1.0000   1.0000   1.0000   1.0000
     1.0000   1.0000   1.0000   1.0000   1.0000   1.0000   1.0000   1.0000
     1.0000   1.0000   1.0000   1.0000   1.0000   1.0000   1.0000   1.0000
     1.0001   1.0001   1.0009   1.0368   1.0368   1.0775   1.0823   1.0823
     1.0833   0.7970   0.7739   0.2462   0.2462   0.0000   0.0000   0.0000
     0.0000   0.0000   0.0000   0.0000   0.0000   0.0000   0.0000   0.0000
     0.0000   0.0000   0.0000   0.0000   0.0000   0.0000   0.0000   0.0000
     0.0000   0.0000   0.0000   0.0000   0.0000   0.0000   0.0000   0.0000
     0.0000   0.0000   0.0000   0.0000   0.0000   0.0000   0.0000   0.0000
     0.0000   0.0000   0.0000   0.0000   0.0000   0.0000   0.0000   0.0000
     0.0000   0.0000   0.0000   0.0000   0.0000   0.0000   0.0000   0.0000
     0.0000   0.0000   0.0000   0.0000   0.0000   0.0000   0.0000   0.0000
     0.0000   0.0000   0.0000   0.0000   0.0000   0.0000   0.0000   0.0000
     0.0000   0.0000   0.0000   0.0000   0.0000   0.0000   0.0000   0.0000
     0.0000   0.0000   0.0000   0.0000   0.0000   0.0000   0.0000   0.0000
     0.0000   0.0000   0.0000   0.0000   0.0000   0.0000   0.0000   0.0000
     0.0000   0.0000   0.0000   0.0000   0.0000   0.0000   0.0000   0.0000
     0.0000   0.0000   0.0000   0.0000   0.0000   0.0000   0.0000   0.0000
     0.0000   0.0000   0.0000   0.0000   0.0000   0.0000   0.0000   0.0000
     0.0000   0.0000   0.0000   0.0000   0.0000   0.0000   0.0000   0.0000

          k = 0.0000 0.3107 0.1794 ( 43969 PWs)   bands (ev):

  -123.6197-123.6189-123.6182-123.6181-123.6181-123.6176-123.6172-123.6171
  -123.5523-123.5516-123.5511-123.5509-123.5478-123.5471-123.5466-123.5465
  -123.5463-123.5454-123.5448-123.5447-123.5445-123.5445-123.5442-123.5441
  -123.4297-123.4289-123.4282-123.4281-123.4281-123.4278-123.4273-123.4272
  -123.4252-123.4244-123.4240-123.4237-123.4235-123.4234-123.4233-123.4232
  -123.3890-123.3881-123.3875-123.3874-123.3872-123.3872-123.3869-123.3869
  -123.3394-123.3387-123.3382-123.3380-123.3350-123.3343-123.3339-123.3337
  -123.2681-123.2673-123.2667-123.2666-123.2659-123.2654-123.2650-123.2649
   -77.7186 -77.7153 -77.7127 -77.7123 -77.7117 -77.7113 -77.7112 -77.7102
   -77.7101 -77.7099 -77.7098 -77.7089 -77.7076 -77.7064 -77.7028 -77.6993
   -77.6976 -77.6972 -77.6969 -77.6966 -77.6945 -77.6934 -77.6903 -77.6893
   -77.6488 -77.6454 -77.6439 -77.6435 -77.6432 -77.6429 -77.6428 -77.6423
   -77.6419 -77.6410 -77.6404 -77.6402 -77.6402 -77.6399 -77.6397 -77.6392
   -77.6391 -77.6384 -77.6383 -77.6381 -77.6377 -77.6377 -77.6376 -77.6357
   -77.6356 -77.6352 -77.6340 -77.6338 -77.6323 -77.6313 -77.6310 -77.6310
   -77.6309 -77.6301 -77.6294 -77.6290 -77.6273 -77.6265 -77.6260 -77.6259
   -77.6256 -77.6223 -77.6214 -77.6179 -77.6179 -77.6171 -77.6139 -77.6128
   -77.5306 -77.5290 -77.5270 -77.5256 -77.5239 -77.5237 -77.5229 -77.5209
   -77.5202 -77.5200 -77.5197 -77.5192 -77.5188 -77.5185 -77.5180 -77.5178
   -77.5173 -77.5168 -77.5165 -77.5152 -77.5149 -77.5143 -77.5137 -77.5129
   -77.5128 -77.5124 -77.5123 -77.5117 -77.5116 -77.5116 -77.5111 -77.5106
   -77.5105 -77.5105 -77.5100 -77.5100 -77.5095 -77.5094 -77.5094 -77.5082
   -77.5049 -77.5042 -77.5017 -77.5011 -77.5000 -77.4999 -77.4994 -77.4988
   -77.4988 -77.4988 -77.4985 -77.4984 -77.4976 -77.4974 -77.4963 -77.4948
   -77.4792 -77.4766 -77.4732 -77.4702 -77.4697 -77.4690 -77.4668 -77.4631
   -77.4619 -77.4610 -77.4607 -77.4605 -77.4559 -77.4552 -77.4521 -77.4509
   -77.4383 -77.4373 -77.4370 -77.4367 -77.4355 -77.4342 -77.4328 -77.4326
   -77.4325 -77.4304 -77.4269 -77.4265 -77.4231 -77.4224 -77.4200 -77.4169
   -77.4136 -77.4134 -77.4129 -77.4128 -77.4122 -77.4092 -77.4085 -77.4048
   -77.3655 -77.3641 -77.3630 -77.3629 -77.3627 -77.3624 -77.3619 -77.3617
   -77.3610 -77.3607 -77.3598 -77.3591 -77.3575 -77.3557 -77.3538 -77.3531
   -77.3527 -77.3525 -77.3516 -77.3496 -77.3373 -77.3355 -77.3335 -77.3316
    -6.6205  -6.1622  -5.7085  -5.5877  -5.3098  -5.3050  -5.2665  -5.2110
    -5.1389  -5.1332  -5.1277  -5.1034  -5.1002  -5.0903  -5.0809  -5.0425
    -5.0416  -5.0402  -5.0400  -5.0393  -5.0332  -5.0328  -5.0252  -5.0200
    -5.0084  -5.0044  -4.9837  -4.9772  -4.9729  -4.9483  -4.9395  -4.9188
    -4.9173  -4.9144  -4.9131  -4.9079  -4.9072  -4.9008  -4.8878  -4.8859
    -4.8768  -4.8763  -4.8722  -4.8720  -4.8563  -4.8398  -4.8351  -4.8231
    -4.8210  -4.8187  -4.8124  -4.8091  -4.8069  -4.8039  -4.7949  -4.7932
    -4.7795  -4.7714  -4.7699  -4.7651  -4.7635  -4.7519  -4.7436  -4.7307
    -4.7278  -4.7226  -4.7165  -4.7159  -4.7048  -4.7033  -4.6981  -4.6929
    -4.6773  -4.6762  -4.6676  -4.6496  -4.6440  -4.6388  -4.6385  -4.6384
    -4.6341  -4.6293  -4.6175  -4.6127  -4.6093  -4.6089  -4.6070  -4.6035
    -4.6026  -4.6005  -4.5950  -4.5919  -4.5901  -4.5687  -4.5672  -4.5660
    -4.5660  -4.5600  -4.5540  -4.5487  -4.5345  -4.5246  -4.5131  -4.5104
    -4.5081  -4.5070  -4.4956  -4.4941  -4.4824  -4.4739  -4.4729  -4.4720
    -4.4674  -4.4665  -4.4536  -4.4521  -4.4467  -4.4328  -4.4313  -4.4265
    -4.4233  -4.4157  -4.4140  -4.4124  -4.4056  -4.4045  -4.4044  -4.4043
    -4.4039  -4.4015  -4.3976  -4.3923  -4.3916  -4.3799  -4.3735  -4.3695
    -4.3686  -4.3647  -4.3633  -4.3550  -4.3548  -4.3547  -4.3455  -4.3451
    -4.3420  -4.3413  -4.3347  -4.3331  -4.3233  -4.3230  -4.3223  -4.3190
    -4.3153  -4.3123  -4.3120  -4.3029  -4.2981  -4.2976  -4.2964  -4.2959
    -4.2949  -4.2932  -4.2884  -4.2871  -4.2703  -4.2660  -4.2606  -4.2571
    -4.2523  -4.2466  -4.2393  -4.2384  -4.2259  -4.2251  -4.2146  -4.2130
    -4.2085  -4.2038  -4.2004  -4.1928  -4.1925  -4.1842  -4.1810  -4.1798
    -4.1755  -4.1737  -4.1578  -4.1570  -4.1528  -4.1513  -4.1495  -4.1448
    -4.1414  -4.1413  -4.1387  -4.1364  -4.1363  -4.1355  -4.1355  -4.1315
    -4.1288  -4.1260  -4.1244  -4.1194  -4.1176  -4.1123  -4.1119  -4.1107
    -4.1036  -4.0941  -4.0865  -4.0859  -4.0827  -4.0780  -4.0749  -4.0677
    -4.0668  -4.0609  -4.0607  -4.0474  -4.0439  -4.0434  -4.0423  -4.0375
    -4.0324  -4.0243  -4.0222  -4.0187  -4.0169  -4.0152  -4.0063  -4.0028
    -4.0025  -4.0000  -3.9986  -3.9937  -3.9803  -3.9797  -3.9725  -3.9723
    -3.9722  -3.9696  -3.9678  -3.9589  -3.9562  -3.9515  -3.9472  -3.9457
    -3.9454  -3.9438  -3.9414  -3.9400  -3.9330  -3.9312  -3.9289  -3.9275
    -3.9249  -3.9240  -3.9111  -3.9104  -3.9074  -3.9036  -3.8967  -3.8920
    -3.8890  -3.8880  -3.8859  -3.8846  -3.8808  -3.8800  -3.8795  -3.8762
    -3.8739  -3.8735  -3.8646  -3.8549  -3.8541  -3.8531  -3.8514  -3.8494
    -3.8482  -3.8453  -3.8444  -3.8426  -3.8421  -3.8394  -3.8390  -3.8363
    -3.8334  -3.8316  -3.8314  -3.8307  -3.8295  -3.8194  -3.8182  -3.8133
    -3.8131  -3.8102  -3.8064  -3.8058  -3.8049  -3.7970  -3.7920  -3.7918
    -3.7863  -3.7783  -3.7768  -3.7706  -3.7683  -3.7679  -3.7656  -3.7636
    -3.7567  -3.7486  -3.7439  -3.7411  -3.7384  -3.7338  -3.7322  -3.7169
    -3.6955  -3.6939  -3.6835  -3.6147  -3.5881  -3.5554  -3.5237  -3.4473
    -3.4288  -3.2752  -3.2238  -3.1785  -2.8636  -2.7924  -2.7687  -2.6666
    -2.1746  -2.1483  -1.9311  -1.8496  -1.7705  -1.3601  -1.3003  -1.2612
    -1.1777  -1.1054  -1.0973  -1.0523  -0.8158  -0.7020  -0.5408   0.1682
     0.2855   0.2982   0.3222   0.4468   0.4551   0.4626   0.4964   0.7253
     0.8506   0.9308   0.9682   1.1205   1.1337   1.1572   1.5654   1.6451
     1.6640   1.6699   1.6908   1.7420   2.0030   2.1879   2.2096   2.3950
     2.5723   2.6454   2.6610   2.7788   2.8436   2.8780   2.9214   3.0747
     3.1331   3.3872   3.4209   3.4242   3.4362   3.4819   3.7245   3.7372
     3.7786   3.8902   3.9261   4.1064   4.3689   4.3813   4.3824   4.5685
     4.6091   4.6587   4.7128   4.8918   4.9997   5.1680   5.2444   5.2946
     5.4274   5.4297   5.5110   5.5614   5.5737   5.6721   5.7481   5.8482
     5.8580   5.9098   5.9517   5.9917   6.0135   6.1593   6.2876   6.2955
     6.3101   6.5291   6.5968   6.7096   6.7201   6.7402   6.8233   6.8356
     6.8580   7.0060   7.1468   7.2522   7.3912   7.4660   7.6463   7.6665
     7.6693   7.7271   7.7730   7.8048   7.9367   7.9640   7.9974   8.0214
     8.0848   8.1600   8.2463   8.3402   8.4005   8.4006   8.4038   8.4039
     8.4242   8.4954   8.5231   8.6913   8.6981   8.8003   8.8273   8.8348
     8.9830   9.0502   9.0718   9.1059   9.1484   9.1648   9.1836   9.2324
     9.2719   9.3952   9.4089   9.4396   9.4572   9.5110   9.5956   9.6012
     9.6228   9.6633   9.7137   9.8174   9.9003   9.9044   9.9147   9.9354
     9.9715   9.9982  10.0402  10.1250  10.1278  10.1414  10.2297  10.2306
    10.2965  10.3895  10.4482  10.4500  10.6095  10.6106  10.6211  10.6423
    10.6844  10.7592  10.7593  10.7828  10.8033  10.8108  10.8151  10.8313

     occupation numbers 
     1.0000   1.0000   1.0000   1.0000   1.0000   1.0000   1.0000   1.0000
     1.0000   1.0000   1.0000   1.0000   1.0000   1.0000   1.0000   1.0000
     1.0000   1.0000   1.0000   1.0000   1.0000   1.0000   1.0000   1.0000
     1.0000   1.0000   1.0000   1.0000   1.0000   1.0000   1.0000   1.0000
     1.0000   1.0000   1.0000   1.0000   1.0000   1.0000   1.0000   1.0000
     1.0000   1.0000   1.0000   1.0000   1.0000   1.0000   1.0000   1.0000
     1.0000   1.0000   1.0000   1.0000   1.0000   1.0000   1.0000   1.0000
     1.0000   1.0000   1.0000   1.0000   1.0000   1.0000   1.0000   1.0000
     1.0000   1.0000   1.0000   1.0000   1.0000   1.0000   1.0000   1.0000
     1.0000   1.0000   1.0000   1.0000   1.0000   1.0000   1.0000   1.0000
     1.0000   1.0000   1.0000   1.0000   1.0000   1.0000   1.0000   1.0000
     1.0000   1.0000   1.0000   1.0000   1.0000   1.0000   1.0000   1.0000
     1.0000   1.0000   1.0000   1.0000   1.0000   1.0000   1.0000   1.0000
     1.0000   1.0000   1.0000   1.0000   1.0000   1.0000   1.0000   1.0000
     1.0000   1.0000   1.0000   1.0000   1.0000   1.0000   1.0000   1.0000
     1.0000   1.0000   1.0000   1.0000   1.0000   1.0000   1.0000   1.0000
     1.0000   1.0000   1.0000   1.0000   1.0000   1.0000   1.0000   1.0000
     1.0000   1.0000   1.0000   1.0000   1.0000   1.0000   1.0000   1.0000
     1.0000   1.0000   1.0000   1.0000   1.0000   1.0000   1.0000   1.0000
     1.0000   1.0000   1.0000   1.0000   1.0000   1.0000   1.0000   1.0000
     1.0000   1.0000   1.0000   1.0000   1.0000   1.0000   1.0000   1.0000
     1.0000   1.0000   1.0000   1.0000   1.0000   1.0000   1.0000   1.0000
     1.0000   1.0000   1.0000   1.0000   1.0000   1.0000   1.0000   1.0000
     1.0000   1.0000   1.0000   1.0000   1.0000   1.0000   1.0000   1.0000
     1.0000   1.0000   1.0000   1.0000   1.0000   1.0000   1.0000   1.0000
     1.0000   1.0000   1.0000   1.0000   1.0000   1.0000   1.0000   1.0000
     1.0000   1.0000   1.0000   1.0000   1.0000   1.0000   1.0000   1.0000
     1.0000   1.0000   1.0000   1.0000   1.0000   1.0000   1.0000   1.0000
     1.0000   1.0000   1.0000   1.0000   1.0000   1.0000   1.0000   1.0000
     1.0000   1.0000   1.0000   1.0000   1.0000   1.0000   1.0000   1.0000
     1.0000   1.0000   1.0000   1.0000   1.0000   1.0000   1.0000   1.0000
     1.0000   1.0000   1.0000   1.0000   1.0000   1.0000   1.0000   1.0000
     1.0000   1.0000   1.0000   1.0000   1.0000   1.0000   1.0000   1.0000
     1.0000   1.0000   1.0000   1.0000   1.0000   1.0000   1.0000   1.0000
     1.0000   1.0000   1.0000   1.0000   1.0000   1.0000   1.0000   1.0000
     1.0000   1.0000   1.0000   1.0000   1.0000   1.0000   1.0000   1.0000
     1.0000   1.0000   1.0000   1.0000   1.0000   1.0000   1.0000   1.0000
     1.0000   1.0000   1.0000   1.0000   1.0000   1.0000   1.0000   1.0000
     1.0000   1.0000   1.0000   1.0000   1.0000   1.0000   1.0000   1.0000
     1.0000   1.0000   1.0000   1.0000   1.0000   1.0000   1.0000   1.0000
     1.0000   1.0000   1.0000   1.0000   1.0000   1.0000   1.0000   1.0000
     1.0000   1.0000   1.0000   1.0000   1.0000   1.0000   1.0000   1.0000
     1.0000   1.0000   1.0000   1.0000   1.0000   1.0000   1.0000   1.0000
     1.0000   1.0000   1.0000   1.0000   1.0000   1.0000   1.0000   1.0000
     1.0000   1.0000   1.0000   1.0000   1.0000   1.0000   1.0000   1.0000
     1.0000   1.0000   1.0000   1.0000   1.0000   1.0000   1.0000   1.0000
     1.0000   1.0000   1.0000   1.0000   1.0000   1.0000   1.0000   1.0000
     1.0000   1.0000   1.0000   1.0000   1.0000   1.0000   1.0000   1.0000
     1.0000   1.0000   1.0000   1.0000   1.0000   1.0000   1.0000   1.0000
     1.0000   1.0000   1.0000   1.0000   1.0000   1.0000   1.0000   1.0000
     1.0000   1.0000   1.0000   1.0000   1.0000   1.0000   1.0000   1.0000
     1.0000   1.0000   1.0000   1.0000   1.0000   1.0000   1.0000   1.0000
     1.0000   1.0000   1.0000   1.0000   1.0000   1.0000   1.0000   1.0000
     1.0000   1.0000   1.0000   1.0000   1.0000   1.0000   1.0000   1.0000
     1.0000   1.0000   1.0000   1.0000   1.0000   1.0000   1.0000   1.0000
     1.0000   1.0000   1.0000   1.0000   1.0000   1.0000   1.0000   1.0000
     1.0000   1.0000   1.0000   1.0000   1.0000   1.0000   1.0000   1.0000
     1.0000   1.0000   1.0000   1.0000   1.0000   1.0000   1.0000   1.0000
     1.0000   1.0000   1.0000   1.0000   1.0000   1.0000   1.0000   1.0000
     1.0000   1.0000   1.0000   1.0000   1.0000   1.0000   1.0000   1.0000
     1.0000   1.0000   1.0000   1.0000   1.0000   1.0000   1.0000   1.0000
     1.0000   1.0000   1.0000   1.0000   1.0000   1.0000   1.0000   1.0000
     1.0000   1.0000   1.0000   1.0000   1.0000   1.0000   1.0000   1.0000
     1.0000   1.0000   1.0000   1.0000   1.0000   1.0000   1.0000   1.0000
     1.0000   1.0000   1.0000   1.0000   1.0000   1.0000   1.0000   1.0000
     1.0000   1.0000   1.0000   1.0000   1.0000   1.0000   1.0000   1.0000
     1.0000   1.0000   1.0000   1.0000   1.0000   1.0000   1.0000   1.0000
     1.0000   1.0000   1.0000   1.0000   1.0000   1.0000   1.0000   1.0000
     1.0000   1.0000   1.0000   1.0000   1.0000   1.0000   1.0000   1.0000
     1.0000   1.0000   1.0000   1.0000   1.0000   1.0000   1.0000   1.0000
     1.0000   1.0000   1.0000   1.0000   1.0000   1.0000   1.0000   1.0000
     1.0000   1.0000   1.0000   1.0000   1.0000   1.0000   1.0000   1.0000
     1.0000   1.0000   1.0000   1.0000   1.0000   1.0000   1.0000   1.0000
     1.0000   1.0000   1.0000   1.0000   1.0000   1.0000   1.0000   1.0000
     1.0000   1.0000   1.0000   1.0000   1.0000   1.0000   1.0000   1.0000
     1.0000   1.0000   1.0000   1.0000   1.0000   1.0000   1.0000   1.0000
     1.0000   1.0000   1.0000   1.0000   1.0000   1.0000   1.0000   1.0000
     1.0000   1.0000   1.0000   1.0000   1.0000   1.0000   1.0000   1.0000
     1.0000   1.0000   1.0000   1.0000   1.0000   1.0004   1.0006   1.0103
     1.0549   1.0775   1.0807   1.0509   0.9727   0.9104   0.8134   0.4038
     0.2693   0.0174   0.0107   0.0102   0.0085   0.0041   0.0000   0.0000
     0.0000   0.0000   0.0000   0.0000   0.0000   0.0000   0.0000   0.0000
     0.0000   0.0000   0.0000   0.0000   0.0000   0.0000   0.0000   0.0000
     0.0000   0.0000   0.0000   0.0000   0.0000   0.0000   0.0000   0.0000
     0.0000   0.0000   0.0000   0.0000   0.0000   0.0000   0.0000   0.0000
     0.0000   0.0000   0.0000   0.0000   0.0000   0.0000   0.0000   0.0000
     0.0000   0.0000   0.0000   0.0000   0.0000   0.0000   0.0000   0.0000
     0.0000   0.0000   0.0000   0.0000   0.0000   0.0000   0.0000   0.0000
     0.0000   0.0000   0.0000   0.0000   0.0000   0.0000   0.0000   0.0000
     0.0000   0.0000   0.0000   0.0000   0.0000   0.0000   0.0000   0.0000
     0.0000   0.0000   0.0000   0.0000   0.0000   0.0000   0.0000   0.0000
     0.0000   0.0000   0.0000   0.0000   0.0000   0.0000   0.0000   0.0000
     0.0000   0.0000   0.0000   0.0000   0.0000   0.0000   0.0000   0.0000
     0.0000   0.0000   0.0000   0.0000   0.0000   0.0000   0.0000   0.0000
     0.0000   0.0000   0.0000   0.0000   0.0000   0.0000   0.0000   0.0000
     0.0000   0.0000   0.0000   0.0000   0.0000   0.0000   0.0000   0.0000

          k = 0.3333 0.0000 0.0000 ( 44008 PWs)   bands (ev):

  -123.6196-123.6187-123.6184-123.6184-123.6180-123.6178-123.6174-123.6174
  -123.5522-123.5516-123.5513-123.5512-123.5477-123.5472-123.5469-123.5469
  -123.5460-123.5451-123.5448-123.5448-123.5448-123.5446-123.5445-123.5445
  -123.4296-123.4287-123.4284-123.4284-123.4280-123.4279-123.4276-123.4275
  -123.4250-123.4240-123.4239-123.4239-123.4237-123.4237-123.4236-123.4236
  -123.3888-123.3878-123.3875-123.3875-123.3875-123.3873-123.3872-123.3872
  -123.3393-123.3387-123.3384-123.3383-123.3349-123.3344-123.3341-123.3341
  -123.2679-123.2672-123.2669-123.2669-123.2657-123.2656-123.2652-123.2652
   -77.7215 -77.7202 -77.7122 -77.7120 -77.7118 -77.7118 -77.7109 -77.7109
   -77.7105 -77.7099 -77.7074 -77.7037 -77.7028 -77.7028 -77.7022 -77.7022
   -77.7020 -77.6988 -77.6988 -77.6982 -77.6982 -77.6981 -77.6900 -77.6869
   -77.6522 -77.6482 -77.6449 -77.6443 -77.6436 -77.6435 -77.6433 -77.6425
   -77.6421 -77.6412 -77.6410 -77.6410 -77.6404 -77.6397 -77.6395 -77.6391
   -77.6387 -77.6376 -77.6375 -77.6373 -77.6370 -77.6363 -77.6361 -77.6361
   -77.6350 -77.6348 -77.6342 -77.6342 -77.6339 -77.6327 -77.6327 -77.6321
   -77.6321 -77.6306 -77.6290 -77.6285 -77.6285 -77.6264 -77.6262 -77.6262
   -77.6232 -77.6232 -77.6222 -77.6221 -77.6221 -77.6175 -77.6131 -77.6082
   -77.5315 -77.5304 -77.5285 -77.5261 -77.5254 -77.5245 -77.5237 -77.5237
   -77.5229 -77.5226 -77.5226 -77.5211 -77.5177 -77.5175 -77.5169 -77.5169
   -77.5164 -77.5163 -77.5163 -77.5162 -77.5145 -77.5145 -77.5144 -77.5139
   -77.5136 -77.5136 -77.5124 -77.5118 -77.5116 -77.5114 -77.5114 -77.5103
   -77.5103 -77.5094 -77.5094 -77.5094 -77.5090 -77.5090 -77.5089 -77.5086
   -77.5044 -77.5044 -77.5039 -77.5039 -77.5018 -77.5001 -77.4989 -77.4989
   -77.4986 -77.4986 -77.4980 -77.4979 -77.4976 -77.4971 -77.4953 -77.4928
   -77.4822 -77.4814 -77.4711 -77.4676 -77.4663 -77.4663 -77.4660 -77.4659
   -77.4659 -77.4610 -77.4610 -77.4598 -77.4598 -77.4597 -77.4521 -77.4473
   -77.4393 -77.4373 -77.4373 -77.4372 -77.4370 -77.4349 -77.4332 -77.4332
   -77.4328 -77.4326 -77.4240 -77.4212 -77.4206 -77.4206 -77.4189 -77.4189
   -77.4168 -77.4153 -77.4153 -77.4141 -77.4134 -77.4134 -77.4084 -77.4032
   -77.3640 -77.3634 -77.3633 -77.3632 -77.3632 -77.3628 -77.3622 -77.3616
   -77.3616 -77.3610 -77.3608 -77.3600 -77.3588 -77.3588 -77.3577 -77.3570
   -77.3570 -77.3521 -77.3428 -77.3428 -77.3407 -77.3407 -77.3331 -77.3280
    -6.6121  -6.1517  -5.7149  -5.4058  -5.4058  -5.4036  -5.2721  -5.2623
    -5.1777  -5.1777  -5.1728  -5.1594  -5.1529  -5.1463  -5.1240  -5.1089
    -5.1059  -5.1016  -5.0828  -5.0363  -5.0262  -5.0222  -4.9837  -4.9829
    -4.9783  -4.9646  -4.9646  -4.9559  -4.9467  -4.9467  -4.9305  -4.8986
    -4.8986  -4.8899  -4.8870  -4.8838  -4.8838  -4.8713  -4.8665  -4.8662
    -4.8662  -4.8636  -4.8636  -4.8619  -4.8468  -4.8453  -4.8336  -4.8167
    -4.8161  -4.8161  -4.8141  -4.7987  -4.7987  -4.7718  -4.7718  -4.7667
    -4.7477  -4.7477  -4.7302  -4.7230  -4.7154  -4.7154  -4.7075  -4.7028
    -4.6940  -4.6940  -4.6870  -4.6861  -4.6861  -4.6780  -4.6780  -4.6749
    -4.6730  -4.6730  -4.6729  -4.6600  -4.6576  -4.6486  -4.6424  -4.6424
    -4.6393  -4.6230  -4.6218  -4.6154  -4.6154  -4.6064  -4.6064  -4.5980
    -4.5836  -4.5836  -4.5790  -4.5751  -4.5751  -4.5745  -4.5678  -4.5637
    -4.5616  -4.5616  -4.5598  -4.5567  -4.5530  -4.5480  -4.5480  -4.5427
    -4.5427  -4.5330  -4.5325  -4.5290  -4.5290  -4.5280  -4.4969  -4.4969
    -4.4831  -4.4831  -4.4811  -4.4750  -4.4542  -4.4542  -4.4473  -4.4338
    -4.4338  -4.4264  -4.4264  -4.4248  -4.4095  -4.4074  -4.4062  -4.4062
    -4.4023  -4.4004  -4.4004  -4.3966  -4.3928  -4.3905  -4.3905  -4.3533
    -4.3435  -4.3414  -4.3409  -4.3319  -4.3297  -4.3297  -4.3231  -4.3231
    -4.3171  -4.3160  -4.3160  -4.3046  -4.3046  -4.2967  -4.2967  -4.2897
    -4.2897  -4.2871  -4.2844  -4.2844  -4.2786  -4.2740  -4.2731  -4.2731
    -4.2669  -4.2655  -4.2655  -4.2628  -4.2498  -4.2498  -4.2454  -4.2421
    -4.2349  -4.2349  -4.2278  -4.2278  -4.2217  -4.2217  -4.2146  -4.2146
    -4.2136  -4.2128  -4.2092  -4.1916  -4.1911  -4.1738  -4.1729  -4.1727
    -4.1727  -4.1584  -4.1584  -4.1457  -4.1457  -4.1406  -4.1406  -4.1393
    -4.1266  -4.1266  -4.1244  -4.1244  -4.1179  -4.1179  -4.1093  -4.1045
    -4.1045  -4.1035  -4.1009  -4.1002  -4.0993  -4.0902  -4.0902  -4.0896
    -4.0886  -4.0886  -4.0875  -4.0824  -4.0770  -4.0770  -4.0729  -4.0663
    -4.0663  -4.0641  -4.0621  -4.0495  -4.0484  -4.0484  -4.0474  -4.0464
    -4.0436  -4.0436  -4.0416  -4.0363  -4.0360  -4.0300  -4.0211  -4.0211
    -4.0088  -4.0068  -4.0068  -4.0061  -4.0017  -4.0017  -3.9986  -3.9985
    -3.9985  -3.9959  -3.9959  -3.9802  -3.9788  -3.9744  -3.9699  -3.9699
    -3.9691  -3.9669  -3.9623  -3.9619  -3.9607  -3.9592  -3.9570  -3.9565
    -3.9565  -3.9527  -3.9527  -3.9500  -3.9476  -3.9343  -3.9311  -3.9311
    -3.9258  -3.9218  -3.9218  -3.9182  -3.9161  -3.9062  -3.9024  -3.9024
    -3.8989  -3.8980  -3.8980  -3.8871  -3.8835  -3.8823  -3.8823  -3.8807
    -3.8807  -3.8719  -3.8714  -3.8682  -3.8678  -3.8588  -3.8588  -3.8550
    -3.8515  -3.8474  -3.8474  -3.8400  -3.8332  -3.8332  -3.8198  -3.8198
    -3.8184  -3.8080  -3.7979  -3.7859  -3.7846  -3.7822  -3.7794  -3.7764
    -3.7693  -3.7582  -3.7511  -3.7511  -3.7496  -3.7398  -3.7378  -3.7286
    -3.7283  -3.7283  -3.7250  -3.7228  -3.7153  -3.7108  -3.7106  -3.7106
    -3.6905  -3.6898  -3.6845  -3.6714  -3.6389  -3.6012  -3.5783  -3.5607
    -3.4406  -3.4406  -3.2402  -3.1503  -3.0359  -3.0359  -2.7808  -2.2438
    -1.9673  -1.9673  -1.8125  -1.8125  -1.5594  -1.4173  -1.4173  -1.1193
    -0.8822  -0.8295  -0.8295  -0.5392  -0.4352  -0.2668  -0.2559  -0.1518
    -0.1518   0.1632   0.1632   0.1827   0.2250   0.5143   0.5143   0.5437
     0.7467   0.8092   0.8742   0.8742   0.8844   0.8844   0.9781   1.1188
     1.3103   1.3976   1.7903   1.8965   1.9011   2.2803   2.2803   2.3291
     2.3478   2.3592   2.5311   2.7369   2.7369   2.8256   2.9295   2.9295
     2.9876   3.4364   3.4972   3.4972   3.6124   3.7421   3.7687   3.9239
     3.9798   4.1620   4.2503   4.2503   4.4079   4.4079   4.7109   4.8767
     4.9868   4.9899   5.0039   5.0278   5.1899   5.1899   5.2215   5.2467
     5.2467   5.2727   5.3020   5.3041   5.4063   5.4063   5.6053   6.0707
     6.3047   6.3631   6.3631   6.4043   6.5191   6.5191   6.5770   6.6088
     6.7205   6.8275   6.9530   6.9530   6.9636   6.9636   7.0111   7.0818
     7.1006   7.2017   7.2641   7.4175   7.4175   7.4303   7.4850   7.4850
     7.5013   7.7391   7.7391   7.7791   7.7931   7.7931   7.8342   7.9517
     7.9687   7.9687   8.0326   8.0326   8.0636   8.1077   8.3086   8.3086
     8.4848   8.4848   8.5031   8.5095   8.5798   8.5798   8.6039   8.6362
     8.6362   8.7342   8.7447   8.8818   8.8818   9.0862   9.0863   9.1322
     9.2397   9.2422   9.2641   9.2841   9.2841   9.3676   9.4236   9.4803
     9.4803   9.5707   9.5869   9.5869   9.6536   9.7597   9.7597   9.7727
     9.7824   9.8063   9.8483   9.8483   9.8725   9.9965  10.0925  10.0925
    10.1025  10.1783  10.1783  10.2930  10.4147  10.4147  10.4783  10.4784
    10.5182  10.5561  10.6471  10.6471  10.7876  10.9451  10.9687  10.9688

     occupation numbers 
     1.0000   1.0000   1.0000   1.0000   1.0000   1.0000   1.0000   1.0000
     1.0000   1.0000   1.0000   1.0000   1.0000   1.0000   1.0000   1.0000
     1.0000   1.0000   1.0000   1.0000   1.0000   1.0000   1.0000   1.0000
     1.0000   1.0000   1.0000   1.0000   1.0000   1.0000   1.0000   1.0000
     1.0000   1.0000   1.0000   1.0000   1.0000   1.0000   1.0000   1.0000
     1.0000   1.0000   1.0000   1.0000   1.0000   1.0000   1.0000   1.0000
     1.0000   1.0000   1.0000   1.0000   1.0000   1.0000   1.0000   1.0000
     1.0000   1.0000   1.0000   1.0000   1.0000   1.0000   1.0000   1.0000
     1.0000   1.0000   1.0000   1.0000   1.0000   1.0000   1.0000   1.0000
     1.0000   1.0000   1.0000   1.0000   1.0000   1.0000   1.0000   1.0000
     1.0000   1.0000   1.0000   1.0000   1.0000   1.0000   1.0000   1.0000
     1.0000   1.0000   1.0000   1.0000   1.0000   1.0000   1.0000   1.0000
     1.0000   1.0000   1.0000   1.0000   1.0000   1.0000   1.0000   1.0000
     1.0000   1.0000   1.0000   1.0000   1.0000   1.0000   1.0000   1.0000
     1.0000   1.0000   1.0000   1.0000   1.0000   1.0000   1.0000   1.0000
     1.0000   1.0000   1.0000   1.0000   1.0000   1.0000   1.0000   1.0000
     1.0000   1.0000   1.0000   1.0000   1.0000   1.0000   1.0000   1.0000
     1.0000   1.0000   1.0000   1.0000   1.0000   1.0000   1.0000   1.0000
     1.0000   1.0000   1.0000   1.0000   1.0000   1.0000   1.0000   1.0000
     1.0000   1.0000   1.0000   1.0000   1.0000   1.0000   1.0000   1.0000
     1.0000   1.0000   1.0000   1.0000   1.0000   1.0000   1.0000   1.0000
     1.0000   1.0000   1.0000   1.0000   1.0000   1.0000   1.0000   1.0000
     1.0000   1.0000   1.0000   1.0000   1.0000   1.0000   1.0000   1.0000
     1.0000   1.0000   1.0000   1.0000   1.0000   1.0000   1.0000   1.0000
     1.0000   1.0000   1.0000   1.0000   1.0000   1.0000   1.0000   1.0000
     1.0000   1.0000   1.0000   1.0000   1.0000   1.0000   1.0000   1.0000
     1.0000   1.0000   1.0000   1.0000   1.0000   1.0000   1.0000   1.0000
     1.0000   1.0000   1.0000   1.0000   1.0000   1.0000   1.0000   1.0000
     1.0000   1.0000   1.0000   1.0000   1.0000   1.0000   1.0000   1.0000
     1.0000   1.0000   1.0000   1.0000   1.0000   1.0000   1.0000   1.0000
     1.0000   1.0000   1.0000   1.0000   1.0000   1.0000   1.0000   1.0000
     1.0000   1.0000   1.0000   1.0000   1.0000   1.0000   1.0000   1.0000
     1.0000   1.0000   1.0000   1.0000   1.0000   1.0000   1.0000   1.0000
     1.0000   1.0000   1.0000   1.0000   1.0000   1.0000   1.0000   1.0000
     1.0000   1.0000   1.0000   1.0000   1.0000   1.0000   1.0000   1.0000
     1.0000   1.0000   1.0000   1.0000   1.0000   1.0000   1.0000   1.0000
     1.0000   1.0000   1.0000   1.0000   1.0000   1.0000   1.0000   1.0000
     1.0000   1.0000   1.0000   1.0000   1.0000   1.0000   1.0000   1.0000
     1.0000   1.0000   1.0000   1.0000   1.0000   1.0000   1.0000   1.0000
     1.0000   1.0000   1.0000   1.0000   1.0000   1.0000   1.0000   1.0000
     1.0000   1.0000   1.0000   1.0000   1.0000   1.0000   1.0000   1.0000
     1.0000   1.0000   1.0000   1.0000   1.0000   1.0000   1.0000   1.0000
     1.0000   1.0000   1.0000   1.0000   1.0000   1.0000   1.0000   1.0000
     1.0000   1.0000   1.0000   1.0000   1.0000   1.0000   1.0000   1.0000
     1.0000   1.0000   1.0000   1.0000   1.0000   1.0000   1.0000   1.0000
     1.0000   1.0000   1.0000   1.0000   1.0000   1.0000   1.0000   1.0000
     1.0000   1.0000   1.0000   1.0000   1.0000   1.0000   1.0000   1.0000
     1.0000   1.0000   1.0000   1.0000   1.0000   1.0000   1.0000   1.0000
     1.0000   1.0000   1.0000   1.0000   1.0000   1.0000   1.0000   1.0000
     1.0000   1.0000   1.0000   1.0000   1.0000   1.0000   1.0000   1.0000
     1.0000   1.0000   1.0000   1.0000   1.0000   1.0000   1.0000   1.0000
     1.0000   1.0000   1.0000   1.0000   1.0000   1.0000   1.0000   1.0000
     1.0000   1.0000   1.0000   1.0000   1.0000   1.0000   1.0000   1.0000
     1.0000   1.0000   1.0000   1.0000   1.0000   1.0000   1.0000   1.0000
     1.0000   1.0000   1.0000   1.0000   1.0000   1.0000   1.0000   1.0000
     1.0000   1.0000   1.0000   1.0000   1.0000   1.0000   1.0000   1.0000
     1.0000   1.0000   1.0000   1.0000   1.0000   1.0000   1.0000   1.0000
     1.0000   1.0000   1.0000   1.0000   1.0000   1.0000   1.0000   1.0000
     1.0000   1.0000   1.0000   1.0000   1.0000   1.0000   1.0000   1.0000
     1.0000   1.0000   1.0000   1.0000   1.0000   1.0000   1.0000   1.0000
     1.0000   1.0000   1.0000   1.0000   1.0000   1.0000   1.0000   1.0000
     1.0000   1.0000   1.0000   1.0000   1.0000   1.0000   1.0000   1.0000
     1.0000   1.0000   1.0000   1.0000   1.0000   1.0000   1.0000   1.0000
     1.0000   1.0000   1.0000   1.0000   1.0000   1.0000   1.0000   1.0000
     1.0000   1.0000   1.0000   1.0000   1.0000   1.0000   1.0000   1.0000
     1.0000   1.0000   1.0000   1.0000   1.0000   1.0000   1.0000   1.0000
     1.0000   1.0000   1.0000   1.0000   1.0000   1.0000   1.0000   1.0000
     1.0000   1.0000   1.0000   1.0000   1.0000   1.0000   1.0000   1.0000
     1.0000   1.0000   1.0000   1.0000   1.0000   1.0000   1.0000   1.0000
     1.0000   1.0000   1.0000   1.0000   1.0000   1.0000   1.0000   1.0000
     1.0000   1.0000   1.0000   1.0000   1.0000   1.0000   1.0000   1.0000
     1.0000   1.0000   1.0000   1.0000   1.0000   1.0000   1.0000   1.0000
     1.0000   1.0000   1.0000   1.0000   1.0000   1.0000   1.0000   1.0000
     1.0000   1.0000   1.0000   1.0000   1.0000   1.0000   1.0000   1.0000
     1.0000   1.0000   1.0000   1.0000   1.0000   1.0000   1.0000   1.0000
     1.0000   1.0000   1.0000   1.0000   1.0000   1.0000   1.0000   1.0000
     1.0000   1.0000   1.0000   1.0000   1.0000   1.0000   1.0000   1.0000
     1.0000   1.0000   1.0000   1.0000   1.0000   1.0000   1.0000   1.0000
     1.0000   1.0000   1.0000   1.0000   1.0000   1.0021   1.0021   1.0043
     1.0056   1.0065   1.0410   1.0754   1.0754   0.9996   0.7934   0.7934
     0.6391   0.0085   0.0032   0.0032   0.0004   0.0000   0.0000   0.0000
     0.0000   0.0000   0.0000   0.0000   0.0000   0.0000   0.0000   0.0000
     0.0000   0.0000   0.0000   0.0000   0.0000   0.0000   0.0000   0.0000
     0.0000   0.0000   0.0000   0.0000   0.0000   0.0000   0.0000   0.0000
     0.0000   0.0000   0.0000   0.0000   0.0000   0.0000   0.0000   0.0000
     0.0000   0.0000   0.0000   0.0000   0.0000   0.0000   0.0000   0.0000
     0.0000   0.0000   0.0000   0.0000   0.0000   0.0000   0.0000   0.0000
     0.0000   0.0000   0.0000   0.0000   0.0000   0.0000   0.0000   0.0000
     0.0000   0.0000   0.0000   0.0000   0.0000   0.0000   0.0000   0.0000
     0.0000   0.0000   0.0000   0.0000   0.0000   0.0000   0.0000   0.0000
     0.0000   0.0000   0.0000   0.0000   0.0000   0.0000   0.0000   0.0000
     0.0000   0.0000   0.0000   0.0000   0.0000   0.0000   0.0000   0.0000
     0.0000   0.0000   0.0000   0.0000   0.0000   0.0000   0.0000   0.0000
     0.0000   0.0000   0.0000   0.0000   0.0000   0.0000   0.0000   0.0000
     0.0000   0.0000   0.0000   0.0000   0.0000   0.0000   0.0000   0.0000
     0.0000   0.0000   0.0000   0.0000   0.0000   0.0000   0.0000   0.0000

          k = 0.3333 0.3107 0.1794 ( 44020 PWs)   bands (ev):

  -123.6192-123.6189-123.6187-123.6183-123.6182-123.6179-123.6177-123.6173
  -123.5520-123.5518-123.5515-123.5511-123.5477-123.5474-123.5471-123.5468
  -123.5456-123.5453-123.5451-123.5451-123.5449-123.5447-123.5447-123.5443
  -123.4291-123.4289-123.4287-123.4283-123.4282-123.4280-123.4278-123.4274
  -123.4246-123.4243-123.4243-123.4241-123.4240-123.4238-123.4236-123.4234
  -123.3883-123.3880-123.3878-123.3878-123.3876-123.3874-123.3874-123.3871
  -123.3391-123.3389-123.3386-123.3382-123.3349-123.3346-123.3343-123.3340
  -123.2676-123.2674-123.2672-123.2668-123.2659-123.2657-123.2655-123.2651
   -77.7192 -77.7175 -77.7127 -77.7120 -77.7117 -77.7114 -77.7113 -77.7106
   -77.7103 -77.7101 -77.7086 -77.7075 -77.7059 -77.7053 -77.7032 -77.7022
   -77.7013 -77.7013 -77.7006 -77.6996 -77.6942 -77.6932 -77.6905 -77.6883
   -77.6497 -77.6454 -77.6447 -77.6439 -77.6434 -77.6432 -77.6422 -77.6421
   -77.6416 -77.6414 -77.6405 -77.6405 -77.6402 -77.6396 -77.6396 -77.6391
   -77.6385 -77.6385 -77.6384 -77.6376 -77.6375 -77.6367 -77.6364 -77.6362
   -77.6361 -77.6357 -77.6355 -77.6354 -77.6349 -77.6348 -77.6335 -77.6330
   -77.6330 -77.6319 -77.6311 -77.6308 -77.6300 -77.6294 -77.6288 -77.6274
   -77.6254 -77.6217 -77.6212 -77.6173 -77.6173 -77.6170 -77.6136 -77.6116
   -77.5296 -77.5284 -77.5271 -77.5265 -77.5243 -77.5242 -77.5236 -77.5234
   -77.5229 -77.5225 -77.5220 -77.5203 -77.5197 -77.5188 -77.5187 -77.5173
   -77.5169 -77.5169 -77.5167 -77.5166 -77.5161 -77.5153 -77.5149 -77.5148
   -77.5145 -77.5138 -77.5134 -77.5132 -77.5129 -77.5128 -77.5121 -77.5113
   -77.5103 -77.5103 -77.5102 -77.5099 -77.5097 -77.5095 -77.5094 -77.5091
   -77.5049 -77.5040 -77.5016 -77.4997 -77.4994 -77.4993 -77.4992 -77.4992
   -77.4990 -77.4987 -77.4983 -77.4981 -77.4978 -77.4976 -77.4957 -77.4947
   -77.4800 -77.4789 -77.4702 -77.4694 -77.4691 -77.4688 -77.4671 -77.4660
   -77.4652 -77.4652 -77.4641 -77.4627 -77.4553 -77.4549 -77.4520 -77.4498
   -77.4379 -77.4372 -77.4370 -77.4369 -77.4367 -77.4338 -77.4330 -77.4328
   -77.4328 -77.4323 -77.4266 -77.4231 -77.4227 -77.4225 -77.4206 -77.4193
   -77.4171 -77.4162 -77.4158 -77.4154 -77.4126 -77.4090 -77.4083 -77.4044
   -77.3636 -77.3631 -77.3631 -77.3628 -77.3620 -77.3620 -77.3614 -77.3612
   -77.3612 -77.3611 -77.3610 -77.3605 -77.3593 -77.3587 -77.3578 -77.3571
   -77.3566 -77.3548 -77.3503 -77.3486 -77.3370 -77.3353 -77.3333 -77.3306
    -6.4551  -6.0074  -6.0031  -5.5990  -5.5717  -5.2889  -5.2029  -5.2017
    -5.1788  -5.1274  -5.1197  -5.1075  -5.1020  -5.1000  -5.0869  -5.0802
    -5.0783  -5.0524  -5.0395  -5.0354  -5.0343  -5.0299  -5.0193  -5.0103
    -4.9993  -4.9988  -4.9977  -4.9934  -4.9625  -4.9575  -4.9448  -4.9237
    -4.9236  -4.9229  -4.9211  -4.9201  -4.9132  -4.9016  -4.9013  -4.8891
    -4.8807  -4.8604  -4.8524  -4.8489  -4.8446  -4.8245  -4.8227  -4.8225
    -4.8200  -4.8132  -4.8013  -4.7946  -4.7941  -4.7879  -4.7878  -4.7868
    -4.7838  -4.7770  -4.7482  -4.7470  -4.7406  -4.7385  -4.7300  -4.7233
    -4.7169  -4.7070  -4.7052  -4.7045  -4.7044  -4.7030  -4.6937  -4.6826
    -4.6764  -4.6750  -4.6694  -4.6600  -4.6573  -4.6468  -4.6435  -4.6369
    -4.6362  -4.6362  -4.6286  -4.6275  -4.6259  -4.6134  -4.6074  -4.6023
    -4.6004  -4.5985  -4.5961  -4.5905  -4.5902  -4.5819  -4.5720  -4.5648
    -4.5633  -4.5590  -4.5559  -4.5555  -4.5537  -4.5503  -4.5470  -4.5453
    -4.5397  -4.5340  -4.5330  -4.5279  -4.5276  -4.5254  -4.5079  -4.5049
    -4.4960  -4.4908  -4.4873  -4.4844  -4.4765  -4.4764  -4.4705  -4.4693
    -4.4660  -4.4510  -4.4477  -4.4456  -4.4352  -4.4296  -4.4194  -4.4150
    -4.4083  -4.4071  -4.3966  -4.3922  -4.3920  -4.3891  -4.3880  -4.3880
    -4.3817  -4.3720  -4.3714  -4.3625  -4.3536  -4.3475  -4.3451  -4.3438
    -4.3392  -4.3359  -4.3223  -4.3205  -4.3204  -4.3188  -4.3176  -4.3122
    -4.3079  -4.2989  -4.2959  -4.2955  -4.2900  -4.2848  -4.2839  -4.2797
    -4.2752  -4.2669  -4.2665  -4.2655  -4.2587  -4.2514  -4.2488  -4.2381
    -4.2341  -4.2306  -4.2208  -4.2198  -4.2115  -4.2108  -4.1968  -4.1948
    -4.1905  -4.1890  -4.1845  -4.1822  -4.1771  -4.1718  -4.1692  -4.1627
    -4.1549  -4.1531  -4.1474  -4.1469  -4.1415  -4.1382  -4.1334  -4.1329
    -4.1273  -4.1268  -4.1175  -4.1150  -4.1113  -4.1096  -4.0985  -4.0976
    -4.0962  -4.0944  -4.0920  -4.0905  -4.0885  -4.0869  -4.0827  -4.0777
    -4.0735  -4.0723  -4.0669  -4.0604  -4.0568  -4.0559  -4.0549  -4.0545
    -4.0499  -4.0489  -4.0422  -4.0381  -4.0310  -4.0300  -4.0292  -4.0244
    -4.0220  -4.0208  -4.0176  -4.0160  -4.0107  -4.0078  -4.0032  -4.0028
    -3.9964  -3.9952  -3.9866  -3.9857  -3.9843  -3.9822  -3.9816  -3.9772
    -3.9771  -3.9683  -3.9650  -3.9614  -3.9583  -3.9573  -3.9555  -3.9554
    -3.9537  -3.9520  -3.9502  -3.9460  -3.9451  -3.9387  -3.9365  -3.9330
    -3.9271  -3.9239  -3.9222  -3.9203  -3.9196  -3.9186  -3.9172  -3.9137
    -3.9124  -3.9120  -3.9087  -3.9007  -3.9000  -3.8978  -3.8893  -3.8876
    -3.8863  -3.8836  -3.8833  -3.8771  -3.8769  -3.8763  -3.8753  -3.8740
    -3.8663  -3.8642  -3.8621  -3.8615  -3.8606  -3.8599  -3.8556  -3.8542
    -3.8445  -3.8413  -3.8360  -3.8337  -3.8332  -3.8324  -3.8276  -3.8179
    -3.8165  -3.8158  -3.8130  -3.8116  -3.8064  -3.8019  -3.7904  -3.7898
    -3.7865  -3.7840  -3.7833  -3.7772  -3.7732  -3.7724  -3.7697  -3.7559
    -3.7524  -3.7487  -3.7393  -3.7379  -3.7375  -3.7327  -3.7308  -3.7231
    -3.7191  -3.7179  -3.7094  -3.6774  -3.6559  -3.6440  -3.6036  -3.5414
    -3.3461  -3.0667  -2.9620  -2.9345  -2.6449  -2.6072  -2.5316  -2.5093
    -2.1465  -2.0673  -2.0499  -2.0113  -1.5855  -1.5460  -1.3807  -1.1153
    -0.9738  -0.9487  -0.8964  -0.8001  -0.7161  -0.6439  -0.5457  -0.3775
    -0.3710  -0.2859  -0.2404   0.1103   0.1558   0.2132   0.4263   0.5463
     0.8727   0.9731   0.9846   1.1687   1.4872   1.4890   1.5017   1.5301
     1.5554   1.7926   1.8920   1.9083   1.9897   2.0110   2.0558   2.2049
     2.2788   2.3162   2.4692   2.5733   2.8464   2.9504   2.9876   3.1148
     3.1486   3.2720   3.4673   3.5770   3.6311   3.8035   3.9298   4.0099
     4.0926   4.1282   4.2117   4.3609   4.4075   4.5935   4.6492   4.7066
     4.8285   5.0096   5.1370   5.1439   5.1614   5.1731   5.3332   5.3523
     5.4224   5.5544   5.6047   5.6800   5.7030   5.7094   5.7573   5.9068
     6.1447   6.2105   6.2269   6.2321   6.2402   6.3956   6.3990   6.4688
     6.4969   6.5946   6.6743   6.6884   6.8836   6.9013   6.9043   6.9528
     6.9721   7.0173   7.0252   7.0282   7.1957   7.2204   7.3095   7.3680
     7.4178   7.4216   7.4476   7.5647   7.6086   7.6184   7.7840   7.7989
     7.8073   7.8612   7.9443   8.0086   8.1297   8.1377   8.1934   8.2029
     8.2402   8.3251   8.4052   8.5904   8.6542   8.6605   8.6823   8.7442
     8.7617   8.8484   8.8700   8.8778   8.9495   8.9657   9.0245   9.1452
     9.2364   9.2438   9.2872   9.3137   9.3532   9.3600   9.3749   9.4525
     9.5579   9.5606   9.6579   9.6611   9.6703   9.7122   9.8331   9.8498
     9.8713   9.9191   9.9404  10.0498  10.1785  10.2019  10.2990  10.3039
    10.3215  10.3577  10.3633  10.4494  10.5437  10.5947  10.6788  10.7057
    10.7076  10.7382  10.7444  10.7563  10.7674  10.8122  10.8374  10.8495

     occupation numbers 
     1.0000   1.0000   1.0000   1.0000   1.0000   1.0000   1.0000   1.0000
     1.0000   1.0000   1.0000   1.0000   1.0000   1.0000   1.0000   1.0000
     1.0000   1.0000   1.0000   1.0000   1.0000   1.0000   1.0000   1.0000
     1.0000   1.0000   1.0000   1.0000   1.0000   1.0000   1.0000   1.0000
     1.0000   1.0000   1.0000   1.0000   1.0000   1.0000   1.0000   1.0000
     1.0000   1.0000   1.0000   1.0000   1.0000   1.0000   1.0000   1.0000
     1.0000   1.0000   1.0000   1.0000   1.0000   1.0000   1.0000   1.0000
     1.0000   1.0000   1.0000   1.0000   1.0000   1.0000   1.0000   1.0000
[...]
     atom   37 type  1   force =     0.00000000    0.00000000    0.00000000
     atom   38 type  1   force =     0.00000000    0.00000000    0.00000000
     atom   39 type  1   force =     0.00000000    0.00000000    0.00000000
     atom   40 type  1   force =     0.00000000    0.00000000    0.00000000
     atom   41 type  1   force =     0.00000000    0.00000000    0.00000000
     atom   42 type  1   force =     0.00000000    0.00000000    0.00000000
     atom   43 type  1   force =     0.00000000    0.00000000    0.00000000
     atom   44 type  1   force =     0.00000000    0.00000000    0.00000000
     atom   45 type  1   force =     0.00000000    0.00000000    0.00000000
     atom   46 type  1   force =     0.00000000    0.00000000    0.00000000
     atom   47 type  1   force =     0.00000000    0.00000000    0.00000000
     atom   48 type  1   force =     0.00000000    0.00000000    0.00000000
     atom   49 type  1   force =     0.00000000    0.00000000    0.00000000
     atom   50 type  1   force =     0.00000000    0.00000000    0.00000000
     atom   51 type  1   force =     0.00000000    0.00000000    0.00000000
     atom   52 type  1   force =     0.00000000    0.00000000    0.00000000
     atom   53 type  1   force =     0.00000000    0.00000000    0.00000000
     atom   54 type  1   force =     0.00000000    0.00000000    0.00000000
     atom   55 type  1   force =     0.00000000    0.00000000    0.00000000
     atom   56 type  1   force =     0.00000000    0.00000000    0.00000000
     atom   57 type  1   force =     0.00000000    0.00000000    0.00000000
     atom   58 type  1   force =     0.00000000    0.00000000    0.00000000
     atom   59 type  1   force =     0.00000000    0.00000000    0.00000000
     atom   60 type  1   force =     0.00000000    0.00000000    0.00000000
     atom   61 type  1   force =     0.00000000    0.00000000    0.00000000
     atom   62 type  1   force =     0.00000000    0.00000000    0.00000000
     atom   63 type  1   force =     0.00000000    0.00000000    0.00000000
     atom   64 type  1   force =     0.00000000    0.00000000    0.00000000
     The SCF correction term to forces
     atom    1 type  1   force =    -0.00000000    0.00000000   -0.00000000
     atom    2 type  1   force =    -0.00000000   -0.00000000   -0.00000000
     atom    3 type  1   force =    -0.00000000   -0.00000000   -0.00000000
     atom    4 type  1   force =    -0.00000000    0.00000000   -0.00000000
     atom    5 type  1   force =     0.00000932   -0.00004507    0.00003012
     atom    6 type  1   force =     0.00000934    0.00004352    0.00002575
     atom    7 type  1   force =     0.00000990   -0.00003051    0.00003720
     atom    8 type  1   force =     0.00000936    0.00003058    0.00004682
     atom    9 type  1   force =    -0.00000000    0.00000000   -0.00000000
     atom   10 type  1   force =    -0.00000000   -0.00000000   -0.00000000
     atom   11 type  1   force =    -0.00000000    0.00000000   -0.00000000
     atom   12 type  1   force =    -0.00000000   -0.00000000   -0.00000000
     atom   13 type  1   force =     0.00000881    0.00001815    0.00003318
     atom   14 type  1   force =     0.00000975   -0.00001667    0.00002193
     atom   15 type  1   force =     0.00000935   -0.00001286    0.00005319
     atom   16 type  1   force =     0.00000978    0.00001299    0.00003077
     atom   17 type  1   force =     0.00000000    0.00000000   -0.00000000
     atom   18 type  1   force =     0.00000000   -0.00000000   -0.00000000
     atom   19 type  1   force =     0.00000000   -0.00000000   -0.00000000
     atom   20 type  1   force =     0.00000000    0.00000000   -0.00000000
     atom   21 type  1   force =    -0.00000964   -0.00004817   -0.00000227
     atom   22 type  1   force =    -0.00000970    0.00004798   -0.00000562
     atom   23 type  1   force =    -0.00001057   -0.00003268    0.00001330
     atom   24 type  1   force =    -0.00000976    0.00003174    0.00002408
     atom   25 type  1   force =     0.00000000    0.00000000   -0.00000000
     atom   26 type  1   force =     0.00000000   -0.00000000   -0.00000000
     atom   27 type  1   force =     0.00000000    0.00000000   -0.00000000
     atom   28 type  1   force =     0.00000000   -0.00000000   -0.00000000
     atom   29 type  1   force =    -0.00000923    0.00001830    0.00000149
     atom   30 type  1   force =    -0.00001000   -0.00001862   -0.00000893
     atom   31 type  1   force =    -0.00000979   -0.00001323    0.00003085
     atom   32 type  1   force =    -0.00001057    0.00001373    0.00000553
     atom   33 type  1   force =     0.00000000   -0.00000000   -0.00000000
     atom   34 type  1   force =     0.00000000    0.00000000   -0.00000000
     atom   35 type  1   force =     0.00000000   -0.00000000   -0.00000000
     atom   36 type  1   force =     0.00000000    0.00000000   -0.00000000
     atom   37 type  1   force =     0.00003571   -0.00004512    0.00003884
     atom   38 type  1   force =     0.00003443    0.00004462    0.00004384
     atom   39 type  1   force =     0.00001376   -0.00001094    0.00000705
     atom   40 type  1   force =     0.00001040    0.00001190    0.00003298
     atom   41 type  1   force =     0.00000000    0.00000000   -0.00000000
     atom   42 type  1   force =     0.00000000   -0.00000000   -0.00000000
     atom   43 type  1   force =     0.00000000    0.00000000   -0.00000000
     atom   44 type  1   force =     0.00000000   -0.00000000   -0.00000000
     atom   45 type  1   force =     0.00003449   -0.00001897    0.00004680
     atom   46 type  1   force =     0.00003660    0.00001945    0.00003563
     atom   47 type  1   force =     0.00001136   -0.00003008    0.00002481
     atom   48 type  1   force =     0.00001282    0.00002917    0.00001441
     atom   49 type  1   force =    -0.00000000   -0.00000000   -0.00000000
     atom   50 type  1   force =    -0.00000000    0.00000000   -0.00000000
     atom   51 type  1   force =    -0.00000000   -0.00000000   -0.00000000
     atom   52 type  1   force =    -0.00000000    0.00000000   -0.00000000
     atom   53 type  1   force =    -0.00003546   -0.00004475    0.00003570
     atom   54 type  1   force =    -0.00003380    0.00004403    0.00004090
     atom   55 type  1   force =    -0.00001340   -0.00001061    0.00001073
     atom   56 type  1   force =    -0.00001029    0.00001183    0.00003606
     atom   57 type  1   force =    -0.00000000    0.00000000   -0.00000000
     atom   58 type  1   force =    -0.00000000   -0.00000000   -0.00000000
     atom   59 type  1   force =    -0.00000000    0.00000000   -0.00000000
     atom   60 type  1   force =    -0.00000000   -0.00000000   -0.00000000
     atom   61 type  1   force =    -0.00003351   -0.00001830    0.00004383
     atom   62 type  1   force =    -0.00003649    0.00001897    0.00003196
     atom   63 type  1   force =    -0.00001122   -0.00002897    0.00002831
     atom   64 type  1   force =    -0.00001242    0.00002782    0.00001792

     Total force =     0.001526     Total SCF correction =     0.000264
     SCF correction compared to forces is large: reduce conv_thr to get better values


     Computing stress (Cartesian axis) and pressure

          total   stress  (Ry/bohr**3)                   (kbar)     P=     -301.36
  -0.00217324  -0.00000000   0.00000000         -319.69       -0.00        0.00
  -0.00000000  -0.00202243  -0.00000033           -0.00     -297.51       -0.05
   0.00000000  -0.00000033  -0.00195012            0.00       -0.05     -286.87

     kinetic stress (kbar)  16017.89     -0.00      0.00
                               -0.00  15990.98     -0.00
                                0.00     -0.00  16051.18

     local   stress (kbar)**********      0.00     -0.13
                                0.00**********      0.02
                               -0.13      0.021321948.88

     nonloc. stress (kbar)  -1978.78     -0.00      0.00
                               -0.00  -1939.50     -0.04
                                0.00     -0.04  -1991.13

     hartree stress (kbar) 688349.63     -0.00      0.06
                               -0.00 695611.44     -0.01
                                0.06     -0.01-616944.33

     exc-cor stress (kbar)  -8012.70     -0.00      0.00
                               -0.00  -8008.21      0.00
                                0.00      0.00  -8016.21

     corecor stress (kbar)      0.00      0.00      0.00
                                0.00      0.00      0.00
                                0.00      0.00      0.00

     ewald   stress (kbar) 610023.00     -0.00      0.08
                               -0.00 619668.66     -0.02
                                0.08     -0.02-711335.25

     hubbard stress (kbar)      0.00      0.00      0.00
                                0.00      0.00      0.00
                                0.00      0.00      0.00

     DFT-D   stress (kbar)      0.00      0.00      0.00
                                0.00      0.00      0.00
                                0.00      0.00      0.00

     XDM     stress (kbar)      0.00      0.00      0.00
                                0.00      0.00      0.00
                                0.00      0.00      0.00

     dft-nl  stress (kbar)      0.00      0.00      0.00
                                0.00      0.00      0.00
                                0.00      0.00      0.00

     TS-vdW  stress (kbar)      0.00      0.00      0.00
                                0.00      0.00      0.00
                                0.00      0.00      0.00

     MDB     stress (kbar)      0.00      0.00      0.00
                                0.00      0.00      0.00
                                0.00      0.00      0.00

     3D-RISM stress (kbar)      0.00      0.00      0.00
                                0.00      0.00      0.00
                                0.00      0.00      0.00

     Energy error            =      2.6E-06 Ry
     Gradient error          =      3.3E-04 Ry/Bohr

     bfgs converged in   7 scf cycles and   6 bfgs steps
     (criteria: energy <  1.0E-05 Ry, force <  5.0E-04 Ry/Bohr)

     End of BFGS Geometry Optimization

     Final energy             =  -29535.2028586789 Ry

     File ./tmp/Zn100_2x4x4_relax_ecutrho250_ecutwfc25.bfgs deleted, as requested
Begin final coordinates

ATOMIC_POSITIONS (angstrom)
Zn               1.2182902100        1.3071799380        0.7547006810    0   0   0
Zn               1.2182902100        6.5358996490        0.7547006810    0   0   0
Zn               1.2182902100        0.0000000010        3.0188027470    0   0   0
Zn               1.2182902100        5.2287197120        3.0188027470    0   0   0
Zn               1.2187515275       -1.3068905002        5.6695238366
Zn               1.2187577286        3.9211982448        5.6695792388
Zn               1.2188624029       -2.6141110047        8.3176563617
Zn               1.2188597787        2.6142714661        8.3175613164
Zn               1.2182902100        3.9215397940        0.7547006810    0   0   0
Zn               1.2182902100        9.1502595050        0.7547006810    0   0   0
Zn               1.2182902100        2.6143598570        3.0188027470    0   0   0
Zn               1.2182902100        7.8430795680        3.0188027470    0   0   0
Zn               1.2187424289        1.3070422312        5.6694789244
Zn               1.2187631391        6.5359806125        5.6696276807
Zn               1.2188587146        0.0001620619        8.3175081413
Zn               1.2188652684        5.2287172874        8.3177005194
Zn               6.0914510490        1.3071799380        0.7547006810    0   0   0
Zn               6.0914510490        6.5358996490        0.7547006810    0   0   0
Zn               6.0914510490        0.0000000010        3.0188027470    0   0   0
Zn               6.0914510490        5.2287197120        3.0188027470    0   0   0
Zn               6.0907431540       -1.3069004959        5.6686955902
Zn               6.0907405294        3.9212022651        5.6687602351
Zn               6.0909134666       -2.6141153629        8.3171496031
Zn               6.0909184092        2.6142797677        8.3170573364
Zn               6.0914510490        3.9215397940        0.7547006810    0   0   0
Zn               6.0914510490        9.1502595050        0.7547006810    0   0   0
Zn               6.0914510490        2.6143598570        3.0188027470    0   0   0
Zn               6.0914510490        7.8430795680        3.0188027470    0   0   0
Zn               6.0907500392        1.3070417961        5.6686393969
Zn               6.0907367497        6.5359780383        5.6688185618
Zn               6.0909216553        0.0001579051        8.3170078988
Zn               6.0909129501        5.2287225313        8.3171955733
Zn               3.6548706290       -0.0000000190        1.5094013850    0   0   0
Zn               3.6548706290        5.2287196920        1.5094013850    0   0   0
Zn               3.6548706290       -1.3071799560        3.7735034500    0   0   0
Zn               3.6548706290        3.9215397550        3.7735034500    0   0   0
Zn               3.6543855310       -2.6141416552        6.0819233649
Zn               3.6543737247        2.6140925367        6.0818457962
Zn               3.6545501631       -3.9214835133        8.4709292880
Zn               3.6545372100        1.3071177471        8.4707629472
Zn               3.6548706290        2.6143598370        1.5094013850    0   0   0
Zn               3.6548706290        7.8430795480        1.5094013850    0   0   0
Zn               3.6548706290        1.3071799000        3.7735034500    0   0   0
Zn               3.6548706290        6.5358996110        3.7735034500    0   0   0
Zn               3.6543726165        0.0000946105        6.0818074781
Zn               3.6543913688        5.2285749067        6.0819719466
Zn               3.6545403079       -1.3070190515        8.4708159263
Zn               3.6545437038        3.9213680305        8.4708781129
Zn               8.5280314680       -0.0000000190        1.5094013850    0   0   0
Zn               8.5280314680        5.2287196920        1.5094013850    0   0   0
Zn               8.5280314680       -1.3071799560        3.7735034500    0   0   0
Zn               8.5280314680        3.9215397550        3.7735034500    0   0   0
Zn               8.5282888786       -2.6141450504        6.0819102490
Zn               8.5282959833        2.6140912242        6.0818375717
Zn               8.5284789389       -3.9214702018        8.4700585665
Zn               8.5284827186        1.3071114426        8.4698708453
Zn               8.5280314680        2.6143598370        1.5094013850    0   0   0
Zn               8.5280314680        7.8430795480        1.5094013850    0   0   0
Zn               8.5280314680        1.3071799000        3.7735034500    0   0   0
Zn               8.5280314680        6.5358996110        3.7735034500    0   0   0
Zn               8.5282914623        0.0000982148        6.0817929651
Zn               8.5282844479        5.2285778760        6.0819538823
Zn               8.5284770178       -1.3069996475        8.4699415761
Zn               8.5284787911        3.9213531721        8.4700003194
End final coordinates



     Writing all to output data dir ./tmp/Zn100_2x4x4_relax_ecutrho250_ecutwfc25.save/ :
     XML data file, charge density, pseudopotentials, collected wavefunctions

     init_run     :     65.91s CPU     66.43s WALL (       1 calls)
     electrons    :  17335.24s CPU  17485.30s WALL (       7 calls)
     update_pot   :      0.15s CPU      0.17s WALL (       6 calls)
     forces       :    400.27s CPU    402.62s WALL (       7 calls)
     stress       :   1121.32s CPU   1125.29s WALL (       7 calls)

     Called by init_run:
     wfcinit      :     65.47s CPU     65.97s WALL (       1 calls)
     wfcinit:atom :      0.03s CPU      0.05s WALL (       5 calls)
     wfcinit:wfcr :     64.95s CPU     65.38s WALL (       5 calls)
     potinit      :      0.02s CPU      0.02s WALL (       1 calls)
     hinit0       :      0.02s CPU      0.02s WALL (       1 calls)

     Called by electrons:
     c_bands      :  16221.97s CPU  16365.34s WALL (      70 calls)
     sum_band     :   1090.41s CPU   1096.73s WALL (      70 calls)
     v_of_rho     :      1.36s CPU      1.45s WALL (      70 calls)
     v_h          :      0.07s CPU      0.08s WALL (      70 calls)
     v_xc         :      1.29s CPU      1.37s WALL (      70 calls)
     newd         :     23.71s CPU     23.83s WALL (      70 calls)
     mix_rho      :      0.16s CPU      0.16s WALL (      70 calls)

     Called by c_bands:
     init_us_2    :     12.58s CPU     12.63s WALL (     775 calls)
     cegterg      :  16195.84s CPU  16338.91s WALL (     350 calls)

     Called by sum_band:
     sum_band:wei :      0.22s CPU      0.22s WALL (      70 calls)
     sum_band:loo :   1070.14s CPU   1076.32s WALL (      70 calls)
     sum_band:buf :      2.59s CPU      2.61s WALL (     350 calls)
     sum_band:ini :      5.73s CPU      5.74s WALL (     350 calls)
     sum_band:cal :    957.74s CPU    963.02s WALL (     350 calls)
     sum_band:bec :     13.18s CPU     13.21s WALL (     350 calls)
     addusdens    :     19.20s CPU     19.28s WALL (      70 calls)
                                        0.00s GPU  (      70 calls)
     addusd:skk   :      0.22s CPU      0.22s WALL (      70 calls)
                                        0.00s GPU  (      70 calls)

     Called by *egterg:
     cdiaghg      :   1516.09s CPU   1577.33s WALL (    1341 calls)
     cegterg:over :   2576.35s CPU   2587.64s WALL (    1056 calls)
     cegterg:upda :   1064.76s CPU   1072.30s WALL (    1056 calls)
     cegterg:last :   3809.43s CPU   3836.79s WALL (     705 calls)
     cdiaghg:chol :    119.03s CPU    119.33s WALL (    1341 calls)
     cdiaghg:inve :     16.86s CPU     16.90s WALL (    1341 calls)
     cdiaghg:para :    490.47s CPU    497.57s WALL (    2682 calls)
     h_psi        :   4602.34s CPU   4625.37s WALL (    1411 calls)
     s_psi        :   1974.51s CPU   1979.26s WALL (    1411 calls)
     g_psi        :      1.61s CPU      1.62s WALL (    1056 calls)

     Called by h_psi:
     h_psi:calbec :   2191.14s CPU   2203.22s WALL (    1411 calls)
     vloc_psi     :    414.05s CPU    417.65s WALL (    1411 calls)
     add_vuspsi   :   1992.69s CPU   1997.52s WALL (    1411 calls)

     General routines
     calbec       :   3639.10s CPU   3659.17s WALL (    1936 calls)
     fft          :      1.11s CPU      1.25s WALL (     839 calls)
     ffts         :      0.06s CPU      0.07s WALL (      70 calls)
     fftw         :    467.08s CPU    471.22s WALL ( 1497446 calls)

     Parallel routines

     PWSCF        :      5h15m CPU      5h18m WALL


   This run was terminated on:  22:43:51  17Mar2025            

=------------------------------------------------------------------------------=
   JOB DONE.
=------------------------------------------------------------------------------=
Note: The following floating-point exceptions are signalling: IEEE_DENORMAL
Note: The following floating-point exceptions are signalling: IEEE_DENORMAL
Note: The following floating-point exceptions are signalling: IEEE_DENORMAL
Note: The following floating-point exceptions are signalling: IEEE_DENORMAL
Note: The following floating-point exceptions are signalling: IEEE_DENORMAL
Note: The following floating-point exceptions are signalling: IEEE_DENORMAL
Note: The following floating-point exceptions are signalling: IEEE_DENORMAL
Note: The following floating-point exceptions are signalling: IEEE_DENORMAL
Note: The following floating-point exceptions are signalling: IEEE_DENORMAL
Note: The following floating-point exceptions are signalling: IEEE_DENORMAL
Note: The following floating-point exceptions are signalling: IEEE_DENORMAL
