
     Program PWSCF v.7.3.1 starts on 28Mar2025 at 14:19:41 

     This program is part of the open-source Quantum ESPRESSO suite
     for quantum simulation of materials; please cite
         "P. Giannozzi et al., J. Phys.:Condens. Matter 21 395502 (2009);
         "P. Giannozzi et al., J. Phys.:Condens. Matter 29 465901 (2017);
         "P. Giannozzi et al., J. Chem. Phys. 152 154105 (2020);
          URL http://www.quantum-espresso.org", 
     in publications or presentations arising from this work. More details at
     http://www.quantum-espresso.org/quote

     Parallel version (MPI), running on    35 processors

     MPI processes distributed on     1 nodes
     10870 MiB available memory on the printing compute node when the environment starts

     Waiting for input...
     Reading input from standard input
Warning: card &CELL ignored
Warning: card   CELL_DOFREE = 'ALL' ignored
Warning: card / ignored

     Current dimensions of program PWSCF are:
     Max number of different atomic species (ntypx) = 10
     Max number of k-points (npk) =  40000
     Max angular momentum in pseudopotentials (lmaxx) =  4

     R & G space division:  proc/nbgrp/npool/nimage =      35
     Subspace diagonalization in iterative solution of the eigenvalue problem:
     one sub-group per band group will be used
     custom distributed-memory algorithm (size of sub-group:  5*  5 procs)


     Parallelization info
     --------------------
     sticks:   dense  smooth     PW     G-vecs:    dense   smooth      PW
     Min         215     122     33                34314    14813    2041
     Max         216     124     34                34322    14824    2049
     Sum        7555    4303   1159              1201061   518755   71619

     Using Slab Decomposition



     bravais-lattice index     =            0
     lattice parameter (alat)  =      19.7617  a.u.
     unit-cell volume          =   15176.5939 (a.u.)^3
     number of atoms/cell      =           48
     number of atomic types    =            1
     number of electrons       =       960.00
     number of Kohn-Sham states=          576
     kinetic-energy cutoff     =      40.0000  Ry
     charge density cutoff     =     280.0000  Ry
     scf convergence threshold =      1.0E-06
     mixing beta               =       0.4000
     number of iterations used =            8  plain     mixing
     energy convergence thresh.=      1.0E-05
     force convergence thresh. =      5.0E-04
     Exchange-correlation= SLA  PW   PBE  PBE
                           (   1   4   3   4   0   0   0)
     nstep                     =          100


     celldm(1)=  19.761696  celldm(2)=   0.000000  celldm(3)=   0.000000
     celldm(4)=   0.000000  celldm(5)=   0.000000  celldm(6)=   0.000000

     crystal axes: (cart. coord. in units of alat)
               a(1) = (   1.000000   0.000000   0.000000 )  
               a(2) = (  -0.500000   0.866025   0.000000 )  
               a(3) = (   0.000000   0.000000   2.270759 )  

     reciprocal axes: (cart. coord. in units 2 pi/alat)
               b(1) = (  1.000000  0.577350 -0.000000 )  
               b(2) = (  0.000000  1.154701  0.000000 )  
               b(3) = (  0.000000 -0.000000  0.440381 )  


     PseudoPot. # 1 for Zn read from file:
     /home/ys/qepseudo/SSSP_1.3.0_PBE_efficiency/Zn_pbe_v1.uspp.F.UPF
     MD5 check sum: df62231357ef9e81f77b2b3087fa5675
     Pseudo is Ultrasoft, Zval = 20.0
     Generated by new atomic code, or converted to UPF format
     Using radial grid of  943 points,  6 beta functions with: 
                l(1) =   0
                l(2) =   0
                l(3) =   1
                l(4) =   1
                l(5) =   2
                l(6) =   2
     Q(r) pseudized with  8 coefficients,  rinner =    1.100   1.100   1.100
                                                       1.100   1.100

     atomic species   valence    mass     pseudopotential
     Zn               20.00    65.38000     Zn( 1.00)

     No symmetry found


                                    s                        frac. trans.

      isym =  1     identity                                     

 cryst.   s( 1) = (     1          0          0      )
                  (     0          1          0      )
                  (     0          0          1      )

 cart.    s( 1) = (  1.0000000  0.0000000  0.0000000 )
                  (  0.0000000  1.0000000  0.0000000 )
                  (  0.0000000  0.0000000  1.0000000 )


   Cartesian axes

     site n.     atom                  positions (alat units)
         1        Zn     tau(   1) = (   0.0000000   0.1443375   0.1164998  )
         2        Zn     tau(   2) = (   0.5000000   0.1443375   0.1164998  )
         3        Zn     tau(   3) = (   0.0000008   0.1443287   0.5996818  )
         4        Zn     tau(   4) = (   0.4999961   0.1443636   0.5996092  )
         5        Zn     tau(   5) = (  -0.1250000   0.3608439   0.1164998  )
         6        Zn     tau(   6) = (   0.3750000   0.3608439   0.1164998  )
         7        Zn     tau(   7) = (  -0.1250014   0.3608365   0.5995712  )
         8        Zn     tau(   8) = (   0.3750108   0.3608622   0.5994892  )
         9        Zn     tau(   9) = (  -0.2500000   0.5773502   0.1164998  )
        10        Zn     tau(  10) = (   0.2500000   0.5773502   0.1164998  )
        11        Zn     tau(  11) = (  -0.2500291   0.5773448   0.5994599  )
        12        Zn     tau(  12) = (   0.2500298   0.5773405   0.5995704  )
        13        Zn     tau(  13) = (  -0.3750000   0.7938567   0.1164998  )
        14        Zn     tau(  14) = (   0.1250000   0.7938567   0.1164998  )
        15        Zn     tau(  15) = (  -0.3750192   0.7938503   0.5995597  )
        16        Zn     tau(  16) = (   0.1250210   0.7938546   0.5996923  )
        17        Zn     tau(  17) = (   0.2500000   0.1443375   0.1164998  )
        18        Zn     tau(  18) = (   0.7500000   0.1443375   0.1164998  )
        19        Zn     tau(  19) = (   0.2499808   0.1443394   0.5997016  )
        20        Zn     tau(  20) = (   0.7500196   0.1443469   0.5995819  )
        21        Zn     tau(  21) = (   0.1250000   0.3608439   0.1164998  )
        22        Zn     tau(  22) = (   0.6250000   0.3608439   0.1164998  )
        23        Zn     tau(  23) = (   0.1249968   0.3608336   0.5996865  )
        24        Zn     tau(  24) = (   0.6249894   0.3608655   0.5993717  )
        25        Zn     tau(  25) = (   0.0000000   0.5773502   0.1164998  )
        26        Zn     tau(  26) = (   0.5000000   0.5773502   0.1164998  )
        27        Zn     tau(  27) = (  -0.0000048   0.5773285   0.5996811  )
        28        Zn     tau(  28) = (   0.5000028   0.5773490   0.5993518  )
        29        Zn     tau(  29) = (  -0.1250000   0.7938567   0.1164998  )
        30        Zn     tau(  30) = (   0.3750000   0.7938567   0.1164998  )
        31        Zn     tau(  31) = (  -0.1250309   0.7938550   0.5996904  )
        32        Zn     tau(  32) = (   0.3750259   0.7938514   0.5995577  )
        33        Zn     tau(  33) = (   0.1249792   0.0721726   0.3581392  )
        34        Zn     tau(  34) = (   0.6250232   0.0722219   0.3581048  )
        35        Zn     tau(  35) = (   0.0000042   0.2886408   0.3581388  )
        36        Zn     tau(  36) = (   0.4999973   0.2887225   0.3580491  )
        37        Zn     tau(  37) = (  -0.1250368   0.5051391   0.3580713  )
        38        Zn     tau(  38) = (   0.3750416   0.5051654   0.3580209  )
        39        Zn     tau(  39) = (  -0.2500605   0.7216974   0.3580709  )
        40        Zn     tau(  40) = (   0.2500676   0.7216835   0.3580819  )
        41        Zn     tau(  41) = (   0.3749556   0.0722083   0.3581429  )
        42        Zn     tau(  42) = (   0.8750408   0.0721787   0.3581002  )
        43        Zn     tau(  43) = (   0.2500052   0.2886728   0.3581307  )
        44        Zn     tau(  44) = (   0.7499958   0.2886849   0.3580462  )
        45        Zn     tau(  45) = (   0.1250297   0.5051286   0.3581191  )
        46        Zn     tau(  46) = (   0.6249636   0.5051713   0.3579785  )
        47        Zn     tau(  47) = (  -0.0000166   0.7216885   0.3581396  )
        48        Zn     tau(  48) = (   0.5000104   0.7216822   0.3580223  )

     --------------------------------------------
     DFT-D3 Dispersion Correction (3-body terms):
     --------------------------------------------
       Reference C6 values for interpolation: 

         atom   Coordination number   C6
         Zn         0.000           681.04
         Zn         1.942           306.91

       Values used:

         atom   Coordination number  R0_AB[au]  C6      C8
         Zn         6.586            3.053    306.91  23930.67
         Zn         6.586            3.053    306.91  23930.67
         Zn         6.589            3.053    306.91  23930.67
         Zn         6.588            3.053    306.91  23930.67
         Zn         6.587            3.053    306.91  23930.67
         Zn         6.588            3.053    306.91  23930.67
         Zn         6.591            3.053    306.91  23930.67
         Zn         6.593            3.053    306.91  23930.67
         Zn         6.588            3.053    306.91  23930.67
         Zn         6.587            3.053    306.91  23930.67
         Zn         6.593            3.053    306.91  23930.67
         Zn         6.590            3.053    306.91  23930.67
         Zn         6.587            3.053    306.91  23930.67
         Zn         6.585            3.053    306.91  23930.67
         Zn         6.592            3.053    306.91  23930.67
         Zn         6.584            3.053    306.91  23930.67
         Zn         6.585            3.053    306.91  23930.67
         Zn         6.587            3.053    306.91  23930.67
         Zn         6.588            3.053    306.91  23930.67
         Zn         6.590            3.053    306.91  23930.67
         Zn         6.585            3.053    306.91  23930.67
         Zn         6.589            3.053    306.91  23930.67
         Zn         6.588            3.053    306.91  23930.67
         Zn         6.596            3.053    306.91  23930.67
         Zn         6.585            3.053    306.91  23930.67
         Zn         6.590            3.053    306.91  23930.67
         Zn         6.585            3.053    306.91  23930.67
         Zn         6.597            3.053    306.91  23930.67
         Zn         6.585            3.053    306.91  23930.67
         Zn         6.588            3.053    306.91  23930.67
         Zn         6.586            3.053    306.91  23930.67
         Zn         6.591            3.053    306.91  23930.67
         Zn         7.997            3.053    306.91  23930.67
         Zn         7.995            3.053    306.91  23930.67
         Zn         7.997            3.053    306.91  23930.67
         Zn         8.003            3.053    306.91  23930.67
         Zn         7.997            3.053    306.91  23930.67
         Zn         8.004            3.053    306.91  23930.67
         Zn         7.998            3.053    306.91  23930.67
         Zn         7.996            3.053    306.91  23930.67
         Zn         7.994            3.053    306.91  23930.67
         Zn         7.998            3.053    306.91  23930.67
         Zn         7.997            3.053    306.91  23930.67
         Zn         8.001            3.053    306.91  23930.67
         Zn         7.994            3.053    306.91  23930.67
         Zn         8.007            3.053    306.91  23930.67
         Zn         7.991            3.053    306.91  23930.67
         Zn         8.003            3.053    306.91  23930.67

         Molecular C6 ( Ry / a.u.^6 ) =    707110.50


   Crystallographic axes

     site n.     atom                  positions (cryst. coord.)
         1        Zn     tau(   1) = (  0.0833333  0.1666666  0.0513044  )
         2        Zn     tau(   2) = (  0.5833333  0.1666666  0.0513044  )
         3        Zn     tau(   3) = (  0.0833290  0.1666564  0.2640887  )
         4        Zn     tau(   4) = (  0.5833444  0.1666967  0.2640568  )
         5        Zn     tau(   5) = (  0.0833333  0.4166666  0.0513044  )
         6        Zn     tau(   6) = (  0.5833333  0.4166666  0.0513044  )
         7        Zn     tau(   7) = (  0.0833277  0.4166581  0.2640400  )
         8        Zn     tau(   8) = (  0.5833547  0.4166878  0.2640039  )
         9        Zn     tau(   9) = (  0.0833333  0.6666666  0.0513044  )
        10        Zn     tau(  10) = (  0.5833333  0.6666666  0.0513044  )
        11        Zn     tau(  11) = (  0.0833011  0.6666604  0.2639910  )
        12        Zn     tau(  12) = (  0.5833575  0.6666554  0.2640396  )
        13        Zn     tau(  13) = (  0.0833333  0.9166667  0.0513044  )
        14        Zn     tau(  14) = (  0.5833334  0.9166667  0.0513044  )
        15        Zn     tau(  15) = (  0.0833105  0.9166594  0.2640349  )
        16        Zn     tau(  16) = (  0.5833532  0.9166644  0.2640933  )
        17        Zn     tau(  17) = (  0.3333333  0.1666666  0.0513044  )
        18        Zn     tau(  18) = (  0.8333334  0.1666666  0.0513044  )
        19        Zn     tau(  19) = (  0.3333151  0.1666688  0.2640975  )
        20        Zn     tau(  20) = (  0.8333583  0.1666774  0.2640447  )
        21        Zn     tau(  21) = (  0.3333333  0.4166666  0.0513044  )
        22        Zn     tau(  22) = (  0.8333333  0.4166666  0.0513044  )
        23        Zn     tau(  23) = (  0.3333242  0.4166548  0.2640908  )
        24        Zn     tau(  24) = (  0.8333351  0.4166916  0.2639522  )
        25        Zn     tau(  25) = (  0.3333333  0.6666666  0.0513044  )
        26        Zn     tau(  26) = (  0.8333333  0.6666666  0.0513044  )
        27        Zn     tau(  27) = (  0.3333160  0.6666415  0.2640884  )
        28        Zn     tau(  28) = (  0.8333354  0.6666652  0.2639434  )
        29        Zn     tau(  29) = (  0.3333334  0.9166667  0.0513044  )
        30        Zn     tau(  30) = (  0.8333334  0.9166667  0.0513044  )
        31        Zn     tau(  31) = (  0.3333015  0.9166648  0.2640925  )
        32        Zn     tau(  32) = (  0.8333562  0.9166607  0.2640341  )
        33        Zn     tau(  33) = (  0.1666481  0.0833377  0.1577179  )
        34        Zn     tau(  34) = (  0.6667206  0.0833947  0.1577027  )
        35        Zn     tau(  35) = (  0.1666511  0.3332937  0.1577177  )
        36        Zn     tau(  36) = (  0.6666913  0.3333880  0.1576782  )
        37        Zn     tau(  37) = (  0.1666054  0.5832844  0.1576879  )
        38        Zn     tau(  38) = (  0.6666990  0.5833147  0.1576658  )
        39        Zn     tau(  39) = (  0.1666116  0.8333443  0.1576878  )
        40        Zn     tau(  40) = (  0.6667318  0.8333283  0.1576926  )
        41        Zn     tau(  41) = (  0.4166450  0.0833790  0.1577195  )
        42        Zn     tau(  42) = (  0.9167132  0.0833448  0.1577007  )
        43        Zn     tau(  43) = (  0.4166705  0.3333307  0.1577141  )
        44        Zn     tau(  44) = (  0.9166681  0.3333446  0.1576769  )
        45        Zn     tau(  45) = (  0.4166659  0.5832723  0.1577090  )
        46        Zn     tau(  46) = (  0.9166243  0.5833215  0.1576471  )
        47        Zn     tau(  47) = (  0.4166504  0.8333341  0.1577180  )
        48        Zn     tau(  48) = (  0.9166738  0.8333268  0.1576664  )

     number of k points=     5  Marzari-Vanderbilt smearing, width (Ry)=  0.0200
                       cart. coord. in units 2pi/alat
        k(    1) = (   0.0000000   0.0000000   0.0000000), wk =   0.2222222
        k(    2) = (   0.0000000   0.3849002   0.0000000), wk =   0.4444444
        k(    3) = (   0.3333333   0.1924501   0.0000000), wk =   0.4444444
        k(    4) = (   0.3333333   0.5773503   0.0000000), wk =   0.4444444
        k(    5) = (   0.3333333  -0.1924501   0.0000000), wk =   0.4444444

                       cryst. coord.
        k(    1) = (   0.0000000   0.0000000   0.0000000), wk =   0.2222222
        k(    2) = (   0.0000000   0.3333333   0.0000000), wk =   0.4444444
        k(    3) = (   0.3333333   0.0000000   0.0000000), wk =   0.4444444
        k(    4) = (   0.3333333   0.3333333   0.0000000), wk =   0.4444444
        k(    5) = (   0.3333333  -0.3333333   0.0000000), wk =   0.4444444

     Dense  grid:  1201061 G-vectors     FFT dimensions: ( 108, 108, 240)

     Smooth grid:   518755 G-vectors     FFT dimensions: (  80,  80, 192)

     Dynamical RAM for                 wfc:      16.28 MB

     Dynamical RAM for     wfc (w. buffer):      97.66 MB

     Dynamical RAM for           str. fact:       0.52 MB

     Dynamical RAM for           local pot:       0.00 MB

     Dynamical RAM for          nlocal pot:      24.42 MB

     Dynamical RAM for                qrad:       1.34 MB

     Dynamical RAM for          rho,v,vnew:       3.44 MB

     Dynamical RAM for               rhoin:       1.15 MB

     Dynamical RAM for            rho*nmix:       8.38 MB

     Dynamical RAM for           G-vectors:       2.08 MB

     Dynamical RAM for          h,s,v(r/c):       2.42 MB

     Dynamical RAM for          <psi|beta>:       7.59 MB

     Dynamical RAM for                 psi:      32.55 MB

     Dynamical RAM for                hpsi:      32.55 MB

     Dynamical RAM for                spsi:      32.55 MB

     Dynamical RAM for      wfcinit/wfcrot:      44.18 MB

     Dynamical RAM for           addusdens:     122.53 MB

     Dynamical RAM for          addusforce:     172.20 MB

     Dynamical RAM for         addusstress:     105.25 MB

     Estimated static dynamical RAM per process >     134.77 MB

     Estimated max dynamical RAM per process >     315.35 MB

     Estimated total dynamical RAM >      10.78 GB

     Initial potential from superposition of free atoms

     starting charge     959.9932, renormalised to     960.0000

     negative rho (up, down):  3.987E-03 0.000E+00
     Starting wfcs are  624 randomized atomic wfcs

     total cpu time spent up to now is       58.5 secs

     Self-consistent Calculation

     iteration #  1     ecut=    40.00 Ry     beta= 0.40
     Davidson diagonalization with overlap

---- Real-time Memory Report at c_bands before calling an iterative solver
           204 MiB given to the printing process from OS
             0 MiB allocation reported by mallinfo(arena+hblkhd)
          5579 MiB available memory on the node where the printing process lives
------------------
     ethr =  1.00E-02,  avg # of iterations = 10.6

     Threshold (ethr) on eigenvalues was too large:
     Diagonalizing with lowered threshold

     Davidson diagonalization with overlap

---- Real-time Memory Report at c_bands before calling an iterative solver
           290 MiB given to the printing process from OS
             0 MiB allocation reported by mallinfo(arena+hblkhd)
          4427 MiB available memory on the node where the printing process lives
------------------
     ethr =  1.55E-04,  avg # of iterations =  9.8

     negative rho (up, down):  4.794E-03 0.000E+00

     total cpu time spent up to now is      669.1 secs

     total energy              =  -22154.66646444 Ry
     estimated scf accuracy    <       1.52393811 Ry

     iteration #  2     ecut=    40.00 Ry     beta= 0.40
     Davidson diagonalization with overlap

---- Real-time Memory Report at c_bands before calling an iterative solver
           299 MiB given to the printing process from OS
             0 MiB allocation reported by mallinfo(arena+hblkhd)
          4319 MiB available memory on the node where the printing process lives
------------------
     ethr =  1.59E-04,  avg # of iterations =  2.0

     negative rho (up, down):  5.335E-03 0.000E+00

     total cpu time spent up to now is      975.3 secs

     total energy              =  -22155.02941526 Ry
     estimated scf accuracy    <       0.27557953 Ry

     iteration #  3     ecut=    40.00 Ry     beta= 0.40
     Davidson diagonalization with overlap

---- Real-time Memory Report at c_bands before calling an iterative solver
           302 MiB given to the printing process from OS
             0 MiB allocation reported by mallinfo(arena+hblkhd)
          4304 MiB available memory on the node where the printing process lives
------------------
     c_bands:  1 eigenvalues not converged
     ethr =  2.87E-05,  avg # of iterations = 11.2

     negative rho (up, down):  5.812E-03 0.000E+00

     total cpu time spent up to now is     1265.0 secs

     total energy              =  -22155.04663831 Ry
     estimated scf accuracy    <       0.04767949 Ry

     iteration #  4     ecut=    40.00 Ry     beta= 0.40
     Davidson diagonalization with overlap

---- Real-time Memory Report at c_bands before calling an iterative solver
           302 MiB given to the printing process from OS
             0 MiB allocation reported by mallinfo(arena+hblkhd)
          4287 MiB available memory on the node where the printing process lives
------------------
     ethr =  4.97E-06,  avg # of iterations = 11.4

     negative rho (up, down):  5.837E-03 0.000E+00

     total cpu time spent up to now is     1565.2 secs

     total energy              =  -22155.04818412 Ry
     estimated scf accuracy    <       0.00593917 Ry

     iteration #  5     ecut=    40.00 Ry     beta= 0.40
     Davidson diagonalization with overlap

---- Real-time Memory Report at c_bands before calling an iterative solver
           303 MiB given to the printing process from OS
             0 MiB allocation reported by mallinfo(arena+hblkhd)
          4271 MiB available memory on the node where the printing process lives
------------------
     c_bands:  1 eigenvalues not converged
     ethr =  6.19E-07,  avg # of iterations =  6.4

     negative rho (up, down):  5.862E-03 0.000E+00

     total cpu time spent up to now is     1893.5 secs

     total energy              =  -22155.04873626 Ry
     estimated scf accuracy    <       0.00403213 Ry

     iteration #  6     ecut=    40.00 Ry     beta= 0.40
     Davidson diagonalization with overlap

---- Real-time Memory Report at c_bands before calling an iterative solver
           303 MiB given to the printing process from OS
             0 MiB allocation reported by mallinfo(arena+hblkhd)
          4259 MiB available memory on the node where the printing process lives
------------------
     ethr =  4.20E-07,  avg # of iterations =  1.6

     negative rho (up, down):  5.898E-03 0.000E+00

     total cpu time spent up to now is     2129.1 secs

     total energy              =  -22155.04907871 Ry
     estimated scf accuracy    <       0.00039378 Ry

     iteration #  7     ecut=    40.00 Ry     beta= 0.40
     Davidson diagonalization with overlap

---- Real-time Memory Report at c_bands before calling an iterative solver
           304 MiB given to the printing process from OS
             0 MiB allocation reported by mallinfo(arena+hblkhd)
          4243 MiB available memory on the node where the printing process lives
------------------
     ethr =  4.10E-08,  avg # of iterations =  2.0

     negative rho (up, down):  5.924E-03 0.000E+00

     total cpu time spent up to now is     2403.3 secs

     total energy              =  -22155.04912193 Ry
     estimated scf accuracy    <       0.00010355 Ry

     iteration #  8     ecut=    40.00 Ry     beta= 0.40
     Davidson diagonalization with overlap

---- Real-time Memory Report at c_bands before calling an iterative solver
           304 MiB given to the printing process from OS
             0 MiB allocation reported by mallinfo(arena+hblkhd)
          4227 MiB available memory on the node where the printing process lives
------------------
     ethr =  1.08E-08,  avg # of iterations =  2.0

     negative rho (up, down):  5.941E-03 0.000E+00

     total cpu time spent up to now is     2677.1 secs

     total energy              =  -22155.04912960 Ry
     estimated scf accuracy    <       0.00001667 Ry

     iteration #  9     ecut=    40.00 Ry     beta= 0.40
     Davidson diagonalization with overlap

---- Real-time Memory Report at c_bands before calling an iterative solver
           305 MiB given to the printing process from OS
             0 MiB allocation reported by mallinfo(arena+hblkhd)
          4211 MiB available memory on the node where the printing process lives
------------------
     ethr =  1.74E-09,  avg # of iterations =  2.0

     negative rho (up, down):  5.953E-03 0.000E+00

     total cpu time spent up to now is     2998.2 secs

     total energy              =  -22155.04913329 Ry
     estimated scf accuracy    <       0.00000242 Ry

     iteration # 10     ecut=    40.00 Ry     beta= 0.40
     Davidson diagonalization with overlap

---- Real-time Memory Report at c_bands before calling an iterative solver
           305 MiB given to the printing process from OS
             0 MiB allocation reported by mallinfo(arena+hblkhd)
          4194 MiB available memory on the node where the printing process lives
------------------
     ethr =  2.52E-10,  avg # of iterations =  2.0

     negative rho (up, down):  5.973E-03 0.000E+00

     total cpu time spent up to now is     3330.5 secs

     End of self-consistent calculation

          k = 0.0000 0.0000 0.0000 ( 64855 PWs)   bands (ev):

  -124.9693-124.9679-124.9678-124.9675-124.9673-124.9671-124.9668-124.9663
  -124.9661-124.9659-124.9658-124.9657-124.9653-124.9650-124.9648-124.9643
  -124.8379-124.8378-124.8364-124.8364-124.8363-124.8362-124.8362-124.8362
  -124.8361-124.8360-124.8359-124.8359-124.8358-124.8357-124.8348-124.8347
  -124.8347-124.8346-124.8346-124.8344-124.8344-124.8344-124.8343-124.8343
  -124.8342-124.8342-124.8341-124.8340-124.8340-124.8339-124.8339-124.8338
   -79.1350 -79.1349 -79.1349 -79.1286 -79.1286 -79.1282 -79.1281 -79.1280
   -79.1280 -79.1184 -79.1172 -79.1171 -79.1170 -79.1168 -79.1168 -79.1167
   -79.1167 -79.1166 -79.1164 -79.1162 -79.1160 -79.1157 -79.1152 -79.1151
   -79.1150 -79.1149 -79.1148 -79.1148 -79.1147 -79.1146 -79.1146 -79.1145
   -79.1144 -79.1140 -79.1137 -79.1136 -79.1130 -79.1083 -79.1083 -79.1082
   -79.1038 -79.1037 -79.1036 -79.1035 -79.1033 -79.1032 -79.0988 -79.0988
   -79.0015 -79.0015 -79.0015 -79.0014 -79.0014 -79.0013 -78.9950 -78.9950
   -78.9949 -78.9949 -78.9948 -78.9948 -78.9948 -78.9948 -78.9948 -78.9947
   -78.9946 -78.9946 -78.9938 -78.9936 -78.9921 -78.9920 -78.9920 -78.9920
   -78.9919 -78.9919 -78.9918 -78.9917 -78.9916 -78.9916 -78.9915 -78.9914
   -78.9903 -78.9903 -78.9902 -78.9902 -78.9901 -78.9900 -78.9899 -78.9899
   -78.9898 -78.9898 -78.9898 -78.9897 -78.9896 -78.9896 -78.9896 -78.9895
   -78.9894 -78.9893 -78.9837 -78.9837 -78.9836 -78.9835 -78.9835 -78.9835
   -78.9835 -78.9835 -78.9834 -78.9833 -78.9833 -78.9832 -78.9817 -78.9817
   -78.9815 -78.9815 -78.9815 -78.9815 -78.9814 -78.9814 -78.9814 -78.9814
   -78.9812 -78.9812 -78.9750 -78.9750 -78.9750 -78.9748 -78.9748 -78.9748
   -78.9704 -78.9703 -78.9703 -78.9702 -78.9702 -78.9702 -78.9702 -78.9701
   -78.9701 -78.9700 -78.9700 -78.9699 -78.9655 -78.9655 -78.9654 -78.9654
    -8.3813  -7.3319  -7.0212  -6.8655  -6.8651  -6.8647  -6.8640  -6.8635
    -6.8632  -6.7931  -6.7931  -6.7931  -6.6463  -6.6463  -6.6463  -6.6278
    -6.6278  -6.6277  -6.4977  -6.4976  -6.4975  -6.4974  -6.4973  -6.4972
    -6.4715  -6.4715  -6.4714  -6.4713  -6.4712  -6.4711  -6.4419  -6.4419
    -6.4419  -6.3413  -6.3412  -6.3407  -6.3407  -6.3405  -6.3405  -6.3142
    -6.3142  -6.3133  -6.3133  -6.3131  -6.3131  -6.2560  -6.2560  -6.2560
    -6.2266  -6.2266  -6.2263  -6.2262  -6.2259  -6.2259  -6.2087  -6.1687
    -6.1686  -6.1684  -6.1682  -6.1680  -6.1679  -6.1412  -6.1411  -6.1410
    -6.1407  -6.1406  -6.1405  -6.1088  -6.1088  -6.1087  -6.1087  -6.1086
    -6.1085  -6.0955  -6.0955  -6.0955  -6.0955  -6.0955  -6.0954  -6.0606
    -6.0606  -6.0606  -6.0284  -6.0284  -6.0282  -6.0282  -6.0278  -6.0278
    -6.0169  -6.0169  -5.9874  -5.9873  -5.9873  -5.9873  -5.9873  -5.9872
    -5.9238  -5.9238  -5.9237  -5.9237  -5.9236  -5.9236  -5.8810  -5.8810
    -5.8713  -5.8713  -5.8289  -5.8289  -5.8288  -5.8288  -5.8288  -5.8287
    -5.8147  -5.8147  -5.8145  -5.8145  -5.8144  -5.8144  -5.7495  -5.7495
    -5.7494  -5.7494  -5.7493  -5.7493  -5.7480  -5.7480  -5.7479  -5.7479
    -5.7479  -5.7478  -5.7397  -5.7396  -5.7396  -5.7396  -5.7395  -5.7395
    -5.7234  -5.7233  -5.7233  -5.7232  -5.7232  -5.7231  -5.7165  -5.7165
    -5.7165  -5.6710  -5.6710  -5.6708  -5.6707  -5.6706  -5.6706  -5.6488
    -5.6346  -5.6346  -5.6346  -5.6330  -5.6330  -5.6330  -5.6329  -5.6329
    -5.6328  -5.6242  -5.6242  -5.6242  -5.6241  -5.6240  -5.6240  -5.5577
    -5.5577  -5.5574  -5.5574  -5.5573  -5.5573  -5.5341  -5.5341  -5.5339
    -5.5339  -5.5337  -5.5336  -5.5130  -5.5130  -5.4981  -5.4981  -5.4981
    -5.4934  -5.4933  -5.4932  -5.4930  -5.4928  -5.4927  -5.4764  -5.4763
    -5.4763  -5.4762  -5.4762  -5.4761  -5.4684  -5.4684  -5.4683  -5.4683
    -5.4682  -5.4681  -5.4187  -5.4186  -5.4186  -5.4185  -5.4185  -5.4185
    -5.4136  -5.4136  -5.4136  -5.3947  -5.3947  -5.3947  -5.3836  -5.3836
    -5.3836  -5.3692  -5.3691  -5.3691  -5.3689  -5.3689  -5.3688  -5.3569
    -5.3569  -5.3362  -5.3362  -5.3039  -5.3039  -5.3037  -5.3037  -5.3036
    -5.3036  -5.2552  -5.2552  -5.2552  -5.2552  -5.2551  -5.2551  -5.1812
    -5.1812  -5.1812  -5.0464  -5.0464  -5.0464  -5.0462  -5.0462  -5.0462
    -4.3479  -4.3478  -4.3476  -4.3475  -4.3473  -4.3472  -3.5589  -2.1660
    -2.1656  -2.1656  -2.1648  -2.1648  -2.1644  -1.9168  -1.9167  -1.9162
    -1.9162  -1.9159  -1.9158  -0.7402  -0.6340  -0.6339  -0.6339  -0.5753
    -0.5753  -0.5753  -0.5752  -0.5749  -0.5749   0.0831   0.0832   0.0833
     0.3399   0.3399   0.3399   1.4177   1.4177   1.4180   1.4180   1.4180
     1.4181   1.5357   1.5360   1.5361   1.5364   1.5366   1.5368   2.3439
     2.3439   2.3439   2.8292   3.1749   3.1750   3.1751   4.0422   4.0422
     4.0422   4.6476   4.6480   4.6484   4.6493   4.6496   4.6501   5.0137
     5.2480   5.3800   5.3800   5.3801   5.3802   5.3802   5.3803   5.6354
     5.6354   5.6361   5.6361   5.6365   5.6365   5.8024   5.8026   5.8029
     5.8030   5.8044   5.8044   6.1635   6.3475   6.5211   6.5211   6.5212
     6.8054   6.8055   6.8056   6.8058   6.8059   6.8060   7.0724   7.0725
     7.0727   7.0728   7.0733   7.0733   7.0855   7.0855   7.0856   7.0856
     7.0856   7.0856   7.2396   7.2397   7.2405   7.2405   7.2410   7.2411
     7.9979   7.9980   7.9985   7.9985   8.0004   8.0004   8.0047   8.0048
     8.0048   8.0049   8.0050   8.0050   8.1359   8.1360   8.1361   8.1362
     8.1363   8.1364   8.2050   8.2334   8.2452   8.2453   8.2454   9.2486

     occupation numbers 
     1.0000   1.0000   1.0000   1.0000   1.0000   1.0000   1.0000   1.0000
     1.0000   1.0000   1.0000   1.0000   1.0000   1.0000   1.0000   1.0000
     1.0000   1.0000   1.0000   1.0000   1.0000   1.0000   1.0000   1.0000
     1.0000   1.0000   1.0000   1.0000   1.0000   1.0000   1.0000   1.0000
     1.0000   1.0000   1.0000   1.0000   1.0000   1.0000   1.0000   1.0000
     1.0000   1.0000   1.0000   1.0000   1.0000   1.0000   1.0000   1.0000
     1.0000   1.0000   1.0000   1.0000   1.0000   1.0000   1.0000   1.0000
     1.0000   1.0000   1.0000   1.0000   1.0000   1.0000   1.0000   1.0000
     1.0000   1.0000   1.0000   1.0000   1.0000   1.0000   1.0000   1.0000
     1.0000   1.0000   1.0000   1.0000   1.0000   1.0000   1.0000   1.0000
     1.0000   1.0000   1.0000   1.0000   1.0000   1.0000   1.0000   1.0000
     1.0000   1.0000   1.0000   1.0000   1.0000   1.0000   1.0000   1.0000
     1.0000   1.0000   1.0000   1.0000   1.0000   1.0000   1.0000   1.0000
     1.0000   1.0000   1.0000   1.0000   1.0000   1.0000   1.0000   1.0000
     1.0000   1.0000   1.0000   1.0000   1.0000   1.0000   1.0000   1.0000
     1.0000   1.0000   1.0000   1.0000   1.0000   1.0000   1.0000   1.0000
     1.0000   1.0000   1.0000   1.0000   1.0000   1.0000   1.0000   1.0000
     1.0000   1.0000   1.0000   1.0000   1.0000   1.0000   1.0000   1.0000
     1.0000   1.0000   1.0000   1.0000   1.0000   1.0000   1.0000   1.0000
     1.0000   1.0000   1.0000   1.0000   1.0000   1.0000   1.0000   1.0000
     1.0000   1.0000   1.0000   1.0000   1.0000   1.0000   1.0000   1.0000
     1.0000   1.0000   1.0000   1.0000   1.0000   1.0000   1.0000   1.0000
     1.0000   1.0000   1.0000   1.0000   1.0000   1.0000   1.0000   1.0000
     1.0000   1.0000   1.0000   1.0000   1.0000   1.0000   1.0000   1.0000
     1.0000   1.0000   1.0000   1.0000   1.0000   1.0000   1.0000   1.0000
     1.0000   1.0000   1.0000   1.0000   1.0000   1.0000   1.0000   1.0000
     1.0000   1.0000   1.0000   1.0000   1.0000   1.0000   1.0000   1.0000
     1.0000   1.0000   1.0000   1.0000   1.0000   1.0000   1.0000   1.0000
     1.0000   1.0000   1.0000   1.0000   1.0000   1.0000   1.0000   1.0000
     1.0000   1.0000   1.0000   1.0000   1.0000   1.0000   1.0000   1.0000
     1.0000   1.0000   1.0000   1.0000   1.0000   1.0000   1.0000   1.0000
     1.0000   1.0000   1.0000   1.0000   1.0000   1.0000   1.0000   1.0000
     1.0000   1.0000   1.0000   1.0000   1.0000   1.0000   1.0000   1.0000
     1.0000   1.0000   1.0000   1.0000   1.0000   1.0000   1.0000   1.0000
     1.0000   1.0000   1.0000   1.0000   1.0000   1.0000   1.0000   1.0000
     1.0000   1.0000   1.0000   1.0000   1.0000   1.0000   1.0000   1.0000
     1.0000   1.0000   1.0000   1.0000   1.0000   1.0000   1.0000   1.0000
     1.0000   1.0000   1.0000   1.0000   1.0000   1.0000   1.0000   1.0000
     1.0000   1.0000   1.0000   1.0000   1.0000   1.0000   1.0000   1.0000
     1.0000   1.0000   1.0000   1.0000   1.0000   1.0000   1.0000   1.0000
     1.0000   1.0000   1.0000   1.0000   1.0000   1.0000   1.0000   1.0000
     1.0000   1.0000   1.0000   1.0000   1.0000   1.0000   1.0000   1.0000
     1.0000   1.0000   1.0000   1.0000   1.0000   1.0000   1.0000   1.0000
     1.0000   1.0000   1.0000   1.0000   1.0000   1.0000   1.0000   1.0000
     1.0000   1.0000   1.0000   1.0000   1.0000   1.0000   1.0000   1.0000
     1.0000   1.0000   1.0000   1.0000   1.0000   1.0000   1.0000   1.0000
     1.0000   1.0000   1.0000   1.0000   1.0000   1.0000   1.0000   1.0000
     1.0000   1.0000   1.0000   1.0000   1.0000   1.0000   1.0000   1.0000
     1.0000   1.0000   1.0000   1.0000   1.0000   1.0000   1.0000   1.0000
     1.0000   1.0000   1.0000   1.0000   1.0000   1.0000   1.0000   1.0000
     1.0000   1.0000   1.0000   1.0000   1.0000   1.0000   1.0000   1.0000
     1.0000   1.0000   1.0000   1.0000   1.0000   1.0000   1.0000   1.0000
     1.0000   1.0000   1.0000   1.0000   1.0000   1.0000   1.0000   1.0000
     1.0000   1.0000   1.0000   1.0000   1.0000   1.0000   1.0000   1.0000
     1.0000   1.0000   1.0000   1.0000   1.0000   1.0000   1.0000   1.0000
     1.0000   1.0000   1.0000   1.0000   1.0000   1.0000   1.0000   1.0000
     1.0000   1.0000   1.0000   1.0000   1.0000   1.0000   1.0000   1.0000
     1.0000   1.0000   1.0000   1.0000   1.0000   1.0000   1.0000   1.0000
     1.0000   1.0000   1.0000   1.0000   1.0000   1.0000   1.0000   1.0000
     1.0000   1.0000   1.0000   0.6155   0.6153   0.6146   0.6145   0.6145
     0.6142   0.3099   0.3093   0.3091   0.3083   0.3078   0.3075   0.0000
     0.0000   0.0000   0.0000   0.0000   0.0000   0.0000   0.0000   0.0000
     0.0000   0.0000   0.0000   0.0000   0.0000   0.0000   0.0000   0.0000
     0.0000   0.0000   0.0000   0.0000   0.0000   0.0000   0.0000   0.0000
     0.0000   0.0000   0.0000   0.0000   0.0000   0.0000   0.0000   0.0000
     0.0000   0.0000   0.0000   0.0000   0.0000   0.0000   0.0000   0.0000
     0.0000   0.0000   0.0000   0.0000   0.0000   0.0000   0.0000   0.0000
     0.0000   0.0000   0.0000   0.0000   0.0000   0.0000   0.0000   0.0000
     0.0000   0.0000   0.0000   0.0000   0.0000   0.0000   0.0000   0.0000
     0.0000   0.0000   0.0000   0.0000   0.0000   0.0000   0.0000   0.0000
     0.0000   0.0000   0.0000   0.0000   0.0000   0.0000   0.0000   0.0000
     0.0000   0.0000   0.0000   0.0000   0.0000   0.0000   0.0000   0.0000

          k = 0.0000 0.3849 0.0000 ( 64840 PWs)   bands (ev):

  -124.9691-124.9685-124.9678-124.9675-124.9672-124.9669-124.9666-124.9664
  -124.9662-124.9659-124.9658-124.9657-124.9653-124.9651-124.9648-124.9643
  -124.8377-124.8376-124.8371-124.8369-124.8365-124.8364-124.8364-124.8363
  -124.8357-124.8356-124.8356-124.8355-124.8352-124.8351-124.8351-124.8350
  -124.8349-124.8349-124.8346-124.8345-124.8344-124.8344-124.8344-124.8344
  -124.8343-124.8343-124.8341-124.8340-124.8339-124.8338-124.8338-124.8337
   -79.1336 -79.1336 -79.1326 -79.1304 -79.1304 -79.1287 -79.1286 -79.1260
   -79.1259 -79.1258 -79.1218 -79.1218 -79.1186 -79.1186 -79.1182 -79.1175
   -79.1167 -79.1164 -79.1160 -79.1157 -79.1153 -79.1151 -79.1150 -79.1146
   -79.1145 -79.1144 -79.1141 -79.1138 -79.1135 -79.1133 -79.1132 -79.1130
   -79.1127 -79.1127 -79.1102 -79.1101 -79.1095 -79.1094 -79.1079 -79.1076
   -79.1061 -79.1058 -79.1055 -79.1032 -79.1031 -79.1012 -79.1011 -79.0994
   -79.0002 -79.0002 -79.0001 -79.0000 -78.9991 -78.9990 -78.9970 -78.9970
   -78.9968 -78.9968 -78.9953 -78.9953 -78.9951 -78.9951 -78.9935 -78.9934
   -78.9928 -78.9927 -78.9926 -78.9926 -78.9925 -78.9924 -78.9924 -78.9924
   -78.9922 -78.9921 -78.9921 -78.9920 -78.9913 -78.9912 -78.9912 -78.9911
   -78.9908 -78.9907 -78.9906 -78.9906 -78.9905 -78.9905 -78.9902 -78.9900
   -78.9900 -78.9900 -78.9899 -78.9899 -78.9899 -78.9898 -78.9896 -78.9895
   -78.9894 -78.9894 -78.9893 -78.9892 -78.9885 -78.9885 -78.9883 -78.9883
   -78.9853 -78.9853 -78.9851 -78.9851 -78.9799 -78.9799 -78.9797 -78.9797
   -78.9794 -78.9794 -78.9793 -78.9792 -78.9767 -78.9767 -78.9765 -78.9765
   -78.9762 -78.9762 -78.9760 -78.9760 -78.9745 -78.9744 -78.9743 -78.9742
   -78.9727 -78.9725 -78.9725 -78.9724 -78.9723 -78.9722 -78.9698 -78.9698
   -78.9696 -78.9696 -78.9679 -78.9679 -78.9677 -78.9677 -78.9662 -78.9660
    -8.1701  -7.5716  -7.1569  -7.0504  -7.0504  -6.9078  -6.7638  -6.7276
    -6.7183  -6.7183  -6.7077  -6.6453  -6.6195  -6.6195  -6.6130  -6.5978
    -6.5762  -6.5762  -6.5539  -6.5538  -6.5296  -6.5281  -6.5117  -6.5117
    -6.4689  -6.4688  -6.4452  -6.4452  -6.4318  -6.4318  -6.4196  -6.4195
    -6.4167  -6.4167  -6.4098  -6.4098  -6.4084  -6.4055  -6.4055  -6.3601
    -6.3601  -6.3521  -6.3521  -6.3176  -6.3176  -6.3121  -6.3047  -6.3047
    -6.2986  -6.2986  -6.2820  -6.2820  -6.2369  -6.2369  -6.2343  -6.2294
    -6.2294  -6.2058  -6.2057  -6.2024  -6.2024  -6.1887  -6.1833  -6.1598
    -6.1598  -6.1579  -6.1579  -6.1512  -6.1512  -6.1498  -6.1425  -6.1424
    -6.1106  -6.1106  -6.1077  -6.1077  -6.1051  -6.1051  -6.0895  -6.0529
    -6.0528  -6.0504  -6.0504  -6.0446  -6.0429  -6.0429  -6.0257  -6.0174
    -6.0174  -6.0094  -5.9707  -5.9706  -5.9706  -5.9705  -5.9662  -5.9662
    -5.9655  -5.9568  -5.9568  -5.9474  -5.9474  -5.9284  -5.9263  -5.9136
    -5.9075  -5.8973  -5.8845  -5.8845  -5.8730  -5.8730  -5.8567  -5.8567
    -5.8309  -5.8229  -5.8200  -5.7962  -5.7962  -5.7912  -5.7911  -5.7775
    -5.7775  -5.7716  -5.7617  -5.7581  -5.7580  -5.7456  -5.7456  -5.7394
    -5.7394  -5.7327  -5.7327  -5.7302  -5.7302  -5.7208  -5.7207  -5.7074
    -5.7074  -5.7045  -5.6977  -5.6774  -5.6721  -5.6653  -5.6614  -5.6614
    -5.6599  -5.6599  -5.6543  -5.6542  -5.6542  -5.6541  -5.6529  -5.6529
    -5.6154  -5.6154  -5.6104  -5.6104  -5.6062  -5.6062  -5.5996  -5.5950
    -5.5949  -5.5878  -5.5878  -5.5798  -5.5798  -5.5775  -5.5539  -5.5443
    -5.5440  -5.5439  -5.5259  -5.5259  -5.5258  -5.5238  -5.5238  -5.5190
    -5.5190  -5.5172  -5.5074  -5.5074  -5.4972  -5.4972  -5.4948  -5.4948
    -5.4923  -5.4923  -5.4905  -5.4812  -5.4812  -5.4799  -5.4756  -5.4695
    -5.4695  -5.4497  -5.4497  -5.4463  -5.4462  -5.4438  -5.4298  -5.4297
    -5.4220  -5.4122  -5.4122  -5.4110  -5.4110  -5.4102  -5.4081  -5.3942
    -5.3937  -5.3937  -5.3894  -5.3861  -5.3816  -5.3816  -5.3815  -5.3815
    -5.3707  -5.3707  -5.3657  -5.3524  -5.3438  -5.3438  -5.3425  -5.3425
    -5.3403  -5.2974  -5.2864  -5.2864  -5.2833  -5.2833  -5.2656  -5.2636
    -5.2636  -5.2630  -5.2630  -5.2616  -5.2397  -5.2396  -5.2396  -5.1446
    -5.1446  -5.1351  -5.1351  -5.1061  -5.1053  -5.0205  -4.8247  -4.8247
    -4.6289  -4.6289  -4.4158  -3.6031  -3.6031  -3.5844  -3.5843  -3.4156
    -3.0363  -2.9743  -2.5551  -2.4938  -2.4938  -2.3024  -2.3023  -1.7639
    -1.7639  -1.4351  -1.4350  -1.2703  -1.2703  -1.2147  -0.9009  -0.4602
    -0.4306  -0.4306  -0.2367  -0.2367  -0.0170  -0.0170   0.1849   0.1850
     0.3290   0.6656   0.9916   0.9917   1.0674   1.0674   1.4676   1.4677
     1.5119   1.5119   2.4449   2.4450   2.5497   2.5498   2.7848   2.7849
     3.0343   3.0876   3.1179   3.1464   3.1464   3.6243   3.6244   3.6460
     3.7500   3.7501   3.7982   3.7983   4.1911   4.2528   4.2528   4.2554
     4.2555   4.8032   4.8032   5.0535   5.0535   5.1068   5.2138   5.2660
     5.2661   5.4345   5.4345   5.4526   5.7170   5.7170   5.7927   5.8133
     6.0659   6.1246   6.1246   6.1661   6.2450   6.2595   6.2595   6.3699
     6.4111   6.4111   6.4116   6.4117   6.5477   6.6522   6.6522   6.6783
     6.6784   6.7859   6.7859   6.7906   6.7906   6.9871   7.1473   7.3306
     7.4299   7.4300   7.5794   7.5794   7.6014   7.6014   7.7449   7.7449
     7.8194   7.8195   7.9276   7.9276   7.9352   7.9352   8.0486   8.2607
     8.2607   8.3097   8.4096   8.4351   8.5084   8.6464   8.6464   8.6556
     8.6557   8.8360   8.8360   8.8412   8.8412   8.8715   8.8715   8.9567

     occupation numbers 
     1.0000   1.0000   1.0000   1.0000   1.0000   1.0000   1.0000   1.0000
     1.0000   1.0000   1.0000   1.0000   1.0000   1.0000   1.0000   1.0000
     1.0000   1.0000   1.0000   1.0000   1.0000   1.0000   1.0000   1.0000
     1.0000   1.0000   1.0000   1.0000   1.0000   1.0000   1.0000   1.0000
     1.0000   1.0000   1.0000   1.0000   1.0000   1.0000   1.0000   1.0000
     1.0000   1.0000   1.0000   1.0000   1.0000   1.0000   1.0000   1.0000
     1.0000   1.0000   1.0000   1.0000   1.0000   1.0000   1.0000   1.0000
     1.0000   1.0000   1.0000   1.0000   1.0000   1.0000   1.0000   1.0000
     1.0000   1.0000   1.0000   1.0000   1.0000   1.0000   1.0000   1.0000
     1.0000   1.0000   1.0000   1.0000   1.0000   1.0000   1.0000   1.0000
     1.0000   1.0000   1.0000   1.0000   1.0000   1.0000   1.0000   1.0000
     1.0000   1.0000   1.0000   1.0000   1.0000   1.0000   1.0000   1.0000
     1.0000   1.0000   1.0000   1.0000   1.0000   1.0000   1.0000   1.0000
     1.0000   1.0000   1.0000   1.0000   1.0000   1.0000   1.0000   1.0000
     1.0000   1.0000   1.0000   1.0000   1.0000   1.0000   1.0000   1.0000
     1.0000   1.0000   1.0000   1.0000   1.0000   1.0000   1.0000   1.0000
     1.0000   1.0000   1.0000   1.0000   1.0000   1.0000   1.0000   1.0000
     1.0000   1.0000   1.0000   1.0000   1.0000   1.0000   1.0000   1.0000
     1.0000   1.0000   1.0000   1.0000   1.0000   1.0000   1.0000   1.0000
     1.0000   1.0000   1.0000   1.0000   1.0000   1.0000   1.0000   1.0000
     1.0000   1.0000   1.0000   1.0000   1.0000   1.0000   1.0000   1.0000
     1.0000   1.0000   1.0000   1.0000   1.0000   1.0000   1.0000   1.0000
     1.0000   1.0000   1.0000   1.0000   1.0000   1.0000   1.0000   1.0000
     1.0000   1.0000   1.0000   1.0000   1.0000   1.0000   1.0000   1.0000
     1.0000   1.0000   1.0000   1.0000   1.0000   1.0000   1.0000   1.0000
     1.0000   1.0000   1.0000   1.0000   1.0000   1.0000   1.0000   1.0000
     1.0000   1.0000   1.0000   1.0000   1.0000   1.0000   1.0000   1.0000
     1.0000   1.0000   1.0000   1.0000   1.0000   1.0000   1.0000   1.0000
     1.0000   1.0000   1.0000   1.0000   1.0000   1.0000   1.0000   1.0000
     1.0000   1.0000   1.0000   1.0000   1.0000   1.0000   1.0000   1.0000
     1.0000   1.0000   1.0000   1.0000   1.0000   1.0000   1.0000   1.0000
     1.0000   1.0000   1.0000   1.0000   1.0000   1.0000   1.0000   1.0000
     1.0000   1.0000   1.0000   1.0000   1.0000   1.0000   1.0000   1.0000
     1.0000   1.0000   1.0000   1.0000   1.0000   1.0000   1.0000   1.0000
     1.0000   1.0000   1.0000   1.0000   1.0000   1.0000   1.0000   1.0000
     1.0000   1.0000   1.0000   1.0000   1.0000   1.0000   1.0000   1.0000
     1.0000   1.0000   1.0000   1.0000   1.0000   1.0000   1.0000   1.0000
     1.0000   1.0000   1.0000   1.0000   1.0000   1.0000   1.0000   1.0000
     1.0000   1.0000   1.0000   1.0000   1.0000   1.0000   1.0000   1.0000
     1.0000   1.0000   1.0000   1.0000   1.0000   1.0000   1.0000   1.0000
     1.0000   1.0000   1.0000   1.0000   1.0000   1.0000   1.0000   1.0000
     1.0000   1.0000   1.0000   1.0000   1.0000   1.0000   1.0000   1.0000
     1.0000   1.0000   1.0000   1.0000   1.0000   1.0000   1.0000   1.0000
     1.0000   1.0000   1.0000   1.0000   1.0000   1.0000   1.0000   1.0000
     1.0000   1.0000   1.0000   1.0000   1.0000   1.0000   1.0000   1.0000
     1.0000   1.0000   1.0000   1.0000   1.0000   1.0000   1.0000   1.0000
     1.0000   1.0000   1.0000   1.0000   1.0000   1.0000   1.0000   1.0000
     1.0000   1.0000   1.0000   1.0000   1.0000   1.0000   1.0000   1.0000
     1.0000   1.0000   1.0000   1.0000   1.0000   1.0000   1.0000   1.0000
     1.0000   1.0000   1.0000   1.0000   1.0000   1.0000   1.0000   1.0000
     1.0000   1.0000   1.0000   1.0000   1.0000   1.0000   1.0000   1.0000
     1.0000   1.0000   1.0000   1.0000   1.0000   1.0000   1.0000   1.0000
     1.0000   1.0000   1.0000   1.0000   1.0000   1.0000   1.0000   1.0000
     1.0000   1.0000   1.0000   1.0000   1.0000   1.0000   1.0000   1.0000
     1.0000   1.0000   1.0000   1.0000   1.0000   1.0000   1.0000   1.0000
     1.0000   1.0000   1.0000   1.0000   1.0000   1.0000   1.0000   1.0000
     1.0000   1.0000   1.0000   1.0000   1.0000   1.0000   1.0000   1.0000
     1.0000   1.0000   1.0000   1.0000   1.0000   1.0000   1.0000   1.0000
     1.0000   1.0000   1.0000   1.0000   1.0000   1.0000   1.0000   1.0000
     1.0000   1.0011   1.0542   1.0542   1.0776   1.0777   0.4784   0.4783
     0.3652   0.3651   0.0000   0.0000   0.0000   0.0000   0.0000   0.0000
     0.0000   0.0000   0.0000   0.0000   0.0000   0.0000   0.0000   0.0000
     0.0000   0.0000   0.0000   0.0000   0.0000   0.0000   0.0000   0.0000
     0.0000   0.0000   0.0000   0.0000   0.0000   0.0000   0.0000   0.0000
     0.0000   0.0000   0.0000   0.0000   0.0000   0.0000   0.0000   0.0000
     0.0000   0.0000   0.0000   0.0000   0.0000   0.0000   0.0000   0.0000
     0.0000   0.0000   0.0000   0.0000   0.0000   0.0000   0.0000   0.0000
     0.0000   0.0000   0.0000   0.0000   0.0000   0.0000   0.0000   0.0000
     0.0000   0.0000   0.0000   0.0000   0.0000   0.0000   0.0000   0.0000
     0.0000   0.0000   0.0000   0.0000   0.0000   0.0000   0.0000   0.0000
     0.0000   0.0000   0.0000   0.0000   0.0000   0.0000   0.0000   0.0000
     0.0000   0.0000   0.0000   0.0000   0.0000   0.0000   0.0000   0.0000

          k = 0.3333 0.1925 0.0000 ( 64840 PWs)   bands (ev):

  -124.9691-124.9685-124.9678-124.9675-124.9671-124.9669-124.9665-124.9664
  -124.9662-124.9660-124.9658-124.9656-124.9653-124.9651-124.9648-124.9643
  -124.8377-124.8376-124.8371-124.8369-124.8365-124.8364-124.8364-124.8363
  -124.8357-124.8356-124.8356-124.8355-124.8352-124.8351-124.8351-124.8350
  -124.8349-124.8349-124.8346-124.8345-124.8345-124.8345-124.8343-124.8343
  -124.8343-124.8342-124.8341-124.8340-124.8339-124.8338-124.8338-124.8337
   -79.1337 -79.1336 -79.1326 -79.1304 -79.1304 -79.1287 -79.1286 -79.1260
   -79.1259 -79.1258 -79.1218 -79.1218 -79.1186 -79.1186 -79.1182 -79.1175
   -79.1167 -79.1165 -79.1159 -79.1157 -79.1153 -79.1151 -79.1150 -79.1147
   -79.1146 -79.1143 -79.1141 -79.1138 -79.1135 -79.1133 -79.1132 -79.1130
   -79.1128 -79.1127 -79.1102 -79.1101 -79.1095 -79.1094 -79.1079 -79.1076
   -79.1061 -79.1058 -79.1056 -79.1031 -79.1031 -79.1012 -79.1011 -79.0994
   -79.0002 -79.0002 -79.0001 -79.0000 -78.9991 -78.9990 -78.9970 -78.9970
   -78.9969 -78.9968 -78.9953 -78.9953 -78.9951 -78.9951 -78.9935 -78.9934
   -78.9928 -78.9927 -78.9926 -78.9926 -78.9926 -78.9924 -78.9924 -78.9924
   -78.9922 -78.9921 -78.9921 -78.9920 -78.9913 -78.9912 -78.9912 -78.9911
   -78.9908 -78.9907 -78.9906 -78.9906 -78.9905 -78.9905 -78.9902 -78.9901
   -78.9900 -78.9900 -78.9899 -78.9899 -78.9898 -78.9897 -78.9897 -78.9896
   -78.9895 -78.9893 -78.9893 -78.9892 -78.9885 -78.9885 -78.9883 -78.9883
   -78.9853 -78.9853 -78.9851 -78.9851 -78.9799 -78.9799 -78.9797 -78.9797
   -78.9794 -78.9794 -78.9793 -78.9792 -78.9767 -78.9767 -78.9765 -78.9765
   -78.9763 -78.9762 -78.9761 -78.9760 -78.9746 -78.9744 -78.9743 -78.9742
   -78.9727 -78.9725 -78.9725 -78.9724 -78.9723 -78.9722 -78.9698 -78.9698
   -78.9696 -78.9696 -78.9679 -78.9679 -78.9677 -78.9677 -78.9662 -78.9660
    -8.1701  -7.5716  -7.1569  -7.0504  -7.0504  -6.9078  -6.7638  -6.7276
    -6.7183  -6.7183  -6.7077  -6.6453  -6.6195  -6.6195  -6.6130  -6.5978
    -6.5762  -6.5762  -6.5539  -6.5538  -6.5296  -6.5281  -6.5117  -6.5117
    -6.4688  -6.4688  -6.4452  -6.4452  -6.4318  -6.4318  -6.4196  -6.4196
    -6.4167  -6.4166  -6.4098  -6.4098  -6.4084  -6.4055  -6.4055  -6.3601
    -6.3601  -6.3521  -6.3521  -6.3176  -6.3176  -6.3121  -6.3047  -6.3047
    -6.2986  -6.2986  -6.2820  -6.2820  -6.2369  -6.2369  -6.2343  -6.2294
    -6.2294  -6.2058  -6.2057  -6.2024  -6.2024  -6.1887  -6.1833  -6.1598
    -6.1598  -6.1579  -6.1579  -6.1512  -6.1512  -6.1498  -6.1425  -6.1425
    -6.1106  -6.1106  -6.1077  -6.1077  -6.1051  -6.1051  -6.0895  -6.0528
    -6.0528  -6.0504  -6.0504  -6.0446  -6.0429  -6.0429  -6.0257  -6.0174
    -6.0174  -6.0094  -5.9707  -5.9707  -5.9705  -5.9705  -5.9662  -5.9662
    -5.9655  -5.9568  -5.9568  -5.9474  -5.9474  -5.9284  -5.9263  -5.9136
    -5.9075  -5.8973  -5.8845  -5.8845  -5.8730  -5.8730  -5.8567  -5.8567
    -5.8309  -5.8229  -5.8200  -5.7962  -5.7962  -5.7912  -5.7912  -5.7775
    -5.7775  -5.7716  -5.7617  -5.7581  -5.7580  -5.7456  -5.7456  -5.7394
    -5.7394  -5.7327  -5.7327  -5.7302  -5.7302  -5.7208  -5.7207  -5.7074
    -5.7074  -5.7045  -5.6977  -5.6774  -5.6721  -5.6653  -5.6614  -5.6614
    -5.6599  -5.6599  -5.6542  -5.6542  -5.6542  -5.6542  -5.6529  -5.6529
    -5.6154  -5.6154  -5.6104  -5.6104  -5.6062  -5.6062  -5.5996  -5.5950
    -5.5950  -5.5878  -5.5878  -5.5798  -5.5798  -5.5775  -5.5539  -5.5443
    -5.5440  -5.5439  -5.5259  -5.5259  -5.5258  -5.5238  -5.5238  -5.5190
    -5.5190  -5.5172  -5.5074  -5.5074  -5.4972  -5.4972  -5.4948  -5.4948
    -5.4923  -5.4923  -5.4905  -5.4812  -5.4812  -5.4799  -5.4756  -5.4695
    -5.4695  -5.4497  -5.4497  -5.4463  -5.4462  -5.4438  -5.4297  -5.4297
    -5.4220  -5.4122  -5.4122  -5.4110  -5.4110  -5.4102  -5.4081  -5.3942
    -5.3937  -5.3937  -5.3894  -5.3861  -5.3816  -5.3816  -5.3815  -5.3815
    -5.3707  -5.3707  -5.3657  -5.3524  -5.3438  -5.3438  -5.3425  -5.3425
    -5.3403  -5.2974  -5.2864  -5.2864  -5.2833  -5.2833  -5.2656  -5.2636
    -5.2636  -5.2630  -5.2630  -5.2616  -5.2397  -5.2396  -5.2396  -5.1446
    -5.1446  -5.1351  -5.1351  -5.1061  -5.1053  -5.0205  -4.8247  -4.8247
    -4.6289  -4.6289  -4.4158  -3.6031  -3.6031  -3.5844  -3.5844  -3.4156
    -3.0363  -2.9743  -2.5551  -2.4938  -2.4938  -2.3023  -2.3023  -1.7640
    -1.7639  -1.4350  -1.4350  -1.2703  -1.2703  -1.2147  -0.9009  -0.4602
    -0.4306  -0.4306  -0.2367  -0.2367  -0.0170  -0.0170   0.1850   0.1850
     0.3290   0.6656   0.9916   0.9917   1.0674   1.0674   1.4676   1.4677
     1.5119   1.5119   2.4449   2.4449   2.5497   2.5497   2.7848   2.7849
     3.0343   3.0876   3.1179   3.1464   3.1464   3.6243   3.6244   3.6460
     3.7500   3.7500   3.7983   3.7983   4.1911   4.2528   4.2528   4.2555
     4.2555   4.8032   4.8032   5.0535   5.0535   5.1068   5.2138   5.2660
     5.2661   5.4345   5.4345   5.4526   5.7170   5.7170   5.7927   5.8133
     6.0659   6.1246   6.1246   6.1661   6.2450   6.2595   6.2595   6.3699
     6.4110   6.4110   6.4117   6.4117   6.5477   6.6522   6.6522   6.6783
     6.6784   6.7859   6.7859   6.7906   6.7906   6.9871   7.1473   7.3306
     7.4300   7.4300   7.5794   7.5794   7.6014   7.6014   7.7449   7.7449
     7.8194   7.8195   7.9276   7.9276   7.9352   7.9352   8.0486   8.2607
     8.2607   8.3097   8.4096   8.4351   8.5084   8.6464   8.6464   8.6556
     8.6556   8.8360   8.8361   8.8412   8.8412   8.8715   8.8715   8.9567

     occupation numbers 
     1.0000   1.0000   1.0000   1.0000   1.0000   1.0000   1.0000   1.0000
     1.0000   1.0000   1.0000   1.0000   1.0000   1.0000   1.0000   1.0000
     1.0000   1.0000   1.0000   1.0000   1.0000   1.0000   1.0000   1.0000
     1.0000   1.0000   1.0000   1.0000   1.0000   1.0000   1.0000   1.0000
     1.0000   1.0000   1.0000   1.0000   1.0000   1.0000   1.0000   1.0000
     1.0000   1.0000   1.0000   1.0000   1.0000   1.0000   1.0000   1.0000
     1.0000   1.0000   1.0000   1.0000   1.0000   1.0000   1.0000   1.0000
     1.0000   1.0000   1.0000   1.0000   1.0000   1.0000   1.0000   1.0000
     1.0000   1.0000   1.0000   1.0000   1.0000   1.0000   1.0000   1.0000
     1.0000   1.0000   1.0000   1.0000   1.0000   1.0000   1.0000   1.0000
     1.0000   1.0000   1.0000   1.0000   1.0000   1.0000   1.0000   1.0000
     1.0000   1.0000   1.0000   1.0000   1.0000   1.0000   1.0000   1.0000
     1.0000   1.0000   1.0000   1.0000   1.0000   1.0000   1.0000   1.0000
     1.0000   1.0000   1.0000   1.0000   1.0000   1.0000   1.0000   1.0000
     1.0000   1.0000   1.0000   1.0000   1.0000   1.0000   1.0000   1.0000
     1.0000   1.0000   1.0000   1.0000   1.0000   1.0000   1.0000   1.0000
     1.0000   1.0000   1.0000   1.0000   1.0000   1.0000   1.0000   1.0000
     1.0000   1.0000   1.0000   1.0000   1.0000   1.0000   1.0000   1.0000
     1.0000   1.0000   1.0000   1.0000   1.0000   1.0000   1.0000   1.0000
     1.0000   1.0000   1.0000   1.0000   1.0000   1.0000   1.0000   1.0000
     1.0000   1.0000   1.0000   1.0000   1.0000   1.0000   1.0000   1.0000
     1.0000   1.0000   1.0000   1.0000   1.0000   1.0000   1.0000   1.0000
     1.0000   1.0000   1.0000   1.0000   1.0000   1.0000   1.0000   1.0000
     1.0000   1.0000   1.0000   1.0000   1.0000   1.0000   1.0000   1.0000
     1.0000   1.0000   1.0000   1.0000   1.0000   1.0000   1.0000   1.0000
     1.0000   1.0000   1.0000   1.0000   1.0000   1.0000   1.0000   1.0000
     1.0000   1.0000   1.0000   1.0000   1.0000   1.0000   1.0000   1.0000
     1.0000   1.0000   1.0000   1.0000   1.0000   1.0000   1.0000   1.0000
     1.0000   1.0000   1.0000   1.0000   1.0000   1.0000   1.0000   1.0000
     1.0000   1.0000   1.0000   1.0000   1.0000   1.0000   1.0000   1.0000
     1.0000   1.0000   1.0000   1.0000   1.0000   1.0000   1.0000   1.0000
     1.0000   1.0000   1.0000   1.0000   1.0000   1.0000   1.0000   1.0000
     1.0000   1.0000   1.0000   1.0000   1.0000   1.0000   1.0000   1.0000
     1.0000   1.0000   1.0000   1.0000   1.0000   1.0000   1.0000   1.0000
     1.0000   1.0000   1.0000   1.0000   1.0000   1.0000   1.0000   1.0000
     1.0000   1.0000   1.0000   1.0000   1.0000   1.0000   1.0000   1.0000
     1.0000   1.0000   1.0000   1.0000   1.0000   1.0000   1.0000   1.0000
     1.0000   1.0000   1.0000   1.0000   1.0000   1.0000   1.0000   1.0000
     1.0000   1.0000   1.0000   1.0000   1.0000   1.0000   1.0000   1.0000
     1.0000   1.0000   1.0000   1.0000   1.0000   1.0000   1.0000   1.0000
     1.0000   1.0000   1.0000   1.0000   1.0000   1.0000   1.0000   1.0000
     1.0000   1.0000   1.0000   1.0000   1.0000   1.0000   1.0000   1.0000
     1.0000   1.0000   1.0000   1.0000   1.0000   1.0000   1.0000   1.0000
     1.0000   1.0000   1.0000   1.0000   1.0000   1.0000   1.0000   1.0000
     1.0000   1.0000   1.0000   1.0000   1.0000   1.0000   1.0000   1.0000
     1.0000   1.0000   1.0000   1.0000   1.0000   1.0000   1.0000   1.0000
     1.0000   1.0000   1.0000   1.0000   1.0000   1.0000   1.0000   1.0000
     1.0000   1.0000   1.0000   1.0000   1.0000   1.0000   1.0000   1.0000
     1.0000   1.0000   1.0000   1.0000   1.0000   1.0000   1.0000   1.0000
     1.0000   1.0000   1.0000   1.0000   1.0000   1.0000   1.0000   1.0000
     1.0000   1.0000   1.0000   1.0000   1.0000   1.0000   1.0000   1.0000
     1.0000   1.0000   1.0000   1.0000   1.0000   1.0000   1.0000   1.0000
     1.0000   1.0000   1.0000   1.0000   1.0000   1.0000   1.0000   1.0000
     1.0000   1.0000   1.0000   1.0000   1.0000   1.0000   1.0000   1.0000
     1.0000   1.0000   1.0000   1.0000   1.0000   1.0000   1.0000   1.0000
     1.0000   1.0000   1.0000   1.0000   1.0000   1.0000   1.0000   1.0000
     1.0000   1.0000   1.0000   1.0000   1.0000   1.0000   1.0000   1.0000
     1.0000   1.0000   1.0000   1.0000   1.0000   1.0000   1.0000   1.0000
     1.0000   1.0000   1.0000   1.0000   1.0000   1.0000   1.0000   1.0000
     1.0000   1.0011   1.0542   1.0542   1.0776   1.0777   0.4784   0.4783
     0.3652   0.3651   0.0000   0.0000   0.0000   0.0000   0.0000   0.0000
     0.0000   0.0000   0.0000   0.0000   0.0000   0.0000   0.0000   0.0000
     0.0000   0.0000   0.0000   0.0000   0.0000   0.0000   0.0000   0.0000
     0.0000   0.0000   0.0000   0.0000   0.0000   0.0000   0.0000   0.0000
     0.0000   0.0000   0.0000   0.0000   0.0000   0.0000   0.0000   0.0000
     0.0000   0.0000   0.0000   0.0000   0.0000   0.0000   0.0000   0.0000
     0.0000   0.0000   0.0000   0.0000   0.0000   0.0000   0.0000   0.0000
     0.0000   0.0000   0.0000   0.0000   0.0000   0.0000   0.0000   0.0000
     0.0000   0.0000   0.0000   0.0000   0.0000   0.0000   0.0000   0.0000
     0.0000   0.0000   0.0000   0.0000   0.0000   0.0000   0.0000   0.0000
     0.0000   0.0000   0.0000   0.0000   0.0000   0.0000   0.0000   0.0000
     0.0000   0.0000   0.0000   0.0000   0.0000   0.0000   0.0000   0.0000

          k = 0.3333 0.5774 0.0000 ( 64848 PWs)   bands (ev):

  -124.9689-124.9686-124.9681-124.9672-124.9671-124.9669-124.9666-124.9664
  -124.9662-124.9660-124.9658-124.9658-124.9654-124.9651-124.9647-124.9643
  -124.8375-124.8374-124.8373-124.8370-124.8370-124.8369-124.8358-124.8358
  -124.8357-124.8357-124.8356-124.8356-124.8351-124.8351-124.8350-124.8349
  -124.8348-124.8348-124.8348-124.8347-124.8347-124.8346-124.8345-124.8344
  -124.8343-124.8342-124.8342-124.8339-124.8339-124.8338-124.8338-124.8336
   -79.1323 -79.1320 -79.1319 -79.1298 -79.1297 -79.1294 -79.1292 -79.1289
   -79.1288 -79.1243 -79.1243 -79.1198 -79.1198 -79.1197 -79.1180 -79.1177
   -79.1171 -79.1160 -79.1159 -79.1157 -79.1153 -79.1151 -79.1149 -79.1147
   -79.1146 -79.1145 -79.1141 -79.1141 -79.1138 -79.1137 -79.1136 -79.1134
   -79.1130 -79.1087 -79.1086 -79.1083 -79.1081 -79.1078 -79.1078 -79.1066
   -79.1064 -79.1063 -79.1059 -79.1054 -79.1053 -79.1010 -79.1006 -79.1005
   -78.9988 -78.9986 -78.9986 -78.9985 -78.9985 -78.9983 -78.9961 -78.9961
   -78.9960 -78.9960 -78.9960 -78.9959 -78.9958 -78.9957 -78.9957 -78.9957
   -78.9955 -78.9955 -78.9933 -78.9932 -78.9930 -78.9929 -78.9928 -78.9927
   -78.9914 -78.9914 -78.9914 -78.9913 -78.9913 -78.9912 -78.9910 -78.9910
   -78.9908 -78.9908 -78.9907 -78.9907 -78.9906 -78.9904 -78.9904 -78.9904
   -78.9904 -78.9902 -78.9902 -78.9902 -78.9901 -78.9900 -78.9898 -78.9898
   -78.9897 -78.9895 -78.9894 -78.9893 -78.9893 -78.9892 -78.9864 -78.9864
   -78.9864 -78.9862 -78.9862 -78.9862 -78.9806 -78.9805 -78.9804 -78.9804
   -78.9803 -78.9801 -78.9751 -78.9751 -78.9749 -78.9749 -78.9749 -78.9749
   -78.9748 -78.9747 -78.9747 -78.9747 -78.9745 -78.9745 -78.9731 -78.9731
   -78.9731 -78.9730 -78.9729 -78.9729 -78.9724 -78.9723 -78.9722 -78.9722
   -78.9721 -78.9720 -78.9676 -78.9674 -78.9674 -78.9673 -78.9673 -78.9671
    -7.7634  -7.7621  -7.7602  -6.8460  -6.8456  -6.8450  -6.7135  -6.7131
    -6.7121  -6.6605  -6.6604  -6.6601  -6.6595  -6.6593  -6.6592  -6.5465
    -6.5463  -6.5462  -6.5116  -6.5115  -6.5114  -6.5112  -6.5110  -6.5109
    -6.4974  -6.4974  -6.4972  -6.4971  -6.4970  -6.4970  -6.4519  -6.4518
    -6.4517  -6.4406  -6.4404  -6.4401  -6.3881  -6.3880  -6.3879  -6.3461
    -6.3460  -6.3457  -6.3455  -6.3452  -6.3451  -6.3089  -6.3088  -6.3087
    -6.2958  -6.2958  -6.2957  -6.2674  -6.2673  -6.2673  -6.2435  -6.2434
    -6.2434  -6.2310  -6.1958  -6.1958  -6.1955  -6.1955  -6.1953  -6.1952
    -6.1682  -6.1681  -6.1680  -6.1602  -6.1600  -6.1594  -6.1486  -6.1376
    -6.1003  -6.1003  -6.1003  -6.0989  -6.0929  -6.0929  -6.0927  -6.0851
    -6.0696  -6.0696  -6.0695  -6.0676  -6.0676  -6.0676  -6.0341  -6.0339
    -6.0337  -5.9933  -5.9933  -5.9933  -5.9842  -5.9842  -5.9841  -5.9840
    -5.9839  -5.9838  -5.9832  -5.9831  -5.9830  -5.9468  -5.9467  -5.9466
    -5.9018  -5.8973  -5.8972  -5.8970  -5.8573  -5.8562  -5.8560  -5.8525
    -5.8525  -5.8524  -5.8326  -5.8311  -5.8291  -5.8287  -5.8252  -5.8251
    -5.8248  -5.7752  -5.7365  -5.7364  -5.7364  -5.7362  -5.7361  -5.7361
    -5.7279  -5.7278  -5.7276  -5.7259  -5.7259  -5.7258  -5.7149  -5.7148
    -5.7147  -5.7143  -5.7141  -5.7141  -5.7119  -5.7117  -5.7115  -5.6473
    -5.6423  -5.6423  -5.6423  -5.6178  -5.6178  -5.6178  -5.5918  -5.5915
    -5.5914  -5.5839  -5.5838  -5.5836  -5.5516  -5.5515  -5.5515  -5.5514
    -5.5514  -5.5513  -5.5318  -5.5316  -5.5315  -5.5132  -5.5131  -5.5130
    -5.5128  -5.5128  -5.5127  -5.5112  -5.5111  -5.5111  -5.5109  -5.5108
    -5.5108  -5.5071  -5.5071  -5.5069  -5.5069  -5.5068  -5.5067  -5.4968
    -5.4967  -5.4967  -5.4869  -5.4869  -5.4868  -5.4555  -5.4393  -5.4328
    -5.4328  -5.4328  -5.4312  -5.4311  -5.4310  -5.4309  -5.4308  -5.4307
    -5.4013  -5.3873  -5.3872  -5.3872  -5.3843  -5.3842  -5.3842  -5.3840
    -5.3840  -5.3840  -5.3738  -5.3738  -5.3737  -5.3736  -5.3735  -5.3735
    -5.3618  -5.3617  -5.3615  -5.3615  -5.3615  -5.3614  -5.3584  -5.3583
    -5.3582  -5.3455  -5.3454  -5.3453  -5.2922  -5.2919  -5.2919  -5.2213
    -5.2212  -5.2211  -5.2210  -5.2209  -5.2209  -5.2197  -5.2197  -5.2196
    -5.2195  -5.2194  -5.2194  -5.1162  -5.1161  -5.1160  -4.8607  -4.8607
    -4.8607  -3.7321  -3.7320  -3.7319  -3.3198  -3.3196  -3.3192  -3.3186
    -3.3182  -3.3180  -3.1241  -3.1232  -3.1230  -1.9714  -1.9712  -1.9710
    -1.9709  -1.9707  -1.9705  -1.5995  -1.5994  -1.5994   0.0718   0.0721
     0.0721   0.0725   0.0727   0.0728   0.0735   0.0737   0.0741   0.2585
     0.2588   0.2595   0.7549   0.7554   0.7560   1.2764   1.2766   1.2767
     2.2277   2.2278   2.2279   2.3467   2.5714   2.6242   2.7832   2.7833
     2.7836   3.4419   3.4420   3.4427   3.4444   3.8270   3.8274   3.8279
     3.9382   4.1192   4.1195   4.1195   4.1197   4.1198   4.1200   4.5106
     4.5412   4.5412   4.5417   4.5807   4.5809   4.5811   4.5815   4.5816
     4.5818   5.2528   5.2528   5.2529   5.6134   5.6136   5.6140   5.6255
     5.8615   5.8616   5.8616   5.9940   5.9942   5.9943   5.9952   5.9953
     5.9955   6.1186   6.3332   6.7817   6.7817   6.7819   6.8579   6.8584
     6.8587   6.8598   6.8602   6.8606   6.9476   6.9477   6.9480   7.2049
     7.2052   7.2053   7.4025   7.4026   7.4026   7.6971   7.6971   7.6971
     8.0682   8.0686   8.0688   8.2431   8.2432   8.2435   8.2447   8.2450
     8.2452   8.6145   8.6145   8.6145   8.7101   8.7105   8.7109   8.7307
     8.7307   8.7307   8.8178   8.8178   8.8179   8.8279   8.8357   8.8362

     occupation numbers 
     1.0000   1.0000   1.0000   1.0000   1.0000   1.0000   1.0000   1.0000
     1.0000   1.0000   1.0000   1.0000   1.0000   1.0000   1.0000   1.0000
     1.0000   1.0000   1.0000   1.0000   1.0000   1.0000   1.0000   1.0000
     1.0000   1.0000   1.0000   1.0000   1.0000   1.0000   1.0000   1.0000
     1.0000   1.0000   1.0000   1.0000   1.0000   1.0000   1.0000   1.0000
     1.0000   1.0000   1.0000   1.0000   1.0000   1.0000   1.0000   1.0000
     1.0000   1.0000   1.0000   1.0000   1.0000   1.0000   1.0000   1.0000
     1.0000   1.0000   1.0000   1.0000   1.0000   1.0000   1.0000   1.0000
     1.0000   1.0000   1.0000   1.0000   1.0000   1.0000   1.0000   1.0000
     1.0000   1.0000   1.0000   1.0000   1.0000   1.0000   1.0000   1.0000
     1.0000   1.0000   1.0000   1.0000   1.0000   1.0000   1.0000   1.0000
     1.0000   1.0000   1.0000   1.0000   1.0000   1.0000   1.0000   1.0000
     1.0000   1.0000   1.0000   1.0000   1.0000   1.0000   1.0000   1.0000
     1.0000   1.0000   1.0000   1.0000   1.0000   1.0000   1.0000   1.0000
     1.0000   1.0000   1.0000   1.0000   1.0000   1.0000   1.0000   1.0000
     1.0000   1.0000   1.0000   1.0000   1.0000   1.0000   1.0000   1.0000
     1.0000   1.0000   1.0000   1.0000   1.0000   1.0000   1.0000   1.0000
     1.0000   1.0000   1.0000   1.0000   1.0000   1.0000   1.0000   1.0000
     1.0000   1.0000   1.0000   1.0000   1.0000   1.0000   1.0000   1.0000
     1.0000   1.0000   1.0000   1.0000   1.0000   1.0000   1.0000   1.0000
     1.0000   1.0000   1.0000   1.0000   1.0000   1.0000   1.0000   1.0000
     1.0000   1.0000   1.0000   1.0000   1.0000   1.0000   1.0000   1.0000
     1.0000   1.0000   1.0000   1.0000   1.0000   1.0000   1.0000   1.0000
     1.0000   1.0000   1.0000   1.0000   1.0000   1.0000   1.0000   1.0000
     1.0000   1.0000   1.0000   1.0000   1.0000   1.0000   1.0000   1.0000
     1.0000   1.0000   1.0000   1.0000   1.0000   1.0000   1.0000   1.0000
     1.0000   1.0000   1.0000   1.0000   1.0000   1.0000   1.0000   1.0000
     1.0000   1.0000   1.0000   1.0000   1.0000   1.0000   1.0000   1.0000
     1.0000   1.0000   1.0000   1.0000   1.0000   1.0000   1.0000   1.0000
     1.0000   1.0000   1.0000   1.0000   1.0000   1.0000   1.0000   1.0000
     1.0000   1.0000   1.0000   1.0000   1.0000   1.0000   1.0000   1.0000
     1.0000   1.0000   1.0000   1.0000   1.0000   1.0000   1.0000   1.0000
     1.0000   1.0000   1.0000   1.0000   1.0000   1.0000   1.0000   1.0000
     1.0000   1.0000   1.0000   1.0000   1.0000   1.0000   1.0000   1.0000
     1.0000   1.0000   1.0000   1.0000   1.0000   1.0000   1.0000   1.0000
     1.0000   1.0000   1.0000   1.0000   1.0000   1.0000   1.0000   1.0000
     1.0000   1.0000   1.0000   1.0000   1.0000   1.0000   1.0000   1.0000
     1.0000   1.0000   1.0000   1.0000   1.0000   1.0000   1.0000   1.0000
     1.0000   1.0000   1.0000   1.0000   1.0000   1.0000   1.0000   1.0000
     1.0000   1.0000   1.0000   1.0000   1.0000   1.0000   1.0000   1.0000
     1.0000   1.0000   1.0000   1.0000   1.0000   1.0000   1.0000   1.0000
     1.0000   1.0000   1.0000   1.0000   1.0000   1.0000   1.0000   1.0000
     1.0000   1.0000   1.0000   1.0000   1.0000   1.0000   1.0000   1.0000
     1.0000   1.0000   1.0000   1.0000   1.0000   1.0000   1.0000   1.0000
     1.0000   1.0000   1.0000   1.0000   1.0000   1.0000   1.0000   1.0000
     1.0000   1.0000   1.0000   1.0000   1.0000   1.0000   1.0000   1.0000
     1.0000   1.0000   1.0000   1.0000   1.0000   1.0000   1.0000   1.0000
     1.0000   1.0000   1.0000   1.0000   1.0000   1.0000   1.0000   1.0000
     1.0000   1.0000   1.0000   1.0000   1.0000   1.0000   1.0000   1.0000
     1.0000   1.0000   1.0000   1.0000   1.0000   1.0000   1.0000   1.0000
     1.0000   1.0000   1.0000   1.0000   1.0000   1.0000   1.0000   1.0000
     1.0000   1.0000   1.0000   1.0000   1.0000   1.0000   1.0000   1.0000
     1.0000   1.0000   1.0000   1.0000   1.0000   1.0000   1.0000   1.0000
     1.0000   1.0000   1.0000   1.0000   1.0000   1.0000   1.0000   1.0000
     1.0000   1.0000   1.0000   1.0000   1.0000   1.0000   1.0000   1.0000
     1.0000   1.0000   1.0000   1.0000   1.0000   1.0000   1.0000   1.0000
     1.0000   1.0000   1.0000   1.0000   1.0000   1.0000   1.0000   1.0000
     1.0000   1.0000   1.0000   1.0000   1.0000   1.0000   1.0000   1.0000
     1.0000   1.0000   1.0000   1.0000   1.0000   1.0000   1.0000   1.0000
     1.0000   1.0000   1.0046   1.0046   1.0046   0.9538   0.9535   0.9533
     0.0000   0.0000   0.0000   0.0000   0.0000   0.0000   0.0000   0.0000
     0.0000   0.0000   0.0000   0.0000   0.0000   0.0000   0.0000   0.0000
     0.0000   0.0000   0.0000   0.0000   0.0000   0.0000   0.0000   0.0000
     0.0000   0.0000   0.0000   0.0000   0.0000   0.0000   0.0000   0.0000
     0.0000   0.0000   0.0000   0.0000   0.0000   0.0000   0.0000   0.0000
     0.0000   0.0000   0.0000   0.0000   0.0000   0.0000   0.0000   0.0000
     0.0000   0.0000   0.0000   0.0000   0.0000   0.0000   0.0000   0.0000
     0.0000   0.0000   0.0000   0.0000   0.0000   0.0000   0.0000   0.0000
     0.0000   0.0000   0.0000   0.0000   0.0000   0.0000   0.0000   0.0000
     0.0000   0.0000   0.0000   0.0000   0.0000   0.0000   0.0000   0.0000
     0.0000   0.0000   0.0000   0.0000   0.0000   0.0000   0.0000   0.0000
     0.0000   0.0000   0.0000   0.0000   0.0000   0.0000   0.0000   0.0000

          k = 0.3333-0.1925 0.0000 ( 64840 PWs)   bands (ev):

  -124.9691-124.9683-124.9679-124.9677-124.9669-124.9668-124.9665-124.9664
  -124.9662-124.9661-124.9658-124.9657-124.9653-124.9650-124.9648-124.9643
  -124.8377-124.8376-124.8370-124.8369-124.8365-124.8365-124.8364-124.8362
  -124.8356-124.8356-124.8356-124.8355-124.8353-124.8351-124.8350-124.8350
  -124.8349-124.8349-124.8347-124.8346-124.8345-124.8345-124.8343-124.8343
  -124.8343-124.8342-124.8341-124.8340-124.8339-124.8338-124.8338-124.8337
   -79.1337 -79.1336 -79.1326 -79.1304 -79.1303 -79.1287 -79.1287 -79.1260
   -79.1260 -79.1258 -79.1218 -79.1218 -79.1186 -79.1186 -79.1182 -79.1173
   -79.1168 -79.1166 -79.1158 -79.1156 -79.1153 -79.1151 -79.1149 -79.1149
   -79.1145 -79.1144 -79.1140 -79.1138 -79.1135 -79.1132 -79.1132 -79.1130
   -79.1128 -79.1127 -79.1101 -79.1100 -79.1095 -79.1094 -79.1079 -79.1077
   -79.1060 -79.1058 -79.1056 -79.1031 -79.1031 -79.1012 -79.1012 -79.0993
   -79.0002 -79.0002 -79.0001 -79.0000 -78.9991 -78.9990 -78.9970 -78.9970
   -78.9969 -78.9968 -78.9953 -78.9953 -78.9951 -78.9951 -78.9936 -78.9934
   -78.9928 -78.9927 -78.9926 -78.9926 -78.9926 -78.9924 -78.9924 -78.9924
   -78.9922 -78.9922 -78.9921 -78.9920 -78.9913 -78.9912 -78.9912 -78.9911
   -78.9909 -78.9907 -78.9906 -78.9906 -78.9905 -78.9905 -78.9902 -78.9901
   -78.9900 -78.9900 -78.9899 -78.9899 -78.9898 -78.9897 -78.9896 -78.9896
   -78.9894 -78.9894 -78.9893 -78.9892 -78.9885 -78.9885 -78.9883 -78.9883
   -78.9853 -78.9853 -78.9851 -78.9851 -78.9799 -78.9799 -78.9797 -78.9797
   -78.9794 -78.9794 -78.9793 -78.9792 -78.9767 -78.9767 -78.9765 -78.9765
   -78.9763 -78.9762 -78.9760 -78.9760 -78.9746 -78.9744 -78.9744 -78.9742
   -78.9727 -78.9725 -78.9725 -78.9725 -78.9723 -78.9722 -78.9698 -78.9698
   -78.9696 -78.9696 -78.9679 -78.9679 -78.9677 -78.9677 -78.9661 -78.9660
    -8.1701  -7.5716  -7.1569  -7.0505  -7.0503  -6.9078  -6.7638  -6.7276
    -6.7183  -6.7183  -6.7077  -6.6453  -6.6195  -6.6195  -6.6130  -6.5978
    -6.5762  -6.5762  -6.5539  -6.5538  -6.5296  -6.5281  -6.5117  -6.5117
    -6.4689  -6.4688  -6.4452  -6.4452  -6.4318  -6.4318  -6.4196  -6.4195
    -6.4167  -6.4166  -6.4098  -6.4098  -6.4084  -6.4055  -6.4055  -6.3601
    -6.3601  -6.3521  -6.3521  -6.3176  -6.3175  -6.3122  -6.3047  -6.3047
    -6.2986  -6.2986  -6.2820  -6.2820  -6.2369  -6.2368  -6.2343  -6.2294
    -6.2294  -6.2058  -6.2057  -6.2024  -6.2024  -6.1887  -6.1833  -6.1598
    -6.1598  -6.1579  -6.1579  -6.1512  -6.1512  -6.1498  -6.1425  -6.1425
    -6.1106  -6.1106  -6.1077  -6.1077  -6.1051  -6.1051  -6.0895  -6.0529
    -6.0528  -6.0504  -6.0504  -6.0446  -6.0429  -6.0429  -6.0257  -6.0174
    -6.0174  -6.0094  -5.9707  -5.9706  -5.9706  -5.9705  -5.9662  -5.9662
    -5.9655  -5.9568  -5.9568  -5.9474  -5.9474  -5.9284  -5.9263  -5.9136
    -5.9075  -5.8973  -5.8845  -5.8845  -5.8730  -5.8730  -5.8567  -5.8567
    -5.8309  -5.8229  -5.8200  -5.7962  -5.7962  -5.7912  -5.7912  -5.7775
    -5.7775  -5.7716  -5.7617  -5.7581  -5.7580  -5.7456  -5.7456  -5.7394
    -5.7394  -5.7327  -5.7327  -5.7302  -5.7302  -5.7208  -5.7207  -5.7074
    -5.7074  -5.7045  -5.6977  -5.6774  -5.6721  -5.6653  -5.6614  -5.6614
    -5.6599  -5.6599  -5.6542  -5.6542  -5.6542  -5.6541  -5.6529  -5.6529
    -5.6154  -5.6154  -5.6104  -5.6104  -5.6062  -5.6062  -5.5996  -5.5950
    -5.5949  -5.5878  -5.5878  -5.5798  -5.5798  -5.5775  -5.5539  -5.5443
    -5.5440  -5.5439  -5.5259  -5.5259  -5.5258  -5.5238  -5.5238  -5.5190
    -5.5190  -5.5172  -5.5074  -5.5074  -5.4972  -5.4972  -5.4948  -5.4948
    -5.4923  -5.4923  -5.4905  -5.4812  -5.4812  -5.4798  -5.4756  -5.4695
    -5.4695  -5.4497  -5.4497  -5.4462  -5.4462  -5.4438  -5.4297  -5.4297
    -5.4220  -5.4122  -5.4122  -5.4110  -5.4110  -5.4102  -5.4081  -5.3942
    -5.3937  -5.3937  -5.3894  -5.3861  -5.3816  -5.3815  -5.3815  -5.3815
    -5.3707  -5.3707  -5.3657  -5.3524  -5.3438  -5.3438  -5.3425  -5.3425
    -5.3403  -5.2974  -5.2864  -5.2864  -5.2833  -5.2833  -5.2656  -5.2636
    -5.2636  -5.2630  -5.2630  -5.2616  -5.2397  -5.2396  -5.2396  -5.1446
    -5.1446  -5.1351  -5.1351  -5.1061  -5.1053  -5.0205  -4.8247  -4.8247
    -4.6289  -4.6289  -4.4158  -3.6032  -3.6031  -3.5844  -3.5844  -3.4156
    -3.0363  -2.9743  -2.5551  -2.4938  -2.4938  -2.3024  -2.3023  -1.7639
    -1.7639  -1.4351  -1.4350  -1.2703  -1.2703  -1.2147  -0.9009  -0.4602
    -0.4306  -0.4306  -0.2367  -0.2367  -0.0170  -0.0170   0.1849   0.1850
     0.3290   0.6656   0.9916   0.9917   1.0673   1.0674   1.4676   1.4676
     1.5119   1.5119   2.4449   2.4450   2.5497   2.5498   2.7848   2.7849
     3.0343   3.0876   3.1179   3.1464   3.1464   3.6243   3.6244   3.6460
     3.7500   3.7501   3.7982   3.7983   4.1911   4.2528   4.2528   4.2555
     4.2555   4.8032   4.8032   5.0535   5.0535   5.1068   5.2138   5.2660
     5.2661   5.4345   5.4345   5.4526   5.7170   5.7170   5.7927   5.8133
     6.0659   6.1246   6.1246   6.1661   6.2450   6.2595   6.2595   6.3699
     6.4111   6.4112   6.4116   6.4116   6.5477   6.6522   6.6522   6.6783
     6.6784   6.7859   6.7859   6.7906   6.7906   6.9871   7.1473   7.3306
     7.4299   7.4300   7.5794   7.5794   7.6014   7.6014   7.7449   7.7450
     7.8194   7.8195   7.9276   7.9276   7.9352   7.9352   8.0486   8.2607
     8.2607   8.3097   8.4096   8.4351   8.5084   8.6464   8.6464   8.6556
     8.6557   8.8360   8.8360   8.8412   8.8413   8.8716   8.8719   8.9567

     occupation numbers 
     1.0000   1.0000   1.0000   1.0000   1.0000   1.0000   1.0000   1.0000
     1.0000   1.0000   1.0000   1.0000   1.0000   1.0000   1.0000   1.0000
     1.0000   1.0000   1.0000   1.0000   1.0000   1.0000   1.0000   1.0000
     1.0000   1.0000   1.0000   1.0000   1.0000   1.0000   1.0000   1.0000
     1.0000   1.0000   1.0000   1.0000   1.0000   1.0000   1.0000   1.0000
     1.0000   1.0000   1.0000   1.0000   1.0000   1.0000   1.0000   1.0000
     1.0000   1.0000   1.0000   1.0000   1.0000   1.0000   1.0000   1.0000
     1.0000   1.0000   1.0000   1.0000   1.0000   1.0000   1.0000   1.0000
     1.0000   1.0000   1.0000   1.0000   1.0000   1.0000   1.0000   1.0000
     1.0000   1.0000   1.0000   1.0000   1.0000   1.0000   1.0000   1.0000
     1.0000   1.0000   1.0000   1.0000   1.0000   1.0000   1.0000   1.0000
     1.0000   1.0000   1.0000   1.0000   1.0000   1.0000   1.0000   1.0000
     1.0000   1.0000   1.0000   1.0000   1.0000   1.0000   1.0000   1.0000
     1.0000   1.0000   1.0000   1.0000   1.0000   1.0000   1.0000   1.0000
     1.0000   1.0000   1.0000   1.0000   1.0000   1.0000   1.0000   1.0000
     1.0000   1.0000   1.0000   1.0000   1.0000   1.0000   1.0000   1.0000
     1.0000   1.0000   1.0000   1.0000   1.0000   1.0000   1.0000   1.0000
     1.0000   1.0000   1.0000   1.0000   1.0000   1.0000   1.0000   1.0000
     1.0000   1.0000   1.0000   1.0000   1.0000   1.0000   1.0000   1.0000
     1.0000   1.0000   1.0000   1.0000   1.0000   1.0000   1.0000   1.0000
     1.0000   1.0000   1.0000   1.0000   1.0000   1.0000   1.0000   1.0000
     1.0000   1.0000   1.0000   1.0000   1.0000   1.0000   1.0000   1.0000
     1.0000   1.0000   1.0000   1.0000   1.0000   1.0000   1.0000   1.0000
     1.0000   1.0000   1.0000   1.0000   1.0000   1.0000   1.0000   1.0000
     1.0000   1.0000   1.0000   1.0000   1.0000   1.0000   1.0000   1.0000
     1.0000   1.0000   1.0000   1.0000   1.0000   1.0000   1.0000   1.0000
     1.0000   1.0000   1.0000   1.0000   1.0000   1.0000   1.0000   1.0000
     1.0000   1.0000   1.0000   1.0000   1.0000   1.0000   1.0000   1.0000
     1.0000   1.0000   1.0000   1.0000   1.0000   1.0000   1.0000   1.0000
     1.0000   1.0000   1.0000   1.0000   1.0000   1.0000   1.0000   1.0000
     1.0000   1.0000   1.0000   1.0000   1.0000   1.0000   1.0000   1.0000
     1.0000   1.0000   1.0000   1.0000   1.0000   1.0000   1.0000   1.0000
     1.0000   1.0000   1.0000   1.0000   1.0000   1.0000   1.0000   1.0000
     1.0000   1.0000   1.0000   1.0000   1.0000   1.0000   1.0000   1.0000
     1.0000   1.0000   1.0000   1.0000   1.0000   1.0000   1.0000   1.0000
     1.0000   1.0000   1.0000   1.0000   1.0000   1.0000   1.0000   1.0000
     1.0000   1.0000   1.0000   1.0000   1.0000   1.0000   1.0000   1.0000
     1.0000   1.0000   1.0000   1.0000   1.0000   1.0000   1.0000   1.0000
     1.0000   1.0000   1.0000   1.0000   1.0000   1.0000   1.0000   1.0000
     1.0000   1.0000   1.0000   1.0000   1.0000   1.0000   1.0000   1.0000
     1.0000   1.0000   1.0000   1.0000   1.0000   1.0000   1.0000   1.0000
     1.0000   1.0000   1.0000   1.0000   1.0000   1.0000   1.0000   1.0000
     1.0000   1.0000   1.0000   1.0000   1.0000   1.0000   1.0000   1.0000
     1.0000   1.0000   1.0000   1.0000   1.0000   1.0000   1.0000   1.0000
     1.0000   1.0000   1.0000   1.0000   1.0000   1.0000   1.0000   1.0000
     1.0000   1.0000   1.0000   1.0000   1.0000   1.0000   1.0000   1.0000
     1.0000   1.0000   1.0000   1.0000   1.0000   1.0000   1.0000   1.0000
     1.0000   1.0000   1.0000   1.0000   1.0000   1.0000   1.0000   1.0000
     1.0000   1.0000   1.0000   1.0000   1.0000   1.0000   1.0000   1.0000
     1.0000   1.0000   1.0000   1.0000   1.0000   1.0000   1.0000   1.0000
     1.0000   1.0000   1.0000   1.0000   1.0000   1.0000   1.0000   1.0000
     1.0000   1.0000   1.0000   1.0000   1.0000   1.0000   1.0000   1.0000
     1.0000   1.0000   1.0000   1.0000   1.0000   1.0000   1.0000   1.0000
     1.0000   1.0000   1.0000   1.0000   1.0000   1.0000   1.0000   1.0000
     1.0000   1.0000   1.0000   1.0000   1.0000   1.0000   1.0000   1.0000
     1.0000   1.0000   1.0000   1.0000   1.0000   1.0000   1.0000   1.0000
     1.0000   1.0000   1.0000   1.0000   1.0000   1.0000   1.0000   1.0000
     1.0000   1.0000   1.0000   1.0000   1.0000   1.0000   1.0000   1.0000
     1.0000   1.0000   1.0000   1.0000   1.0000   1.0000   1.0000   1.0000
     1.0000   1.0011   1.0542   1.0542   1.0776   1.0777   0.4784   0.4783
     0.3652   0.3651   0.0000   0.0000   0.0000   0.0000   0.0000   0.0000
     0.0000   0.0000   0.0000   0.0000   0.0000   0.0000   0.0000   0.0000
     0.0000   0.0000   0.0000   0.0000   0.0000   0.0000   0.0000   0.0000
     0.0000   0.0000   0.0000   0.0000   0.0000   0.0000   0.0000   0.0000
     0.0000   0.0000   0.0000   0.0000   0.0000   0.0000   0.0000   0.0000
     0.0000   0.0000   0.0000   0.0000   0.0000   0.0000   0.0000   0.0000
     0.0000   0.0000   0.0000   0.0000   0.0000   0.0000   0.0000   0.0000
     0.0000   0.0000   0.0000   0.0000   0.0000   0.0000   0.0000   0.0000
     0.0000   0.0000   0.0000   0.0000   0.0000   0.0000   0.0000   0.0000
     0.0000   0.0000   0.0000   0.0000   0.0000   0.0000   0.0000   0.0000
     0.0000   0.0000   0.0000   0.0000   0.0000   0.0000   0.0000   0.0000
     0.0000   0.0000   0.0000   0.0000   0.0000   0.0000   0.0000   0.0000

     the Fermi energy is     1.4975 ev

!    total energy              =  -22155.04913338 Ry
     estimated scf accuracy    <       0.00000098 Ry
     smearing contrib. (-TS)   =      -0.00934269 Ry
[...]
     atom   29 type  1   force =     0.00000000    0.00000000    0.00000000
     atom   30 type  1   force =     0.00000000    0.00000000    0.00000000
     atom   31 type  1   force =     0.00000000    0.00000000    0.00000000
     atom   32 type  1   force =     0.00000000    0.00000000    0.00000000
     atom   33 type  1   force =     0.00000000    0.00000000    0.00000000
     atom   34 type  1   force =     0.00000000    0.00000000    0.00000000
     atom   35 type  1   force =     0.00000000    0.00000000    0.00000000
     atom   36 type  1   force =     0.00000000    0.00000000    0.00000000
     atom   37 type  1   force =     0.00000000    0.00000000    0.00000000
     atom   38 type  1   force =     0.00000000    0.00000000    0.00000000
     atom   39 type  1   force =     0.00000000    0.00000000    0.00000000
     atom   40 type  1   force =     0.00000000    0.00000000    0.00000000
     atom   41 type  1   force =     0.00000000    0.00000000    0.00000000
     atom   42 type  1   force =     0.00000000    0.00000000    0.00000000
     atom   43 type  1   force =     0.00000000    0.00000000    0.00000000
     atom   44 type  1   force =     0.00000000    0.00000000    0.00000000
     atom   45 type  1   force =     0.00000000    0.00000000    0.00000000
     atom   46 type  1   force =     0.00000000    0.00000000    0.00000000
     atom   47 type  1   force =     0.00000000    0.00000000    0.00000000
     atom   48 type  1   force =     0.00000000    0.00000000    0.00000000
     The SCF correction term to forces
     atom    1 type  1   force =     0.00000000    0.00000000    0.00000000
     atom    2 type  1   force =    -0.00000000    0.00000000    0.00000000
     atom    3 type  1   force =     0.00000688    0.00000351   -0.00007451
     atom    4 type  1   force =    -0.00000443    0.00008071   -0.00003927
     atom    5 type  1   force =    -0.00000000   -0.00000000    0.00000000
     atom    6 type  1   force =     0.00000000    0.00000000    0.00000000
     atom    7 type  1   force =    -0.00003390   -0.00001572   -0.00007888
     atom    8 type  1   force =     0.00003334    0.00002015   -0.00006670
     atom    9 type  1   force =    -0.00000000   -0.00000000    0.00000000
     atom   10 type  1   force =     0.00000000   -0.00000000    0.00000000
     atom   11 type  1   force =    -0.00006609   -0.00003948   -0.00007910
     atom   12 type  1   force =     0.00006987   -0.00004719   -0.00003442
     atom   13 type  1   force =    -0.00000000   -0.00000000    0.00000000
     atom   14 type  1   force =     0.00000000    0.00000000    0.00000000
     atom   15 type  1   force =    -0.00002873   -0.00001876   -0.00007549
     atom   16 type  1   force =     0.00002965    0.00001907    0.00000051
     atom   17 type  1   force =    -0.00000000    0.00000000    0.00000000
     atom   18 type  1   force =     0.00000000    0.00000000    0.00000000
     atom   19 type  1   force =    -0.00005554    0.00000659   -0.00005901
     atom   20 type  1   force =     0.00005424    0.00007566   -0.00006537
     atom   21 type  1   force =    -0.00000000   -0.00000000    0.00000000
     atom   22 type  1   force =     0.00000000    0.00000000    0.00000000
     atom   23 type  1   force =    -0.00002092   -0.00005131   -0.00005922
     atom   24 type  1   force =     0.00002097    0.00005576   -0.00009083
     atom   25 type  1   force =    -0.00000000   -0.00000000    0.00000000
     atom   26 type  1   force =     0.00000000   -0.00000000    0.00000000
     atom   27 type  1   force =    -0.00006016   -0.00007439   -0.00002939
     atom   28 type  1   force =     0.00005760   -0.00001198   -0.00008344
     atom   29 type  1   force =    -0.00000000   -0.00000000    0.00000000
     atom   30 type  1   force =     0.00000000    0.00000000    0.00000000
     atom   31 type  1   force =    -0.00009361   -0.00001380   -0.00003029
     atom   32 type  1   force =     0.00009258    0.00001054   -0.00005823
     atom   33 type  1   force =    -0.00003780   -0.00000396    0.00014674
     atom   34 type  1   force =     0.00004934    0.00010964    0.00013323
     atom   35 type  1   force =    -0.00002741   -0.00003588    0.00014429
     atom   36 type  1   force =     0.00003338    0.00008234    0.00014430
     atom   37 type  1   force =    -0.00008740   -0.00006644    0.00014653
     atom   38 type  1   force =     0.00009379   -0.00002269    0.00014887
     atom   39 type  1   force =    -0.00009712   -0.00003810    0.00014737
     atom   40 type  1   force =     0.00011334   -0.00000284    0.00013753
     atom   41 type  1   force =    -0.00008688    0.00004522    0.00013369
     atom   42 type  1   force =     0.00007368    0.00004919    0.00014372
     atom   43 type  1   force =    -0.00002148   -0.00001999    0.00013851
     atom   44 type  1   force =     0.00001519    0.00005540    0.00014676
     atom   45 type  1   force =    -0.00000947   -0.00009921    0.00013780
     atom   46 type  1   force =     0.00000587   -0.00000300    0.00015279
     atom   47 type  1   force =    -0.00007461   -0.00003703    0.00013342
     atom   48 type  1   force =     0.00006305   -0.00001063    0.00015180

     DFT-D3 dispersion contribution to forces:
     atom    1 type  1   force =     0.00000071   -0.00000040    0.00268593
     atom    2 type  1   force =    -0.00000067   -0.00000109    0.00268009
     atom    3 type  1   force =    -0.00000065   -0.00000074   -0.00268389
     atom    4 type  1   force =     0.00000095    0.00000683   -0.00268239
     atom    5 type  1   force =     0.00000107    0.00000042    0.00268313
     atom    6 type  1   force =    -0.00000103    0.00000020    0.00268247
     atom    7 type  1   force =    -0.00000492    0.00000459   -0.00268704
     atom    8 type  1   force =     0.00000532    0.00000761   -0.00268673
     atom    9 type  1   force =     0.00000054    0.00000113    0.00268254
     atom   10 type  1   force =    -0.00000057    0.00000042    0.00267875
     atom   11 type  1   force =    -0.00000656   -0.00000351   -0.00268815
     atom   12 type  1   force =     0.00000616   -0.00000238   -0.00268508
     atom   13 type  1   force =     0.00000011    0.00000029    0.00268563
     atom   14 type  1   force =    -0.00000016   -0.00000097    0.00267668
     atom   15 type  1   force =    -0.00000231   -0.00000864   -0.00268429
     atom   16 type  1   force =     0.00000224   -0.00000368   -0.00268083
     atom   17 type  1   force =    -0.00000007   -0.00000024    0.00268555
     atom   18 type  1   force =     0.00000004   -0.00000131    0.00268044
     atom   19 type  1   force =    -0.00000057    0.00000123   -0.00268192
     atom   20 type  1   force =     0.00000031    0.00000468   -0.00268413
     atom   21 type  1   force =     0.00000041    0.00000061    0.00268355
     atom   22 type  1   force =    -0.00000041    0.00000002    0.00268189
     atom   23 type  1   force =     0.00000114    0.00000350   -0.00268485
     atom   24 type  1   force =    -0.00000149    0.00000860   -0.00268967
     atom   25 type  1   force =     0.00000087    0.00000077    0.00267924
     atom   26 type  1   force =    -0.00000085    0.00000088    0.00268223
     atom   27 type  1   force =    -0.00000252   -0.00000287   -0.00268375
     atom   28 type  1   force =     0.00000289   -0.00000318   -0.00268974
     atom   29 type  1   force =     0.00000050   -0.00000012    0.00268114
     atom   30 type  1   force =    -0.00000046   -0.00000069    0.00268091
     atom   31 type  1   force =    -0.00000445   -0.00000544   -0.00268124
     atom   32 type  1   force =     0.00000444   -0.00000671   -0.00268420
     atom   33 type  1   force =    -0.00000383   -0.00000423   -0.00000304
     atom   34 type  1   force =     0.00000394    0.00000896    0.00000234
     atom   35 type  1   force =    -0.00000882    0.00000568    0.00000036
     atom   36 type  1   force =     0.00000887    0.00001334    0.00000525
     atom   37 type  1   force =    -0.00001124   -0.00000455    0.00000517
     atom   38 type  1   force =     0.00001119   -0.00000048    0.00000709
     atom   39 type  1   force =    -0.00000591   -0.00001412    0.00000230
     atom   40 type  1   force =     0.00000606   -0.00000443    0.00000395
     atom   41 type  1   force =     0.00000583    0.00000415   -0.00000121
     atom   42 type  1   force =    -0.00000597    0.00000051    0.00000112
     atom   43 type  1   force =     0.00000864    0.00001027    0.00000016
     atom   44 type  1   force =    -0.00000876    0.00000893    0.00000539
     atom   45 type  1   force =     0.00000372    0.00000108    0.00000340
     atom   46 type  1   force =    -0.00000360   -0.00000602    0.00000938
     atom   47 type  1   force =     0.00000105   -0.00000459    0.00000177
     atom   48 type  1   force =    -0.00000117   -0.00001429    0.00000433

     Total force =     0.001283     Total SCF correction =     0.000760

     DFT-D3 dispersion Force =     0.015180
     SCF correction compared to forces is large: reduce conv_thr to get better values


     Computing stress (Cartesian axis) and pressure

          total   stress  (Ry/bohr**3)                   (kbar)     P=       -8.64
  -0.00008710   0.00000000   0.00000000          -12.81        0.00        0.00
   0.00000000  -0.00008710   0.00000000            0.00      -12.81        0.00
   0.00000000   0.00000000  -0.00000205            0.00        0.00       -0.30

     kinetic stress (kbar)  12453.78      0.00      0.00
                                0.00  12453.78      0.00
                                0.00      0.00  12533.38

     local   stress (kbar)**********      0.02     -0.00
                                0.02**********     -0.01
                               -0.00     -0.011239110.63

     nonloc. stress (kbar)  -1306.78     -0.00      0.00
                               -0.00  -1306.78      0.00
                                0.00      0.00  -1351.39

     hartree stress (kbar) 638937.65     -0.01      0.00
                               -0.01 638937.61      0.00
                                0.00      0.00-583321.88

     exc-cor stress (kbar)  -6281.64     -0.00      0.00
                               -0.00  -6281.64      0.00
                                0.00      0.00  -6291.03

     corecor stress (kbar)      0.00      0.00      0.00
                                0.00      0.00      0.00
                                0.00      0.00      0.00

     ewald   stress (kbar) 580705.19     -0.01      0.00
                               -0.01 580705.15      0.01
                                0.00      0.01-660676.10

     hubbard stress (kbar)      0.00      0.00      0.00
                                0.00      0.00      0.00
                                0.00      0.00      0.00

     DFT-D   stress (kbar)    -10.16      0.00     -0.00
                                0.00    -10.16     -0.00
                               -0.00     -0.00     -3.93

     XDM     stress (kbar)      0.00      0.00      0.00
                                0.00      0.00      0.00
                                0.00      0.00      0.00

     dft-nl  stress (kbar)      0.00      0.00      0.00
                                0.00      0.00      0.00
                                0.00      0.00      0.00

     TS-vdW  stress (kbar)      0.00      0.00      0.00
                                0.00      0.00      0.00
                                0.00      0.00      0.00

     MDB     stress (kbar)      0.00      0.00      0.00
                                0.00      0.00      0.00
                                0.00      0.00      0.00

     3D-RISM stress (kbar)      0.00      0.00      0.00
                                0.00      0.00      0.00
                                0.00      0.00      0.00

     Energy error            =      2.4E-06 Ry
     Gradient error          =      3.5E-04 Ry/Bohr

     bfgs converged in  21 scf cycles and  20 bfgs steps
     (criteria: energy <  1.0E-05 Ry, force <  5.0E-04 Ry/Bohr)

     End of BFGS Geometry Optimization

     Final energy             =  -22155.0531478903 Ry

     File ./tmp/Zn002_3layer_relax.bfgs deleted, as requested
Begin final coordinates

ATOMIC_POSITIONS (angstrom)
Zn               0.0000000000        1.5094010000        1.2182900000    0   0   0
Zn               5.2287200000        1.5094010000        1.2182900000    0   0   0
Zn              -0.0000295242        1.5093100836        6.1627222677
Zn               5.2287855090        1.5102240454        6.1638493075
Zn              -1.3071800000        3.7735030000        1.2182900000    0   0   0
Zn               3.9215400000        3.7735030000        1.2182900000    0   0   0
Zn              -1.3077223284        3.7740258440        6.1629587774
Zn               3.9221248309        3.7744160599        6.1628402142
Zn              -2.6143600000        6.0376050000        1.2182900000    0   0   0
Zn               2.6143600000        6.0376050000        1.2182900000    0   0   0
Zn              -2.6151492611        6.0371996707        6.1626339098
Zn               2.6150977159        6.0372825207        6.1632832564
Zn              -3.9215400000        8.3017080000        1.2182900000    0   0   0
Zn               1.3071800000        8.3017080000        1.2182900000    0   0   0
Zn              -3.9218349529        8.3007180779        6.1624873501
Zn               1.3074532867        8.3012397707        6.1642396095
Zn               2.6143600000        1.5094010000        1.2182900000    0   0   0
Zn               7.8430800000        1.5094010000        1.2182900000    0   0   0
Zn               2.6142224358        1.5095489592        6.1628403062
Zn               7.8431742227        1.5099540152        6.1637933875
Zn               1.3071800000        3.7735030000        1.2182900000    0   0   0
Zn               6.5359000000        3.7735030000        1.2182900000    0   0   0
Zn               1.3073143044        3.7739013444        6.1627625068
Zn               6.5357189081        3.7745378166        6.1628835300
Zn               0.0000000000        6.0376050000        1.2182900000    0   0   0
Zn               5.2287200000        6.0376050000        1.2182900000    0   0   0
Zn              -0.0002891573        6.0372263285        6.1634442694
Zn               5.2290382635        6.0372452219        6.1623846302
Zn              -1.3071800000        8.3017080000        1.2182900000    0   0   0
Zn               3.9215400000        8.3017080000        1.2182900000    0   0   0
Zn              -1.3077485846        8.3010559907        6.1634728384
Zn               3.9220934955        8.3009130525        6.1632618261
Zn               1.3067660044        0.7542510564        3.6896165056
Zn               6.5363196642        0.7556362650        3.6918082616
Zn              -0.0009504533        3.0194363528        3.6906057150
Zn               5.2296699809        3.0202370535        3.6918587932
Zn              -1.3083505915        5.2824355062        3.6916980251
Zn               3.9227056408        5.2828646867        3.6918564579
Zn              -2.6149651840        7.5454960506        3.6907884329
Zn               2.6149676292        7.5465224925        3.6917284211
Zn               3.9222115966        0.7551315231        3.6905303951
Zn               9.1495640261        0.7547390371        3.6910127271
Zn               2.6152891471        3.0199287198        3.6904787489
Zn               7.8421282796        3.0197464424        3.6920114770
Zn               1.3075838698        5.2830750565        3.6913641639
Zn               6.5354964084        5.2822581357        3.6922143305
Zn               0.0001626705        7.5465125270        3.6913496784
Zn               5.2285427394        7.5454782772        3.6911006978
End final coordinates



     Writing all to output data dir ./tmp/Zn002_3layer_relax.save/ :
     XML data file, charge density, pseudopotentials, collected wavefunctions

     init_run     :     57.67s CPU     58.36s WALL (       1 calls)
     electrons    :  35393.15s CPU  35690.68s WALL (      21 calls)
     update_pot   :      1.61s CPU      1.69s WALL (      20 calls)
     forces       :   1041.03s CPU   1051.49s WALL (      21 calls)
     force_dftd3  :      1.63s CPU      1.86s WALL (      21 calls)
     stress       :   2643.26s CPU   2659.89s WALL (      21 calls)
     stres_dftd3  :      1.66s CPU      1.81s WALL (      21 calls)

     Called by init_run:
     wfcinit      :     56.41s CPU     56.98s WALL (       1 calls)
     wfcinit:atom :      0.03s CPU      0.07s WALL (       5 calls)
     wfcinit:wfcr :     55.89s CPU     56.27s WALL (       5 calls)
     potinit      :      0.07s CPU      0.08s WALL (       1 calls)
     hinit0       :      0.03s CPU      0.04s WALL (       1 calls)

     Called by electrons:
     c_bands      :  32889.17s CPU  33152.51s WALL (     165 calls)
     sum_band     :   2358.40s CPU   2381.27s WALL (     165 calls)
     v_of_rho     :     10.43s CPU     10.86s WALL (     165 calls)
     v_h          :      0.70s CPU      0.75s WALL (     165 calls)
     v_xc         :      9.73s CPU     10.11s WALL (     165 calls)
     newd         :    150.27s CPU    160.86s WALL (     165 calls)
     mix_rho      :      1.08s CPU      1.20s WALL (     165 calls)
     energy_dftd3 :      0.87s CPU      0.88s WALL (      21 calls)

     Called by c_bands:
     init_us_2    :     36.42s CPU     36.84s WALL (    1865 calls)
     cegterg      :  32823.16s CPU  33082.99s WALL (     825 calls)

     Called by sum_band:
     sum_band:wei :      0.38s CPU      0.40s WALL (     165 calls)
     sum_band:loo :   2219.69s CPU   2232.42s WALL (     165 calls)
     sum_band:buf :      6.21s CPU      7.63s WALL (     825 calls)
     sum_band:ini :     16.49s CPU     16.59s WALL (     825 calls)
     sum_band:cal :   1907.63s CPU   1916.55s WALL (     825 calls)
     sum_band:bec :     16.95s CPU     17.00s WALL (     825 calls)
     addusdens    :    134.89s CPU    144.80s WALL (     165 calls)
                                        0.00s GPU  (     165 calls)
     addusd:skk   :      1.34s CPU      1.73s WALL (     165 calls)
                                        0.00s GPU  (     165 calls)

     Called by *egterg:
     cdiaghg      :   1619.85s CPU   1682.40s WALL (    2810 calls)
     cegterg:over :   5219.02s CPU   5237.94s WALL (    2190 calls)
     cegterg:upda :   2258.81s CPU   2276.60s WALL (    2190 calls)
     cegterg:last :   8470.08s CPU   8515.01s WALL (    1676 calls)
     cdiaghg:chol :    118.31s CPU    118.63s WALL (    2810 calls)
     cdiaghg:inve :     17.75s CPU     17.80s WALL (    2810 calls)
     cdiaghg:para :    441.50s CPU    449.64s WALL (    5620 calls)
     h_psi        :   9841.04s CPU   9896.79s WALL (    3020 calls)
     s_psi        :   4145.75s CPU   4156.24s WALL (    3020 calls)
     g_psi        :      4.39s CPU      4.44s WALL (    2190 calls)

     Called by h_psi:
     h_psi:calbec :   4436.80s CPU   4458.53s WALL (    3020 calls)
     vloc_psi     :   1226.09s CPU   1235.68s WALL (    3020 calls)
     add_vuspsi   :   4171.49s CPU   4182.24s WALL (    3020 calls)

     General routines
     calbec       :   7586.04s CPU   7622.48s WALL (    4370 calls)
     fft          :      7.94s CPU      8.80s WALL (    2312 calls)
     ffts         :      0.33s CPU      0.38s WALL (     330 calls)
     fftw         :   1324.98s CPU   1335.17s WALL ( 2684556 calls)
     interpolate  :      0.66s CPU      0.74s WALL (     165 calls)

     Parallel routines

     PWSCF        :     10h52m CPU     10h58m WALL


   This run was terminated on:   1:17:49  29Mar2025            

=------------------------------------------------------------------------------=
   JOB DONE.
=------------------------------------------------------------------------------=
