
     Program PWSCF v.7.3.1 starts on  7Apr2025 at  4:55:46 

     This program is part of the open-source Quantum ESPRESSO suite
     for quantum simulation of materials; please cite
         "P. Giannozzi et al., J. Phys.:Condens. Matter 21 395502 (2009);
         "P. Giannozzi et al., J. Phys.:Condens. Matter 29 465901 (2017);
         "P. Giannozzi et al., J. Chem. Phys. 152 154105 (2020);
          URL http://www.quantum-espresso.org", 
     in publications or presentations arising from this work. More details at
     http://www.quantum-espresso.org/quote

     Parallel version (MPI), running on    25 processors

     MPI processes distributed on     1 nodes
     217550 MiB available memory on the printing compute node when the environment starts

     Waiting for input...
     Reading input from standard input
Warning: card &CELL ignored
Warning: card   CELL_DOFREE = 'ALL' ignored
Warning: card / ignored

     Current dimensions of program PWSCF are:
     Max number of different atomic species (ntypx) = 10
     Max number of k-points (npk) =  40000
     Max angular momentum in pseudopotentials (lmaxx) =  4
     file C.pbe-n-kjpaw_psl.1.0.0.UPF: wavefunction(s)  2S 2P renormalized

     R & G space division:  proc/nbgrp/npool/nimage =      25
     Subspace diagonalization in iterative solution of the eigenvalue problem:
     one sub-group per band group will be used
     custom distributed-memory algorithm (size of sub-group:  5*  5 procs)


     Parallelization info
     --------------------
     sticks:   dense  smooth     PW     G-vecs:    dense   smooth      PW
     Min         357     204     56                53314    23031    3341
     Max         358     205     57                53323    23038    3348
     Sum        8941    5109   1411              1332973   575857   83601

     Using Slab Decomposition



     bravais-lattice index     =            0
     lattice parameter (alat)  =      20.9009  a.u.
     unit-cell volume          =   16846.7507 (a.u.)^3
     number of atoms/cell      =           63
     number of atomic types    =            4
     number of electrons       =      1004.00
     number of Kohn-Sham states=          602
     kinetic-energy cutoff     =      40.0000  Ry
     charge density cutoff     =     280.0000  Ry
     scf convergence threshold =      1.0E-06
     mixing beta               =       0.4000
     number of iterations used =            8  plain     mixing
     energy convergence thresh.=      1.0E-05
     force convergence thresh. =      5.0E-04
     Exchange-correlation= PBE
                           (   1   4   3   4   0   0   0)
     nstep                     =          500


     celldm(1)=  20.900943  celldm(2)=   0.000000  celldm(3)=   0.000000
     celldm(4)=   0.000000  celldm(5)=   0.000000  celldm(6)=   0.000000

     crystal axes: (cart. coord. in units of alat)
               a(1) = (   1.000000   0.000000   0.000000 )  
               a(2) = (  -0.223489   0.918700   0.000000 )  
               a(3) = (  -4.200249  -1.021781   2.008375 )  

     reciprocal axes: (cart. coord. in units 2 pi/alat)
               b(1) = (  1.000000  0.243267  2.215131 )  
               b(2) = ( -0.000000  1.088495  0.553783 )  
               b(3) = (  0.000000 -0.000000  0.497915 )  


     PseudoPot. # 1 for Zn read from file:
     /home/yongsang/Research/PSID_server_room/qe/[00]QE/qepseudo/SSSP_1.3.0_PBE_efficiency/Zn_pbe_v1.uspp.F.UPF
     MD5 check sum: df62231357ef9e81f77b2b3087fa5675
     Pseudo is Ultrasoft, Zval = 20.0
     Generated by new atomic code, or converted to UPF format
     Using radial grid of  943 points,  6 beta functions with: 
                l(1) =   0
                l(2) =   0
                l(3) =   1
                l(4) =   1
                l(5) =   2
                l(6) =   2
     Q(r) pseudized with  8 coefficients,  rinner =    1.100   1.100   1.100
                                                       1.100   1.100

     PseudoPot. # 2 for N  read from file:
     /home/yongsang/Research/PSID_server_room/qe/[00]QE/qepseudo/SSSP_1.3.0_PBE_efficiency/N.pbe-n-radius_5.UPF
     MD5 check sum: 16739722b17309cd8fe442a2ace49922
     Pseudo is Ultrasoft + core correction, Zval =  5.0
     Generated using "atomic" code by A. Dal Corso  v.5.1
     Using radial grid of 1085 points,  4 beta functions with: 
                l(1) =   0
                l(2) =   0
                l(3) =   1
                l(4) =   1
     Q(r) pseudized with 0 coefficients 


     PseudoPot. # 3 for C  read from file:
     /home/yongsang/Research/PSID_server_room/qe/[00]QE/qepseudo/SSSP_1.3.0_PBE_efficiency/C.pbe-n-kjpaw_psl.1.0.0.UPF
     MD5 check sum: 5d2aebdfa2cae82b50a7e79e9516da0f
     Pseudo is Projector augmented-wave + core cor, Zval =  4.0
     Generated using "atomic" code by A. Dal Corso  v.5.1
     Shape of augmentation charge: PSQ
     Using radial grid of 1073 points,  4 beta functions with: 
                l(1) =   0
                l(2) =   0
                l(3) =   1
                l(4) =   1
     Q(r) pseudized with 0 coefficients 


     PseudoPot. # 4 for H  read from file:
     /home/yongsang/Research/PSID_server_room/qe/[00]QE/qepseudo/SSSP_1.3.0_PBE_efficiency/H.pbe-rrkjus_psl.1.0.0.UPF
     MD5 check sum: f52b6d4d1c606e5624b1dc7b2218f220
     Pseudo is Ultrasoft, Zval =  1.0
     Generated using "atomic" code by A. Dal Corso  v.5.1
     Using radial grid of  929 points,  2 beta functions with: 
                l(1) =   0
                l(2) =   0
     Q(r) pseudized with 0 coefficients 


     atomic species   valence    mass     pseudopotential
     Zn               20.00    65.38000     Zn( 1.00)
     N                 5.00    14.00674     N ( 1.00)
     C                 4.00    12.01070     C ( 1.00)
     H                 1.00     1.00794     H ( 1.00)

     No symmetry found


                                    s                        frac. trans.

      isym =  1     identity                                     

 cryst.   s( 1) = (     1          0          0      )
                  (     0          1          0      )
                  (     0          0          1      )

 cart.    s( 1) = (  1.0000000  0.0000000  0.0000000 )
                  (  0.0000000  1.0000000  0.0000000 )
                  (  0.0000000  0.0000000  1.0000000 )


   Cartesian axes

     site n.     atom                  positions (alat units)
         1        Zn     tau(   1) = (  -0.0970639   0.0980210   0.1082940  )
         2        Zn     tau(   2) = (  -0.2088085   0.5573710   0.1082940  )
         3        Zn     tau(   3) = (  -0.3881663   0.0278288   0.3904795  )
         4        Zn     tau(   4) = (  -0.5022756   0.4864719   0.3889463  )
         5        Zn     tau(   5) = (  -0.7481578  -0.0620383   0.5269403  )
         6        Zn     tau(   6) = (  -0.8653115   0.3976207   0.5238963  )
         7        Zn     tau(   7) = (  -0.1529361   0.3276960   0.1082940  )
         8        Zn     tau(   8) = (  -0.2646808   0.7870460   0.1082940  )
         9        Zn     tau(   9) = (  -0.4454710   0.2567408   0.3894898  )
        10        Zn     tau(  10) = (  -0.5569442   0.7156505   0.3908117  )
        11        Zn     tau(  11) = (  -0.8102615   0.1671252   0.5192869  )
        12        Zn     tau(  12) = (  -0.9142380   0.6272002   0.5332104  )
        13        Zn     tau(  13) = (   0.4029362   0.0980210   0.1082940  )
        14        Zn     tau(  14) = (   0.2911915   0.5573710   0.1082940  )
        15        Zn     tau(  15) = (   0.0380288   0.0093149   0.3102440  )
        16        Zn     tau(  16) = (  -0.0751281   0.4693293   0.3109266  )
        17        Zn     tau(  17) = (  -0.1973823  -0.0495875   0.5104278  )
        18        Zn     tau(  18) = (  -0.3088902   0.4136130   0.5062787  )
        19        Zn     tau(  19) = (   0.3470638   0.3276960   0.1082940  )
        20        Zn     tau(  20) = (   0.2353192   0.7870460   0.1082940  )
        21        Zn     tau(  21) = (  -0.0160156   0.2396712   0.3086244  )
        22        Zn     tau(  22) = (  -0.1303702   0.6984036   0.3109910  )
        23        Zn     tau(  23) = (  -0.2614658   0.1807244   0.5268694  )
        24        Zn     tau(  24) = (  -0.3637037   0.6412991   0.5128817  )
        25        Zn     tau(  25) = (   0.1529361   0.0372043   0.0773528  )
        26        Zn     tau(  26) = (   0.0411915   0.4965543   0.0773528  )
        27        Zn     tau(  27) = (  -0.2045109  -0.0492623   0.2593652  )
        28        Zn     tau(  28) = (  -0.3180341   0.4092758   0.2578091  )
        29        Zn     tau(  29) = (  -0.5534969  -0.1347945   0.4077724  )
        30        Zn     tau(  30) = (  -0.6666359   0.3246989   0.4073298  )
        31        Zn     tau(  31) = (   0.0970639   0.2668793   0.0773528  )
        32        Zn     tau(  32) = (  -0.0146808   0.7262293   0.0773528  )
        33        Zn     tau(  33) = (  -0.2581449   0.1809184   0.2643973  )
        34        Zn     tau(  34) = (  -0.3725532   0.6396869   0.2596255  )
        35        Zn     tau(  35) = (  -0.6094317   0.0949676   0.4067772  )
        36        Zn     tau(  36) = (  -0.7224751   0.5537995   0.4084943  )
        37        Zn     tau(  37) = (   0.6529362   0.0372043   0.0773528  )
        38        Zn     tau(  38) = (   0.5411915   0.4965543   0.0773528  )
        39        Zn     tau(  39) = (   0.2733698  -0.0555464   0.2640817  )
        40        Zn     tau(  40) = (   0.1614204   0.4048779   0.2620921  )
        41        Zn     tau(  41) = (   0.0283072  -0.1126729   0.5213664  )
        42        Zn     tau(  42) = (  -0.0892192   0.3427850   0.5175010  )
        43        Zn     tau(  43) = (   0.5970639   0.2668793   0.0773528  )
        44        Zn     tau(  44) = (   0.4853193   0.7262293   0.0773528  )
        45        Zn     tau(  45) = (   0.2188752   0.1747193   0.2617770  )
        46        Zn     tau(  46) = (   0.1045869   0.6336855   0.2650185  )
        47        Zn     tau(  47) = (  -0.0354313   0.1157596   0.5158008  )
        48        Zn     tau(  48) = (  -0.1381376   0.5755203   0.5224352  )
        49        C      tau(  49) = (  -0.7572941   0.4379351   0.8063935  )
        50        C      tau(  50) = (  -0.6518889   0.3671345   0.7851430  )
        51        C      tau(  51) = (  -0.6614186   0.2411337   0.7694634  )
        52        C      tau(  52) = (  -0.5373980   0.4224752   0.7791387  )
        53        C      tau(  53) = (  -0.5582275   0.1722228   0.7498233  )
        54        C      tau(  54) = (  -0.4344447   0.3527214   0.7620410  )
        55        C      tau(  55) = (  -0.4437954   0.2267231   0.7485241  )
        56        N      tau(  56) = (  -0.8430118   0.4974609   0.8228914  )
        57        N      tau(  57) = (  -0.3388486   0.1578073   0.7265386  )
        58        H      tau(  58) = (  -0.2644089   0.1855952   0.7733503  )
        59        H      tau(  59) = (  -0.3508463   0.0669328   0.7357809  )
        60        H      tau(  60) = (  -0.5300976   0.5203859   0.7877866  )
        61        H      tau(  61) = (  -0.7498500   0.1974257   0.7727236  )
        62        H      tau(  62) = (  -0.3460313   0.3963460   0.7575250  )
        63        H      tau(  63) = (  -0.5664830   0.0750768   0.7352486  )

     --------------------------------------------
     DFT-D3 Dispersion Correction (3-body terms):
     --------------------------------------------
       Reference C6 values for interpolation: 

         atom   Coordination number   C6
         H          0.912             6.05
         H          0.000            15.18
         C          0.000            98.23
         C          0.987            86.49
         C          1.998            58.72
         C          2.999            51.56
         C          3.984            36.41
         N          0.000            50.54
         N          0.994            44.25
         N          2.014            39.35
         N          2.990            31.16
         Zn         0.000           681.04
         Zn         1.942           306.91

       Values used:

         atom   Coordination number  R0_AB[au]  C6      C8
         Zn         6.288            3.053    306.91  23930.67
         Zn         6.296            3.053    306.91  23930.67
         Zn         6.997            3.053    306.91  23930.67
         Zn         6.998            3.053    306.91  23930.67
         Zn         5.011            3.053    306.91  23930.67
         Zn         5.083            3.053    306.91  23930.67
         Zn         6.285            3.053    306.91  23930.67
         Zn         6.296            3.053    306.91  23930.67
         Zn         7.001            3.053    306.91  23930.67
         Zn         6.988            3.053    306.91  23930.67
         Zn         5.165            3.053    306.91  23930.67
         Zn         4.894            3.053    306.91  23930.67
         Zn         4.925            3.053    306.91  23930.67
         Zn         4.889            3.053    306.91  23930.67
         Zn         7.344            3.053    306.91  23930.67
         Zn         7.291            3.053    306.91  23930.67
         Zn         5.997            3.053    306.91  23930.67
         Zn         6.089            3.053    306.91  23930.67
         Zn         4.939            3.053    306.91  23930.67
         Zn         4.871            3.053    306.91  23930.67
         Zn         7.441            3.053    306.91  23930.67
         Zn         7.276            3.053    306.91  23930.67
         Zn         6.172            3.053    306.91  23930.67
         Zn         5.897            3.053    306.91  23930.67
         Zn         5.651            3.053    306.91  23930.67
         Zn         5.638            3.053    306.91  23930.67
         Zn         8.008            3.053    306.91  23930.67
         Zn         8.079            3.053    306.91  23930.67
         Zn         6.988            3.053    306.91  23930.67
         Zn         7.005            3.053    306.91  23930.67
         Zn         5.699            3.053    306.91  23930.67
         Zn         5.623            3.053    306.91  23930.67
         Zn         7.752            3.053    306.91  23930.67
         Zn         7.984            3.053    306.91  23930.67
         Zn         7.008            3.053    306.91  23930.67
         Zn         7.008            3.053    306.91  23930.67
         Zn         4.926            3.053    306.91  23930.67
         Zn         5.021            3.053    306.91  23930.67
         Zn         8.317            3.053    306.91  23930.67
         Zn         8.382            3.053    306.91  23930.67
         Zn         6.043            3.053    306.91  23930.67
         Zn         6.113            3.053    306.91  23930.67
         Zn         4.957            3.053    306.91  23930.67
         Zn         4.993            3.053    306.91  23930.67
         Zn         8.455            3.053    306.91  23930.67
         Zn         8.222            3.053    306.91  23930.67
         Zn         6.147            3.053    306.91  23930.67
         Zn         6.023            3.053    306.91  23930.67
         C          2.118            2.750     58.53   1692.87
         C          3.160            2.750     50.45   1459.06
         C          3.194            2.750     50.13   1449.72
         C          3.179            2.750     50.28   1454.12
         C          3.175            2.750     50.31   1455.05
         C          3.194            2.750     50.12   1449.50
         C          3.180            2.750     50.26   1453.65
         N          1.036            2.478     44.22    975.55
         N          3.615            2.478     31.16    687.52
         H          1.014            2.062      6.17     74.57
         H          1.013            2.062      6.17     74.58
         H          1.005            2.062      6.18     74.67
         H          1.008            2.062      6.17     74.63
         H          1.010            2.062      6.17     74.61
         H          1.006            2.062      6.18     74.66

         Molecular C6 ( Ry / a.u.^6 ) =    840802.75


   Crystallographic axes

     site n.     atom                  positions (cryst. coord.)
         1        Zn     tau(   1) = (  0.1666667  0.1666667  0.0539212  )
         2        Zn     tau(   2) = (  0.1666668  0.6666667  0.0539212  )
         3        Zn     tau(   3) = (  0.4835670  0.2465323  0.1944256  )
         4        Zn     tau(   4) = (  0.4776339  0.7449138  0.1936622  )
         5        Zn     tau(   5) = (  0.4039924  0.2242821  0.2623715  )
         6        Zn     tau(   6) = (  0.3919155  0.7229328  0.2608558  )
         7        Zn     tau(   7) = (  0.1666668  0.4166667  0.0539212  )
         8        Zn     tau(   8) = (  0.1666667  0.9166667  0.0539212  )
         9        Zn     tau(   9) = (  0.4797566  0.4951537  0.1939328  )
        10        Zn     tau(  10) = (  0.4828490  0.9954064  0.1945910  )
        11        Zn     tau(  11) = (  0.3806831  0.4694870  0.2585607  )
        12        Zn     tau(  12) = (  0.4194701  0.9779868  0.2654935  )
        13        Zn     tau(  13) = (  0.6666668  0.1666667  0.0539212  )
        14        Zn     tau(  14) = (  0.6666667  0.6666667  0.0539212  )
        15        Zn     tau(  15) = (  0.7275262  0.1819471  0.1544752  )
        16        Zn     tau(  16) = (  0.7277873  0.6830482  0.1548150  )
        17        Zn     tau(  17) = (  0.9212192  0.2286903  0.2541496  )
        18        Zn     tau(  18) = (  0.9132020  0.7305840  0.2520838  )
        19        Zn     tau(  19) = (  0.6666668  0.4166667  0.0539212  )
        20        Zn     tau(  20) = (  0.6666668  0.9166667  0.0539212  )
        21        Zn     tau(  21) = (  0.7259320  0.4317917  0.1536687  )
        22        Zn     tau(  22) = (  0.7284142  0.9324301  0.1548471  )
        23        Zn     tau(  23) = (  0.9495833  0.4884888  0.2623362  )
        24        Zn     tau(  24) = (  0.9284033  0.9820756  0.2553715  )
        25        Zn     tau(  25) = (  0.3333333  0.0833333  0.0385151  )
        26        Zn     tau(  26) = (  0.3333333  0.5833333  0.0385151  )
        27        Zn     tau(  27) = (  0.3580333  0.0900103  0.1291418  )
        28        Zn     tau(  28) = (  0.3526102  0.5882648  0.1283670  )
        29        Zn     tau(  29) = (  0.3169815  0.0790942  0.2030360  )
        30        Zn     tau(  30) = (  0.3146415  0.5790052  0.2028156  )
        31        Zn     tau(  31) = (  0.3333333  0.3333333  0.0385151  )
        32        Zn     tau(  32) = (  0.3333333  0.8333333  0.0385151  )
        33        Zn     tau(  33) = (  0.3715412  0.3433474  0.1316474  )
        34        Zn     tau(  34) = (  0.3581660  0.8400720  0.1292714  )
        35        Zn     tau(  35) = (  0.3147357  0.3286380  0.2025405  )
        36        Zn     tau(  36) = (  0.3171146  0.8290249  0.2033955  )
        37        Zn     tau(  37) = (  0.8333333  0.0833333  0.0385151  )
        38        Zn     tau(  38) = (  0.8333333  0.5833333  0.0385151  )
        39        Zn     tau(  39) = (  0.8448330  0.0857819  0.1314903  )
        40        Zn     tau(  40) = (  0.8404823  0.5858495  0.1304996  )
        41        Zn     tau(  41) = (  1.1557926  0.1660799  0.2595961  )
        42        Zn     tau(  42) = (  1.1405018  0.6597028  0.2576715  )
        43        Zn     tau(  43) = (  0.8333333  0.3333333  0.0385151  )
        44        Zn     tau(  44) = (  0.8333333  0.8333333  0.0385151  )
        45        Zn     tau(  45) = (  0.8412491  0.3351486  0.1303427  )
        46        Zn     tau(  46) = (  0.8457924  0.8365259  0.1319567  )
        47        Zn     tau(  47) = (  1.1352956  0.4116453  0.2568249  )
        48        Zn     tau(  48) = (  1.1591301  0.9157664  0.2601283  )
        49        C      tau(  49) = (  1.1355085  0.9232569  0.4015154  )
        50        C      tau(  50) = (  1.1766175  0.8344225  0.3909345  )
        51        C      tau(  51) = (  1.1017037  0.6885883  0.3831274  )
        52        C      tau(  52) = (  1.2912707  0.8913355  0.3879448  )
        53        C      tau(  53) = (  1.1446256  0.6027028  0.3733482  )
        54        C      tau(  54) = (  1.3393817  0.8059405  0.3794317  )
        55        C      tau(  55) = (  1.2694380  0.6613066  0.3727014  )
        56        N      tau(  56) = (  1.1008165  0.9971866  0.4097300  )
        57        N      tau(  57) = (  1.3089191  0.5741169  0.3617545  )
        58        H      tau(  58) = (  1.4938128  0.6302875  0.3850627  )
        59        H      tau(  59) = (  1.2952876  0.4803188  0.3663564  )
        60        H      tau(  60) = (  1.3415458  1.0026999  0.3922508  )
        61        H      tau(  61) = (  1.0098614  0.6428179  0.3847507  )
        62        H      tau(  62) = (  1.4284038  0.8509248  0.3771830  )
        63        H      tau(  63) = (  1.0804530  0.4888887  0.3660913  )

     number of k points=     5  Marzari-Vanderbilt smearing, width (Ry)=  0.0200
                       cart. coord. in units 2pi/alat
        k(    1) = (   0.0000000   0.0000000   0.0000000), wk =   0.2222222
        k(    2) = (   0.0000000   0.3628315   0.1845943), wk =   0.4444444
        k(    3) = (   0.3333333   0.0810890   0.7383771), wk =   0.4444444
        k(    4) = (   0.3333333   0.4439205   0.9229714), wk =   0.4444444
        k(    5) = (   0.3333333  -0.2817426   0.5537829), wk =   0.4444444

                       cryst. coord.
        k(    1) = (   0.0000000   0.0000000   0.0000000), wk =   0.2222222
        k(    2) = (   0.0000000   0.3333333   0.0000000), wk =   0.4444444
        k(    3) = (   0.3333333   0.0000000   0.0000000), wk =   0.4444444
        k(    4) = (   0.3333333   0.3333333   0.0000000), wk =   0.4444444
        k(    5) = (   0.3333333  -0.3333333   0.0000000), wk =   0.4444444

     Dense  grid:  1332973 G-vectors     FFT dimensions: ( 120, 108, 540)

     Smooth grid:   575857 G-vectors     FFT dimensions: (  90,  80, 405)

     Dynamical RAM for                 wfc:      26.44 MB

     Dynamical RAM for     wfc (w. buffer):     158.62 MB

     Dynamical RAM for           str. fact:       3.25 MB

     Dynamical RAM for           local pot:       0.00 MB

     Dynamical RAM for          nlocal pot:      41.63 MB

     Dynamical RAM for                qrad:       5.37 MB

     Dynamical RAM for          rho,v,vnew:       8.97 MB

     Dynamical RAM for               rhoin:       2.99 MB

     Dynamical RAM for            rho*nmix:      13.02 MB

     Dynamical RAM for           G-vectors:       3.23 MB

     Dynamical RAM for          h,s,v(r/c):       2.64 MB

     Dynamical RAM for          <psi|beta>:       8.71 MB

     Dynamical RAM for                 psi:      52.87 MB

     Dynamical RAM for                hpsi:      52.87 MB

     Dynamical RAM for                spsi:      52.87 MB

     Dynamical RAM for      wfcinit/wfcrot:      68.65 MB

     Dynamical RAM for           addusdens:     190.39 MB

     Dynamical RAM for          addusforce:     267.47 MB

     Dynamical RAM for         addusstress:     163.54 MB

     Estimated static dynamical RAM per process >     239.01 MB

     Estimated max dynamical RAM per process >     519.49 MB

     Estimated total dynamical RAM >      12.68 GB

     Initial potential from superposition of free atoms

     starting charge    1003.9929, renormalised to    1004.0000

     negative rho (up, down):  3.434E-03 0.000E+00
     Starting wfcs are  666 randomized atomic wfcs
     Checking if some PAW data can be deallocated... 
       PAW data deallocated on   21 nodes for type:  3

     total cpu time spent up to now is       41.9 secs

     Self-consistent Calculation

     iteration #  1     ecut=    40.00 Ry     beta= 0.40
     Davidson diagonalization with overlap

---- Real-time Memory Report at c_bands before calling an iterative solver
           468 MiB given to the printing process from OS
             0 MiB allocation reported by mallinfo(arena+hblkhd)
        210812 MiB available memory on the node where the printing process lives
------------------
     ethr =  1.00E-02,  avg # of iterations =  7.8

     Threshold (ethr) on eigenvalues was too large:
     Diagonalizing with lowered threshold

     Davidson diagonalization with overlap

---- Real-time Memory Report at c_bands before calling an iterative solver
           622 MiB given to the printing process from OS
             0 MiB allocation reported by mallinfo(arena+hblkhd)
        209805 MiB available memory on the node where the printing process lives
------------------
     ethr =  9.08E-04,  avg # of iterations =  1.8

     negative rho (up, down):  4.241E-03 0.000E+00

     total cpu time spent up to now is      316.9 secs

     total energy              =  -22327.18785061 Ry
     estimated scf accuracy    <       9.19922024 Ry

     iteration #  2     ecut=    40.00 Ry     beta= 0.40
     Davidson diagonalization with overlap

---- Real-time Memory Report at c_bands before calling an iterative solver
           653 MiB given to the printing process from OS
             0 MiB allocation reported by mallinfo(arena+hblkhd)
        209774 MiB available memory on the node where the printing process lives
------------------
     ethr =  9.16E-04,  avg # of iterations =  9.2

     negative rho (up, down):  5.635E-03 0.000E+00

     total cpu time spent up to now is      469.9 secs

     total energy              =  -22313.94440283 Ry
     estimated scf accuracy    <     220.70614695 Ry

     iteration #  3     ecut=    40.00 Ry     beta= 0.40
     Davidson diagonalization with overlap

---- Real-time Memory Report at c_bands before calling an iterative solver
           662 MiB given to the printing process from OS
             0 MiB allocation reported by mallinfo(arena+hblkhd)
        209642 MiB available memory on the node where the printing process lives
------------------
     ethr =  9.16E-04,  avg # of iterations =  6.4

     negative rho (up, down):  5.645E-03 0.000E+00

     total cpu time spent up to now is      642.3 secs

     total energy              =  -22330.11769856 Ry
     estimated scf accuracy    <      13.50844943 Ry

     iteration #  4     ecut=    40.00 Ry     beta= 0.40
     Davidson diagonalization with overlap

---- Real-time Memory Report at c_bands before calling an iterative solver
           668 MiB given to the printing process from OS
             0 MiB allocation reported by mallinfo(arena+hblkhd)
        209608 MiB available memory on the node where the printing process lives
------------------
     ethr =  9.16E-04,  avg # of iterations =  3.4

     negative rho (up, down):  5.521E-03 0.000E+00

     total cpu time spent up to now is      770.1 secs

     total energy              =  -22330.91652051 Ry
     estimated scf accuracy    <       2.09837915 Ry

     iteration #  5     ecut=    40.00 Ry     beta= 0.40
     Davidson diagonalization with overlap

---- Real-time Memory Report at c_bands before calling an iterative solver
           669 MiB given to the printing process from OS
             0 MiB allocation reported by mallinfo(arena+hblkhd)
        209610 MiB available memory on the node where the printing process lives
------------------
     ethr =  2.09E-04,  avg # of iterations =  3.0

     negative rho (up, down):  5.349E-03 0.000E+00

     total cpu time spent up to now is      895.5 secs

     total energy              =  -22331.07598913 Ry
     estimated scf accuracy    <       0.35465931 Ry

     iteration #  6     ecut=    40.00 Ry     beta= 0.40
     Davidson diagonalization with overlap

---- Real-time Memory Report at c_bands before calling an iterative solver
           670 MiB given to the printing process from OS
             0 MiB allocation reported by mallinfo(arena+hblkhd)
        209574 MiB available memory on the node where the printing process lives
------------------
     ethr =  3.53E-05,  avg # of iterations = 12.6

     negative rho (up, down):  5.307E-03 0.000E+00

     total cpu time spent up to now is     1042.4 secs

     total energy              =  -22331.07786103 Ry
     estimated scf accuracy    <       0.12992877 Ry

     iteration #  7     ecut=    40.00 Ry     beta= 0.40
     Davidson diagonalization with overlap

---- Real-time Memory Report at c_bands before calling an iterative solver
           671 MiB given to the printing process from OS
             0 MiB allocation reported by mallinfo(arena+hblkhd)
        209551 MiB available memory on the node where the printing process lives
------------------
     ethr =  1.29E-05,  avg # of iterations =  3.8

     negative rho (up, down):  5.344E-03 0.000E+00

     total cpu time spent up to now is     1171.0 secs

     total energy              =  -22331.08144331 Ry
     estimated scf accuracy    <       0.04267482 Ry

     iteration #  8     ecut=    40.00 Ry     beta= 0.40
     Davidson diagonalization with overlap

---- Real-time Memory Report at c_bands before calling an iterative solver
           672 MiB given to the printing process from OS
             0 MiB allocation reported by mallinfo(arena+hblkhd)
        209519 MiB available memory on the node where the printing process lives
------------------
     c_bands:  1 eigenvalues not converged
     ethr =  4.25E-06,  avg # of iterations = 17.8

     negative rho (up, down):  5.375E-03 0.000E+00

     total cpu time spent up to now is     1328.4 secs

     total energy              =  -22331.08280852 Ry
     estimated scf accuracy    <       0.03393549 Ry

     iteration #  9     ecut=    40.00 Ry     beta= 0.40
     Davidson diagonalization with overlap

---- Real-time Memory Report at c_bands before calling an iterative solver
           673 MiB given to the printing process from OS
             0 MiB allocation reported by mallinfo(arena+hblkhd)
        209483 MiB available memory on the node where the printing process lives
------------------
     ethr =  3.38E-06,  avg # of iterations =  2.8

     negative rho (up, down):  5.394E-03 0.000E+00

     total cpu time spent up to now is     1456.3 secs

     total energy              =  -22331.08468462 Ry
     estimated scf accuracy    <       0.00916250 Ry

     iteration # 10     ecut=    40.00 Ry     beta= 0.40
     Davidson diagonalization with overlap

---- Real-time Memory Report at c_bands before calling an iterative solver
           674 MiB given to the printing process from OS
             0 MiB allocation reported by mallinfo(arena+hblkhd)
        209460 MiB available memory on the node where the printing process lives
------------------
     ethr =  9.13E-07,  avg # of iterations =  3.0

     negative rho (up, down):  5.408E-03 0.000E+00

     total cpu time spent up to now is     1580.7 secs

     total energy              =  -22331.08425113 Ry
     estimated scf accuracy    <       0.00618832 Ry

     iteration # 11     ecut=    40.00 Ry     beta= 0.40
     Davidson diagonalization with overlap

---- Real-time Memory Report at c_bands before calling an iterative solver
           675 MiB given to the printing process from OS
             0 MiB allocation reported by mallinfo(arena+hblkhd)
        209444 MiB available memory on the node where the printing process lives
------------------
     ethr =  6.16E-07,  avg # of iterations = 11.0

     negative rho (up, down):  5.437E-03 0.000E+00

     total cpu time spent up to now is     1714.3 secs

     total energy              =  -22331.08271919 Ry
     estimated scf accuracy    <       0.00411116 Ry

     iteration # 12     ecut=    40.00 Ry     beta= 0.40
     Davidson diagonalization with overlap

---- Real-time Memory Report at c_bands before calling an iterative solver
           675 MiB given to the printing process from OS
             0 MiB allocation reported by mallinfo(arena+hblkhd)
        209433 MiB available memory on the node where the printing process lives
------------------
     c_bands:  1 eigenvalues not converged
     c_bands:  1 eigenvalues not converged
     ethr =  4.09E-07,  avg # of iterations = 16.6

     negative rho (up, down):  5.439E-03 0.000E+00

     total cpu time spent up to now is     1871.5 secs

     total energy              =  -22331.08311504 Ry
     estimated scf accuracy    <       0.00078760 Ry

     iteration # 13     ecut=    40.00 Ry     beta= 0.40
     Davidson diagonalization with overlap

---- Real-time Memory Report at c_bands before calling an iterative solver
           675 MiB given to the printing process from OS
             0 MiB allocation reported by mallinfo(arena+hblkhd)
        209429 MiB available memory on the node where the printing process lives
------------------
     ethr =  7.84E-08,  avg # of iterations =  2.0

     negative rho (up, down):  5.441E-03 0.000E+00

     total cpu time spent up to now is     1999.1 secs

     total energy              =  -22331.08314466 Ry
     estimated scf accuracy    <       0.00012778 Ry

     iteration # 14     ecut=    40.00 Ry     beta= 0.40
     Davidson diagonalization with overlap

---- Real-time Memory Report at c_bands before calling an iterative solver
           675 MiB given to the printing process from OS
             0 MiB allocation reported by mallinfo(arena+hblkhd)
        209425 MiB available memory on the node where the printing process lives
------------------
     ethr =  1.27E-08,  avg # of iterations =  2.2

     negative rho (up, down):  5.442E-03 0.000E+00

     total cpu time spent up to now is     2125.6 secs

     total energy              =  -22331.08315230 Ry
     estimated scf accuracy    <       0.00025787 Ry

     iteration # 15     ecut=    40.00 Ry     beta= 0.40
     Davidson diagonalization with overlap

---- Real-time Memory Report at c_bands before calling an iterative solver
           675 MiB given to the printing process from OS
             0 MiB allocation reported by mallinfo(arena+hblkhd)
        209416 MiB available memory on the node where the printing process lives
------------------
     ethr =  1.27E-08,  avg # of iterations =  2.0

     negative rho (up, down):  5.443E-03 0.000E+00

     total cpu time spent up to now is     2248.4 secs

     total energy              =  -22331.08317475 Ry
     estimated scf accuracy    <       0.00001720 Ry

     iteration # 16     ecut=    40.00 Ry     beta= 0.40
     Davidson diagonalization with overlap

---- Real-time Memory Report at c_bands before calling an iterative solver
           675 MiB given to the printing process from OS
             0 MiB allocation reported by mallinfo(arena+hblkhd)
        209413 MiB available memory on the node where the printing process lives
------------------
     ethr =  1.71E-09,  avg # of iterations =  2.0

     negative rho (up, down):  5.444E-03 0.000E+00

     total cpu time spent up to now is     2371.4 secs

     total energy              =  -22331.08317588 Ry
     estimated scf accuracy    <       0.00000321 Ry

     iteration # 17     ecut=    40.00 Ry     beta= 0.40
     Davidson diagonalization with overlap

---- Real-time Memory Report at c_bands before calling an iterative solver
           675 MiB given to the printing process from OS
             0 MiB allocation reported by mallinfo(arena+hblkhd)
        209409 MiB available memory on the node where the printing process lives
------------------
     ethr =  3.20E-10,  avg # of iterations =  2.0

     negative rho (up, down):  5.444E-03 0.000E+00

     total cpu time spent up to now is     2495.6 secs

     total energy              =  -22331.08317603 Ry
     estimated scf accuracy    <       0.00000194 Ry

     iteration # 18     ecut=    40.00 Ry     beta= 0.40
     Davidson diagonalization with overlap

---- Real-time Memory Report at c_bands before calling an iterative solver
           675 MiB given to the printing process from OS
             0 MiB allocation reported by mallinfo(arena+hblkhd)
        209397 MiB available memory on the node where the printing process lives
------------------
     ethr =  1.93E-10,  avg # of iterations =  2.0

     negative rho (up, down):  5.445E-03 0.000E+00

     total cpu time spent up to now is     2617.2 secs

     End of self-consistent calculation

          k = 0.0000 0.0000 0.0000 ( 71933 PWs)   bands (ev):

  -124.9939-124.9932-124.9853-124.9839-124.9798-124.9745-124.9663-124.9314
  -124.8898-124.8883-124.8875-124.8871-124.8832-124.8791-124.8746-124.8720
  -124.8183-124.8166-124.8125-124.8042-124.8003-124.7992-124.7957-124.7926
  -124.7915-124.7879-124.7879-124.7812-124.7811-124.7755-124.7561-124.7171
  -124.7105-124.7037-124.6951-124.6936-124.6926-124.6913-124.6849-124.6833
  -124.6703-124.6639-124.6569-124.6528-124.6400-124.6358-124.6127-124.5931
   -79.1534 -79.1519 -79.1451 -79.1447 -79.1412 -79.1405 -79.1396 -79.1387
   -79.1379 -79.1341 -79.1325 -79.1316 -79.1294 -79.1285 -79.1265 -79.1240
   -79.1238 -79.1209 -79.1161 -79.1109 -79.1085 -79.0927 -79.0793 -79.0768
   -79.0517 -79.0482 -79.0472 -79.0455 -79.0420 -79.0383 -79.0370 -79.0363
   -79.0351 -79.0340 -79.0337 -79.0320 -79.0293 -79.0292 -79.0276 -79.0270
   -79.0240 -79.0233 -79.0219 -79.0209 -79.0196 -79.0173 -79.0151 -79.0129
   -78.9790 -78.9747 -78.9723 -78.9699 -78.9692 -78.9667 -78.9653 -78.9610
   -78.9604 -78.9595 -78.9591 -78.9587 -78.9580 -78.9564 -78.9541 -78.9525
   -78.9520 -78.9501 -78.9494 -78.9484 -78.9478 -78.9473 -78.9465 -78.9452
   -78.9447 -78.9430 -78.9409 -78.9402 -78.9401 -78.9385 -78.9351 -78.9335
   -78.9335 -78.9323 -78.9320 -78.9302 -78.9291 -78.9288 -78.9281 -78.9275
   -78.9239 -78.9208 -78.9155 -78.9012 -78.8882 -78.8835 -78.8804 -78.8754
   -78.8676 -78.8645 -78.8638 -78.8623 -78.8612 -78.8606 -78.8595 -78.8573
   -78.8569 -78.8556 -78.8546 -78.8504 -78.8463 -78.8437 -78.8426 -78.8417
   -78.8398 -78.8388 -78.8379 -78.8376 -78.8334 -78.8313 -78.8306 -78.8300
   -78.8299 -78.8222 -78.8212 -78.8200 -78.8199 -78.8185 -78.8141 -78.8080
   -78.8075 -78.8072 -78.8049 -78.8032 -78.8018 -78.7902 -78.7898 -78.7861
   -78.7843 -78.7801 -78.7737 -78.7635 -78.7618 -78.7565 -78.7424 -78.7338
   -18.8185 -17.3703 -16.4941 -14.0422 -14.0238 -11.0345 -10.7635  -8.8621
    -8.3455  -8.1774  -7.9693  -7.1928  -6.9380  -6.7770  -6.7622  -6.7371
    -6.7155  -6.6599  -6.6560  -6.6445  -6.5933  -6.5715  -6.5539  -6.5318
    -6.5081  -6.5051  -6.4677  -6.4477  -6.4395  -6.4247  -6.4152  -6.4042
    -6.4020  -6.3771  -6.3697  -6.3502  -6.3492  -6.3381  -6.3349  -6.3092
    -6.3025  -6.2999  -6.2828  -6.2735  -6.2703  -6.2605  -6.2524  -6.2504
    -6.2482  -6.2449  -6.2402  -6.2353  -6.2317  -6.2299  -6.2235  -6.2198
    -6.2122  -6.2073  -6.2030  -6.1953  -6.1920  -6.1723  -6.1625  -6.1562
    -6.1499  -6.1480  -6.1455  -6.1290  -6.1241  -6.1186  -6.1110  -6.1059
    -6.1026  -6.0881  -6.0690  -6.0662  -6.0620  -6.0533  -6.0501  -6.0301
    -6.0261  -6.0208  -6.0144  -6.0117  -6.0103  -6.0075  -5.9823  -5.9727
    -5.9665  -5.9617  -5.9594  -5.9356  -5.9346  -5.9252  -5.9200  -5.9162
    -5.9148  -5.9132  -5.9091  -5.9047  -5.9012  -5.8944  -5.8788  -5.8763
    -5.8697  -5.8645  -5.8598  -5.8567  -5.8421  -5.8258  -5.8192  -5.8051
    -5.8037  -5.7939  -5.7909  -5.7862  -5.7841  -5.7828  -5.7722  -5.7667
    -5.7610  -5.7495  -5.7440  -5.7384  -5.7358  -5.7353  -5.7343  -5.7279
    -5.7269  -5.7232  -5.7165  -5.7056  -5.7037  -5.7014  -5.6970  -5.6946
    -5.6928  -5.6834  -5.6791  -5.6721  -5.6693  -5.6634  -5.6619  -5.6611
    -5.6556  -5.6531  -5.6481  -5.6414  -5.6385  -5.6294  -5.6285  -5.6174
    -5.6141  -5.6119  -5.6079  -5.6050  -5.5940  -5.5894  -5.5854  -5.5815
    -5.5762  -5.5661  -5.5595  -5.5562  -5.5529  -5.5486  -5.5401  -5.5331
    -5.5279  -5.5257  -5.5234  -5.5202  -5.5168  -5.5134  -5.5106  -5.5093
    -5.5013  -5.4987  -5.4971  -5.4913  -5.4879  -5.4846  -5.4785  -5.4747
    -5.4712  -5.4670  -5.4646  -5.4613  -5.4572  -5.4484  -5.4461  -5.4457
    -5.4444  -5.4412  -5.4225  -5.4214  -5.4140  -5.4126  -5.4106  -5.3996
    -5.3943  -5.3937  -5.3896  -5.3870  -5.3856  -5.3812  -5.3772  -5.3729
    -5.3674  -5.3644  -5.3613  -5.3586  -5.3498  -5.3464  -5.3445  -5.3363
    -5.3336  -5.3318  -5.3299  -5.3276  -5.3271  -5.3208  -5.3173  -5.3151
    -5.3051  -5.3049  -5.2929  -5.2888  -5.2874  -5.2844  -5.2776  -5.2762
    -5.2702  -5.2642  -5.2630  -5.2600  -5.2583  -5.2562  -5.2559  -5.2539
    -5.2496  -5.2383  -5.2158  -5.2108  -5.2083  -5.2041  -5.1975  -5.1931
    -5.1785  -5.1783  -5.1730  -5.1591  -5.1421  -5.1371  -5.1279  -5.0942
    -5.0754  -5.0541  -5.0382  -4.9601  -4.9357  -4.9170  -4.8740  -4.5425
    -4.2511  -4.1702  -4.0365  -3.9919  -3.8737  -3.7081  -3.6948  -3.5094
    -3.3850  -3.2983  -2.9352  -2.9051  -2.4943  -2.2357  -2.2125  -2.1009
    -1.9234  -1.8676  -1.6779  -1.6596  -1.4761  -1.4385  -1.4111  -1.2521
    -1.2041  -1.1470  -1.1348  -1.0863  -0.9282  -0.6800  -0.6131  -0.1336
     0.0618   0.1221   0.1501   0.2722   0.3065   0.3279   0.4018   0.4324
     0.7225   0.8698   0.8918   0.9365   1.2273   1.2520   1.8287   2.0513
     2.0693   2.1170   2.1591   2.3205   2.3482   2.4455   2.4768   2.5485
     2.6173   2.7069   2.8399   2.9804   3.0186   3.0624   3.2068   3.4300
     3.4654   3.5470   3.6413   3.7410   4.0285   4.1507   4.2855   4.2976
     4.3148   4.3662   4.4759   4.4824   4.6104   4.8517   4.9250   4.9443
     5.0573   5.1222   5.2824   5.3548   5.5313   5.5694   5.6625   5.6910
     5.7103   5.7492   5.7954   5.7997   5.8703   5.9509   6.0099   6.0920
     6.1892   6.2145   6.2378   6.2696   6.2944   6.3258   6.3377   6.3490
     6.4109   6.4461   6.4814   6.4953   6.5198   6.5699   6.6086   6.6354
     6.6435   6.6825   6.7011   6.8472   6.8655   6.8836   6.9273   6.9392
     7.1179   7.2001   7.2662   7.3139   7.3328   7.3676   7.4045   7.4371
     7.4538   7.5120   7.5571   7.5832   7.6664   7.7150   7.7509   7.7768
     7.8081   7.8227   7.8521   7.8920   7.9534   8.0636   8.0873   8.1249
     8.1997   8.2459

     occupation numbers 
     1.0000   1.0000   1.0000   1.0000   1.0000   1.0000   1.0000   1.0000
     1.0000   1.0000   1.0000   1.0000   1.0000   1.0000   1.0000   1.0000
     1.0000   1.0000   1.0000   1.0000   1.0000   1.0000   1.0000   1.0000
     1.0000   1.0000   1.0000   1.0000   1.0000   1.0000   1.0000   1.0000
     1.0000   1.0000   1.0000   1.0000   1.0000   1.0000   1.0000   1.0000
     1.0000   1.0000   1.0000   1.0000   1.0000   1.0000   1.0000   1.0000
     1.0000   1.0000   1.0000   1.0000   1.0000   1.0000   1.0000   1.0000
     1.0000   1.0000   1.0000   1.0000   1.0000   1.0000   1.0000   1.0000
     1.0000   1.0000   1.0000   1.0000   1.0000   1.0000   1.0000   1.0000
     1.0000   1.0000   1.0000   1.0000   1.0000   1.0000   1.0000   1.0000
     1.0000   1.0000   1.0000   1.0000   1.0000   1.0000   1.0000   1.0000
     1.0000   1.0000   1.0000   1.0000   1.0000   1.0000   1.0000   1.0000
     1.0000   1.0000   1.0000   1.0000   1.0000   1.0000   1.0000   1.0000
     1.0000   1.0000   1.0000   1.0000   1.0000   1.0000   1.0000   1.0000
     1.0000   1.0000   1.0000   1.0000   1.0000   1.0000   1.0000   1.0000
     1.0000   1.0000   1.0000   1.0000   1.0000   1.0000   1.0000   1.0000
     1.0000   1.0000   1.0000   1.0000   1.0000   1.0000   1.0000   1.0000
     1.0000   1.0000   1.0000   1.0000   1.0000   1.0000   1.0000   1.0000
     1.0000   1.0000   1.0000   1.0000   1.0000   1.0000   1.0000   1.0000
     1.0000   1.0000   1.0000   1.0000   1.0000   1.0000   1.0000   1.0000
     1.0000   1.0000   1.0000   1.0000   1.0000   1.0000   1.0000   1.0000
     1.0000   1.0000   1.0000   1.0000   1.0000   1.0000   1.0000   1.0000
     1.0000   1.0000   1.0000   1.0000   1.0000   1.0000   1.0000   1.0000
     1.0000   1.0000   1.0000   1.0000   1.0000   1.0000   1.0000   1.0000
     1.0000   1.0000   1.0000   1.0000   1.0000   1.0000   1.0000   1.0000
     1.0000   1.0000   1.0000   1.0000   1.0000   1.0000   1.0000   1.0000
     1.0000   1.0000   1.0000   1.0000   1.0000   1.0000   1.0000   1.0000
     1.0000   1.0000   1.0000   1.0000   1.0000   1.0000   1.0000   1.0000
     1.0000   1.0000   1.0000   1.0000   1.0000   1.0000   1.0000   1.0000
     1.0000   1.0000   1.0000   1.0000   1.0000   1.0000   1.0000   1.0000
     1.0000   1.0000   1.0000   1.0000   1.0000   1.0000   1.0000   1.0000
     1.0000   1.0000   1.0000   1.0000   1.0000   1.0000   1.0000   1.0000
     1.0000   1.0000   1.0000   1.0000   1.0000   1.0000   1.0000   1.0000
     1.0000   1.0000   1.0000   1.0000   1.0000   1.0000   1.0000   1.0000
     1.0000   1.0000   1.0000   1.0000   1.0000   1.0000   1.0000   1.0000
     1.0000   1.0000   1.0000   1.0000   1.0000   1.0000   1.0000   1.0000
     1.0000   1.0000   1.0000   1.0000   1.0000   1.0000   1.0000   1.0000
     1.0000   1.0000   1.0000   1.0000   1.0000   1.0000   1.0000   1.0000
     1.0000   1.0000   1.0000   1.0000   1.0000   1.0000   1.0000   1.0000
     1.0000   1.0000   1.0000   1.0000   1.0000   1.0000   1.0000   1.0000
     1.0000   1.0000   1.0000   1.0000   1.0000   1.0000   1.0000   1.0000
     1.0000   1.0000   1.0000   1.0000   1.0000   1.0000   1.0000   1.0000
     1.0000   1.0000   1.0000   1.0000   1.0000   1.0000   1.0000   1.0000
     1.0000   1.0000   1.0000   1.0000   1.0000   1.0000   1.0000   1.0000
     1.0000   1.0000   1.0000   1.0000   1.0000   1.0000   1.0000   1.0000
     1.0000   1.0000   1.0000   1.0000   1.0000   1.0000   1.0000   1.0000
     1.0000   1.0000   1.0000   1.0000   1.0000   1.0000   1.0000   1.0000
     1.0000   1.0000   1.0000   1.0000   1.0000   1.0000   1.0000   1.0000
     1.0000   1.0000   1.0000   1.0000   1.0000   1.0000   1.0000   1.0000
     1.0000   1.0000   1.0000   1.0000   1.0000   1.0000   1.0000   1.0000
     1.0000   1.0000   1.0000   1.0000   1.0000   1.0000   1.0000   1.0000
     1.0000   1.0000   1.0000   1.0000   1.0000   1.0000   1.0000   1.0000
     1.0000   1.0000   1.0000   1.0000   1.0000   1.0000   1.0000   1.0000
     1.0000   1.0000   1.0000   1.0000   1.0000   1.0000   1.0000   1.0000
     1.0000   1.0000   1.0000   1.0000   1.0000   1.0000   1.0000   1.0000
     1.0000   1.0000   1.0000   1.0000   1.0000   1.0000   1.0000   1.0000
     1.0000   1.0000   1.0000   1.0000   1.0000   1.0000   1.0000   1.0000
     1.0000   1.0000   1.0000   1.0000   1.0000   1.0000   1.0000   1.0000
     1.0000   1.0000   1.0000   1.0000   1.0000   1.0000   1.0000   1.0000
     1.0000   1.0000   1.0000   1.0000   1.0000   1.0000   1.0000   1.0000
     1.0000   1.0000   1.0000   1.0000   1.0000   1.0000   1.0000   1.0000
     1.0000   1.0000   1.0000   1.0000   1.0000   1.0000   1.0000   1.0000
     1.0016   1.0129   1.0165   1.0262   1.0571   1.0357   0.0214   0.0005
     0.0004   0.0001   0.0001   0.0000   0.0000   0.0000   0.0000   0.0000
     0.0000   0.0000   0.0000   0.0000   0.0000   0.0000   0.0000   0.0000
     0.0000   0.0000   0.0000   0.0000   0.0000   0.0000   0.0000   0.0000
     0.0000   0.0000   0.0000   0.0000   0.0000   0.0000   0.0000   0.0000
     0.0000   0.0000   0.0000   0.0000   0.0000   0.0000   0.0000   0.0000
     0.0000   0.0000   0.0000   0.0000   0.0000   0.0000   0.0000   0.0000
     0.0000   0.0000   0.0000   0.0000   0.0000   0.0000   0.0000   0.0000
     0.0000   0.0000   0.0000   0.0000   0.0000   0.0000   0.0000   0.0000
     0.0000   0.0000   0.0000   0.0000   0.0000   0.0000   0.0000   0.0000
     0.0000   0.0000   0.0000   0.0000   0.0000   0.0000   0.0000   0.0000
     0.0000   0.0000   0.0000   0.0000   0.0000   0.0000   0.0000   0.0000
     0.0000   0.0000   0.0000   0.0000   0.0000   0.0000   0.0000   0.0000
     0.0000   0.0000

          k = 0.0000 0.3628 0.1846 ( 71963 PWs)   bands (ev):

  -124.9939-124.9932-124.9853-124.9839-124.9798-124.9745-124.9663-124.9314
  -124.8898-124.8884-124.8875-124.8871-124.8832-124.8791-124.8746-124.8720
  -124.8183-124.8166-124.8125-124.8042-124.8003-124.7992-124.7957-124.7926
  -124.7915-124.7879-124.7879-124.7812-124.7811-124.7755-124.7561-124.7171
  -124.7105-124.7037-124.6951-124.6936-124.6926-124.6913-124.6849-124.6833
  -124.6703-124.6639-124.6569-124.6528-124.6400-124.6358-124.6127-124.5931
   -79.1534 -79.1519 -79.1451 -79.1442 -79.1412 -79.1402 -79.1395 -79.1387
   -79.1379 -79.1341 -79.1330 -79.1321 -79.1317 -79.1286 -79.1240 -79.1239
   -79.1237 -79.1209 -79.1158 -79.1109 -79.1089 -79.0927 -79.0793 -79.0768
   -79.0510 -79.0477 -79.0467 -79.0458 -79.0434 -79.0415 -79.0363 -79.0354
   -79.0343 -79.0338 -79.0323 -79.0318 -79.0299 -79.0293 -79.0278 -79.0271
   -79.0255 -79.0223 -79.0210 -79.0203 -79.0196 -79.0173 -79.0152 -79.0138
   -78.9788 -78.9747 -78.9718 -78.9699 -78.9692 -78.9667 -78.9655 -78.9613
   -78.9609 -78.9605 -78.9592 -78.9587 -78.9582 -78.9564 -78.9545 -78.9525
   -78.9504 -78.9500 -78.9493 -78.9479 -78.9477 -78.9473 -78.9462 -78.9449
   -78.9444 -78.9431 -78.9409 -78.9403 -78.9401 -78.9389 -78.9356 -78.9350
   -78.9337 -78.9335 -78.9320 -78.9302 -78.9291 -78.9281 -78.9275 -78.9256
   -78.9236 -78.9212 -78.9162 -78.9012 -78.8881 -78.8835 -78.8804 -78.8754
   -78.8676 -78.8645 -78.8638 -78.8623 -78.8611 -78.8606 -78.8592 -78.8572
   -78.8569 -78.8547 -78.8541 -78.8506 -78.8488 -78.8472 -78.8418 -78.8399
   -78.8387 -78.8379 -78.8376 -78.8371 -78.8326 -78.8321 -78.8312 -78.8300
   -78.8299 -78.8222 -78.8216 -78.8199 -78.8193 -78.8185 -78.8141 -78.8100
   -78.8080 -78.8072 -78.8049 -78.8032 -78.7992 -78.7906 -78.7902 -78.7859
   -78.7843 -78.7801 -78.7742 -78.7635 -78.7618 -78.7561 -78.7424 -78.7339
   -18.8185 -17.3703 -16.4941 -14.0422 -14.0238 -11.0345 -10.7634  -8.8620
    -8.3456  -8.1777  -7.8059  -7.3418  -7.0940  -6.8278  -6.8074  -6.6735
    -6.6509  -6.6397  -6.6177  -6.6074  -6.5691  -6.5308  -6.5273  -6.5225
    -6.4783  -6.4714  -6.4625  -6.4555  -6.4457  -6.4279  -6.4231  -6.4168
    -6.4126  -6.4067  -6.3909  -6.3769  -6.3679  -6.3565  -6.3512  -6.3406
    -6.3352  -6.3288  -6.3156  -6.3109  -6.3062  -6.2982  -6.2851  -6.2758
    -6.2628  -6.2577  -6.2561  -6.2522  -6.2363  -6.2272  -6.2210  -6.2168
    -6.2037  -6.1993  -6.1895  -6.1857  -6.1801  -6.1678  -6.1621  -6.1562
    -6.1504  -6.1497  -6.1433  -6.1390  -6.1261  -6.1140  -6.0985  -6.0937
    -6.0885  -6.0781  -6.0713  -6.0634  -6.0515  -6.0483  -6.0440  -6.0332
    -6.0282  -6.0242  -6.0161  -6.0148  -6.0061  -6.0012  -5.9876  -5.9806
    -5.9780  -5.9690  -5.9639  -5.9530  -5.9470  -5.9438  -5.9388  -5.9295
    -5.9229  -5.9178  -5.9158  -5.9068  -5.8996  -5.8953  -5.8910  -5.8743
    -5.8740  -5.8701  -5.8617  -5.8583  -5.8531  -5.8491  -5.8397  -5.8377
    -5.8329  -5.8289  -5.8234  -5.8114  -5.8080  -5.7983  -5.7909  -5.7869
    -5.7827  -5.7802  -5.7728  -5.7689  -5.7592  -5.7561  -5.7469  -5.7409
    -5.7404  -5.7338  -5.7261  -5.7218  -5.7203  -5.7084  -5.7048  -5.7012
    -5.6966  -5.6909  -5.6833  -5.6768  -5.6752  -5.6692  -5.6638  -5.6606
    -5.6540  -5.6505  -5.6484  -5.6447  -5.6396  -5.6319  -5.6275  -5.6224
    -5.6136  -5.6065  -5.5999  -5.5947  -5.5855  -5.5763  -5.5688  -5.5593
    -5.5497  -5.5447  -5.5440  -5.5401  -5.5362  -5.5337  -5.5293  -5.5267
    -5.5182  -5.5159  -5.5127  -5.5045  -5.4981  -5.4945  -5.4913  -5.4851
    -5.4787  -5.4745  -5.4733  -5.4666  -5.4638  -5.4612  -5.4555  -5.4532
    -5.4471  -5.4445  -5.4396  -5.4358  -5.4337  -5.4315  -5.4272  -5.4233
    -5.4180  -5.4144  -5.4113  -5.4064  -5.4049  -5.4015  -5.3930  -5.3901
    -5.3889  -5.3875  -5.3805  -5.3767  -5.3668  -5.3604  -5.3592  -5.3542
    -5.3527  -5.3510  -5.3443  -5.3417  -5.3390  -5.3377  -5.3329  -5.3312
    -5.3223  -5.3214  -5.3162  -5.3153  -5.3111  -5.3089  -5.3023  -5.2977
    -5.2961  -5.2924  -5.2909  -5.2891  -5.2870  -5.2858  -5.2844  -5.2805
    -5.2745  -5.2721  -5.2647  -5.2643  -5.2577  -5.2529  -5.2507  -5.2459
    -5.2449  -5.2410  -5.2363  -5.2283  -5.2235  -5.2118  -5.2077  -5.2017
    -5.1917  -5.1899  -5.1772  -5.1622  -5.1512  -5.1487  -5.1317  -5.1051
    -5.0996  -5.0235  -5.0192  -5.0027  -4.8848  -4.7194  -4.6037  -4.5409
    -4.4671  -4.2023  -4.1423  -3.9223  -3.8726  -3.7509  -3.3186  -3.1878
    -3.1707  -3.1525  -2.9926  -2.9197  -2.8352  -2.5792  -2.3921  -2.3502
    -2.1731  -2.1045  -1.9892  -1.8260  -1.6742  -1.5509  -1.2991  -1.2583
    -1.2384  -1.0647  -0.9959  -0.8674  -0.8260  -0.7599  -0.4784  -0.2057
    -0.1824  -0.0207  -0.0085   0.1603   0.3301   0.5224   0.5598   0.6975
     0.7214   0.9088   1.0998   1.1498   1.2109   1.3426   1.5577   1.9074
     2.0770   2.1506   2.2640   2.4624   2.4955   2.6373   2.6835   2.7573
     2.8244   2.9018   2.9528   3.2122   3.3087   3.3283   3.3655   3.6134
     3.7221   3.7771   3.7945   4.1178   4.1609   4.2081   4.2288   4.3060
     4.3686   4.3969   4.4376   4.5612   4.5925   4.7713   4.8159   4.8725
     4.9103   4.9514   4.9694   5.0379   5.0962   5.2276   5.2857   5.3752
     5.4007   5.4557   5.4918   5.5371   5.6448   5.7216   5.7497   5.8020
     5.8344   5.9036   5.9368   5.9741   6.0522   6.1054   6.2041   6.2724
     6.2906   6.3369   6.3876   6.4294   6.5429   6.5640   6.5972   6.6564
     6.6818   6.7221   6.7479   6.7983   6.8467   6.9254   6.9703   7.0215
     7.0944   7.1414   7.1790   7.2215   7.2836   7.3547   7.3936   7.4200
     7.4471   7.4999   7.5537   7.5959   7.6552   7.7262   7.7765   7.7966
     7.8413   7.8908   7.9075   8.0077   8.0572   8.1132   8.1418   8.1528
     8.2082   8.2429

     occupation numbers 
     1.0000   1.0000   1.0000   1.0000   1.0000   1.0000   1.0000   1.0000
     1.0000   1.0000   1.0000   1.0000   1.0000   1.0000   1.0000   1.0000
     1.0000   1.0000   1.0000   1.0000   1.0000   1.0000   1.0000   1.0000
     1.0000   1.0000   1.0000   1.0000   1.0000   1.0000   1.0000   1.0000
     1.0000   1.0000   1.0000   1.0000   1.0000   1.0000   1.0000   1.0000
     1.0000   1.0000   1.0000   1.0000   1.0000   1.0000   1.0000   1.0000
     1.0000   1.0000   1.0000   1.0000   1.0000   1.0000   1.0000   1.0000
     1.0000   1.0000   1.0000   1.0000   1.0000   1.0000   1.0000   1.0000
     1.0000   1.0000   1.0000   1.0000   1.0000   1.0000   1.0000   1.0000
     1.0000   1.0000   1.0000   1.0000   1.0000   1.0000   1.0000   1.0000
     1.0000   1.0000   1.0000   1.0000   1.0000   1.0000   1.0000   1.0000
     1.0000   1.0000   1.0000   1.0000   1.0000   1.0000   1.0000   1.0000
     1.0000   1.0000   1.0000   1.0000   1.0000   1.0000   1.0000   1.0000
     1.0000   1.0000   1.0000   1.0000   1.0000   1.0000   1.0000   1.0000
     1.0000   1.0000   1.0000   1.0000   1.0000   1.0000   1.0000   1.0000
     1.0000   1.0000   1.0000   1.0000   1.0000   1.0000   1.0000   1.0000
     1.0000   1.0000   1.0000   1.0000   1.0000   1.0000   1.0000   1.0000
     1.0000   1.0000   1.0000   1.0000   1.0000   1.0000   1.0000   1.0000
     1.0000   1.0000   1.0000   1.0000   1.0000   1.0000   1.0000   1.0000
     1.0000   1.0000   1.0000   1.0000   1.0000   1.0000   1.0000   1.0000
     1.0000   1.0000   1.0000   1.0000   1.0000   1.0000   1.0000   1.0000
     1.0000   1.0000   1.0000   1.0000   1.0000   1.0000   1.0000   1.0000
     1.0000   1.0000   1.0000   1.0000   1.0000   1.0000   1.0000   1.0000
     1.0000   1.0000   1.0000   1.0000   1.0000   1.0000   1.0000   1.0000
     1.0000   1.0000   1.0000   1.0000   1.0000   1.0000   1.0000   1.0000
     1.0000   1.0000   1.0000   1.0000   1.0000   1.0000   1.0000   1.0000
     1.0000   1.0000   1.0000   1.0000   1.0000   1.0000   1.0000   1.0000
     1.0000   1.0000   1.0000   1.0000   1.0000   1.0000   1.0000   1.0000
     1.0000   1.0000   1.0000   1.0000   1.0000   1.0000   1.0000   1.0000
     1.0000   1.0000   1.0000   1.0000   1.0000   1.0000   1.0000   1.0000
     1.0000   1.0000   1.0000   1.0000   1.0000   1.0000   1.0000   1.0000
     1.0000   1.0000   1.0000   1.0000   1.0000   1.0000   1.0000   1.0000
     1.0000   1.0000   1.0000   1.0000   1.0000   1.0000   1.0000   1.0000
     1.0000   1.0000   1.0000   1.0000   1.0000   1.0000   1.0000   1.0000
     1.0000   1.0000   1.0000   1.0000   1.0000   1.0000   1.0000   1.0000
     1.0000   1.0000   1.0000   1.0000   1.0000   1.0000   1.0000   1.0000
     1.0000   1.0000   1.0000   1.0000   1.0000   1.0000   1.0000   1.0000
     1.0000   1.0000   1.0000   1.0000   1.0000   1.0000   1.0000   1.0000
     1.0000   1.0000   1.0000   1.0000   1.0000   1.0000   1.0000   1.0000
     1.0000   1.0000   1.0000   1.0000   1.0000   1.0000   1.0000   1.0000
     1.0000   1.0000   1.0000   1.0000   1.0000   1.0000   1.0000   1.0000
     1.0000   1.0000   1.0000   1.0000   1.0000   1.0000   1.0000   1.0000
     1.0000   1.0000   1.0000   1.0000   1.0000   1.0000   1.0000   1.0000
     1.0000   1.0000   1.0000   1.0000   1.0000   1.0000   1.0000   1.0000
     1.0000   1.0000   1.0000   1.0000   1.0000   1.0000   1.0000   1.0000
     1.0000   1.0000   1.0000   1.0000   1.0000   1.0000   1.0000   1.0000
     1.0000   1.0000   1.0000   1.0000   1.0000   1.0000   1.0000   1.0000
     1.0000   1.0000   1.0000   1.0000   1.0000   1.0000   1.0000   1.0000
     1.0000   1.0000   1.0000   1.0000   1.0000   1.0000   1.0000   1.0000
     1.0000   1.0000   1.0000   1.0000   1.0000   1.0000   1.0000   1.0000
     1.0000   1.0000   1.0000   1.0000   1.0000   1.0000   1.0000   1.0000
     1.0000   1.0000   1.0000   1.0000   1.0000   1.0000   1.0000   1.0000
     1.0000   1.0000   1.0000   1.0000   1.0000   1.0000   1.0000   1.0000
     1.0000   1.0000   1.0000   1.0000   1.0000   1.0000   1.0000   1.0000
     1.0000   1.0000   1.0000   1.0000   1.0000   1.0000   1.0000   1.0000
     1.0000   1.0000   1.0000   1.0000   1.0000   1.0000   1.0000   1.0000
     1.0000   1.0000   1.0000   1.0000   1.0000   1.0000   1.0000   1.0000
     1.0000   1.0000   1.0000   1.0000   1.0000   1.0000   1.0000   1.0000
     1.0000   1.0000   1.0000   1.0000   1.0000   1.0000   1.0000   1.0000
     1.0000   1.0000   1.0000   1.0000   1.0000   1.0000   1.0000   1.0000
     1.0000   1.0000   1.0000   1.0000   1.0000   1.0000   1.0000   1.0000
     1.0000   1.0000   1.0000   1.0000   1.0000   1.0000   1.0001   1.0011
     1.0016   1.0199   1.0770   1.0833   1.0675   0.8938   0.3396   0.0068
     0.0003   0.0001   0.0000   0.0000   0.0000   0.0000   0.0000   0.0000
     0.0000   0.0000   0.0000   0.0000   0.0000   0.0000   0.0000   0.0000
     0.0000   0.0000   0.0000   0.0000   0.0000   0.0000   0.0000   0.0000
     0.0000   0.0000   0.0000   0.0000   0.0000   0.0000   0.0000   0.0000
     0.0000   0.0000   0.0000   0.0000   0.0000   0.0000   0.0000   0.0000
     0.0000   0.0000   0.0000   0.0000   0.0000   0.0000   0.0000   0.0000
     0.0000   0.0000   0.0000   0.0000   0.0000   0.0000   0.0000   0.0000
     0.0000   0.0000   0.0000   0.0000   0.0000   0.0000   0.0000   0.0000
     0.0000   0.0000   0.0000   0.0000   0.0000   0.0000   0.0000   0.0000
     0.0000   0.0000   0.0000   0.0000   0.0000   0.0000   0.0000   0.0000
     0.0000   0.0000   0.0000   0.0000   0.0000   0.0000   0.0000   0.0000
     0.0000   0.0000   0.0000   0.0000   0.0000   0.0000   0.0000   0.0000
     0.0000   0.0000

          k = 0.3333 0.0811 0.7384 ( 72005 PWs)   bands (ev):

  -124.9939-124.9932-124.9853-124.9839-124.9798-124.9745-124.9663-124.9314
  -124.8898-124.8883-124.8875-124.8871-124.8832-124.8791-124.8746-124.8720
  -124.8183-124.8166-124.8125-124.8042-124.8003-124.7992-124.7957-124.7926
  -124.7915-124.7879-124.7879-124.7812-124.7811-124.7755-124.7561-124.7171
  -124.7105-124.7037-124.6951-124.6936-124.6926-124.6913-124.6849-124.6833
  -124.6703-124.6639-124.6569-124.6528-124.6400-124.6358-124.6127-124.5931
   -79.1534 -79.1519 -79.1451 -79.1447 -79.1412 -79.1405 -79.1396 -79.1387
   -79.1379 -79.1341 -79.1325 -79.1316 -79.1294 -79.1285 -79.1265 -79.1240
   -79.1238 -79.1209 -79.1161 -79.1109 -79.1085 -79.0927 -79.0793 -79.0768
   -79.0517 -79.0482 -79.0472 -79.0455 -79.0420 -79.0383 -79.0370 -79.0363
   -79.0351 -79.0340 -79.0337 -79.0320 -79.0293 -79.0292 -79.0276 -79.0270
   -79.0240 -79.0233 -79.0219 -79.0209 -79.0196 -79.0173 -79.0151 -79.0129
   -78.9790 -78.9747 -78.9723 -78.9699 -78.9692 -78.9667 -78.9653 -78.9610
   -78.9604 -78.9595 -78.9591 -78.9587 -78.9580 -78.9564 -78.9541 -78.9525
   -78.9520 -78.9501 -78.9494 -78.9484 -78.9478 -78.9473 -78.9465 -78.9452
   -78.9447 -78.9430 -78.9409 -78.9402 -78.9401 -78.9385 -78.9351 -78.9335
   -78.9335 -78.9323 -78.9320 -78.9302 -78.9291 -78.9288 -78.9281 -78.9275
   -78.9239 -78.9208 -78.9155 -78.9012 -78.8882 -78.8835 -78.8804 -78.8754
   -78.8676 -78.8645 -78.8638 -78.8623 -78.8612 -78.8606 -78.8595 -78.8573
   -78.8569 -78.8556 -78.8546 -78.8504 -78.8463 -78.8437 -78.8426 -78.8417
   -78.8398 -78.8388 -78.8379 -78.8376 -78.8334 -78.8313 -78.8306 -78.8300
   -78.8299 -78.8222 -78.8212 -78.8200 -78.8199 -78.8185 -78.8141 -78.8080
   -78.8075 -78.8072 -78.8049 -78.8032 -78.8018 -78.7902 -78.7898 -78.7861
   -78.7843 -78.7801 -78.7737 -78.7635 -78.7618 -78.7565 -78.7424 -78.7338
   -18.8185 -17.3703 -16.4941 -14.0422 -14.0238 -11.0345 -10.7634  -8.8620
    -8.3457  -8.1779  -7.8522  -7.4900  -6.8227  -6.7724  -6.7604  -6.7211
    -6.7003  -6.6554  -6.6525  -6.6404  -6.6048  -6.5683  -6.5563  -6.5426
    -6.5121  -6.5026  -6.4790  -6.4563  -6.4372  -6.4345  -6.4286  -6.4014
    -6.3943  -6.3885  -6.3710  -6.3593  -6.3512  -6.3342  -6.3204  -6.3044
    -6.3018  -6.2994  -6.2838  -6.2754  -6.2714  -6.2601  -6.2546  -6.2539
    -6.2496  -6.2474  -6.2386  -6.2349  -6.2318  -6.2288  -6.2245  -6.2192
    -6.2081  -6.2038  -6.2003  -6.1914  -6.1851  -6.1711  -6.1604  -6.1556
    -6.1517  -6.1506  -6.1433  -6.1285  -6.1240  -6.1148  -6.1107  -6.1070
    -6.1025  -6.0950  -6.0804  -6.0682  -6.0634  -6.0520  -6.0354  -6.0283
    -6.0221  -6.0157  -6.0114  -6.0095  -6.0034  -5.9996  -5.9983  -5.9826
    -5.9731  -5.9699  -5.9586  -5.9381  -5.9343  -5.9259  -5.9230  -5.9181
    -5.9153  -5.9115  -5.9025  -5.8946  -5.8922  -5.8860  -5.8760  -5.8719
    -5.8661  -5.8594  -5.8529  -5.8402  -5.8383  -5.8282  -5.8210  -5.8085
    -5.8059  -5.8046  -5.7996  -5.7918  -5.7858  -5.7807  -5.7791  -5.7728
    -5.7674  -5.7561  -5.7533  -5.7444  -5.7436  -5.7418  -5.7348  -5.7324
    -5.7304  -5.7254  -5.7200  -5.7123  -5.7096  -5.7015  -5.6987  -5.6949
    -5.6904  -5.6866  -5.6782  -5.6710  -5.6660  -5.6648  -5.6609  -5.6577
    -5.6529  -5.6423  -5.6350  -5.6341  -5.6306  -5.6290  -5.6276  -5.6179
    -5.6128  -5.6091  -5.6060  -5.6029  -5.5954  -5.5898  -5.5858  -5.5834
    -5.5778  -5.5688  -5.5654  -5.5585  -5.5532  -5.5525  -5.5494  -5.5478
    -5.5418  -5.5311  -5.5282  -5.5237  -5.5197  -5.5150  -5.5110  -5.5106
    -5.5034  -5.4956  -5.4947  -5.4930  -5.4888  -5.4840  -5.4812  -5.4736
    -5.4720  -5.4675  -5.4654  -5.4594  -5.4542  -5.4498  -5.4477  -5.4456
    -5.4430  -5.4389  -5.4295  -5.4233  -5.4179  -5.4131  -5.4088  -5.4077
    -5.4059  -5.4006  -5.3975  -5.3947  -5.3918  -5.3873  -5.3807  -5.3771
    -5.3706  -5.3651  -5.3592  -5.3569  -5.3510  -5.3482  -5.3476  -5.3421
    -5.3372  -5.3344  -5.3264  -5.3242  -5.3204  -5.3165  -5.3122  -5.3108
    -5.3055  -5.3025  -5.2941  -5.2918  -5.2841  -5.2785  -5.2748  -5.2738
    -5.2693  -5.2624  -5.2575  -5.2554  -5.2522  -5.2508  -5.2444  -5.2372
    -5.2323  -5.2210  -5.2163  -5.2042  -5.2022  -5.2008  -5.1967  -5.1845
    -5.1784  -5.1608  -5.1541  -5.1489  -5.1412  -5.1290  -5.1012  -5.0856
    -5.0748  -5.0446  -5.0324  -4.9730  -4.9128  -4.7139  -4.6875  -4.6511
    -4.3886  -4.1785  -4.0917  -4.0128  -3.8827  -3.6442  -3.5179  -3.3529
    -3.2938  -3.2071  -3.1667  -2.9221  -2.8825  -2.6211  -2.4402  -2.3514
    -2.2366  -1.8987  -1.7279  -1.5630  -1.5332  -1.3175  -1.2810  -1.2292
    -1.0871  -0.9665  -0.8742  -0.7848  -0.7566  -0.3604  -0.2329  -0.2097
    -0.0647  -0.0308   0.0156   0.0767   0.0868   0.2109   0.4292   0.4932
     0.7936   0.8535   0.9944   1.2615   1.4362   1.6477   1.6760   1.7334
     1.7833   1.9711   2.0239   2.1359   2.2048   2.2754   2.6711   2.7728
     2.8961   2.9574   3.0326   3.0663   3.1424   3.1656   3.2180   3.3057
     3.4361   3.6885   3.7095   3.8466   3.8826   3.9959   4.0621   4.1418
     4.2141   4.5048   4.6064   4.6386   4.6994   4.8276   4.8945   4.9304
     4.9786   5.0329   5.0649   5.1989   5.2811   5.3270   5.4063   5.4532
     5.5075   5.5349   5.5645   5.6166   5.6853   5.7133   5.7371   5.7737
     5.8846   5.9644   6.1035   6.1410   6.2224   6.3203   6.4157   6.4560
     6.4761   6.5268   6.6480   6.6818   6.6920   6.7460   6.7617   6.8039
     6.8550   6.9131   6.9695   6.9910   7.0101   7.0591   7.1479   7.1802
     7.2058   7.2593   7.2768   7.2993   7.3510   7.3742   7.4129   7.4506
     7.4594   7.5201   7.5493   7.5786   7.6427   7.6944   7.7151   7.7641
     7.7785   7.8066   7.8660   7.8901   7.9521   8.0504   8.0926   8.1387
     8.1657   8.2532

     occupation numbers 
     1.0000   1.0000   1.0000   1.0000   1.0000   1.0000   1.0000   1.0000
     1.0000   1.0000   1.0000   1.0000   1.0000   1.0000   1.0000   1.0000
     1.0000   1.0000   1.0000   1.0000   1.0000   1.0000   1.0000   1.0000
     1.0000   1.0000   1.0000   1.0000   1.0000   1.0000   1.0000   1.0000
     1.0000   1.0000   1.0000   1.0000   1.0000   1.0000   1.0000   1.0000
     1.0000   1.0000   1.0000   1.0000   1.0000   1.0000   1.0000   1.0000
     1.0000   1.0000   1.0000   1.0000   1.0000   1.0000   1.0000   1.0000
     1.0000   1.0000   1.0000   1.0000   1.0000   1.0000   1.0000   1.0000
     1.0000   1.0000   1.0000   1.0000   1.0000   1.0000   1.0000   1.0000
     1.0000   1.0000   1.0000   1.0000   1.0000   1.0000   1.0000   1.0000
     1.0000   1.0000   1.0000   1.0000   1.0000   1.0000   1.0000   1.0000
     1.0000   1.0000   1.0000   1.0000   1.0000   1.0000   1.0000   1.0000
     1.0000   1.0000   1.0000   1.0000   1.0000   1.0000   1.0000   1.0000
     1.0000   1.0000   1.0000   1.0000   1.0000   1.0000   1.0000   1.0000
     1.0000   1.0000   1.0000   1.0000   1.0000   1.0000   1.0000   1.0000
     1.0000   1.0000   1.0000   1.0000   1.0000   1.0000   1.0000   1.0000
     1.0000   1.0000   1.0000   1.0000   1.0000   1.0000   1.0000   1.0000
     1.0000   1.0000   1.0000   1.0000   1.0000   1.0000   1.0000   1.0000
     1.0000   1.0000   1.0000   1.0000   1.0000   1.0000   1.0000   1.0000
     1.0000   1.0000   1.0000   1.0000   1.0000   1.0000   1.0000   1.0000
     1.0000   1.0000   1.0000   1.0000   1.0000   1.0000   1.0000   1.0000
     1.0000   1.0000   1.0000   1.0000   1.0000   1.0000   1.0000   1.0000
     1.0000   1.0000   1.0000   1.0000   1.0000   1.0000   1.0000   1.0000
     1.0000   1.0000   1.0000   1.0000   1.0000   1.0000   1.0000   1.0000
     1.0000   1.0000   1.0000   1.0000   1.0000   1.0000   1.0000   1.0000
     1.0000   1.0000   1.0000   1.0000   1.0000   1.0000   1.0000   1.0000
     1.0000   1.0000   1.0000   1.0000   1.0000   1.0000   1.0000   1.0000
     1.0000   1.0000   1.0000   1.0000   1.0000   1.0000   1.0000   1.0000
     1.0000   1.0000   1.0000   1.0000   1.0000   1.0000   1.0000   1.0000
     1.0000   1.0000   1.0000   1.0000   1.0000   1.0000   1.0000   1.0000
     1.0000   1.0000   1.0000   1.0000   1.0000   1.0000   1.0000   1.0000
     1.0000   1.0000   1.0000   1.0000   1.0000   1.0000   1.0000   1.0000
     1.0000   1.0000   1.0000   1.0000   1.0000   1.0000   1.0000   1.0000
     1.0000   1.0000   1.0000   1.0000   1.0000   1.0000   1.0000   1.0000
     1.0000   1.0000   1.0000   1.0000   1.0000   1.0000   1.0000   1.0000
     1.0000   1.0000   1.0000   1.0000   1.0000   1.0000   1.0000   1.0000
     1.0000   1.0000   1.0000   1.0000   1.0000   1.0000   1.0000   1.0000
     1.0000   1.0000   1.0000   1.0000   1.0000   1.0000   1.0000   1.0000
     1.0000   1.0000   1.0000   1.0000   1.0000   1.0000   1.0000   1.0000
     1.0000   1.0000   1.0000   1.0000   1.0000   1.0000   1.0000   1.0000
     1.0000   1.0000   1.0000   1.0000   1.0000   1.0000   1.0000   1.0000
     1.0000   1.0000   1.0000   1.0000   1.0000   1.0000   1.0000   1.0000
     1.0000   1.0000   1.0000   1.0000   1.0000   1.0000   1.0000   1.0000
     1.0000   1.0000   1.0000   1.0000   1.0000   1.0000   1.0000   1.0000
     1.0000   1.0000   1.0000   1.0000   1.0000   1.0000   1.0000   1.0000
     1.0000   1.0000   1.0000   1.0000   1.0000   1.0000   1.0000   1.0000
     1.0000   1.0000   1.0000   1.0000   1.0000   1.0000   1.0000   1.0000
     1.0000   1.0000   1.0000   1.0000   1.0000   1.0000   1.0000   1.0000
     1.0000   1.0000   1.0000   1.0000   1.0000   1.0000   1.0000   1.0000
     1.0000   1.0000   1.0000   1.0000   1.0000   1.0000   1.0000   1.0000
     1.0000   1.0000   1.0000   1.0000   1.0000   1.0000   1.0000   1.0000
     1.0000   1.0000   1.0000   1.0000   1.0000   1.0000   1.0000   1.0000
     1.0000   1.0000   1.0000   1.0000   1.0000   1.0000   1.0000   1.0000
     1.0000   1.0000   1.0000   1.0000   1.0000   1.0000   1.0000   1.0000
     1.0000   1.0000   1.0000   1.0000   1.0000   1.0000   1.0000   1.0000
     1.0000   1.0000   1.0000   1.0000   1.0000   1.0000   1.0000   1.0000
     1.0000   1.0000   1.0000   1.0000   1.0000   1.0000   1.0000   1.0000
     1.0000   1.0000   1.0000   1.0000   1.0000   1.0000   1.0000   1.0000
     1.0000   1.0000   1.0000   1.0000   1.0000   1.0000   1.0000   1.0000
     1.0000   1.0000   1.0000   1.0000   1.0000   1.0000   1.0000   1.0000
     1.0000   1.0000   1.0000   1.0000   1.0000   1.0000   1.0000   1.0000
     1.0000   1.0000   1.0000   1.0000   1.0000   1.0000   1.0000   1.0000
     1.0048   1.0106   1.0432   1.0256   0.6610   0.1661   0.1274   0.0699
     0.0388   0.0024   0.0009   0.0001   0.0000   0.0000   0.0000   0.0000
     0.0000   0.0000   0.0000   0.0000   0.0000   0.0000   0.0000   0.0000
     0.0000   0.0000   0.0000   0.0000   0.0000   0.0000   0.0000   0.0000
     0.0000   0.0000   0.0000   0.0000   0.0000   0.0000   0.0000   0.0000
     0.0000   0.0000   0.0000   0.0000   0.0000   0.0000   0.0000   0.0000
     0.0000   0.0000   0.0000   0.0000   0.0000   0.0000   0.0000   0.0000
     0.0000   0.0000   0.0000   0.0000   0.0000   0.0000   0.0000   0.0000
     0.0000   0.0000   0.0000   0.0000   0.0000   0.0000   0.0000   0.0000
     0.0000   0.0000   0.0000   0.0000   0.0000   0.0000   0.0000   0.0000
     0.0000   0.0000   0.0000   0.0000   0.0000   0.0000   0.0000   0.0000
     0.0000   0.0000   0.0000   0.0000   0.0000   0.0000   0.0000   0.0000
     0.0000   0.0000   0.0000   0.0000   0.0000   0.0000   0.0000   0.0000
     0.0000   0.0000

          k = 0.3333 0.4439 0.9230 ( 71974 PWs)   bands (ev):

  -124.9939-124.9932-124.9853-124.9839-124.9798-124.9745-124.9663-124.9314
  -124.8898-124.8884-124.8875-124.8871-124.8832-124.8791-124.8746-124.8720
  -124.8183-124.8166-124.8125-124.8042-124.8003-124.7992-124.7957-124.7926
  -124.7915-124.7879-124.7879-124.7812-124.7811-124.7755-124.7561-124.7171
  -124.7105-124.7037-124.6951-124.6936-124.6926-124.6913-124.6849-124.6833
  -124.6703-124.6639-124.6569-124.6528-124.6400-124.6358-124.6127-124.5931
   -79.1534 -79.1519 -79.1451 -79.1442 -79.1412 -79.1402 -79.1395 -79.1387
   -79.1379 -79.1341 -79.1330 -79.1321 -79.1317 -79.1286 -79.1240 -79.1239
   -79.1237 -79.1209 -79.1158 -79.1109 -79.1089 -79.0927 -79.0793 -79.0768
   -79.0510 -79.0477 -79.0467 -79.0458 -79.0434 -79.0415 -79.0363 -79.0354
   -79.0343 -79.0338 -79.0323 -79.0318 -79.0299 -79.0293 -79.0278 -79.0271
   -79.0255 -79.0223 -79.0210 -79.0203 -79.0196 -79.0173 -79.0152 -79.0138
   -78.9788 -78.9747 -78.9718 -78.9699 -78.9692 -78.9667 -78.9655 -78.9613
   -78.9609 -78.9605 -78.9592 -78.9587 -78.9582 -78.9564 -78.9545 -78.9525
   -78.9504 -78.9500 -78.9493 -78.9479 -78.9477 -78.9473 -78.9462 -78.9449
   -78.9444 -78.9431 -78.9409 -78.9403 -78.9401 -78.9389 -78.9356 -78.9350
   -78.9337 -78.9335 -78.9320 -78.9302 -78.9291 -78.9281 -78.9275 -78.9256
   -78.9236 -78.9212 -78.9162 -78.9012 -78.8881 -78.8835 -78.8804 -78.8754
   -78.8676 -78.8645 -78.8638 -78.8623 -78.8611 -78.8606 -78.8592 -78.8572
   -78.8569 -78.8547 -78.8541 -78.8506 -78.8488 -78.8472 -78.8418 -78.8399
   -78.8387 -78.8379 -78.8376 -78.8371 -78.8326 -78.8321 -78.8312 -78.8300
   -78.8299 -78.8222 -78.8216 -78.8199 -78.8193 -78.8185 -78.8141 -78.8100
   -78.8080 -78.8072 -78.8049 -78.8032 -78.7992 -78.7906 -78.7902 -78.7859
   -78.7843 -78.7801 -78.7742 -78.7635 -78.7618 -78.7561 -78.7424 -78.7339
   -18.8185 -17.3703 -16.4941 -14.0422 -14.0238 -11.0344 -10.7633  -8.8620
    -8.3458  -8.1781  -7.6431  -7.4320  -7.3380  -6.8278  -6.7053  -6.6745
    -6.6418  -6.6229  -6.6155  -6.6072  -6.5512  -6.5288  -6.5266  -6.5218
    -6.4811  -6.4761  -6.4704  -6.4560  -6.4438  -6.4373  -6.4299  -6.4255
    -6.4201  -6.4003  -6.3915  -6.3836  -6.3789  -6.3598  -6.3537  -6.3505
    -6.3380  -6.3329  -6.3102  -6.3042  -6.2993  -6.2945  -6.2847  -6.2755
    -6.2637  -6.2588  -6.2551  -6.2503  -6.2452  -6.2272  -6.2226  -6.2194
    -6.2032  -6.1940  -6.1890  -6.1785  -6.1721  -6.1646  -6.1600  -6.1554
    -6.1517  -6.1446  -6.1390  -6.1358  -6.1250  -6.1156  -6.0992  -6.0963
    -6.0901  -6.0833  -6.0772  -6.0655  -6.0539  -6.0476  -6.0454  -6.0382
    -6.0314  -6.0219  -6.0152  -6.0090  -6.0005  -5.9925  -5.9908  -5.9852
    -5.9791  -5.9770  -5.9701  -5.9615  -5.9463  -5.9449  -5.9403  -5.9284
    -5.9179  -5.9121  -5.9074  -5.9052  -5.8978  -5.8926  -5.8841  -5.8739
    -5.8698  -5.8642  -5.8568  -5.8498  -5.8434  -5.8406  -5.8353  -5.8315
    -5.8299  -5.8236  -5.8194  -5.8154  -5.8059  -5.7991  -5.7955  -5.7913
    -5.7847  -5.7834  -5.7795  -5.7743  -5.7622  -5.7560  -5.7529  -5.7455
    -5.7420  -5.7349  -5.7269  -5.7210  -5.7189  -5.7117  -5.7066  -5.7030
    -5.6954  -5.6924  -5.6884  -5.6791  -5.6758  -5.6733  -5.6617  -5.6573
    -5.6566  -5.6473  -5.6449  -5.6391  -5.6352  -5.6298  -5.6275  -5.6210
    -5.6143  -5.6041  -5.6020  -5.5979  -5.5949  -5.5863  -5.5810  -5.5749
    -5.5581  -5.5557  -5.5477  -5.5449  -5.5408  -5.5335  -5.5294  -5.5233
    -5.5190  -5.5148  -5.5112  -5.5061  -5.5029  -5.4971  -5.4920  -5.4902
    -5.4840  -5.4795  -5.4734  -5.4711  -5.4691  -5.4640  -5.4604  -5.4598
    -5.4555  -5.4526  -5.4440  -5.4401  -5.4359  -5.4347  -5.4310  -5.4293
    -5.4273  -5.4216  -5.4150  -5.4074  -5.4061  -5.4012  -5.3954  -5.3893
    -5.3866  -5.3810  -5.3790  -5.3746  -5.3680  -5.3611  -5.3597  -5.3574
    -5.3549  -5.3496  -5.3477  -5.3449  -5.3408  -5.3374  -5.3338  -5.3316
    -5.3284  -5.3197  -5.3138  -5.3103  -5.3093  -5.3082  -5.3059  -5.3000
    -5.2974  -5.2951  -5.2895  -5.2889  -5.2859  -5.2821  -5.2797  -5.2761
    -5.2734  -5.2646  -5.2612  -5.2588  -5.2562  -5.2521  -5.2478  -5.2430
    -5.2422  -5.2380  -5.2347  -5.2260  -5.2234  -5.2172  -5.2065  -5.1867
    -5.1810  -5.1795  -5.1634  -5.1539  -5.1470  -5.1413  -5.1334  -5.1009
    -5.0867  -5.0233  -5.0005  -4.9100  -4.7895  -4.6060  -4.5898  -4.5404
    -4.3294  -4.2352  -4.1282  -3.9703  -3.8831  -3.6275  -3.3441  -3.3068
    -3.2385  -3.1436  -2.9797  -2.9103  -2.8169  -2.6038  -2.4115  -2.3810
    -2.3617  -2.2438  -2.0932  -1.9362  -1.8794  -1.7831  -1.6752  -1.2803
    -1.2031  -1.0852  -1.0409  -0.8094  -0.6529  -0.4882  -0.2411  -0.2144
    -0.1732   0.1558   0.2012   0.3259   0.3847   0.5290   0.7789   0.8155
     0.8792   1.0906   1.1405   1.2138   1.3815   1.5556   1.7502   1.7923
     2.1391   2.1623   2.2585   2.3564   2.4907   2.5782   2.6894   2.8048
     2.8626   2.8925   2.9043   2.9767   3.2190   3.2709   3.3110   3.3254
     3.4040   3.5961   3.6071   3.7845   3.8348   4.0160   4.1016   4.1935
     4.2532   4.2870   4.3537   4.4449   4.6111   4.6844   4.7761   4.8092
     4.8385   4.8916   4.9787   5.0468   5.0860   5.2613   5.2986   5.4289
     5.4870   5.5080   5.5227   5.5867   5.7442   5.7571   5.7753   5.8454
     5.8997   5.9272   5.9888   6.0227   6.0803   6.1584   6.1854   6.3006
     6.3305   6.3821   6.4465   6.4863   6.5430   6.5709   6.6164   6.6623
     6.7191   6.7576   6.8385   6.8757   6.9025   6.9238   6.9713   7.0201
     7.1057   7.1790   7.2277   7.2655   7.3505   7.3740   7.4130   7.4837
     7.5101   7.5605   7.6215   7.6629   7.7079   7.7951   7.8594   7.9075
     7.9421   7.9683   8.0077   8.0884   8.1256   8.1567   8.1946   8.2274
     8.3098   8.3221

     occupation numbers 
     1.0000   1.0000   1.0000   1.0000   1.0000   1.0000   1.0000   1.0000
     1.0000   1.0000   1.0000   1.0000   1.0000   1.0000   1.0000   1.0000
     1.0000   1.0000   1.0000   1.0000   1.0000   1.0000   1.0000   1.0000
     1.0000   1.0000   1.0000   1.0000   1.0000   1.0000   1.0000   1.0000
     1.0000   1.0000   1.0000   1.0000   1.0000   1.0000   1.0000   1.0000
     1.0000   1.0000   1.0000   1.0000   1.0000   1.0000   1.0000   1.0000
     1.0000   1.0000   1.0000   1.0000   1.0000   1.0000   1.0000   1.0000
     1.0000   1.0000   1.0000   1.0000   1.0000   1.0000   1.0000   1.0000
     1.0000   1.0000   1.0000   1.0000   1.0000   1.0000   1.0000   1.0000
     1.0000   1.0000   1.0000   1.0000   1.0000   1.0000   1.0000   1.0000
     1.0000   1.0000   1.0000   1.0000   1.0000   1.0000   1.0000   1.0000
     1.0000   1.0000   1.0000   1.0000   1.0000   1.0000   1.0000   1.0000
     1.0000   1.0000   1.0000   1.0000   1.0000   1.0000   1.0000   1.0000
     1.0000   1.0000   1.0000   1.0000   1.0000   1.0000   1.0000   1.0000
     1.0000   1.0000   1.0000   1.0000   1.0000   1.0000   1.0000   1.0000
     1.0000   1.0000   1.0000   1.0000   1.0000   1.0000   1.0000   1.0000
     1.0000   1.0000   1.0000   1.0000   1.0000   1.0000   1.0000   1.0000
     1.0000   1.0000   1.0000   1.0000   1.0000   1.0000   1.0000   1.0000
     1.0000   1.0000   1.0000   1.0000   1.0000   1.0000   1.0000   1.0000
     1.0000   1.0000   1.0000   1.0000   1.0000   1.0000   1.0000   1.0000
     1.0000   1.0000   1.0000   1.0000   1.0000   1.0000   1.0000   1.0000
     1.0000   1.0000   1.0000   1.0000   1.0000   1.0000   1.0000   1.0000
     1.0000   1.0000   1.0000   1.0000   1.0000   1.0000   1.0000   1.0000
     1.0000   1.0000   1.0000   1.0000   1.0000   1.0000   1.0000   1.0000
     1.0000   1.0000   1.0000   1.0000   1.0000   1.0000   1.0000   1.0000
     1.0000   1.0000   1.0000   1.0000   1.0000   1.0000   1.0000   1.0000
     1.0000   1.0000   1.0000   1.0000   1.0000   1.0000   1.0000   1.0000
     1.0000   1.0000   1.0000   1.0000   1.0000   1.0000   1.0000   1.0000
     1.0000   1.0000   1.0000   1.0000   1.0000   1.0000   1.0000   1.0000
     1.0000   1.0000   1.0000   1.0000   1.0000   1.0000   1.0000   1.0000
     1.0000   1.0000   1.0000   1.0000   1.0000   1.0000   1.0000   1.0000
     1.0000   1.0000   1.0000   1.0000   1.0000   1.0000   1.0000   1.0000
     1.0000   1.0000   1.0000   1.0000   1.0000   1.0000   1.0000   1.0000
     1.0000   1.0000   1.0000   1.0000   1.0000   1.0000   1.0000   1.0000
     1.0000   1.0000   1.0000   1.0000   1.0000   1.0000   1.0000   1.0000
     1.0000   1.0000   1.0000   1.0000   1.0000   1.0000   1.0000   1.0000
     1.0000   1.0000   1.0000   1.0000   1.0000   1.0000   1.0000   1.0000
     1.0000   1.0000   1.0000   1.0000   1.0000   1.0000   1.0000   1.0000
     1.0000   1.0000   1.0000   1.0000   1.0000   1.0000   1.0000   1.0000
     1.0000   1.0000   1.0000   1.0000   1.0000   1.0000   1.0000   1.0000
     1.0000   1.0000   1.0000   1.0000   1.0000   1.0000   1.0000   1.0000
     1.0000   1.0000   1.0000   1.0000   1.0000   1.0000   1.0000   1.0000
     1.0000   1.0000   1.0000   1.0000   1.0000   1.0000   1.0000   1.0000
     1.0000   1.0000   1.0000   1.0000   1.0000   1.0000   1.0000   1.0000
     1.0000   1.0000   1.0000   1.0000   1.0000   1.0000   1.0000   1.0000
     1.0000   1.0000   1.0000   1.0000   1.0000   1.0000   1.0000   1.0000
     1.0000   1.0000   1.0000   1.0000   1.0000   1.0000   1.0000   1.0000
     1.0000   1.0000   1.0000   1.0000   1.0000   1.0000   1.0000   1.0000
     1.0000   1.0000   1.0000   1.0000   1.0000   1.0000   1.0000   1.0000
[...]
     atom   60 type  4   force =    -0.20010935   -3.06719743  -14.76655794
     atom   61 type  4   force =     1.91290344    1.44067795  -15.78453499
     atom   62 type  4   force =    -1.85145421   -1.52557510  -15.99312316
     atom   63 type  4   force =     0.07264654    2.96823098  -15.15413698
     The core correction contribution to forces
     atom    1 type  1   force =     0.00000000    0.00000000    0.00000000
     atom    2 type  1   force =     0.00000000    0.00000000    0.00000000
     atom    3 type  1   force =     0.00000000    0.00000000    0.00000000
     atom    4 type  1   force =     0.00000000    0.00000000    0.00000000
     atom    5 type  1   force =     0.00000000    0.00000000    0.00000000
     atom    6 type  1   force =     0.00000000    0.00000000    0.00000000
     atom    7 type  1   force =     0.00000000    0.00000000    0.00000000
     atom    8 type  1   force =     0.00000000    0.00000000    0.00000000
     atom    9 type  1   force =     0.00000000    0.00000000    0.00000000
     atom   10 type  1   force =     0.00000000    0.00000000    0.00000000
     atom   11 type  1   force =     0.00000000    0.00000000    0.00000000
     atom   12 type  1   force =     0.00000000    0.00000000    0.00000000
     atom   13 type  1   force =     0.00000000    0.00000000    0.00000000
     atom   14 type  1   force =     0.00000000    0.00000000    0.00000000
     atom   15 type  1   force =     0.00000000    0.00000000    0.00000000
     atom   16 type  1   force =     0.00000000    0.00000000    0.00000000
     atom   17 type  1   force =     0.00000000    0.00000000    0.00000000
     atom   18 type  1   force =     0.00000000    0.00000000    0.00000000
     atom   19 type  1   force =     0.00000000    0.00000000    0.00000000
     atom   20 type  1   force =     0.00000000    0.00000000    0.00000000
     atom   21 type  1   force =     0.00000000    0.00000000    0.00000000
     atom   22 type  1   force =     0.00000000    0.00000000    0.00000000
     atom   23 type  1   force =     0.00000000    0.00000000    0.00000000
     atom   24 type  1   force =     0.00000000    0.00000000    0.00000000
     atom   25 type  1   force =     0.00000000    0.00000000    0.00000000
     atom   26 type  1   force =     0.00000000    0.00000000    0.00000000
     atom   27 type  1   force =     0.00000000    0.00000000    0.00000000
     atom   28 type  1   force =     0.00000000    0.00000000    0.00000000
     atom   29 type  1   force =     0.00000000    0.00000000    0.00000000
     atom   30 type  1   force =     0.00000000    0.00000000    0.00000000
     atom   31 type  1   force =     0.00000000    0.00000000    0.00000000
     atom   32 type  1   force =     0.00000000    0.00000000    0.00000000
     atom   33 type  1   force =     0.00000000    0.00000000    0.00000000
     atom   34 type  1   force =     0.00000000    0.00000000    0.00000000
     atom   35 type  1   force =     0.00000000    0.00000000    0.00000000
     atom   36 type  1   force =     0.00000000    0.00000000    0.00000000
     atom   37 type  1   force =     0.00000000    0.00000000    0.00000000
     atom   38 type  1   force =     0.00000000    0.00000000    0.00000000
     atom   39 type  1   force =     0.00000000    0.00000000    0.00000000
     atom   40 type  1   force =     0.00000000    0.00000000    0.00000000
     atom   41 type  1   force =     0.00000000    0.00000000    0.00000000
     atom   42 type  1   force =     0.00000000    0.00000000    0.00000000
     atom   43 type  1   force =     0.00000000    0.00000000    0.00000000
     atom   44 type  1   force =     0.00000000    0.00000000    0.00000000
     atom   45 type  1   force =     0.00000000    0.00000000    0.00000000
     atom   46 type  1   force =     0.00000000    0.00000000    0.00000000
     atom   47 type  1   force =     0.00000000    0.00000000    0.00000000
     atom   48 type  1   force =     0.00000000    0.00000000    0.00000000
     atom   49 type  3   force =    -0.01445827    0.01008834    0.00096605
     atom   50 type  3   force =     0.00509648   -0.00329169   -0.00113113
     atom   51 type  3   force =     0.00116032   -0.00075503   -0.00029224
     atom   52 type  3   force =     0.00072544   -0.00106542   -0.00045775
     atom   53 type  3   force =    -0.00098084    0.00116463    0.00014159
     atom   54 type  3   force =    -0.00162411    0.00043689   -0.00006017
     atom   55 type  3   force =    -0.00676220    0.00434609    0.00162840
     atom   56 type  2   force =    -0.00796829    0.00553625    0.00067608
     atom   57 type  2   force =     0.00213382    0.00033690   -0.00703739
     atom   58 type  4   force =     0.00000000    0.00000000    0.00000000
     atom   59 type  4   force =     0.00000000    0.00000000    0.00000000
     atom   60 type  4   force =     0.00000000    0.00000000    0.00000000
     atom   61 type  4   force =     0.00000000    0.00000000    0.00000000
     atom   62 type  4   force =     0.00000000    0.00000000    0.00000000
     atom   63 type  4   force =     0.00000000    0.00000000    0.00000000
     The Hubbard contrib.    to forces
     atom    1 type  1   force =     0.00000000    0.00000000    0.00000000
     atom    2 type  1   force =     0.00000000    0.00000000    0.00000000
     atom    3 type  1   force =     0.00000000    0.00000000    0.00000000
     atom    4 type  1   force =     0.00000000    0.00000000    0.00000000
     atom    5 type  1   force =     0.00000000    0.00000000    0.00000000
     atom    6 type  1   force =     0.00000000    0.00000000    0.00000000
     atom    7 type  1   force =     0.00000000    0.00000000    0.00000000
     atom    8 type  1   force =     0.00000000    0.00000000    0.00000000
     atom    9 type  1   force =     0.00000000    0.00000000    0.00000000
     atom   10 type  1   force =     0.00000000    0.00000000    0.00000000
     atom   11 type  1   force =     0.00000000    0.00000000    0.00000000
     atom   12 type  1   force =     0.00000000    0.00000000    0.00000000
     atom   13 type  1   force =     0.00000000    0.00000000    0.00000000
     atom   14 type  1   force =     0.00000000    0.00000000    0.00000000
     atom   15 type  1   force =     0.00000000    0.00000000    0.00000000
     atom   16 type  1   force =     0.00000000    0.00000000    0.00000000
     atom   17 type  1   force =     0.00000000    0.00000000    0.00000000
     atom   18 type  1   force =     0.00000000    0.00000000    0.00000000
     atom   19 type  1   force =     0.00000000    0.00000000    0.00000000
     atom   20 type  1   force =     0.00000000    0.00000000    0.00000000
     atom   21 type  1   force =     0.00000000    0.00000000    0.00000000
     atom   22 type  1   force =     0.00000000    0.00000000    0.00000000
     atom   23 type  1   force =     0.00000000    0.00000000    0.00000000
     atom   24 type  1   force =     0.00000000    0.00000000    0.00000000
     atom   25 type  1   force =     0.00000000    0.00000000    0.00000000
     atom   26 type  1   force =     0.00000000    0.00000000    0.00000000
     atom   27 type  1   force =     0.00000000    0.00000000    0.00000000
     atom   28 type  1   force =     0.00000000    0.00000000    0.00000000
     atom   29 type  1   force =     0.00000000    0.00000000    0.00000000
     atom   30 type  1   force =     0.00000000    0.00000000    0.00000000
     atom   31 type  1   force =     0.00000000    0.00000000    0.00000000
     atom   32 type  1   force =     0.00000000    0.00000000    0.00000000
     atom   33 type  1   force =     0.00000000    0.00000000    0.00000000
     atom   34 type  1   force =     0.00000000    0.00000000    0.00000000
     atom   35 type  1   force =     0.00000000    0.00000000    0.00000000
     atom   36 type  1   force =     0.00000000    0.00000000    0.00000000
     atom   37 type  1   force =     0.00000000    0.00000000    0.00000000
     atom   38 type  1   force =     0.00000000    0.00000000    0.00000000
     atom   39 type  1   force =     0.00000000    0.00000000    0.00000000
     atom   40 type  1   force =     0.00000000    0.00000000    0.00000000
     atom   41 type  1   force =     0.00000000    0.00000000    0.00000000
     atom   42 type  1   force =     0.00000000    0.00000000    0.00000000
     atom   43 type  1   force =     0.00000000    0.00000000    0.00000000
     atom   44 type  1   force =     0.00000000    0.00000000    0.00000000
     atom   45 type  1   force =     0.00000000    0.00000000    0.00000000
     atom   46 type  1   force =     0.00000000    0.00000000    0.00000000
     atom   47 type  1   force =     0.00000000    0.00000000    0.00000000
     atom   48 type  1   force =     0.00000000    0.00000000    0.00000000
     atom   49 type  3   force =     0.00000000    0.00000000    0.00000000
     atom   50 type  3   force =     0.00000000    0.00000000    0.00000000
     atom   51 type  3   force =     0.00000000    0.00000000    0.00000000
     atom   52 type  3   force =     0.00000000    0.00000000    0.00000000
     atom   53 type  3   force =     0.00000000    0.00000000    0.00000000
     atom   54 type  3   force =     0.00000000    0.00000000    0.00000000
     atom   55 type  3   force =     0.00000000    0.00000000    0.00000000
     atom   56 type  2   force =     0.00000000    0.00000000    0.00000000
     atom   57 type  2   force =     0.00000000    0.00000000    0.00000000
     atom   58 type  4   force =     0.00000000    0.00000000    0.00000000
     atom   59 type  4   force =     0.00000000    0.00000000    0.00000000
     atom   60 type  4   force =     0.00000000    0.00000000    0.00000000
     atom   61 type  4   force =     0.00000000    0.00000000    0.00000000
     atom   62 type  4   force =     0.00000000    0.00000000    0.00000000
     atom   63 type  4   force =     0.00000000    0.00000000    0.00000000
     The SCF correction term to forces
     atom    1 type  1   force =     0.00000000   -0.00000000    0.00000000
     atom    2 type  1   force =     0.00000000    0.00000000    0.00000000
     atom    3 type  1   force =     0.00023934   -0.00006062    0.00005059
     atom    4 type  1   force =     0.00026901    0.00019414    0.00011058
     atom    5 type  1   force =    -0.00023330   -0.00012836   -0.00000971
     atom    6 type  1   force =    -0.00024734    0.00003087   -0.00002212
     atom    7 type  1   force =     0.00000000    0.00000000    0.00000000
     atom    8 type  1   force =     0.00000000    0.00000000    0.00000000
     atom    9 type  1   force =     0.00021476    0.00010362    0.00009212
     atom   10 type  1   force =     0.00029184    0.00002986    0.00006784
     atom   11 type  1   force =    -0.00020389   -0.00009664    0.00002671
     atom   12 type  1   force =    -0.00028196   -0.00002458   -0.00011666
     atom   13 type  1   force =    -0.00000000   -0.00000000   -0.00000000
     atom   14 type  1   force =    -0.00000000    0.00000000   -0.00000000
     atom   15 type  1   force =    -0.00012403   -0.00017977   -0.00008970
     atom   16 type  1   force =    -0.00016698    0.00011587   -0.00009946
     atom   17 type  1   force =     0.00012665   -0.00011124   -0.00011353
     atom   18 type  1   force =     0.00005926    0.00016421   -0.00006814
     atom   19 type  1   force =    -0.00000000   -0.00000000   -0.00000000
     atom   20 type  1   force =    -0.00000000   -0.00000000   -0.00000000
     atom   21 type  1   force =    -0.00013729   -0.00004579   -0.00006748
     atom   22 type  1   force =    -0.00014239   -0.00001593   -0.00013020
     atom   23 type  1   force =     0.00006576    0.00000232   -0.00005999
     atom   24 type  1   force =     0.00008539    0.00005678   -0.00013021
     atom   25 type  1   force =    -0.00000000   -0.00000000    0.00000000
     atom   26 type  1   force =    -0.00000000    0.00000000    0.00000000
     atom   27 type  1   force =     0.00030345   -0.00005452    0.00016141
     atom   28 type  1   force =     0.00030273    0.00020751    0.00022664
     atom   29 type  1   force =    -0.00001806   -0.00005955   -0.00003812
     atom   30 type  1   force =     0.00002416    0.00007191   -0.00000580
     atom   31 type  1   force =    -0.00000000   -0.00000000    0.00000000
     atom   32 type  1   force =    -0.00000000   -0.00000000    0.00000000
     atom   33 type  1   force =     0.00027597    0.00001293    0.00015368
     atom   34 type  1   force =     0.00033990    0.00013352    0.00022311
     atom   35 type  1   force =    -0.00002573   -0.00007815   -0.00005384
     atom   36 type  1   force =     0.00001695    0.00008504    0.00002367
     atom   37 type  1   force =     0.00000000   -0.00000000    0.00000000
     atom   38 type  1   force =     0.00000000    0.00000000    0.00000000
     atom   39 type  1   force =    -0.00033215   -0.00018171   -0.00021049
     atom   40 type  1   force =    -0.00027589    0.00003538   -0.00019053
     atom   41 type  1   force =    -0.00026555   -0.00015512   -0.00017108
     atom   42 type  1   force =    -0.00024846    0.00004678   -0.00009823
     atom   43 type  1   force =     0.00000000    0.00000000    0.00000000
     atom   44 type  1   force =     0.00000000    0.00000000    0.00000000
     atom   45 type  1   force =    -0.00027163   -0.00015561   -0.00017914
     atom   46 type  1   force =    -0.00033938    0.00001887   -0.00022317
     atom   47 type  1   force =    -0.00021880   -0.00014982   -0.00012214
     atom   48 type  1   force =    -0.00027369    0.00002882   -0.00014029
     atom   49 type  3   force =    -0.00004180    0.00001849    0.00002394
     atom   50 type  3   force =     0.00001351   -0.00002169    0.00002265
     atom   51 type  3   force =    -0.00000491    0.00000538    0.00001854
     atom   52 type  3   force =     0.00004219    0.00000340   -0.00000015
     atom   53 type  3   force =     0.00002479   -0.00000677    0.00000326
     atom   54 type  3   force =     0.00002125    0.00002182   -0.00000828
     atom   55 type  3   force =     0.00001246    0.00000035   -0.00001099
     atom   56 type  2   force =    -0.00006030    0.00001661    0.00002551
     atom   57 type  2   force =     0.00003934   -0.00001636   -0.00000083
     atom   58 type  4   force =     0.00000353   -0.00000135   -0.00000222
     atom   59 type  4   force =     0.00000652   -0.00000165   -0.00000055
     atom   60 type  4   force =     0.00001143    0.00000051   -0.00000082
     atom   61 type  4   force =    -0.00000426    0.00000069    0.00000395
     atom   62 type  4   force =     0.00000277    0.00000316   -0.00000266
     atom   63 type  4   force =     0.00000571   -0.00000028    0.00000190

     DFT-D3 dispersion contribution to forces:
     atom    1 type  1   force =    -0.00074795   -0.00018403    0.00281812
     atom    2 type  1   force =    -0.00075338   -0.00017478    0.00284091
     atom    3 type  1   force =    -0.00127772    0.00013037   -0.00145208
     atom    4 type  1   force =    -0.00135012   -0.00069456   -0.00143381
     atom    5 type  1   force =     0.00111899    0.00102449   -0.00095627
     atom    6 type  1   force =     0.00193935   -0.00008026   -0.00046337
     atom    7 type  1   force =    -0.00075444   -0.00015837    0.00282208
     atom    8 type  1   force =    -0.00075292   -0.00017229    0.00283781
     atom    9 type  1   force =    -0.00127069   -0.00035772   -0.00101694
     atom   10 type  1   force =    -0.00127570   -0.00036016   -0.00212689
     atom   11 type  1   force =     0.00187661    0.00091662   -0.00033836
     atom   12 type  1   force =     0.00080343   -0.00041440   -0.00113631
     atom   13 type  1   force =     0.00060719    0.00021146    0.00290502
     atom   14 type  1   force =     0.00067876    0.00012649    0.00293028
     atom   15 type  1   force =    -0.00032889   -0.00033444   -0.00102687
     atom   16 type  1   force =    -0.00030288    0.00023708   -0.00084692
     atom   17 type  1   force =    -0.00072252    0.00040366   -0.00167892
     atom   18 type  1   force =    -0.00074287   -0.00050552   -0.00134902
     atom   19 type  1   force =     0.00060778    0.00016465    0.00298088
     atom   20 type  1   force =     0.00070393    0.00018225    0.00286975
     atom   21 type  1   force =    -0.00132438   -0.00032293   -0.00066419
     atom   22 type  1   force =    -0.00021794   -0.00015217   -0.00069512
     atom   23 type  1   force =    -0.00015559    0.00029860   -0.00280428
     atom   24 type  1   force =    -0.00056228   -0.00069073   -0.00174251
     atom   25 type  1   force =     0.00061050    0.00016867    0.00281893
     atom   26 type  1   force =     0.00061225    0.00013442    0.00281799
     atom   27 type  1   force =     0.00071380    0.00034227    0.00205921
     atom   28 type  1   force =     0.00071177   -0.00000408    0.00214192
     atom   29 type  1   force =     0.00076664    0.00036854   -0.00151896
     atom   30 type  1   force =     0.00095488    0.00007232   -0.00047051
     atom   31 type  1   force =     0.00057229    0.00013594    0.00292568
     atom   32 type  1   force =     0.00060913    0.00015983    0.00276747
     atom   33 type  1   force =     0.00071717    0.00013835    0.00165078
     atom   34 type  1   force =     0.00075068    0.00017102    0.00173692
     atom   35 type  1   force =     0.00097401    0.00055632   -0.00060798
     atom   36 type  1   force =     0.00076373   -0.00015723   -0.00114281
     atom   37 type  1   force =     0.00039874    0.00005432    0.00239583
     atom   38 type  1   force =     0.00045168    0.00011282    0.00253311
     atom   39 type  1   force =    -0.00108062   -0.00035842    0.00167533
     atom   40 type  1   force =    -0.00087773   -0.00017755    0.00168504
     atom   41 type  1   force =    -0.00046304   -0.00029372   -0.00423921
     atom   42 type  1   force =    -0.00070417   -0.00010926   -0.00328592
     atom   43 type  1   force =     0.00037750    0.00015245    0.00239930
     atom   44 type  1   force =     0.00045090    0.00009087    0.00254049
     atom   45 type  1   force =    -0.00087845   -0.00023645    0.00173466
     atom   46 type  1   force =    -0.00110011   -0.00024928    0.00154697
     atom   47 type  1   force =    -0.00058069   -0.00003444   -0.00365601
     atom   48 type  1   force =    -0.00070934   -0.00033034   -0.00385601
     atom   49 type  3   force =    -0.00026171    0.00016441   -0.00107133
     atom   50 type  3   force =    -0.00022478    0.00005712   -0.00152864
     atom   51 type  3   force =    -0.00025222   -0.00014269   -0.00119655
     atom   52 type  3   force =     0.00016267    0.00040089   -0.00153757
     atom   53 type  3   force =    -0.00036689   -0.00034942   -0.00179523
     atom   54 type  3   force =     0.00019474    0.00030472   -0.00111516
     atom   55 type  3   force =     0.00002298   -0.00004125   -0.00139508
     atom   56 type  2   force =    -0.00019578   -0.00015032   -0.00175455
     atom   57 type  2   force =     0.00030388   -0.00008914   -0.00149469
     atom   58 type  4   force =     0.00035890    0.00002166   -0.00088102
     atom   59 type  4   force =     0.00047362   -0.00000396   -0.00129916
     atom   60 type  4   force =     0.00020995    0.00013953   -0.00079604
     atom   61 type  4   force =    -0.00036842   -0.00009209   -0.00124182
     atom   62 type  4   force =     0.00042327    0.00009484   -0.00142819
     atom   63 type  4   force =    -0.00031750   -0.00011502   -0.00139016

     Total force =     0.005318     Total SCF correction =     0.001585

     DFT-D3 dispersion Force =     0.017636
     SCF correction compared to forces is large: reduce conv_thr to get better values


     Computing stress (Cartesian axis) and pressure


     negative rho (up, down):  5.428E-03 0.000E+00
