--------------------------------------------------------------------------
By default, for Open MPI 4.0 and later, infiniband ports on a device
are not used by default.  The intent is to use UCX for these devices.
You can override this policy by setting the btl_openib_allow_ib MCA parameter
to true.

  Local host:              psid00
  Local adapter:           mlx5_0
  Local port:              1

--------------------------------------------------------------------------
--------------------------------------------------------------------------
WARNING: There was an error initializing an OpenFabrics device.

  Local host:   psid00
  Local device: mlx5_0
--------------------------------------------------------------------------

     Program PWSCF v.7.3.1 starts on  2Feb1998 at 12:12:23 

     This program is part of the open-source Quantum ESPRESSO suite
     for quantum simulation of materials; please cite
         "P. Giannozzi et al., J. Phys.:Condens. Matter 21 395502 (2009);
         "P. Giannozzi et al., J. Phys.:Condens. Matter 29 465901 (2017);
         "P. Giannozzi et al., J. Chem. Phys. 152 154105 (2020);
          URL http://www.quantum-espresso.org", 
     in publications or presentations arising from this work. More details at
     http://www.quantum-espresso.org/quote

     Parallel version (MPI), running on    40 processors

     MPI processes distributed on     1 nodes
     10802 MiB available memory on the printing compute node when the environment starts

     Waiting for input...
     Reading input from standard input
Warning: card &CELL ignored
Warning: card   CELL_DOFREE = 'ALL' ignored
Warning: card / ignored

     Current dimensions of program PWSCF are:
     Max number of different atomic species (ntypx) = 10
     Max number of k-points (npk) =  40000
     Max angular momentum in pseudopotentials (lmaxx) =  4
     Message from routine input:
     WARNING: "startingwfc" set to atomic+random may spoil restart
     Message from routine input:
     WARNING: "startingpot" set to atomic may spoil restart
     file C.pbe-n-kjpaw_psl.1.0.0.UPF: wavefunction(s)  2S 2P renormalized

     R & G space division:  proc/nbgrp/npool/nimage =      40
     Subspace diagonalization in iterative solution of the eigenvalue problem:
     one sub-group per band group will be used
     custom distributed-memory algorithm (size of sub-group:  6*  6 procs)


     Parallelization info
     --------------------
     sticks:   dense  smooth     PW     G-vecs:    dense   smooth      PW
     Min          81      81     22                 8425     8425    1246
     Max          82      82     23                 8437     8437    1251
     Sum        3241    3241    913               337189   337189   49919

     Using Slab Decomposition



     bravais-lattice index     =            0
     lattice parameter (alat)  =      19.7617  a.u.
     unit-cell volume          =   15176.5939 (a.u.)^3
     number of atoms/cell      =           79
     number of atomic types    =            4
     number of electrons       =      1324.00
     number of Kohn-Sham states=          794
     kinetic-energy cutoff     =      30.0000  Ry
     charge density cutoff     =     120.0000  Ry
     scf convergence threshold =      7.3E-07
     mixing beta               =       0.7000
     number of iterations used =            8  plain     mixing
     energy convergence thresh.=      1.0E-05
     force convergence thresh. =      5.0E-04
     Exchange-correlation= PBE
                           (   1   4   3   4   0   0   0)
     nstep                     =          100


     celldm(1)=  19.761696  celldm(2)=   0.000000  celldm(3)=   0.000000
     celldm(4)=   0.000000  celldm(5)=   0.000000  celldm(6)=   0.000000

     crystal axes: (cart. coord. in units of alat)
               a(1) = (   1.000000   0.000000   0.000000 )  
               a(2) = (  -0.500000   0.866025   0.000000 )  
               a(3) = (   0.000000   0.000000   2.270759 )  

     reciprocal axes: (cart. coord. in units 2 pi/alat)
               b(1) = (  1.000000  0.577350 -0.000000 )  
               b(2) = (  0.000000  1.154701  0.000000 )  
               b(3) = (  0.000000 -0.000000  0.440381 )  


     PseudoPot. # 1 for Zn read from file:
     /home/ys/qepseudo/SSSP_1.3.0_PBE_efficiency/Zn_pbe_v1.uspp.F.UPF
     MD5 check sum: df62231357ef9e81f77b2b3087fa5675
     Pseudo is Ultrasoft, Zval = 20.0
     Generated by new atomic code, or converted to UPF format
     Using radial grid of  943 points,  6 beta functions with: 
                l(1) =   0
                l(2) =   0
                l(3) =   1
                l(4) =   1
                l(5) =   2
                l(6) =   2
     Q(r) pseudized with  8 coefficients,  rinner =    1.100   1.100   1.100
                                                       1.100   1.100

     PseudoPot. # 2 for C  read from file:
     /home/ys/qepseudo/SSSP_1.3.0_PBE_efficiency/C.pbe-n-kjpaw_psl.1.0.0.UPF
     MD5 check sum: 5d2aebdfa2cae82b50a7e79e9516da0f
     Pseudo is Projector augmented-wave + core cor, Zval =  4.0
     Generated using "atomic" code by A. Dal Corso  v.5.1
     Shape of augmentation charge: PSQ
     Using radial grid of 1073 points,  4 beta functions with: 
                l(1) =   0
                l(2) =   0
                l(3) =   1
                l(4) =   1
     Q(r) pseudized with 0 coefficients 


     PseudoPot. # 3 for N  read from file:
     /home/ys/qepseudo/SSSP_1.3.0_PBE_efficiency/N.pbe-n-radius_5.UPF
     MD5 check sum: 16739722b17309cd8fe442a2ace49922
     Pseudo is Ultrasoft + core correction, Zval =  5.0
     Generated using "atomic" code by A. Dal Corso  v.5.1
     Using radial grid of 1085 points,  4 beta functions with: 
                l(1) =   0
                l(2) =   0
                l(3) =   1
                l(4) =   1
     Q(r) pseudized with 0 coefficients 


     PseudoPot. # 4 for H  read from file:
     /home/ys/qepseudo/SSSP_1.3.0_PBE_efficiency/H.pbe-rrkjus_psl.1.0.0.UPF
     MD5 check sum: f52b6d4d1c606e5624b1dc7b2218f220
     Pseudo is Ultrasoft, Zval =  1.0
     Generated using "atomic" code by A. Dal Corso  v.5.1
     Using radial grid of  929 points,  2 beta functions with: 
                l(1) =   0
                l(2) =   0
     Q(r) pseudized with 0 coefficients 


     atomic species   valence    mass     pseudopotential
     Zn               20.00    65.38000     Zn( 1.00)
     C                 4.00    12.01070     C ( 1.00)
     N                 5.00    14.00670     N ( 1.00)
     H                 1.00     1.00800     H ( 1.00)

     No symmetry found


                                    s                        frac. trans.

      isym =  1     identity                                     

 cryst.   s( 1) = (     1          0          0      )
                  (     0          1          0      )
                  (     0          0          1      )

 cart.    s( 1) = (  1.0000000  0.0000000  0.0000000 )
                  (  0.0000000  1.0000000  0.0000000 )
                  (  0.0000000  0.0000000  1.0000000 )


   Cartesian axes

     site n.     atom                  positions (alat units)
         1        Zn     tau(   1) = (  -0.0000000   0.1443376   0.1164999  )
         2        Zn     tau(   2) = (   0.5000000   0.1443376   0.1164999  )
         3        Zn     tau(   3) = (  -0.0002016   0.1441727   0.5716557  )
         4        Zn     tau(   4) = (   0.4998820   0.1441083   0.5716502  )
         5        Zn     tau(   5) = (  -0.1250000   0.3608439   0.1164999  )
         6        Zn     tau(   6) = (   0.3750000   0.3608439   0.1164999  )
         7        Zn     tau(   7) = (  -0.1251678   0.3607422   0.5717694  )
         8        Zn     tau(   8) = (   0.3749175   0.3605821   0.5711596  )
         9        Zn     tau(   9) = (  -0.2500000   0.5773503   0.1164999  )
        10        Zn     tau(  10) = (   0.2500000   0.5773503   0.1164999  )
        11        Zn     tau(  11) = (  -0.2501029   0.5772524   0.5716492  )
        12        Zn     tau(  12) = (   0.2496308   0.5773790   0.5714446  )
        13        Zn     tau(  13) = (  -0.3750000   0.7938566   0.1164999  )
        14        Zn     tau(  14) = (   0.1250000   0.7938566   0.1164999  )
        15        Zn     tau(  15) = (  -0.3751195   0.7937319   0.5717699  )
        16        Zn     tau(  16) = (   0.1247796   0.7937292   0.5717748  )
        17        Zn     tau(  17) = (   0.2500000   0.1443376   0.1164999  )
        18        Zn     tau(  18) = (   0.7500000   0.1443376   0.1164999  )
        19        Zn     tau(  19) = (   0.2498050   0.1440158   0.5716896  )
        20        Zn     tau(  20) = (   0.7498584   0.1442228   0.5715646  )
        21        Zn     tau(  21) = (   0.1250000   0.3608439   0.1164999  )
        22        Zn     tau(  22) = (   0.6250000   0.3608439   0.1164999  )
        23        Zn     tau(  23) = (   0.1246140   0.3607226   0.5715358  )
        24        Zn     tau(  24) = (   0.6249730   0.3607024   0.5715821  )
        25        Zn     tau(  25) = (  -0.0000000   0.5773503   0.1164999  )
        26        Zn     tau(  26) = (   0.5000000   0.5773503   0.1164999  )
        27        Zn     tau(  27) = (  -0.0002379   0.5772472   0.5719041  )
        28        Zn     tau(  28) = (   0.5000367   0.5773684   0.5714694  )
        29        Zn     tau(  29) = (  -0.1250000   0.7938566   0.1164999  )
        30        Zn     tau(  30) = (   0.3750000   0.7938566   0.1164999  )
        31        Zn     tau(  31) = (  -0.1251749   0.7936704   0.5716131  )
        32        Zn     tau(  32) = (   0.3748555   0.7938158   0.5717276  )
        33        Zn     tau(  33) = (   0.1250000   0.0721688   0.3494996  )
        34        Zn     tau(  34) = (   0.6250000   0.0721688   0.3494996  )
        35        Zn     tau(  35) = (   0.1243428   0.0717981   0.8154864  )
        36        Zn     tau(  36) = (   0.6244334   0.0718845   0.8155086  )
        37        Zn     tau(  37) = (   0.0000000   0.2886751   0.3494996  )
        38        Zn     tau(  38) = (   0.5000000   0.2886751   0.3494996  )
        39        Zn     tau(  39) = (  -0.0006111   0.2884117   0.8155437  )
        40        Zn     tau(  40) = (   0.4994444   0.2883329   0.8153846  )
        41        Zn     tau(  41) = (  -0.1250000   0.5051815   0.3494996  )
        42        Zn     tau(  42) = (   0.3750000   0.5051815   0.3494996  )
        43        Zn     tau(  43) = (  -0.1255778   0.5048966   0.8156649  )
        44        Zn     tau(  44) = (   0.3744073   0.5050310   0.8102689  )
        45        Zn     tau(  45) = (  -0.2500000   0.7216878   0.3494996  )
        46        Zn     tau(  46) = (   0.2500000   0.7216878   0.3494996  )
        47        Zn     tau(  47) = (  -0.2505264   0.7214164   0.8151167  )
        48        Zn     tau(  48) = (   0.2493459   0.7213996   0.8158021  )
        49        Zn     tau(  49) = (   0.3750000   0.0721688   0.3494996  )
        50        Zn     tau(  50) = (   0.8750000   0.0721688   0.3494996  )
        51        Zn     tau(  51) = (   0.3744016   0.0718054   0.8156468  )
        52        Zn     tau(  52) = (   0.8744399   0.0719074   0.8150305  )
        53        Zn     tau(  53) = (   0.2500000   0.2886751   0.3494996  )
        54        Zn     tau(  54) = (   0.7500000   0.2886751   0.3494996  )
        55        Zn     tau(  55) = (   0.2492871   0.2882327   0.8120018  )
        56        Zn     tau(  56) = (   0.7494240   0.2883875   0.8154822  )
        57        Zn     tau(  57) = (   0.1250000   0.5051815   0.3494996  )
        58        Zn     tau(  58) = (   0.6250000   0.5051815   0.3494996  )
        59        Zn     tau(  59) = (   0.1243006   0.5048992   0.8164612  )
        60        Zn     tau(  60) = (   0.6245215   0.5049078   0.8153692  )
        61        Zn     tau(  61) = (   0.0000000   0.7216878   0.3494996  )
        62        Zn     tau(  62) = (   0.5000000   0.7216878   0.3494996  )
        63        Zn     tau(  63) = (  -0.0005992   0.7213796   0.8158074  )
        64        Zn     tau(  64) = (   0.4994997   0.7214552   0.8155825  )
        65        C      tau(  65) = (   0.0963709   0.5784558   1.6266888  )
        66        C      tau(  66) = (   0.1596832   0.5415008   1.5118659  )
        67        C      tau(  67) = (   0.1333543   0.4224384   1.4540457  )
        68        C      tau(  68) = (   0.2496996   0.6236650   1.4538736  )
        69        C      tau(  69) = (   0.3112442   0.5880076   1.3420239  )
        70        C      tau(  70) = (   0.1949063   0.3867807   1.3421316  )
        71        C      tau(  71) = (   0.2850806   0.4688814   1.2837719  )
        72        N      tau(  72) = (   0.0442932   0.6092614   1.7212925  )
        73        N      tau(  73) = (   0.3500582   0.4315732   1.1754049  )
        74        H      tau(  74) = (   0.3948602   0.5002655   1.1226778  )
        75        H      tau(  75) = (   0.3131805   0.3586871   1.1222124  )
        76        H      tau(  76) = (   0.0638064   0.3581644   1.4984914  )
        77        H      tau(  77) = (   0.2706613   0.7160978   1.4980945  )
        78        H      tau(  78) = (   0.3813670   0.6523333   1.2982468  )
        79        H      tau(  79) = (   0.1740985   0.2938469   1.2985597  )

   Crystallographic axes

     site n.     atom                  positions (cryst. coord.)
         1        Zn     tau(   1) = (  0.0833333  0.1666667  0.0513044  )
         2        Zn     tau(   2) = (  0.5833333  0.1666667  0.0513044  )
         3        Zn     tau(   3) = (  0.0830365  0.1664763  0.2517466  )
         4        Zn     tau(   4) = (  0.5830830  0.1664020  0.2517441  )
         5        Zn     tau(   5) = (  0.0833333  0.4166667  0.0513044  )
         6        Zn     tau(   6) = (  0.5833333  0.4166667  0.0513044  )
         7        Zn     tau(   7) = (  0.0831069  0.4165493  0.2517966  )
         8        Zn     tau(   8) = (  0.5830997  0.4163643  0.2515281  )
         9        Zn     tau(   9) = (  0.0833333  0.6666667  0.0513044  )
        10        Zn     tau(  10) = (  0.5833333  0.6666667  0.0513044  )
        11        Zn     tau(  11) = (  0.0831739  0.6665536  0.2517437  )
        12        Zn     tau(  12) = (  0.5829807  0.6666998  0.2516536  )
        13        Zn     tau(  13) = (  0.0833333  0.9166667  0.0513044  )
        14        Zn     tau(  14) = (  0.5833333  0.9166667  0.0513044  )
        15        Zn     tau(  15) = (  0.0831419  0.9165227  0.2517968  )
        16        Zn     tau(  16) = (  0.5830394  0.9165196  0.2517990  )
        17        Zn     tau(  17) = (  0.3333333  0.1666667  0.0513044  )
        18        Zn     tau(  18) = (  0.8333333  0.1666667  0.0513044  )
        19        Zn     tau(  19) = (  0.3329526  0.1662951  0.2517615  )
        20        Zn     tau(  20) = (  0.8331255  0.1665341  0.2517064  )
        21        Zn     tau(  21) = (  0.3333333  0.4166667  0.0513044  )
        22        Zn     tau(  22) = (  0.8333333  0.4166667  0.0513044  )
        23        Zn     tau(  23) = (  0.3328773  0.4165266  0.2516938  )
        24        Zn     tau(  24) = (  0.8332246  0.4165032  0.2517141  )
        25        Zn     tau(  25) = (  0.3333333  0.6666667  0.0513044  )
        26        Zn     tau(  26) = (  0.8333333  0.6666667  0.0513044  )
        27        Zn     tau(  27) = (  0.3330359  0.6665477  0.2518559  )
        28        Zn     tau(  28) = (  0.8333805  0.6666876  0.2516645  )
        29        Zn     tau(  29) = (  0.3333333  0.9166667  0.0513044  )
        30        Zn     tau(  30) = (  0.8333333  0.9166667  0.0513044  )
        31        Zn     tau(  31) = (  0.3330510  0.9164516  0.2517278  )
        32        Zn     tau(  32) = (  0.8331652  0.9166195  0.2517782  )
        33        Zn     tau(  33) = (  0.1666667  0.0833333  0.1539131  )
        34        Zn     tau(  34) = (  0.6666667  0.0833333  0.1539131  )
        35        Zn     tau(  35) = (  0.1657954  0.0829053  0.3591251  )
        36        Zn     tau(  36) = (  0.6659360  0.0830051  0.3591349  )
        37        Zn     tau(  37) = (  0.1666667  0.3333333  0.1539131  )
        38        Zn     tau(  38) = (  0.6666667  0.3333333  0.1539131  )
        39        Zn     tau(  39) = (  0.1659035  0.3330292  0.3591503  )
        40        Zn     tau(  40) = (  0.6659135  0.3329382  0.3590802  )
        41        Zn     tau(  41) = (  0.1666667  0.5833333  0.1539131  )
        42        Zn     tau(  42) = (  0.6666667  0.5833333  0.1539131  )
        43        Zn     tau(  43) = (  0.1659244  0.5830043  0.3592037  )
        44        Zn     tau(  44) = (  0.6659871  0.5831595  0.3568274  )
        45        Zn     tau(  45) = (  0.1666667  0.8333333  0.1539131  )
        46        Zn     tau(  46) = (  0.6666667  0.8333333  0.1539131  )
        47        Zn     tau(  47) = (  0.1659836  0.8330199  0.3589623  )
        48        Zn     tau(  48) = (  0.6658461  0.8330005  0.3592641  )
        49        Zn     tau(  49) = (  0.4166667  0.0833333  0.1539131  )
        50        Zn     tau(  50) = (  0.9166667  0.0833333  0.1539131  )
        51        Zn     tau(  51) = (  0.4158585  0.0829138  0.3591957  )
        52        Zn     tau(  52) = (  0.9159557  0.0830316  0.3589243  )
        53        Zn     tau(  53) = (  0.4166667  0.3333333  0.1539131  )
        54        Zn     tau(  54) = (  0.9166667  0.3333333  0.1539131  )
        55        Zn     tau(  55) = (  0.4156983  0.3328224  0.3575905  )
        56        Zn     tau(  56) = (  0.9159246  0.3330012  0.3591232  )
        57        Zn     tau(  57) = (  0.4166667  0.5833333  0.1539131  )
        58        Zn     tau(  58) = (  0.9166667  0.5833333  0.1539131  )
        59        Zn     tau(  59) = (  0.4158043  0.5830074  0.3595543  )
        60        Zn     tau(  60) = (  0.9160302  0.5830173  0.3590734  )
        61        Zn     tau(  61) = (  0.4166667  0.8333333  0.1539131  )
        62        Zn     tau(  62) = (  0.9166667  0.8333333  0.1539131  )
        63        Zn     tau(  63) = (  0.4158895  0.8329775  0.3592664  )
        64        Zn     tau(  64) = (  0.9160320  0.8330647  0.3591674  )
        65        C      tau(  65) = (  0.4303426  0.6679433  0.7163635  )
        66        C      tau(  66) = (  0.4723189  0.6252713  0.6657976  )
        67        C      tau(  67) = (  0.3772493  0.4877898  0.6403347  )
        68        C      tau(  68) = (  0.6097728  0.7201463  0.6402589  )
        69        C      tau(  69) = (  0.6507306  0.6789727  0.5910024  )
        70        C      tau(  70) = (  0.4182142  0.4466159  0.5910498  )
        71        C      tau(  71) = (  0.5557894  0.5414176  0.5653493  )
        72        N      tau(  72) = (  0.3960504  0.7035144  0.7580253  )
        73        N      tau(  73) = (  0.5992271  0.4983378  0.5176265  )
        74        H      tau(  74) = (  0.6836886  0.5776568  0.4944065  )
        75        H      tau(  75) = (  0.5202686  0.4141762  0.4942015  )
        76        H      tau(  76) = (  0.2705927  0.4135726  0.6599078  )
        77        H      tau(  77) = (  0.6841006  0.8268785  0.6597330  )
        78        H      tau(  78) = (  0.7579918  0.7532496  0.5717238  )
        79        H      tau(  79) = (  0.3437511  0.3393052  0.5718616  )

     number of k points=     4  Marzari-Vanderbilt smearing, width (Ry)=  0.0200
                       cart. coord. in units 2pi/alat
        k(    1) = (   0.0000000   0.0000000   0.0000000), wk =   0.5000000
        k(    2) = (   0.0000000  -0.5773503   0.0000000), wk =   0.5000000
        k(    3) = (  -0.5000000  -0.2886751   0.0000000), wk =   0.5000000
        k(    4) = (  -0.5000000  -0.8660254   0.0000000), wk =   0.5000000

                       cryst. coord.
        k(    1) = (   0.0000000   0.0000000   0.0000000), wk =   0.5000000
        k(    2) = (   0.0000000  -0.5000000   0.0000000), wk =   0.5000000
        k(    3) = (  -0.5000000   0.0000000   0.0000000), wk =   0.5000000
        k(    4) = (  -0.5000000  -0.5000000   0.0000000), wk =   0.5000000

     Dense  grid:   337189 G-vectors     FFT dimensions: (  72,  72, 160)

     Dynamical RAM for                 wfc:      12.75 MB

     Dynamical RAM for     wfc (w. buffer):      63.73 MB

     Dynamical RAM for           str. fact:       0.51 MB

     Dynamical RAM for           local pot:       0.00 MB

     Dynamical RAM for          nlocal pot:      19.84 MB

     Dynamical RAM for                qrad:       3.52 MB

     Dynamical RAM for          rho,v,vnew:       0.86 MB

     Dynamical RAM for               rhoin:       0.29 MB

     Dynamical RAM for            rho*nmix:       2.06 MB

     Dynamical RAM for           G-vectors:       0.55 MB

     Dynamical RAM for          h,s,v(r/c):       3.19 MB

     Dynamical RAM for          <psi|beta>:      14.97 MB

     Dynamical RAM for                 psi:      25.49 MB

     Dynamical RAM for                hpsi:      25.49 MB

     Dynamical RAM for                spsi:      25.49 MB

     Dynamical RAM for      wfcinit/wfcrot:      45.55 MB

     Dynamical RAM for           addusdens:      32.15 MB

     Dynamical RAM for          addusforce:      48.66 MB

     Dynamical RAM for         addusstress:      25.85 MB

     Estimated static dynamical RAM per process >      90.73 MB

     Estimated max dynamical RAM per process >     187.43 MB

     Estimated total dynamical RAM >       7.32 GB

     Atomic positions and unit cell read from directory:
     ./tmp/Zn002_4x4x2_primitive_14Avacumn_bridgesite_tilted_parallel_ABN.save/


     Check: negative core charge=   -0.000055
     Cannot read rho : file not found

     Initial potential from superposition of free atoms

     starting charge    1323.9906, renormalised to    1324.0000

     negative rho (up, down):  6.759E-03 0.000E+00
     Starting wfcs are  874 randomized atomic wfcs
[psid00:238878] 39 more processes have sent help message help-mpi-btl-openib.txt / ib port not selected
[psid00:238878] Set MCA parameter "orte_base_help_aggregate" to 0 to see all help / error messages
[psid00:238878] 39 more processes have sent help message help-mpi-btl-openib.txt / error in device init
     Checking if some PAW data can be deallocated... 
       PAW data deallocated on   36 nodes for type:  2

     total cpu time spent up to now is       54.5 secs

     Self-consistent Calculation

     iteration #  1     ecut=    30.00 Ry     beta= 0.70
     Davidson diagonalization with overlap

---- Real-time Memory Report at c_bands before calling an iterative solver
           175 MiB given to the printing process from OS
             0 MiB allocation reported by mallinfo(arena+hblkhd)
          6424 MiB available memory on the node where the printing process lives
------------------
     ethr =  1.00E-05,  avg # of iterations = 11.2

     negative rho (up, down):  3.561E-02 0.000E+00

     total cpu time spent up to now is      816.5 secs

     total energy              =  -29703.27550608 Ry
     estimated scf accuracy    <      12.46651309 Ry

     iteration #  2     ecut=    30.00 Ry     beta= 0.70
     Davidson diagonalization with overlap

---- Real-time Memory Report at c_bands before calling an iterative solver
           234 MiB given to the printing process from OS
             0 MiB allocation reported by mallinfo(arena+hblkhd)
          4674 MiB available memory on the node where the printing process lives
------------------
     ethr =  9.42E-04,  avg # of iterations =  8.8

     negative rho (up, down):  3.319E-02 0.000E+00

     total cpu time spent up to now is     1237.2 secs

     total energy              =  -29667.39433727 Ry
     estimated scf accuracy    <     778.03573855 Ry

     iteration #  3     ecut=    30.00 Ry     beta= 0.70
     Davidson diagonalization with overlap

---- Real-time Memory Report at c_bands before calling an iterative solver
           238 MiB given to the printing process from OS
             0 MiB allocation reported by mallinfo(arena+hblkhd)
          4529 MiB available memory on the node where the printing process lives
------------------
     ethr =  9.42E-04,  avg # of iterations =  9.5

     negative rho (up, down):  2.510E-02 0.000E+00

     total cpu time spent up to now is     1839.3 secs

     total energy              =  -29701.95226160 Ry
     estimated scf accuracy    <     130.14392314 Ry

     iteration #  4     ecut=    30.00 Ry     beta= 0.70
     Davidson diagonalization with overlap

---- Real-time Memory Report at c_bands before calling an iterative solver
           239 MiB given to the printing process from OS
             0 MiB allocation reported by mallinfo(arena+hblkhd)
          4519 MiB available memory on the node where the printing process lives
------------------
     ethr =  9.42E-04,  avg # of iterations =  6.8

     negative rho (up, down):  1.612E-02 0.000E+00

     total cpu time spent up to now is     2124.9 secs

     total energy              =  -29706.07603818 Ry
     estimated scf accuracy    <     112.27454491 Ry

     iteration #  5     ecut=    30.00 Ry     beta= 0.70
     Davidson diagonalization with overlap

---- Real-time Memory Report at c_bands before calling an iterative solver
           239 MiB given to the printing process from OS
             0 MiB allocation reported by mallinfo(arena+hblkhd)
          4505 MiB available memory on the node where the printing process lives
------------------
     ethr =  9.42E-04,  avg # of iterations =  6.8

     negative rho (up, down):  1.582E-02 0.000E+00

     total cpu time spent up to now is     2387.1 secs

     total energy              =  -29711.32039599 Ry
     estimated scf accuracy    <       7.34501710 Ry

     iteration #  6     ecut=    30.00 Ry     beta= 0.70
     Davidson diagonalization with overlap

---- Real-time Memory Report at c_bands before calling an iterative solver
           240 MiB given to the printing process from OS
             0 MiB allocation reported by mallinfo(arena+hblkhd)
          4536 MiB available memory on the node where the printing process lives
------------------
     ethr =  5.55E-04,  avg # of iterations =  2.8

     negative rho (up, down):  2.207E-02 0.000E+00

     total cpu time spent up to now is     2616.6 secs

     total energy              =  -29711.89649025 Ry
     estimated scf accuracy    <       0.29729756 Ry

     iteration #  7     ecut=    30.00 Ry     beta= 0.70
     Davidson diagonalization with overlap

---- Real-time Memory Report at c_bands before calling an iterative solver
           240 MiB given to the printing process from OS
             0 MiB allocation reported by mallinfo(arena+hblkhd)
          4707 MiB available memory on the node where the printing process lives
------------------
     ethr =  2.25E-05,  avg # of iterations = 11.5

     negative rho (up, down):  2.719E-02 0.000E+00

     total cpu time spent up to now is     2889.3 secs

     total energy              =  -29711.89337718 Ry
     estimated scf accuracy    <       0.14131443 Ry

     iteration #  8     ecut=    30.00 Ry     beta= 0.70
     Davidson diagonalization with overlap

---- Real-time Memory Report at c_bands before calling an iterative solver
           241 MiB given to the printing process from OS
             0 MiB allocation reported by mallinfo(arena+hblkhd)
          4700 MiB available memory on the node where the printing process lives
------------------
     ethr =  1.07E-05,  avg # of iterations =  7.2

     negative rho (up, down):  3.283E-02 0.000E+00

     total cpu time spent up to now is     3147.5 secs

     total energy              =  -29711.89983655 Ry
     estimated scf accuracy    <       0.11981900 Ry

     iteration #  9     ecut=    30.00 Ry     beta= 0.70
     Davidson diagonalization with overlap

---- Real-time Memory Report at c_bands before calling an iterative solver
           241 MiB given to the printing process from OS
             0 MiB allocation reported by mallinfo(arena+hblkhd)
          4710 MiB available memory on the node where the printing process lives
------------------
     ethr =  9.05E-06,  avg # of iterations =  3.0

     negative rho (up, down):  3.452E-02 0.000E+00

     total cpu time spent up to now is     3397.4 secs

     total energy              =  -29711.90995643 Ry
     estimated scf accuracy    <       0.04327262 Ry

     iteration # 10     ecut=    30.00 Ry     beta= 0.70
     Davidson diagonalization with overlap

---- Real-time Memory Report at c_bands before calling an iterative solver
           242 MiB given to the printing process from OS
             0 MiB allocation reported by mallinfo(arena+hblkhd)
          4611 MiB available memory on the node where the printing process lives
------------------
     ethr =  3.27E-06,  avg # of iterations =  6.0

     negative rho (up, down):  3.461E-02 0.000E+00

     total cpu time spent up to now is     3641.2 secs

     total energy              =  -29711.91258931 Ry
     estimated scf accuracy    <       0.02230322 Ry

     iteration # 11     ecut=    30.00 Ry     beta= 0.70
     Davidson diagonalization with overlap

---- Real-time Memory Report at c_bands before calling an iterative solver
           242 MiB given to the printing process from OS
             0 MiB allocation reported by mallinfo(arena+hblkhd)
          3689 MiB available memory on the node where the printing process lives
------------------
     ethr =  1.68E-06,  avg # of iterations =  6.2

     negative rho (up, down):  3.932E-02 0.000E+00

     total cpu time spent up to now is     3887.6 secs

     total energy              =  -29711.90526720 Ry
     estimated scf accuracy    <       0.01484280 Ry

     iteration # 12     ecut=    30.00 Ry     beta= 0.70
     Davidson diagonalization with overlap

---- Real-time Memory Report at c_bands before calling an iterative solver
           242 MiB given to the printing process from OS
             0 MiB allocation reported by mallinfo(arena+hblkhd)
         11507 MiB available memory on the node where the printing process lives
------------------
     c_bands:  4 eigenvalues not converged
     c_bands:  4 eigenvalues not converged
     c_bands:  3 eigenvalues not converged
     ethr =  1.12E-06,  avg # of iterations = 19.5

     negative rho (up, down):  3.649E-02 0.000E+00

     total cpu time spent up to now is     4206.6 secs

     total energy              =  -29711.90576018 Ry
     estimated scf accuracy    <       0.01090253 Ry

     iteration # 13     ecut=    30.00 Ry     beta= 0.70
     Davidson diagonalization with overlap

---- Real-time Memory Report at c_bands before calling an iterative solver
           242 MiB given to the printing process from OS
             0 MiB allocation reported by mallinfo(arena+hblkhd)
          9433 MiB available memory on the node where the printing process lives
------------------
     c_bands:  2 eigenvalues not converged
     ethr =  8.23E-07,  avg # of iterations =  9.5

     negative rho (up, down):  3.688E-02 0.000E+00

     total cpu time spent up to now is     4451.5 secs

     total energy              =  -29711.90253539 Ry
     estimated scf accuracy    <       0.01052026 Ry

     iteration # 14     ecut=    30.00 Ry     beta= 0.70
     Davidson diagonalization with overlap

---- Real-time Memory Report at c_bands before calling an iterative solver
           242 MiB given to the printing process from OS
             0 MiB allocation reported by mallinfo(arena+hblkhd)
          7802 MiB available memory on the node where the printing process lives
------------------
     c_bands:  1 eigenvalues not converged
     ethr =  7.95E-07,  avg # of iterations = 13.8

     negative rho (up, down):  3.600E-02 0.000E+00

     total cpu time spent up to now is     4737.2 secs

     total energy              =  -29711.89819985 Ry
     estimated scf accuracy    <       0.18628936 Ry

     iteration # 15     ecut=    30.00 Ry     beta= 0.70
     Davidson diagonalization with overlap

---- Real-time Memory Report at c_bands before calling an iterative solver
           242 MiB given to the printing process from OS
             0 MiB allocation reported by mallinfo(arena+hblkhd)
          3873 MiB available memory on the node where the printing process lives
------------------
     ethr =  7.95E-07,  avg # of iterations =  6.2

     negative rho (up, down):  3.559E-02 0.000E+00

     total cpu time spent up to now is     4981.2 secs

     total energy              =  -29711.90611373 Ry
     estimated scf accuracy    <       0.00043232 Ry

     iteration # 16     ecut=    30.00 Ry     beta= 0.70
     Davidson diagonalization with overlap

---- Real-time Memory Report at c_bands before calling an iterative solver
           242 MiB given to the printing process from OS
             0 MiB allocation reported by mallinfo(arena+hblkhd)
          3899 MiB available memory on the node where the printing process lives
------------------
     ethr =  3.27E-08,  avg # of iterations =  2.2

     negative rho (up, down):  3.542E-02 0.000E+00

     total cpu time spent up to now is     5229.3 secs

     total energy              =  -29711.90615924 Ry
     estimated scf accuracy    <       0.00030497 Ry

     iteration # 17     ecut=    30.00 Ry     beta= 0.70
     Davidson diagonalization with overlap

---- Real-time Memory Report at c_bands before calling an iterative solver
           242 MiB given to the printing process from OS
             0 MiB allocation reported by mallinfo(arena+hblkhd)
          7078 MiB available memory on the node where the printing process lives
------------------
     ethr =  2.30E-08,  avg # of iterations =  2.0

     negative rho (up, down):  3.523E-02 0.000E+00

     total cpu time spent up to now is     5407.0 secs

     total energy              =  -29711.90620410 Ry
     estimated scf accuracy    <       0.00003914 Ry

     iteration # 18     ecut=    30.00 Ry     beta= 0.70
     Davidson diagonalization with overlap

---- Real-time Memory Report at c_bands before calling an iterative solver
           242 MiB given to the printing process from OS
             0 MiB allocation reported by mallinfo(arena+hblkhd)
          5908 MiB available memory on the node where the printing process lives
------------------
     ethr =  2.96E-09,  avg # of iterations =  2.0

     negative rho (up, down):  3.518E-02 0.000E+00

     total cpu time spent up to now is     5586.8 secs

     total energy              =  -29711.90620599 Ry
     estimated scf accuracy    <       0.00002786 Ry

     iteration # 19     ecut=    30.00 Ry     beta= 0.70
     Davidson diagonalization with overlap

---- Real-time Memory Report at c_bands before calling an iterative solver
           242 MiB given to the printing process from OS
             0 MiB allocation reported by mallinfo(arena+hblkhd)
          4724 MiB available memory on the node where the printing process lives
------------------
     ethr =  2.10E-09,  avg # of iterations =  2.0

     negative rho (up, down):  3.514E-02 0.000E+00

     total cpu time spent up to now is     5771.1 secs

     total energy              =  -29711.90620983 Ry
     estimated scf accuracy    <       0.00000329 Ry

     iteration # 20     ecut=    30.00 Ry     beta= 0.70
     Davidson diagonalization with overlap

---- Real-time Memory Report at c_bands before calling an iterative solver
           242 MiB given to the printing process from OS
             0 MiB allocation reported by mallinfo(arena+hblkhd)
          3489 MiB available memory on the node where the printing process lives
------------------
     ethr =  2.49E-10,  avg # of iterations =  2.0

     negative rho (up, down):  3.513E-02 0.000E+00

     total cpu time spent up to now is     5964.8 secs

     total energy              =  -29711.90620999 Ry
     estimated scf accuracy    <       0.00000255 Ry

     iteration # 21     ecut=    30.00 Ry     beta= 0.70
     Davidson diagonalization with overlap

---- Real-time Memory Report at c_bands before calling an iterative solver
           242 MiB given to the printing process from OS
             0 MiB allocation reported by mallinfo(arena+hblkhd)
          3438 MiB available memory on the node where the printing process lives
------------------
     ethr =  1.93E-10,  avg # of iterations =  2.0

     negative rho (up, down):  3.510E-02 0.000E+00

     total cpu time spent up to now is     6156.5 secs

     total energy              =  -29711.90621037 Ry
     estimated scf accuracy    <       0.00000091 Ry

     iteration # 22     ecut=    30.00 Ry     beta= 0.70
     Davidson diagonalization with overlap

---- Real-time Memory Report at c_bands before calling an iterative solver
           242 MiB given to the printing process from OS
             0 MiB allocation reported by mallinfo(arena+hblkhd)
          7367 MiB available memory on the node where the printing process lives
------------------
     ethr =  6.89E-11,  avg # of iterations =  2.0

     negative rho (up, down):  3.510E-02 0.000E+00

     total cpu time spent up to now is     6351.1 secs

     End of self-consistent calculation

          k = 0.0000 0.0000 0.0000 ( 42115 PWs)   bands (ev):

  -123.0231-123.0161-123.0091-123.0058-123.0040-123.0031-123.0022-123.0014
  -123.0009-122.9999-122.9997-122.9994-122.9992-122.9988-122.9987-122.9984
  -122.9981-122.9979-122.9977-122.9975-122.9970-122.9965-122.9963-122.9958
  -122.9953-122.9952-122.9949-122.9947-122.9943-122.9941-122.9938-122.9934
  -122.9932-122.9931-122.9929-122.9928-122.9926-122.9924-122.9924-122.9924
  -122.9921-122.9920-122.9918-122.9916-122.9914-122.9913-122.9911-122.9908
  -122.9746-122.9722-122.9720-122.9715-122.9714-122.9710-122.9707-122.9707
  -122.9705-122.9702-122.9698-122.9696-122.9691-122.9689-122.9683-122.9677
   -77.1250 -77.1217 -77.1179 -77.1155 -77.1150 -77.1148 -77.1099 -77.1094
   -77.1093 -77.1078 -77.1071 -77.1069 -77.1057 -77.1056 -77.1055 -77.1050
   -77.1043 -77.1042 -77.1034 -77.1034 -77.1018 -77.1016 -77.0974 -77.0967
   -77.0966 -77.0965 -77.0963 -77.0961 -77.0959 -77.0949 -77.0940 -77.0930
   -77.0909 -77.0903 -77.0896 -77.0894 -77.0889 -77.0885 -77.0884 -77.0882
   -77.0880 -77.0874 -77.0873 -77.0871 -77.0864 -77.0863 -77.0858 -77.0857
   -77.0854 -77.0848 -77.0847 -77.0846 -77.0844 -77.0841 -77.0841 -77.0838
   -77.0834 -77.0831 -77.0829 -77.0827 -77.0826 -77.0824 -77.0823 -77.0819
   -77.0818 -77.0815 -77.0813 -77.0808 -77.0807 -77.0804 -77.0804 -77.0803
   -77.0803 -77.0800 -77.0798 -77.0797 -77.0796 -77.0794 -77.0794 -77.0793
   -77.0793 -77.0791 -77.0791 -77.0790 -77.0790 -77.0788 -77.0787 -77.0786
   -77.0784 -77.0784 -77.0784 -77.0783 -77.0782 -77.0781 -77.0780 -77.0779
   -77.0778 -77.0777 -77.0776 -77.0775 -77.0774 -77.0769 -77.0768 -77.0766
   -77.0764 -77.0759 -77.0756 -77.0748 -77.0743 -77.0739 -77.0734 -77.0734
   -77.0729 -77.0728 -77.0726 -77.0725 -77.0722 -77.0718 -77.0715 -77.0713
   -77.0711 -77.0709 -77.0708 -77.0706 -77.0704 -77.0703 -77.0701 -77.0699
   -77.0698 -77.0697 -77.0696 -77.0692 -77.0689 -77.0689 -77.0688 -77.0684
   -77.0671 -77.0668 -77.0666 -77.0664 -77.0663 -77.0660 -77.0660 -77.0659
   -77.0641 -77.0638 -77.0636 -77.0634 -77.0632 -77.0632 -77.0629 -77.0628
   -77.0624 -77.0556 -77.0556 -77.0552 -77.0551 -77.0548 -77.0547 -77.0527
   -77.0526 -77.0525 -77.0522 -77.0518 -77.0517 -77.0506 -77.0503 -77.0500
   -77.0497 -77.0497 -77.0493 -77.0493 -77.0490 -77.0488 -77.0487 -77.0486
   -77.0482 -77.0480 -77.0478 -77.0476 -77.0475 -77.0473 -77.0472 -77.0469
   -77.0464 -77.0463 -77.0462 -77.0460 -77.0458 -77.0455 -77.0454 -77.0451
   -15.5346 -14.1376 -13.3103 -10.9432 -10.8388  -7.8989  -7.6357  -6.7064
    -5.7500  -5.7321  -5.1528  -5.1390  -5.1073  -5.1004  -5.0981  -5.0980
    -5.0967  -5.0965  -5.0904  -4.9929  -4.7742  -4.7738  -4.7735  -4.7572
    -4.7571  -4.7568  -4.7063  -4.7057  -4.7049  -4.6684  -4.6679  -4.6673
    -4.6276  -4.6252  -4.6232  -4.6224  -4.6221  -4.6215  -4.5260  -4.5250
    -4.5246  -4.5239  -4.5238  -4.5234  -4.4988  -4.4985  -4.4982  -4.4864
    -4.4857  -4.4853  -4.4850  -4.4847  -4.4839  -4.4280  -4.4278  -4.4272
    -4.4269  -4.4265  -4.4262  -4.3787  -4.3781  -4.3779  -4.3777  -4.3771
    -4.3770  -4.3640  -4.3635  -4.3633  -4.3156  -4.3148  -4.3144  -4.3142
    -4.3134  -4.3134  -4.2443  -4.2429  -4.2408  -4.2331  -4.2329  -4.2324
    -4.2318  -4.2315  -4.2313  -4.2174  -4.2168  -4.2155  -4.2149  -4.2136
    -4.2133  -4.2107  -4.2089  -4.2084  -4.2074  -4.2064  -4.2058  -4.2055
    -4.1817  -4.1814  -4.1811  -4.1806  -4.1805  -4.1804  -4.1708  -4.1690
    -4.1672  -4.1671  -4.1664  -4.1662  -4.1361  -4.1360  -4.1357  -4.1355
    -4.1353  -4.1353  -4.0926  -4.0921  -4.0916  -4.0896  -4.0889  -4.0884
    -4.0603  -4.0599  -4.0593  -4.0417  -4.0252  -4.0246  -4.0244  -4.0242
    -4.0233  -4.0230  -4.0140  -4.0124  -4.0116  -4.0113  -4.0110  -4.0101
    -3.9803  -3.9802  -3.9673  -3.9672  -3.9484  -3.9484  -3.9306  -3.9283
    -3.9262  -3.9261  -3.9259  -3.9255  -3.9252  -3.9250  -3.9062  -3.9055
    -3.9044  -3.9043  -3.9036  -3.9029  -3.9025  -3.9005  -3.9004  -3.8996
    -3.8988  -3.8981  -3.8276  -3.8244  -3.8230  -3.8229  -3.8222  -3.8204
    -3.8076  -3.8065  -3.8061  -3.8058  -3.8036  -3.8029  -3.7987  -3.7980
    -3.7975  -3.7972  -3.7967  -3.7959  -3.7840  -3.7839  -3.7836  -3.7731
    -3.7730  -3.7728  -3.7725  -3.7724  -3.7723  -3.7419  -3.7400  -3.7381
    -3.7377  -3.7366  -3.7347  -3.7244  -3.7238  -3.7232  -3.7218  -3.7211
    -3.7207  -3.7032  -3.7028  -3.7026  -3.7023  -3.7021  -3.7019  -3.7010
    -3.6999  -3.6997  -3.6929  -3.6927  -3.6924  -3.6916  -3.6912  -3.6907
    -3.6632  -3.6626  -3.6623  -3.6619  -3.6617  -3.6609  -3.6125  -3.6106
    -3.6095  -3.6083  -3.6073  -3.6071  -3.6067  -3.6064  -3.6059  -3.6057
    -3.6050  -3.6048  -3.6038  -3.6029  -3.6027  -3.5656  -3.5647  -3.5638
    -3.5635  -3.5633  -3.5632  -3.5610  -3.5600  -3.5596  -3.5572  -3.5570
    -3.5569  -3.5478  -3.5470  -3.5469  -3.5460  -3.5457  -3.5452  -3.5343
    -3.5339  -3.5269  -3.5267  -3.5264  -3.5258  -3.5255  -3.5254  -3.5108
    -3.5106  -3.5105  -3.5098  -3.5086  -3.5076  -3.4906  -3.4906  -3.4903
    -3.4900  -3.4898  -3.4897  -3.4838  -3.4836  -3.4832  -3.4812  -3.4810
    -3.4805  -3.4405  -3.4398  -3.4175  -3.4173  -3.4172  -3.4164  -3.4161
    -3.4160  -3.3992  -3.3985  -3.3983  -3.3975  -3.3973  -3.3972  -3.3859
    -3.3853  -3.3617  -3.3615  -3.3614  -3.3577  -3.3576  -3.3574  -3.3416
    -3.3414  -3.3412  -3.3213  -3.3212  -3.3210  -3.3207  -3.3204  -3.3204
    -3.3106  -3.3102  -3.2715  -3.2713  -3.2711  -3.2707  -3.2707  -3.2704
    -3.2150  -3.2150  -3.2147  -3.2146  -3.2144  -3.2143  -3.1762  -3.1354
    -3.1352  -3.1350  -3.1334  -3.1326  -3.1316  -3.1175  -3.1174  -3.1173
    -3.1047  -3.1046  -3.1046  -3.0860  -3.0071  -2.9260  -2.9235  -2.9211
    -2.9200  -2.9179  -2.9176  -2.6025  -2.0860  -1.7983  -1.6329  -1.6315
    -1.6311  -1.6291  -1.6285  -1.6255  -0.9510  -0.8878  -0.7248  -0.1808
    -0.1803  -0.1784  -0.1779  -0.1767  -0.1766  -0.0854   0.3233   0.5127
     0.5423   0.5435   0.5446   0.5455   0.5459   0.5769   0.7794   0.7803
     0.7839   0.7848   0.7857   0.7872   1.1024   1.1031   1.1043   1.1395
     1.2648   1.7205   1.7250   1.7259   2.0745   2.0754   2.0759   2.0763
     2.0764   2.0771   2.0913   2.0919   2.0941   2.3237   2.3245   2.3289
     2.6121   3.4473   3.4501   3.4626   3.4668   3.4684   3.4709   4.0475
     4.0487   4.0490   4.0514   4.0539   4.0561   4.3634   4.4131   4.4224
     4.4230   4.7131   4.7138   4.7184   5.7994   5.8013   5.8030   6.0839
     6.1001   6.1451   6.1489   6.1703   6.1900   6.2550   6.2675   6.4175
     6.6142   6.6180   6.6182   6.9215   7.1287   7.3058   7.3202   7.3206
     7.3239   7.3276   7.3337   7.3764   7.3768   7.3785   7.3796   7.3800
     7.3801   7.5358   7.5366   7.5378   7.5382   7.5394   7.5402   7.7098
     7.8485   7.8976   7.9986   8.0682   8.1460   8.1816   8.4070   8.4071
     8.4095   8.4128   8.4136   8.4150   8.4649   8.4751   8.4805   8.5023
     8.5035   8.5053   8.5077   8.5086   8.5093   8.5129   8.5887   8.6544
     8.6692   8.7557   8.7756   8.8342   8.8468   8.8529   8.9118   8.9943
     9.0333   9.2042   9.2703   9.4482   9.4829   9.5590   9.5662   9.5752
     9.5802   9.6029   9.7909   9.7992   9.8016   9.8032   9.8051   9.8068
     9.8799   9.8893   9.8935   9.8966   9.8991   9.9082  10.0552  10.1011
    10.1169  10.1437  10.3036  10.3278  10.4208  10.4426  10.4665  10.5257
    10.5683  10.7223  10.7437  10.7662  10.8586  11.0264  11.0339  11.1619
    11.1997  11.2053  11.2121  11.2138  11.2174  11.2583  11.3185  11.4187
    11.4497  11.5424

     occupation numbers 
     1.0000   1.0000   1.0000   1.0000   1.0000   1.0000   1.0000   1.0000
     1.0000   1.0000   1.0000   1.0000   1.0000   1.0000   1.0000   1.0000
     1.0000   1.0000   1.0000   1.0000   1.0000   1.0000   1.0000   1.0000
     1.0000   1.0000   1.0000   1.0000   1.0000   1.0000   1.0000   1.0000
     1.0000   1.0000   1.0000   1.0000   1.0000   1.0000   1.0000   1.0000
     1.0000   1.0000   1.0000   1.0000   1.0000   1.0000   1.0000   1.0000
     1.0000   1.0000   1.0000   1.0000   1.0000   1.0000   1.0000   1.0000
     1.0000   1.0000   1.0000   1.0000   1.0000   1.0000   1.0000   1.0000
     1.0000   1.0000   1.0000   1.0000   1.0000   1.0000   1.0000   1.0000
     1.0000   1.0000   1.0000   1.0000   1.0000   1.0000   1.0000   1.0000
     1.0000   1.0000   1.0000   1.0000   1.0000   1.0000   1.0000   1.0000
     1.0000   1.0000   1.0000   1.0000   1.0000   1.0000   1.0000   1.0000
     1.0000   1.0000   1.0000   1.0000   1.0000   1.0000   1.0000   1.0000
     1.0000   1.0000   1.0000   1.0000   1.0000   1.0000   1.0000   1.0000
     1.0000   1.0000   1.0000   1.0000   1.0000   1.0000   1.0000   1.0000
     1.0000   1.0000   1.0000   1.0000   1.0000   1.0000   1.0000   1.0000
     1.0000   1.0000   1.0000   1.0000   1.0000   1.0000   1.0000   1.0000
     1.0000   1.0000   1.0000   1.0000   1.0000   1.0000   1.0000   1.0000
     1.0000   1.0000   1.0000   1.0000   1.0000   1.0000   1.0000   1.0000
     1.0000   1.0000   1.0000   1.0000   1.0000   1.0000   1.0000   1.0000
     1.0000   1.0000   1.0000   1.0000   1.0000   1.0000   1.0000   1.0000
     1.0000   1.0000   1.0000   1.0000   1.0000   1.0000   1.0000   1.0000
     1.0000   1.0000   1.0000   1.0000   1.0000   1.0000   1.0000   1.0000
     1.0000   1.0000   1.0000   1.0000   1.0000   1.0000   1.0000   1.0000
     1.0000   1.0000   1.0000   1.0000   1.0000   1.0000   1.0000   1.0000
     1.0000   1.0000   1.0000   1.0000   1.0000   1.0000   1.0000   1.0000
     1.0000   1.0000   1.0000   1.0000   1.0000   1.0000   1.0000   1.0000
     1.0000   1.0000   1.0000   1.0000   1.0000   1.0000   1.0000   1.0000
     1.0000   1.0000   1.0000   1.0000   1.0000   1.0000   1.0000   1.0000
     1.0000   1.0000   1.0000   1.0000   1.0000   1.0000   1.0000   1.0000
     1.0000   1.0000   1.0000   1.0000   1.0000   1.0000   1.0000   1.0000
     1.0000   1.0000   1.0000   1.0000   1.0000   1.0000   1.0000   1.0000
     1.0000   1.0000   1.0000   1.0000   1.0000   1.0000   1.0000   1.0000
     1.0000   1.0000   1.0000   1.0000   1.0000   1.0000   1.0000   1.0000
     1.0000   1.0000   1.0000   1.0000   1.0000   1.0000   1.0000   1.0000
     1.0000   1.0000   1.0000   1.0000   1.0000   1.0000   1.0000   1.0000
     1.0000   1.0000   1.0000   1.0000   1.0000   1.0000   1.0000   1.0000
     1.0000   1.0000   1.0000   1.0000   1.0000   1.0000   1.0000   1.0000
     1.0000   1.0000   1.0000   1.0000   1.0000   1.0000   1.0000   1.0000
     1.0000   1.0000   1.0000   1.0000   1.0000   1.0000   1.0000   1.0000
     1.0000   1.0000   1.0000   1.0000   1.0000   1.0000   1.0000   1.0000
     1.0000   1.0000   1.0000   1.0000   1.0000   1.0000   1.0000   1.0000
     1.0000   1.0000   1.0000   1.0000   1.0000   1.0000   1.0000   1.0000
     1.0000   1.0000   1.0000   1.0000   1.0000   1.0000   1.0000   1.0000
     1.0000   1.0000   1.0000   1.0000   1.0000   1.0000   1.0000   1.0000
     1.0000   1.0000   1.0000   1.0000   1.0000   1.0000   1.0000   1.0000
     1.0000   1.0000   1.0000   1.0000   1.0000   1.0000   1.0000   1.0000
     1.0000   1.0000   1.0000   1.0000   1.0000   1.0000   1.0000   1.0000
     1.0000   1.0000   1.0000   1.0000   1.0000   1.0000   1.0000   1.0000
     1.0000   1.0000   1.0000   1.0000   1.0000   1.0000   1.0000   1.0000
     1.0000   1.0000   1.0000   1.0000   1.0000   1.0000   1.0000   1.0000
     1.0000   1.0000   1.0000   1.0000   1.0000   1.0000   1.0000   1.0000
     1.0000   1.0000   1.0000   1.0000   1.0000   1.0000   1.0000   1.0000
     1.0000   1.0000   1.0000   1.0000   1.0000   1.0000   1.0000   1.0000
     1.0000   1.0000   1.0000   1.0000   1.0000   1.0000   1.0000   1.0000
     1.0000   1.0000   1.0000   1.0000   1.0000   1.0000   1.0000   1.0000
     1.0000   1.0000   1.0000   1.0000   1.0000   1.0000   1.0000   1.0000
     1.0000   1.0000   1.0000   1.0000   1.0000   1.0000   1.0000   1.0000
     1.0000   1.0000   1.0000   1.0000   1.0000   1.0000   1.0000   1.0000
     1.0000   1.0000   1.0000   1.0000   1.0000   1.0000   1.0000   1.0000
     1.0000   1.0000   1.0000   1.0000   1.0000   1.0000   1.0000   1.0000
     1.0000   1.0000   1.0000   1.0000   1.0000   1.0000   1.0000   1.0000
     1.0000   1.0000   1.0000   1.0000   1.0000   1.0000   1.0000   1.0000
     1.0000   1.0000   1.0000   1.0000   1.0000   1.0000   1.0000   1.0000
     1.0000   1.0000   1.0000   1.0000   1.0000   1.0000   1.0000   1.0000
     1.0000   1.0000   1.0000   1.0000   1.0000   1.0000   1.0000   1.0000
     1.0000   1.0000   1.0000   1.0000   1.0000   1.0000   1.0000   1.0000
     1.0000   1.0000   1.0000   1.0000   1.0000   1.0000   1.0000   1.0000
     1.0000   1.0000   1.0000   1.0000   1.0000   1.0000   1.0000   1.0000
     1.0000   1.0000   1.0000   1.0000   1.0000   1.0000   1.0000   1.0000
     1.0000   1.0000   1.0000   1.0000   1.0000   1.0000   1.0000   1.0000
     1.0000   1.0000   1.0000   1.0000   1.0000   1.0000   1.0000   1.0000
     1.0000   1.0000   1.0000   1.0000   1.0000   1.0000   1.0000   1.0000
     1.0000   1.0000   1.0000   1.0000   1.0000   1.0000   1.0000   1.0000
     1.0000   1.0000   1.0000   1.0000   1.0000   1.0000   1.0000   1.0000
     1.0000   1.0000   1.0000   1.0000   1.0000   1.0000   1.0000   1.0000
     1.0000   1.0000   1.0000   1.0000   1.0000   1.0000   1.0000   1.0000
     1.0000   1.0000   1.0000   1.0000   1.0000   1.0000   1.0000   1.0000
     1.0000   1.0000   1.0000   1.0000   1.0000   1.0000   1.0000   1.0000
     1.0000   1.0000   1.0000   1.0000   1.0000   1.0000   1.0000   1.0000
     1.0000   1.0000   1.0000   1.0000   1.0000   1.0000   1.0000   1.0000
     1.0000   1.0000   1.0000   1.0000   1.0000   1.0000   1.0000   1.0000
     1.0000   1.0427   1.0401   1.0271   1.0223   1.0205   1.0175   0.0171
     0.0168   0.0168   0.0162   0.0156   0.0151   0.0001   0.0000   0.0000
     0.0000   0.0000   0.0000   0.0000   0.0000   0.0000   0.0000   0.0000
     0.0000   0.0000   0.0000   0.0000   0.0000   0.0000   0.0000   0.0000
     0.0000   0.0000   0.0000   0.0000   0.0000   0.0000   0.0000   0.0000
     0.0000   0.0000   0.0000   0.0000   0.0000   0.0000   0.0000   0.0000
     0.0000   0.0000   0.0000   0.0000   0.0000   0.0000   0.0000   0.0000
     0.0000   0.0000   0.0000   0.0000   0.0000   0.0000   0.0000   0.0000
     0.0000   0.0000   0.0000   0.0000   0.0000   0.0000   0.0000   0.0000
     0.0000   0.0000   0.0000   0.0000   0.0000   0.0000   0.0000   0.0000
     0.0000   0.0000   0.0000   0.0000   0.0000   0.0000   0.0000   0.0000
     0.0000   0.0000   0.0000   0.0000   0.0000   0.0000   0.0000   0.0000
     0.0000   0.0000   0.0000   0.0000   0.0000   0.0000   0.0000   0.0000
     0.0000   0.0000   0.0000   0.0000   0.0000   0.0000   0.0000   0.0000
     0.0000   0.0000   0.0000   0.0000   0.0000   0.0000   0.0000   0.0000
     0.0000   0.0000   0.0000   0.0000   0.0000   0.0000   0.0000   0.0000
     0.0000   0.0000   0.0000   0.0000   0.0000   0.0000   0.0000   0.0000
     0.0000   0.0000

          k = 0.0000-0.5774 0.0000 ( 42168 PWs)   bands (ev):

  -123.0233-123.0163-123.0089-123.0054-123.0037-123.0034-123.0024-123.0011
  -123.0006-123.0002-122.9998-122.9995-122.9993-122.9989-122.9988-122.9986
  -122.9985-122.9982-122.9982-122.9976-122.9974-122.9967-122.9964-122.9962
  -122.9957-122.9955-122.9952-122.9949-122.9948-122.9943-122.9941-122.9937
  -122.9934-122.9933-122.9932-122.9930-122.9929-122.9927-122.9926-122.9925
  -122.9923-122.9922-122.9921-122.9920-122.9919-122.9918-122.9917-122.9916
  -122.9733-122.9728-122.9723-122.9718-122.9716-122.9714-122.9711-122.9709
  -122.9709-122.9706-122.9702-122.9698-122.9694-122.9692-122.9686-122.9681
   -77.1232 -77.1207 -77.1163 -77.1135 -77.1127 -77.1118 -77.1105 -77.1099
   -77.1095 -77.1080 -77.1073 -77.1071 -77.1064 -77.1056 -77.1039 -77.1030
   -77.1026 -77.1018 -77.1011 -77.1002 -77.1000 -77.0990 -77.0988 -77.0977
   -77.0976 -77.0974 -77.0970 -77.0962 -77.0961 -77.0944 -77.0940 -77.0936
   -77.0934 -77.0931 -77.0930 -77.0926 -77.0923 -77.0918 -77.0916 -77.0915
   -77.0906 -77.0903 -77.0894 -77.0891 -77.0889 -77.0884 -77.0879 -77.0877
   -77.0869 -77.0865 -77.0862 -77.0860 -77.0854 -77.0850 -77.0848 -77.0847
   -77.0846 -77.0845 -77.0845 -77.0844 -77.0842 -77.0840 -77.0838 -77.0836
   -77.0836 -77.0835 -77.0833 -77.0832 -77.0829 -77.0827 -77.0826 -77.0823
   -77.0821 -77.0818 -77.0817 -77.0815 -77.0814 -77.0813 -77.0811 -77.0808
   -77.0808 -77.0807 -77.0805 -77.0802 -77.0797 -77.0796 -77.0791 -77.0788
   -77.0786 -77.0785 -77.0783 -77.0782 -77.0782 -77.0778 -77.0777 -77.0776
   -77.0773 -77.0771 -77.0770 -77.0767 -77.0764 -77.0763 -77.0760 -77.0757
   -77.0755 -77.0755 -77.0754 -77.0751 -77.0751 -77.0750 -77.0748 -77.0746
   -77.0746 -77.0744 -77.0740 -77.0738 -77.0734 -77.0732 -77.0730 -77.0729
   -77.0722 -77.0720 -77.0718 -77.0713 -77.0711 -77.0707 -77.0705 -77.0703
   -77.0702 -77.0700 -77.0698 -77.0695 -77.0693 -77.0691 -77.0689 -77.0685
   -77.0671 -77.0671 -77.0670 -77.0669 -77.0658 -77.0657 -77.0656 -77.0656
   -77.0653 -77.0652 -77.0652 -77.0651 -77.0647 -77.0643 -77.0633 -77.0628
   -77.0624 -77.0623 -77.0620 -77.0617 -77.0601 -77.0599 -77.0578 -77.0577
   -77.0572 -77.0571 -77.0519 -77.0515 -77.0513 -77.0510 -77.0506 -77.0505
   -77.0496 -77.0495 -77.0494 -77.0493 -77.0492 -77.0490 -77.0490 -77.0488
   -77.0486 -77.0485 -77.0479 -77.0477 -77.0468 -77.0465 -77.0459 -77.0457
   -77.0455 -77.0454 -77.0453 -77.0451 -77.0446 -77.0442 -77.0423 -77.0416
   -15.5347 -14.1377 -13.3104 -10.9433 -10.8388  -7.8989  -7.6361  -6.2391
    -6.2358  -5.7323  -5.3875  -5.3847  -5.3239  -5.3187  -5.1385  -5.0966
    -4.8417  -4.8410  -4.7762  -4.7752  -4.7457  -4.7452  -4.6812  -4.6810
    -4.6571  -4.6528  -4.6325  -4.6323  -4.6316  -4.6314  -4.6307  -4.6287
    -4.6019  -4.6018  -4.6008  -4.6007  -4.5980  -4.5964  -4.5882  -4.5879
    -4.5874  -4.5872  -4.5744  -4.5738  -4.5719  -4.5716  -4.5121  -4.5119
    -4.5097  -4.5094  -4.4798  -4.4785  -4.4696  -4.4693  -4.4688  -4.4688
    -4.4446  -4.4444  -4.4432  -4.4431  -4.4215  -4.4203  -4.4196  -4.4180
    -4.4107  -4.4100  -4.4019  -4.4017  -4.4012  -4.4008  -4.3786  -4.3781
    -4.3761  -4.3756  -4.3500  -4.3489  -4.3245  -4.3233  -4.3136  -4.3116
    -4.2963  -4.2954  -4.2944  -4.2933  -4.2704  -4.2702  -4.2701  -4.2701
    -4.2439  -4.2436  -4.2419  -4.2415  -4.2146  -4.2110  -4.2054  -4.2048
    -4.2017  -4.2013  -4.1940  -4.1908  -4.1901  -4.1900  -4.1863  -4.1856
    -4.1674  -4.1672  -4.1605  -4.1587  -4.1436  -4.1432  -4.1418  -4.1412
    -4.1376  -4.1365  -4.1353  -4.1342  -4.1172  -4.1159  -4.0933  -4.0917
    -4.0879  -4.0874  -4.0390  -4.0386  -4.0312  -4.0308  -4.0300  -4.0295
    -4.0288  -4.0283  -4.0192  -4.0186  -4.0122  -4.0110  -4.0051  -4.0025
    -3.9960  -3.9940  -3.9907  -3.9895  -3.9877  -3.9871  -3.9821  -3.9810
    -3.9804  -3.9795  -3.9778  -3.9771  -3.9484  -3.9476  -3.9321  -3.9315
    -3.9304  -3.9300  -3.9211  -3.9174  -3.8884  -3.8869  -3.8844  -3.8836
    -3.8668  -3.8661  -3.8520  -3.8503  -3.8424  -3.8415  -3.8405  -3.8399
    -3.8307  -3.8287  -3.8276  -3.8264  -3.8079  -3.8073  -3.7868  -3.7863
    -3.7861  -3.7857  -3.7769  -3.7768  -3.7764  -3.7760  -3.7711  -3.7685
    -3.7674  -3.7658  -3.7575  -3.7557  -3.7485  -3.7475  -3.7345  -3.7339
    -3.7236  -3.7232  -3.7211  -3.7206  -3.7134  -3.7132  -3.7128  -3.7125
    -3.7101  -3.7096  -3.7040  -3.7017  -3.6983  -3.6981  -3.6477  -3.6474
    -3.6460  -3.6440  -3.6430  -3.6426  -3.6422  -3.6417  -3.6390  -3.6388
    -3.6385  -3.6379  -3.6239  -3.6227  -3.6119  -3.6107  -3.6103  -3.6086
    -3.6058  -3.6041  -3.5996  -3.5992  -3.5986  -3.5980  -3.5944  -3.5937
    -3.5877  -3.5853  -3.5829  -3.5802  -3.5696  -3.5682  -3.5665  -3.5660
    -3.5655  -3.5651  -3.5383  -3.5363  -3.5339  -3.5338  -3.5330  -3.5327
    -3.5263  -3.5259  -3.5253  -3.5245  -3.5166  -3.5161  -3.4990  -3.4976
    -3.4684  -3.4673  -3.4664  -3.4660  -3.4630  -3.4625  -3.4623  -3.4598
    -3.4592  -3.4589  -3.4585  -3.4581  -3.4416  -3.4411  -3.4325  -3.4319
    -3.4316  -3.4314  -3.4211  -3.4210  -3.4155  -3.4151  -3.4122  -3.4120
    -3.4119  -3.4119  -3.4019  -3.4017  -3.4014  -3.4013  -3.3986  -3.3977
    -3.3970  -3.3968  -3.3959  -3.3956  -3.3923  -3.3914  -3.3611  -3.3606
    -3.3591  -3.3587  -3.3482  -3.3482  -3.3413  -3.3412  -3.3410  -3.3408
    -3.3284  -3.3280  -3.3259  -3.3258  -3.3132  -3.3129  -3.3127  -3.3124
    -3.3015  -3.3015  -3.3013  -3.3011  -3.2892  -3.2891  -3.2891  -3.2890
    -3.2617  -3.2591  -3.2541  -3.2530  -3.2493  -3.2488  -3.2480  -3.2476
    -3.2388  -3.2382  -3.2280  -3.2275  -3.1996  -3.1992  -3.1989  -3.1986
    -3.1161  -3.1157  -3.0840  -3.0059  -2.6907  -2.6899  -2.6034  -2.4597
    -2.4594  -2.4582  -2.4581  -2.0872  -1.9909  -1.9879  -1.7970  -1.7958
    -1.7920  -1.6308  -1.6296  -1.6272  -1.6268  -0.8911  -0.8270  -0.8258
    -0.7266  -0.5848  -0.5829  -0.3100  -0.3094  -0.3083  -0.3074  -0.0855
     0.1631   0.1654   0.1672   0.1679   0.1701   0.1707   0.3228   0.5080
     0.5099   0.5489   1.1157   1.1159   1.1208   1.1208   1.2638   1.7671
     1.7741   1.8015   1.8017   1.8047   1.8056   2.3328   2.3344   2.3362
     2.3365   2.5435   2.5491   2.6178   2.9237   2.9313   2.9801   2.9827
     3.1825   3.1846   3.5713   3.5720   3.5724   3.5733   3.9465   3.9505
     4.0424   4.0490   4.8118   4.8167   4.9856   4.9884   4.9929   4.9976
     5.1210   5.1236   5.1250   5.1283   5.4283   5.4289   5.4313   5.4317
     5.6297   5.6313   5.7116   5.7151   5.7580   5.7591   5.8921   5.9004
     6.1880   6.2096   6.2107   6.3855   6.5161   6.5176   6.5196   6.5215
     6.6222   6.7717   6.8082   6.8104   7.1419   7.1440   7.2779   7.2807
     7.3282   7.4030   7.4478   7.4626   7.4752   7.4925   7.5396   7.6006
     7.6231   7.7112   7.8378   7.8412   7.8558   7.8577   7.9147   7.9187
     7.9844   8.0108   8.0142   8.2257   8.2427   8.2851   8.3190   8.4122
     8.4297   8.4357   8.4379   8.4422   8.5187   8.5276   8.5455   8.8060
     8.8922   8.8954   8.8977   8.9038   8.9670   9.0608   9.1173   9.1945
     9.2197   9.2829   9.2835   9.4077   9.4823   9.5704   9.6678   9.8144
     9.8207   9.8821   9.9068   9.9320   9.9552   9.9680  10.0012  10.0439
    10.0891  10.1104  10.1840  10.1991  10.2538  10.2952  10.3224  10.3455
    10.3513  10.3764  10.3832  10.4026  10.4381  10.5474  10.6861  10.7713
    10.9967  11.0252  11.0833  11.1390  11.1786  11.1882  11.2037  11.2610
    11.2678  11.2873  11.2927  11.2973  11.3405  11.3824  11.3830  11.3869
    11.3884  11.4280

     occupation numbers 
     1.0000   1.0000   1.0000   1.0000   1.0000   1.0000   1.0000   1.0000
     1.0000   1.0000   1.0000   1.0000   1.0000   1.0000   1.0000   1.0000
     1.0000   1.0000   1.0000   1.0000   1.0000   1.0000   1.0000   1.0000
     1.0000   1.0000   1.0000   1.0000   1.0000   1.0000   1.0000   1.0000
     1.0000   1.0000   1.0000   1.0000   1.0000   1.0000   1.0000   1.0000
     1.0000   1.0000   1.0000   1.0000   1.0000   1.0000   1.0000   1.0000
     1.0000   1.0000   1.0000   1.0000   1.0000   1.0000   1.0000   1.0000
     1.0000   1.0000   1.0000   1.0000   1.0000   1.0000   1.0000   1.0000
     1.0000   1.0000   1.0000   1.0000   1.0000   1.0000   1.0000   1.0000
     1.0000   1.0000   1.0000   1.0000   1.0000   1.0000   1.0000   1.0000
     1.0000   1.0000   1.0000   1.0000   1.0000   1.0000   1.0000   1.0000
     1.0000   1.0000   1.0000   1.0000   1.0000   1.0000   1.0000   1.0000
     1.0000   1.0000   1.0000   1.0000   1.0000   1.0000   1.0000   1.0000
     1.0000   1.0000   1.0000   1.0000   1.0000   1.0000   1.0000   1.0000
     1.0000   1.0000   1.0000   1.0000   1.0000   1.0000   1.0000   1.0000
     1.0000   1.0000   1.0000   1.0000   1.0000   1.0000   1.0000   1.0000
     1.0000   1.0000   1.0000   1.0000   1.0000   1.0000   1.0000   1.0000
     1.0000   1.0000   1.0000   1.0000   1.0000   1.0000   1.0000   1.0000
     1.0000   1.0000   1.0000   1.0000   1.0000   1.0000   1.0000   1.0000
     1.0000   1.0000   1.0000   1.0000   1.0000   1.0000   1.0000   1.0000
     1.0000   1.0000   1.0000   1.0000   1.0000   1.0000   1.0000   1.0000
     1.0000   1.0000   1.0000   1.0000   1.0000   1.0000   1.0000   1.0000
     1.0000   1.0000   1.0000   1.0000   1.0000   1.0000   1.0000   1.0000
     1.0000   1.0000   1.0000   1.0000   1.0000   1.0000   1.0000   1.0000
     1.0000   1.0000   1.0000   1.0000   1.0000   1.0000   1.0000   1.0000
     1.0000   1.0000   1.0000   1.0000   1.0000   1.0000   1.0000   1.0000
     1.0000   1.0000   1.0000   1.0000   1.0000   1.0000   1.0000   1.0000
     1.0000   1.0000   1.0000   1.0000   1.0000   1.0000   1.0000   1.0000
     1.0000   1.0000   1.0000   1.0000   1.0000   1.0000   1.0000   1.0000
     1.0000   1.0000   1.0000   1.0000   1.0000   1.0000   1.0000   1.0000
     1.0000   1.0000   1.0000   1.0000   1.0000   1.0000   1.0000   1.0000
     1.0000   1.0000   1.0000   1.0000   1.0000   1.0000   1.0000   1.0000
     1.0000   1.0000   1.0000   1.0000   1.0000   1.0000   1.0000   1.0000
     1.0000   1.0000   1.0000   1.0000   1.0000   1.0000   1.0000   1.0000
     1.0000   1.0000   1.0000   1.0000   1.0000   1.0000   1.0000   1.0000
     1.0000   1.0000   1.0000   1.0000   1.0000   1.0000   1.0000   1.0000
     1.0000   1.0000   1.0000   1.0000   1.0000   1.0000   1.0000   1.0000
     1.0000   1.0000   1.0000   1.0000   1.0000   1.0000   1.0000   1.0000
     1.0000   1.0000   1.0000   1.0000   1.0000   1.0000   1.0000   1.0000
     1.0000   1.0000   1.0000   1.0000   1.0000   1.0000   1.0000   1.0000
     1.0000   1.0000   1.0000   1.0000   1.0000   1.0000   1.0000   1.0000
     1.0000   1.0000   1.0000   1.0000   1.0000   1.0000   1.0000   1.0000
     1.0000   1.0000   1.0000   1.0000   1.0000   1.0000   1.0000   1.0000
     1.0000   1.0000   1.0000   1.0000   1.0000   1.0000   1.0000   1.0000
     1.0000   1.0000   1.0000   1.0000   1.0000   1.0000   1.0000   1.0000
     1.0000   1.0000   1.0000   1.0000   1.0000   1.0000   1.0000   1.0000
     1.0000   1.0000   1.0000   1.0000   1.0000   1.0000   1.0000   1.0000
     1.0000   1.0000   1.0000   1.0000   1.0000   1.0000   1.0000   1.0000
     1.0000   1.0000   1.0000   1.0000   1.0000   1.0000   1.0000   1.0000
     1.0000   1.0000   1.0000   1.0000   1.0000   1.0000   1.0000   1.0000
     1.0000   1.0000   1.0000   1.0000   1.0000   1.0000   1.0000   1.0000
     1.0000   1.0000   1.0000   1.0000   1.0000   1.0000   1.0000   1.0000
     1.0000   1.0000   1.0000   1.0000   1.0000   1.0000   1.0000   1.0000
     1.0000   1.0000   1.0000   1.0000   1.0000   1.0000   1.0000   1.0000
     1.0000   1.0000   1.0000   1.0000   1.0000   1.0000   1.0000   1.0000
     1.0000   1.0000   1.0000   1.0000   1.0000   1.0000   1.0000   1.0000
     1.0000   1.0000   1.0000   1.0000   1.0000   1.0000   1.0000   1.0000
     1.0000   1.0000   1.0000   1.0000   1.0000   1.0000   1.0000   1.0000
     1.0000   1.0000   1.0000   1.0000   1.0000   1.0000   1.0000   1.0000
     1.0000   1.0000   1.0000   1.0000   1.0000   1.0000   1.0000   1.0000
     1.0000   1.0000   1.0000   1.0000   1.0000   1.0000   1.0000   1.0000
     1.0000   1.0000   1.0000   1.0000   1.0000   1.0000   1.0000   1.0000
     1.0000   1.0000   1.0000   1.0000   1.0000   1.0000   1.0000   1.0000
     1.0000   1.0000   1.0000   1.0000   1.0000   1.0000   1.0000   1.0000
     1.0000   1.0000   1.0000   1.0000   1.0000   1.0000   1.0000   1.0000
     1.0000   1.0000   1.0000   1.0000   1.0000   1.0000   1.0000   1.0000
     1.0000   1.0000   1.0000   1.0000   1.0000   1.0000   1.0000   1.0000
     1.0000   1.0000   1.0000   1.0000   1.0000   1.0000   1.0000   1.0000
     1.0000   1.0000   1.0000   1.0000   1.0000   1.0000   1.0000   1.0000
     1.0000   1.0000   1.0000   1.0000   1.0000   1.0000   1.0000   1.0000
     1.0000   1.0000   1.0000   1.0000   1.0000   1.0000   1.0000   1.0000
     1.0000   1.0000   1.0000   1.0000   1.0000   1.0000   1.0000   1.0000
     1.0000   1.0000   1.0000   1.0000   1.0000   1.0000   1.0000   1.0000
     1.0000   1.0000   1.0000   1.0000   1.0000   1.0000   1.0000   1.0000
     1.0000   1.0000   1.0000   1.0000   1.0000   1.0000   1.0000   1.0000
     1.0000   1.0000   1.0000   1.0000   1.0000   1.0000   1.0000   1.0000
     1.0000   1.0000   1.0000   1.0000   1.0000   1.0000   1.0000   1.0000
     1.0000   1.0000   1.0000   1.0000   1.0000   1.0000   1.0000   1.0000
     1.0000   1.0000   1.0000   1.0000   1.0000   1.0000   1.0000   1.0000
     1.0000   1.0000   1.0000   1.0000   1.0000   1.0000   1.0000   1.0000
     1.0000   1.0000   1.0000   1.0000   1.0000   1.0000   1.0000   1.0000
     1.0000   1.0000   1.0000   1.0000   1.0016   1.0018   1.0038   1.0040
     1.0386   1.0392   0.8352   0.8337   0.8326   0.8306   0.0620   0.0592
     0.0184   0.0168   0.0000   0.0000   0.0000   0.0000   0.0000   0.0000
     0.0000   0.0000   0.0000   0.0000   0.0000   0.0000   0.0000   0.0000
     0.0000   0.0000   0.0000   0.0000   0.0000   0.0000   0.0000   0.0000
     0.0000   0.0000   0.0000   0.0000   0.0000   0.0000   0.0000   0.0000
     0.0000   0.0000   0.0000   0.0000   0.0000   0.0000   0.0000   0.0000
     0.0000   0.0000   0.0000   0.0000   0.0000   0.0000   0.0000   0.0000
     0.0000   0.0000   0.0000   0.0000   0.0000   0.0000   0.0000   0.0000
     0.0000   0.0000   0.0000   0.0000   0.0000   0.0000   0.0000   0.0000
     0.0000   0.0000   0.0000   0.0000   0.0000   0.0000   0.0000   0.0000
     0.0000   0.0000   0.0000   0.0000   0.0000   0.0000   0.0000   0.0000
     0.0000   0.0000   0.0000   0.0000   0.0000   0.0000   0.0000   0.0000
     0.0000   0.0000   0.0000   0.0000   0.0000   0.0000   0.0000   0.0000
     0.0000   0.0000   0.0000   0.0000   0.0000   0.0000   0.0000   0.0000
     0.0000   0.0000   0.0000   0.0000   0.0000   0.0000   0.0000   0.0000
     0.0000   0.0000   0.0000   0.0000   0.0000   0.0000   0.0000   0.0000
     0.0000   0.0000   0.0000   0.0000   0.0000   0.0000   0.0000   0.0000
     0.0000   0.0000

          k =-0.5000-0.2887 0.0000 ( 42168 PWs)   bands (ev):

  -123.0233-123.0163-123.0089-123.0054-123.0038-123.0034-123.0024-123.0011
  -123.0008-123.0001-123.0000-122.9995-122.9993-122.9989-122.9988-122.9985
  -122.9984-122.9983-122.9982-122.9976-122.9975-122.9966-122.9964-122.9963
  -122.9958-122.9954-122.9952-122.9949-122.9946-122.9944-122.9941-122.9935
  -122.9935-122.9933-122.9933-122.9930-122.9928-122.9927-122.9925-122.9925
  -122.9924-122.9922-122.9921-122.9920-122.9918-122.9918-122.9917-122.9915
  -122.9733-122.9729-122.9722-122.9718-122.9716-122.9714-122.9711-122.9710
  -122.9708-122.9706-122.9701-122.9699-122.9694-122.9693-122.9686-122.9681
   -77.1232 -77.1207 -77.1163 -77.1137 -77.1125 -77.1114 -77.1109 -77.1102
   -77.1096 -77.1078 -77.1074 -77.1073 -77.1062 -77.1057 -77.1039 -77.1030
   -77.1027 -77.1018 -77.1011 -77.1002 -77.1000 -77.0989 -77.0988 -77.0979
   -77.0976 -77.0971 -77.0970 -77.0962 -77.0953 -77.0942 -77.0942 -77.0938
   -77.0936 -77.0931 -77.0928 -77.0926 -77.0925 -77.0922 -77.0919 -77.0911
   -77.0907 -77.0902 -77.0896 -77.0891 -77.0886 -77.0881 -77.0879 -77.0876
   -77.0870 -77.0866 -77.0861 -77.0861 -77.0855 -77.0850 -77.0849 -77.0848
   -77.0847 -77.0845 -77.0844 -77.0843 -77.0842 -77.0840 -77.0839 -77.0837
   -77.0836 -77.0834 -77.0834 -77.0833 -77.0829 -77.0827 -77.0826 -77.0824
   -77.0821 -77.0818 -77.0815 -77.0814 -77.0814 -77.0813 -77.0812 -77.0811
   -77.0809 -77.0807 -77.0806 -77.0802 -77.0797 -77.0795 -77.0792 -77.0787
   -77.0785 -77.0785 -77.0783 -77.0781 -77.0780 -77.0779 -77.0777 -77.0776
   -77.0774 -77.0772 -77.0770 -77.0766 -77.0763 -77.0762 -77.0759 -77.0758
   -77.0757 -77.0755 -77.0753 -77.0751 -77.0751 -77.0750 -77.0749 -77.0747
   -77.0745 -77.0743 -77.0741 -77.0737 -77.0734 -77.0733 -77.0732 -77.0727
   -77.0725 -77.0721 -77.0715 -77.0711 -77.0710 -77.0707 -77.0705 -77.0705
   -77.0701 -77.0700 -77.0699 -77.0693 -77.0692 -77.0691 -77.0688 -77.0687
   -77.0670 -77.0670 -77.0670 -77.0669 -77.0658 -77.0657 -77.0656 -77.0655
   -77.0654 -77.0653 -77.0652 -77.0651 -77.0646 -77.0642 -77.0633 -77.0628
   -77.0624 -77.0623 -77.0619 -77.0616 -77.0600 -77.0599 -77.0578 -77.0576
   -77.0572 -77.0571 -77.0519 -77.0516 -77.0512 -77.0510 -77.0506 -77.0505
   -77.0496 -77.0495 -77.0494 -77.0493 -77.0492 -77.0491 -77.0489 -77.0488
   -77.0486 -77.0485 -77.0481 -77.0477 -77.0470 -77.0462 -77.0460 -77.0459
   -77.0455 -77.0453 -77.0453 -77.0451 -77.0447 -77.0442 -77.0423 -77.0416
   -15.5347 -14.1377 -13.3104 -10.9433 -10.8388  -7.8989  -7.6361  -6.2388
    -6.2361  -5.7323  -5.3878  -5.3845  -5.3234  -5.3193  -5.1385  -5.0965
    -4.8415  -4.8413  -4.7760  -4.7754  -4.7455  -4.7451  -4.6812  -4.6810
    -4.6571  -4.6529  -4.6325  -4.6321  -4.6317  -4.6316  -4.6305  -4.6289
    -4.6019  -4.6016  -4.6010  -4.6007  -4.5979  -4.5967  -4.5882  -4.5881
    -4.5875  -4.5872  -4.5743  -4.5734  -4.5720  -4.5718  -4.5123  -4.5111
    -4.5103  -4.5097  -4.4799  -4.4784  -4.4697  -4.4693  -4.4689  -4.4686
    -4.4447  -4.4446  -4.4432  -4.4431  -4.4213  -4.4202  -4.4195  -4.4178
    -4.4107  -4.4099  -4.4017  -4.4016  -4.4012  -4.4010  -4.3784  -4.3782
    -4.3757  -4.3756  -4.3502  -4.3489  -4.3246  -4.3231  -4.3139  -4.3123
    -4.2957  -4.2950  -4.2938  -4.2935  -4.2704  -4.2703  -4.2702  -4.2700
    -4.2440  -4.2437  -4.2420  -4.2415  -4.2147  -4.2109  -4.2059  -4.2040
    -4.2024  -4.2018  -4.1938  -4.1909  -4.1901  -4.1899  -4.1862  -4.1854
    -4.1675  -4.1673  -4.1605  -4.1586  -4.1433  -4.1432  -4.1414  -4.1411
    -4.1377  -4.1364  -4.1352  -4.1340  -4.1171  -4.1157  -4.0935  -4.0918
    -4.0880  -4.0878  -4.0389  -4.0385  -4.0311  -4.0306  -4.0301  -4.0293
    -4.0290  -4.0287  -4.0191  -4.0186  -4.0126  -4.0111  -4.0052  -4.0027
    -3.9955  -3.9938  -3.9904  -3.9894  -3.9871  -3.9868  -3.9820  -3.9809
    -3.9807  -3.9800  -3.9781  -3.9776  -3.9482  -3.9476  -3.9321  -3.9318
    -3.9302  -3.9301  -3.9208  -3.9169  -3.8885  -3.8876  -3.8843  -3.8839
    -3.8665  -3.8662  -3.8520  -3.8507  -3.8419  -3.8418  -3.8403  -3.8399
    -3.8303  -3.8290  -3.8272  -3.8258  -3.8078  -3.8074  -3.7866  -3.7865
    -3.7860  -3.7855  -3.7770  -3.7767  -3.7764  -3.7761  -3.7713  -3.7690
    -3.7678  -3.7660  -3.7573  -3.7559  -3.7486  -3.7477  -3.7341  -3.7336
    -3.7237  -3.7234  -3.7209  -3.7208  -3.7135  -3.7133  -3.7128  -3.7127
    -3.7104  -3.7099  -3.7039  -3.7015  -3.6984  -3.6981  -3.6479  -3.6467
    -3.6458  -3.6439  -3.6427  -3.6424  -3.6421  -3.6415  -3.6391  -3.6387
    -3.6382  -3.6380  -3.6242  -3.6229  -3.6117  -3.6112  -3.6098  -3.6088
    -3.6056  -3.6041  -3.5994  -3.5991  -3.5987  -3.5979  -3.5943  -3.5938
    -3.5876  -3.5856  -3.5825  -3.5801  -3.5693  -3.5680  -3.5668  -3.5660
    -3.5659  -3.5654  -3.5381  -3.5360  -3.5341  -3.5337  -3.5327  -3.5326
    -3.5266  -3.5259  -3.5253  -3.5249  -3.5167  -3.5162  -3.4987  -3.4976
    -3.4683  -3.4673  -3.4666  -3.4663  -3.4634  -3.4629  -3.4626  -3.4601
    -3.4591  -3.4589  -3.4583  -3.4582  -3.4413  -3.4406  -3.4324  -3.4322
    -3.4321  -3.4311  -3.4209  -3.4209  -3.4159  -3.4155  -3.4121  -3.4119
    -3.4119  -3.4117  -3.4021  -3.4019  -3.4016  -3.4013  -3.3980  -3.3973
    -3.3968  -3.3967  -3.3956  -3.3955  -3.3930  -3.3921  -3.3610  -3.3607
    -3.3588  -3.3585  -3.3478  -3.3477  -3.3413  -3.3412  -3.3408  -3.3408
    -3.3286  -3.3275  -3.3264  -3.3257  -3.3134  -3.3130  -3.3129  -3.3128
    -3.3015  -3.3015  -3.3011  -3.3011  -3.2892  -3.2892  -3.2891  -3.2891
    -3.2616  -3.2592  -3.2541  -3.2532  -3.2494  -3.2491  -3.2482  -3.2479
    -3.2386  -3.2381  -3.2281  -3.2275  -3.1993  -3.1992  -3.1987  -3.1987
    -3.1159  -3.1153  -3.0840  -3.0059  -2.6903  -2.6897  -2.6034  -2.4599
    -2.4594  -2.4583  -2.4578  -2.0872  -1.9907  -1.9885  -1.7968  -1.7955
    -1.7922  -1.6307  -1.6297  -1.6274  -1.6265  -0.8911  -0.8268  -0.8263
    -0.7266  -0.5848  -0.5830  -0.3100  -0.3093  -0.3084  -0.3075  -0.0855
     0.1630   0.1654   0.1676   0.1681   0.1699   0.1702   0.3228   0.5077
     0.5106   0.5490   1.1158   1.1171   1.1200   1.1208   1.2638   1.7673
     1.7738   1.8011   1.8019   1.8050   1.8056   2.3330   2.3342   2.3355
     2.3361   2.5453   2.5473   2.6173   2.9237   2.9315   2.9805   2.9835
     3.1812   3.1836   3.5712   3.5721   3.5723   3.5731   3.9455   3.9495
     4.0445   4.0516   4.8114   4.8172   4.9845   4.9885   4.9951   4.9967
     5.1245   5.1252   5.1274   5.1281   5.4278   5.4280   5.4297   5.4300
     5.6240   5.6250   5.7116   5.7150   5.7627   5.7630   5.8917   5.8972
     6.1883   6.2092   6.2125   6.3859   6.5159   6.5172   6.5196   6.5211
     6.6217   6.7728   6.8082   6.8107   7.1425   7.1441   7.2784   7.2820
     7.3273   7.4038   7.4497   7.4602   7.4747   7.4948   7.5385   7.5998
     7.6214   7.7122   7.8353   7.8389   7.8548   7.8591   7.9181   7.9187
     7.9871   8.0106   8.0140   8.2213   8.2503   8.2855   8.3187   8.4194
     8.4281   8.4337   8.4377   8.4383   8.5175   8.5262   8.5473   8.8072
     8.8920   8.8945   8.8972   8.9036   8.9666   9.0622   9.1182   9.1920
     9.2204   9.2828   9.2830   9.4076   9.4810   9.5717   9.6655   9.8139
     9.8224   9.8781   9.9068   9.9336   9.9549   9.9914  10.0029  10.0305
    10.0811  10.1147  10.1791  10.1994  10.2542  10.2897  10.3171  10.3467
    10.3516  10.3715  10.3866  10.4024  10.4394  10.5458  10.6934  10.7747
    10.9803  11.0178  11.0943  11.1349  11.1479  11.1974  11.2154  11.2589
    11.2740  11.2874  11.2950  11.3021  11.3406  11.3816  11.3828  11.3869
    11.3884  11.4300

     occupation numbers 
     1.0000   1.0000   1.0000   1.0000   1.0000   1.0000   1.0000   1.0000
     1.0000   1.0000   1.0000   1.0000   1.0000   1.0000   1.0000   1.0000
     1.0000   1.0000   1.0000   1.0000   1.0000   1.0000   1.0000   1.0000
     1.0000   1.0000   1.0000   1.0000   1.0000   1.0000   1.0000   1.0000
     1.0000   1.0000   1.0000   1.0000   1.0000   1.0000   1.0000   1.0000
     1.0000   1.0000   1.0000   1.0000   1.0000   1.0000   1.0000   1.0000
     1.0000   1.0000   1.0000   1.0000   1.0000   1.0000   1.0000   1.0000
     1.0000   1.0000   1.0000   1.0000   1.0000   1.0000   1.0000   1.0000
     1.0000   1.0000   1.0000   1.0000   1.0000   1.0000   1.0000   1.0000
     1.0000   1.0000   1.0000   1.0000   1.0000   1.0000   1.0000   1.0000
     1.0000   1.0000   1.0000   1.0000   1.0000   1.0000   1.0000   1.0000
     1.0000   1.0000   1.0000   1.0000   1.0000   1.0000   1.0000   1.0000
     1.0000   1.0000   1.0000   1.0000   1.0000   1.0000   1.0000   1.0000
     1.0000   1.0000   1.0000   1.0000   1.0000   1.0000   1.0000   1.0000
     1.0000   1.0000   1.0000   1.0000   1.0000   1.0000   1.0000   1.0000
     1.0000   1.0000   1.0000   1.0000   1.0000   1.0000   1.0000   1.0000
     1.0000   1.0000   1.0000   1.0000   1.0000   1.0000   1.0000   1.0000
     1.0000   1.0000   1.0000   1.0000   1.0000   1.0000   1.0000   1.0000
     1.0000   1.0000   1.0000   1.0000   1.0000   1.0000   1.0000   1.0000
     1.0000   1.0000   1.0000   1.0000   1.0000   1.0000   1.0000   1.0000
     1.0000   1.0000   1.0000   1.0000   1.0000   1.0000   1.0000   1.0000
     1.0000   1.0000   1.0000   1.0000   1.0000   1.0000   1.0000   1.0000
     1.0000   1.0000   1.0000   1.0000   1.0000   1.0000   1.0000   1.0000
     1.0000   1.0000   1.0000   1.0000   1.0000   1.0000   1.0000   1.0000
     1.0000   1.0000   1.0000   1.0000   1.0000   1.0000   1.0000   1.0000
     1.0000   1.0000   1.0000   1.0000   1.0000   1.0000   1.0000   1.0000
     1.0000   1.0000   1.0000   1.0000   1.0000   1.0000   1.0000   1.0000
     1.0000   1.0000   1.0000   1.0000   1.0000   1.0000   1.0000   1.0000
     1.0000   1.0000   1.0000   1.0000   1.0000   1.0000   1.0000   1.0000
     1.0000   1.0000   1.0000   1.0000   1.0000   1.0000   1.0000   1.0000
     1.0000   1.0000   1.0000   1.0000   1.0000   1.0000   1.0000   1.0000
     1.0000   1.0000   1.0000   1.0000   1.0000   1.0000   1.0000   1.0000
     1.0000   1.0000   1.0000   1.0000   1.0000   1.0000   1.0000   1.0000
     1.0000   1.0000   1.0000   1.0000   1.0000   1.0000   1.0000   1.0000
     1.0000   1.0000   1.0000   1.0000   1.0000   1.0000   1.0000   1.0000
     1.0000   1.0000   1.0000   1.0000   1.0000   1.0000   1.0000   1.0000
     1.0000   1.0000   1.0000   1.0000   1.0000   1.0000   1.0000   1.0000
     1.0000   1.0000   1.0000   1.0000   1.0000   1.0000   1.0000   1.0000
     1.0000   1.0000   1.0000   1.0000   1.0000   1.0000   1.0000   1.0000
     1.0000   1.0000   1.0000   1.0000   1.0000   1.0000   1.0000   1.0000
     1.0000   1.0000   1.0000   1.0000   1.0000   1.0000   1.0000   1.0000
     1.0000   1.0000   1.0000   1.0000   1.0000   1.0000   1.0000   1.0000
     1.0000   1.0000   1.0000   1.0000   1.0000   1.0000   1.0000   1.0000
     1.0000   1.0000   1.0000   1.0000   1.0000   1.0000   1.0000   1.0000
     1.0000   1.0000   1.0000   1.0000   1.0000   1.0000   1.0000   1.0000
     1.0000   1.0000   1.0000   1.0000   1.0000   1.0000   1.0000   1.0000
     1.0000   1.0000   1.0000   1.0000   1.0000   1.0000   1.0000   1.0000
     1.0000   1.0000   1.0000   1.0000   1.0000   1.0000   1.0000   1.0000
     1.0000   1.0000   1.0000   1.0000   1.0000   1.0000   1.0000   1.0000
     1.0000   1.0000   1.0000   1.0000   1.0000   1.0000   1.0000   1.0000
     1.0000   1.0000   1.0000   1.0000   1.0000   1.0000   1.0000   1.0000
     1.0000   1.0000   1.0000   1.0000   1.0000   1.0000   1.0000   1.0000
     1.0000   1.0000   1.0000   1.0000   1.0000   1.0000   1.0000   1.0000
     1.0000   1.0000   1.0000   1.0000   1.0000   1.0000   1.0000   1.0000
     1.0000   1.0000   1.0000   1.0000   1.0000   1.0000   1.0000   1.0000
     1.0000   1.0000   1.0000   1.0000   1.0000   1.0000   1.0000   1.0000
     1.0000   1.0000   1.0000   1.0000   1.0000   1.0000   1.0000   1.0000
     1.0000   1.0000   1.0000   1.0000   1.0000   1.0000   1.0000   1.0000
     1.0000   1.0000   1.0000   1.0000   1.0000   1.0000   1.0000   1.0000
     1.0000   1.0000   1.0000   1.0000   1.0000   1.0000   1.0000   1.0000
     1.0000   1.0000   1.0000   1.0000   1.0000   1.0000   1.0000   1.0000
     1.0000   1.0000   1.0000   1.0000   1.0000   1.0000   1.0000   1.0000
     1.0000   1.0000   1.0000   1.0000   1.0000   1.0000   1.0000   1.0000
     1.0000   1.0000   1.0000   1.0000   1.0000   1.0000   1.0000   1.0000
     1.0000   1.0000   1.0000   1.0000   1.0000   1.0000   1.0000   1.0000
     1.0000   1.0000   1.0000   1.0000   1.0000   1.0000   1.0000   1.0000
     1.0000   1.0000   1.0000   1.0000   1.0000   1.0000   1.0000   1.0000
     1.0000   1.0000   1.0000   1.0000   1.0000   1.0000   1.0000   1.0000
     1.0000   1.0000   1.0000   1.0000   1.0000   1.0000   1.0000   1.0000
[...]
     atom    8 type  1   force =     0.00011146   -0.00004620   -0.00014622
     atom    9 type  1   force =     0.00000000    0.00000000   -0.00000000
     atom   10 type  1   force =    -0.00000000    0.00000000   -0.00000000
     atom   11 type  1   force =    -0.00021735    0.00001320   -0.00011719
     atom   12 type  1   force =     0.00022656   -0.00010141   -0.00027217
     atom   13 type  1   force =     0.00000000   -0.00000000   -0.00000000
     atom   14 type  1   force =    -0.00000000   -0.00000000   -0.00000000
     atom   15 type  1   force =    -0.00007342    0.00002187   -0.00002753
     atom   16 type  1   force =     0.00004662    0.00011663   -0.00023358
     atom   17 type  1   force =     0.00000000   -0.00000000   -0.00000000
     atom   18 type  1   force =    -0.00000000   -0.00000000   -0.00000000
     atom   19 type  1   force =     0.00004081    0.00007870   -0.00006169
     atom   20 type  1   force =    -0.00003838    0.00003743   -0.00011014
     atom   21 type  1   force =    -0.00000000    0.00000000   -0.00000000
     atom   22 type  1   force =     0.00000000   -0.00000000   -0.00000000
     atom   23 type  1   force =     0.00017639   -0.00014920   -0.00021331
     atom   24 type  1   force =    -0.00022180    0.00000848   -0.00008821
     atom   25 type  1   force =    -0.00000000    0.00000000   -0.00000000
     atom   26 type  1   force =     0.00000000    0.00000000   -0.00000000
     atom   27 type  1   force =    -0.00000827   -0.00002892   -0.00028447
     atom   28 type  1   force =    -0.00002383   -0.00008678   -0.00010426
     atom   29 type  1   force =     0.00000000   -0.00000000   -0.00000000
     atom   30 type  1   force =    -0.00000000    0.00000000   -0.00000000
     atom   31 type  1   force =    -0.00013294    0.00015376   -0.00014142
     atom   32 type  1   force =     0.00016558   -0.00002358   -0.00010973
     atom   33 type  1   force =     0.00000000    0.00000000   -0.00000000
     atom   34 type  1   force =    -0.00000000   -0.00000000   -0.00000000
     atom   35 type  1   force =     0.00000438   -0.00008786    0.00047146
     atom   36 type  1   force =    -0.00002762    0.00013224    0.00058101
     atom   37 type  1   force =     0.00000000    0.00000000   -0.00000000
     atom   38 type  1   force =    -0.00000000    0.00000000   -0.00000000
     atom   39 type  1   force =    -0.00003674   -0.00019007    0.00055899
     atom   40 type  1   force =     0.00006008   -0.00004685    0.00034733
     atom   41 type  1   force =     0.00000000    0.00000000   -0.00000000
     atom   42 type  1   force =    -0.00000000   -0.00000000   -0.00000000
     atom   43 type  1   force =    -0.00019411   -0.00000737    0.00066739
     atom   44 type  1   force =     0.00023781   -0.00003294    0.00028657
     atom   45 type  1   force =     0.00000000   -0.00000000   -0.00000000
     atom   46 type  1   force =    -0.00000000   -0.00000000   -0.00000000
     atom   47 type  1   force =    -0.00013059    0.00007756    0.00058241
     atom   48 type  1   force =     0.00012949    0.00016764    0.00055360
     atom   49 type  1   force =     0.00000000    0.00000000   -0.00000000
     atom   50 type  1   force =    -0.00000000   -0.00000000   -0.00000000
     atom   51 type  1   force =    -0.00007282    0.00002621    0.00050465
     atom   52 type  1   force =     0.00009281    0.00000785    0.00053725
     atom   53 type  1   force =     0.00000000    0.00000000   -0.00000000
     atom   54 type  1   force =    -0.00000000    0.00000000   -0.00000000
     atom   55 type  1   force =     0.00006134   -0.00023268    0.00033982
     atom   56 type  1   force =    -0.00007960   -0.00001916    0.00056255
     atom   57 type  1   force =     0.00000000    0.00000000   -0.00000000
     atom   58 type  1   force =    -0.00000000   -0.00000000   -0.00000000
     atom   59 type  1   force =    -0.00004451   -0.00006135    0.00055369
     atom   60 type  1   force =    -0.00000044    0.00002277    0.00044860
     atom   61 type  1   force =     0.00000000   -0.00000000   -0.00000000
     atom   62 type  1   force =    -0.00000000   -0.00000000   -0.00000000
     atom   63 type  1   force =    -0.00014585    0.00015209    0.00069381
     atom   64 type  1   force =     0.00015287    0.00008788    0.00043635
     atom   65 type  2   force =     0.00000928   -0.00000590   -0.00001876
     atom   66 type  2   force =    -0.00001334    0.00000775    0.00001795
     atom   67 type  2   force =    -0.00001298   -0.00000606    0.00000614
     atom   68 type  2   force =    -0.00000121    0.00001416    0.00000618
     atom   69 type  2   force =    -0.00004396    0.00001106    0.00006122
     atom   70 type  2   force =    -0.00003142    0.00003234    0.00006075
     atom   71 type  2   force =    -0.00004789    0.00002725    0.00007452
     atom   72 type  3   force =     0.00006467   -0.00003876   -0.00011671
     atom   73 type  3   force =    -0.00002079    0.00001133    0.00002672
     atom   74 type  4   force =     0.00001001    0.00001569   -0.00000729
     atom   75 type  4   force =    -0.00000857   -0.00001647   -0.00000734
     atom   76 type  4   force =     0.00000750    0.00000979   -0.00000315
     atom   77 type  4   force =    -0.00000475   -0.00001145   -0.00000313
     atom   78 type  4   force =    -0.00000226    0.00000488    0.00000683
     atom   79 type  4   force =    -0.00000535   -0.00000043    0.00000676

     Total force =     0.001674     Total SCF correction =     0.002362
     SCF correction compared to forces is large: reduce conv_thr to get better values


     Computing stress (Cartesian axis) and pressure


     negative rho (up, down):  3.510E-02 0.000E+00
          total   stress  (Ry/bohr**3)                   (kbar)     P=     -301.77
  -0.00203338  -0.00000163   0.00000108         -299.12       -0.24        0.16
  -0.00000163  -0.00203494   0.00000025           -0.24     -299.35        0.04
   0.00000108   0.00000025  -0.00208592            0.16        0.04     -306.85

     kinetic stress (kbar)  17250.20    -18.95     32.19
                              -18.95  17228.27    -18.63
                               32.19    -18.63  17303.01

     local   stress (kbar)**********   -342.06   1268.46
                             -342.06**********   -743.25
                             1268.46   -743.251514894.89

     nonloc. stress (kbar)  -1886.85      0.74     -3.39
                                0.74  -1885.98      1.97
                               -3.39      1.97  -1926.19

     hartree stress (kbar) 785691.84    117.66   -497.45
                              117.66 785828.95    291.47
                             -497.45    291.47-710398.45

     exc-cor stress (kbar)  -8417.53      0.82     -1.72
                                0.82  -8416.57      1.00
                               -1.72      1.00  -8425.73

     corecor stress (kbar)    -80.74     -0.44      0.80
                               -0.44    -81.25     -0.46
                                0.80     -0.46    -81.02

     ewald   stress (kbar) 705543.45    241.97   -798.72
                              241.97 705825.04    467.94
                             -798.72    467.94-811673.36

     hubbard stress (kbar)      0.00      0.00      0.00
                                0.00      0.00      0.00
                                0.00      0.00      0.00

     DFT-D   stress (kbar)      0.00      0.00      0.00
                                0.00      0.00      0.00
                                0.00      0.00      0.00

     XDM     stress (kbar)      0.00      0.00      0.00
                                0.00      0.00      0.00
                                0.00      0.00      0.00

     dft-nl  stress (kbar)      0.00      0.00      0.00
                                0.00      0.00      0.00
                                0.00      0.00      0.00

     TS-vdW  stress (kbar)      0.00      0.00      0.00
                                0.00      0.00      0.00
                                0.00      0.00      0.00

     MDB     stress (kbar)      0.00      0.00      0.00
                                0.00      0.00      0.00
                                0.00      0.00      0.00

     3D-RISM stress (kbar)      0.00      0.00      0.00
                                0.00      0.00      0.00
                                0.00      0.00      0.00

     Energy error            =      3.7E-06 Ry
     Gradient error          =      4.2E-04 Ry/Bohr

     bfgs converged in  67 scf cycles and  65 bfgs steps
     (criteria: energy <  1.0E-05 Ry, force <  5.0E-04 Ry/Bohr)

     End of BFGS Geometry Optimization

     Final energy             =  -29711.9062104514 Ry

     File ./tmp/Zn002_4x4x2_primitive_14Avacumn_bridgesite_tilted_parallel_ABN.bfgs deleted, as requested
Begin final coordinates

ATOMIC_POSITIONS (angstrom)
Zn              -0.0000000130        1.5094013740        1.2182902590    0   0   0
Zn               5.2287196980        1.5094013740        1.2182902590    0   0   0
Zn              -0.0021085784        1.5076773687        5.9780550225
Zn               5.2274857396        1.5070042300        5.9779974219
Zn              -1.3071799410        3.7735034240        1.2182902590    0   0   0
Zn               3.9215397700        3.7735034240        1.2182902590    0   0   0
Zn              -1.3089342510        3.7724402195        5.9792438737
Zn               3.9206770141        3.7707654771        5.9728665302
Zn              -2.6143598690        6.0376054730        1.2182902590    0   0   0
Zn               2.6143598420        6.0376054730        1.2182902590    0   0   0
Zn              -2.6154355365        6.0365815894        5.9779870912
Zn               2.6104986407        6.0379059864        5.9758470385
Zn              -3.9215397970        8.3017075230        1.2182902590    0   0   0
Zn               1.3071799140        8.3017075230        1.2182902590    0   0   0
Zn              -3.9227891670        8.3004033459        5.9792490431
Zn               1.3048751808        8.3003754842        5.9793006392
Zn               2.6143598430        1.5094013740        1.2182902590    0   0   0
Zn               7.8430795540        1.5094013740        1.2182902590    0   0   0
Zn               2.6123209766        1.5060367475        5.9784097027
Zn               7.8415989180        1.5082007456        5.9771018113
Zn               1.3071799150        3.7735034240        1.2182902590    0   0   0
Zn               6.5358996260        3.7735034240        1.2182902590    0   0   0
Zn               1.3031432950        3.7722348876        5.9768010395
Zn               6.5356167867        3.7720232685        5.9772853699
Zn              -0.0000000130        6.0376054730        1.2182902590    0   0   0
Zn               5.2287196980        6.0376054730        1.2182902590    0   0   0
Zn              -0.0024878603        6.0365278717        5.9806525309
Zn               5.2291035473        6.0377949026        5.9761069767
Zn              -1.3071799410        8.3017075230        1.2182902590    0   0   0
Zn               3.9215397700        8.3017075230        1.2182902590    0   0   0
Zn              -1.3090084594        8.2997602329        5.9776090094
Zn               3.9200282033        8.3012805068        5.9788067617
Zn               1.3071799410        0.7547006760        3.6548707760    0   0   0
Zn               6.5358996520        0.7547006760        3.6548707760    0   0   0
Zn               1.3003068151        0.7508238926        8.5278998490
Zn               6.5299747617        0.7517278537        8.5281322550
Zn               0.0000000130        3.0188027250        3.6548707760    0   0   0
Zn               5.2287197240        3.0188027250        3.6548707760    0   0   0
Zn              -0.0063908117        3.0160480875        8.5284987860
Zn               5.2229100095        3.0152241692        8.5268350045
Zn              -1.3071799150        5.2829047750        3.6548707760    0   0   0
Zn               3.9215397960        5.2829047750        3.6548707760    0   0   0
Zn              -1.3132219565        5.2799252050        8.5297666688
Zn               3.9153421610        5.2813308863        8.4733382963
Zn              -2.6143598430        7.5470068250        3.6548707760    0   0   0
Zn               2.6143598680        7.5470068250        3.6548707760    0   0   0
Zn              -2.6198643982        7.5441686436        8.5240336303
Zn               2.6075194436        7.5439926016        8.5312006782
Zn               3.9215397970        0.7547006760        3.6548707760    0   0   0
Zn               9.1502595080        0.7547006760        3.6548707760    0   0   0
Zn               3.9152822043        0.7509008664        8.5295767606
Zn               9.1444021325        0.7519676103        8.5231321142
Zn               2.6143598690        3.0188027250        3.6548707760    0   0   0
Zn               7.8430795800        3.0188027250        3.6548707760    0   0   0
Zn               2.6069046699        3.0141759161        8.4914601224
Zn               7.8370562830        3.0157944610        8.5278561802
Zn               1.3071799410        5.2829047750        3.6548707760    0   0   0
Zn               6.5358996520        5.2829047750        3.6548707760    0   0   0
Zn               1.2998657925        5.2799533098        8.5380930510
Zn               6.5308958183        5.2800425960        8.5266737053
Zn               0.0000000130        7.5470068250        3.6548707760    0   0   0
Zn               5.2287197240        7.5470068250        3.6548707760    0   0   0
Zn              -0.0062659216        7.5437838695        8.5312561351
Zn               5.2234875899        7.5445736108        8.5289040888
C                1.0077933456        6.0491669333       17.0109992999
C                1.6698777653        5.6627122347       15.8102456935
C                1.3945450238        4.4176238957       15.2055943317
C                2.6112188151        6.5219392791       15.2037945797
C                3.2548176109        6.1490539361       14.0341331441
C                2.0382203893        4.0447355615       14.0352599057
C                2.9812130571        4.9032986756       13.4249666665
N                0.4631929794        6.3713138781       18.0003124567
N                3.6607123771        4.5131505672       12.2917253793
H                4.1292266577        5.2314957462       11.7403354576
H                3.2750663312        3.7509486176       11.7354677047
H                0.6672516649        3.7454824973       15.6703829156
H                2.8304246189        7.4885495948       15.6662329745
H                3.9881219656        6.8217359086       13.5763376623
H                1.8206243586        3.0728860968       13.5796089970
End final coordinates



     Writing all to output data dir ./tmp/Zn002_4x4x2_primitive_14Avacumn_bridgesite_tilted_parallel_ABN.save/ :
     XML data file, charge density, pseudopotentials, collected wavefunctions

     init_run     :     53.70s CPU     54.34s WALL (       1 calls)
     electrons    :   6224.04s CPU   6296.58s WALL (       1 calls)
     forces       :     52.08s CPU     52.40s WALL (       1 calls)
     stress       :    125.91s CPU    126.59s WALL (       1 calls)

     Called by init_run:
     wfcinit      :     52.88s CPU     53.49s WALL (       1 calls)
     wfcinit:atom :      0.02s CPU      0.04s WALL (       4 calls)
     wfcinit:wfcr :     52.53s CPU     53.06s WALL (       4 calls)
     potinit      :      0.08s CPU      0.09s WALL (       1 calls)
     hinit0       :      0.38s CPU      0.39s WALL (       1 calls)

     Called by electrons:
     c_bands      :   5915.98s CPU   5986.65s WALL (      22 calls)
     sum_band     :    294.68s CPU    296.45s WALL (      22 calls)
     v_of_rho     :      0.33s CPU      0.37s WALL (      23 calls)
     v_h          :      0.02s CPU      0.02s WALL (      23 calls)
     v_xc         :      0.35s CPU      0.38s WALL (      25 calls)
     newd         :     11.49s CPU     11.54s WALL (      23 calls)
     PAW_pot      :      1.68s CPU      1.68s WALL (      23 calls)
     mix_rho      :      0.19s CPU      0.19s WALL (      22 calls)

     Called by c_bands:
     init_us_2    :      2.90s CPU      2.95s WALL (     188 calls)
     cegterg      :   5908.96s CPU   5979.40s WALL (      88 calls)

     Called by sum_band:
     sum_band:wei :      0.07s CPU      0.07s WALL (      22 calls)
     sum_band:loo :    285.98s CPU    287.71s WALL (      22 calls)
     sum_band:buf :      0.60s CPU      0.64s WALL (      88 calls)
     sum_band:ini :      1.30s CPU      1.31s WALL (      88 calls)
     sum_band:cal :    259.33s CPU    260.80s WALL (      88 calls)
     sum_band:bec :      3.55s CPU      3.56s WALL (      88 calls)
     addusdens    :      8.04s CPU      8.06s WALL (      22 calls)
                                        0.00s GPU  (      22 calls)
     addusd:skk   :      0.08s CPU      0.09s WALL (      88 calls)
                                        0.00s GPU  (      88 calls)

     Called by *egterg:
     cdiaghg      :    661.04s CPU    692.16s WALL (     660 calls)
     cegterg:over :   1124.65s CPU   1129.23s WALL (     572 calls)
     cegterg:upda :    364.99s CPU    368.09s WALL (     572 calls)
     cegterg:last :   1715.37s CPU   1730.63s WALL (     199 calls)
     cdiaghg:chol :     40.49s CPU     40.60s WALL (     660 calls)
     cdiaghg:inve :      4.95s CPU      4.96s WALL (     660 calls)
     cdiaghg:para :    181.88s CPU    186.78s WALL (    1320 calls)
     h_psi        :   1324.63s CPU   1334.70s WALL (     664 calls)
     s_psi        :    564.10s CPU    565.56s WALL (     664 calls)
     g_psi        :      0.64s CPU      0.64s WALL (     572 calls)

     Called by h_psi:
     h_psi:calbec :    648.03s CPU    651.80s WALL (     664 calls)
     vloc_psi     :    103.53s CPU    104.47s WALL (     664 calls)
     add_vuspsi   :    571.67s CPU    574.57s WALL (     664 calls)

     General routines
     calbec       :    971.70s CPU    977.29s WALL (     772 calls)
     fft          :      0.62s CPU      0.67s WALL (     278 calls)
     ffts         :      0.03s CPU      0.03s WALL (      22 calls)
     fftw         :    116.64s CPU    117.72s WALL (  418472 calls)

     Parallel routines

     PAW routines
     PAW_pot      :      1.68s CPU      1.68s WALL (      23 calls)

     PWSCF        :      1h47m CPU      1h48m WALL


   This run was terminated on:  14: 1:16   2Feb1998            

=------------------------------------------------------------------------------=
   JOB DONE.
=------------------------------------------------------------------------------=
Note: The following floating-point exceptions are signalling: IEEE_DENORMAL
Note: The following floating-point exceptions are signalling: IEEE_DENORMAL
Note: The following floating-point exceptions are signalling: IEEE_DENORMAL
Note: The following floating-point exceptions are signalling: IEEE_DENORMAL
Note: The following floating-point exceptions are signalling: IEEE_DENORMAL
Note: The following floating-point exceptions are signalling: IEEE_DENORMAL
Note: The following floating-point exceptions are signalling: IEEE_DENORMAL
Note: The following floating-point exceptions are signalling: IEEE_DENORMAL
Note: The following floating-point exceptions are signalling: IEEE_DENORMAL
Note: The following floating-point exceptions are signalling: IEEE_DENORMAL
Note: The following floating-point exceptions are signalling: IEEE_DENORMAL
Note: The following floating-point exceptions are signalling: IEEE_DENORMAL
Note: The following floating-point exceptions are signalling: IEEE_DENORMAL
Note: The following floating-point exceptions are signalling: IEEE_DENORMAL
Note: The following floating-point exceptions are signalling: IEEE_DENORMAL
