--------------------------------------------------------------------------
By default, for Open MPI 4.0 and later, infiniband ports on a device
are not used by default.  The intent is to use UCX for these devices.
You can override this policy by setting the btl_openib_allow_ib MCA parameter
to true.

  Local host:              psid05
  Local adapter:           mlx4_0
  Local port:              1

--------------------------------------------------------------------------
--------------------------------------------------------------------------
WARNING: There was an error initializing an OpenFabrics device.

  Local host:   psid05
  Local device: mlx4_0
--------------------------------------------------------------------------

     Program PWSCF v.7.3.1 starts on 16Mar2025 at  0:27:55 

     This program is part of the open-source Quantum ESPRESSO suite
     for quantum simulation of materials; please cite
         "P. Giannozzi et al., J. Phys.:Condens. Matter 21 395502 (2009);
         "P. Giannozzi et al., J. Phys.:Condens. Matter 29 465901 (2017);
         "P. Giannozzi et al., J. Chem. Phys. 152 154105 (2020);
          URL http://www.quantum-espresso.org", 
     in publications or presentations arising from this work. More details at
     http://www.quantum-espresso.org/quote

     Parallel version (MPI), running on    30 processors

     MPI processes distributed on     1 nodes
     107691 MiB available memory on the printing compute node when the environment starts

     Waiting for input...
     Reading input from standard input

     Current dimensions of program PWSCF are:
     Max number of different atomic species (ntypx) = 10
     Max number of k-points (npk) =  40000
     Max angular momentum in pseudopotentials (lmaxx) =  4
     file O.pbe-n-kjpaw_psl.0.1.UPF: wavefunction(s)  2P renormalized

     gamma-point specific algorithms are used

     R & G space division:  proc/nbgrp/npool/nimage =      30
     Subspace diagonalization in iterative solution of the eigenvalue problem:
     a serial algorithm will be used


     Parallelization info
     --------------------
     sticks:   dense  smooth     PW     G-vecs:    dense   smooth      PW
     Min         425     425    105                36278    36278    4526
     Max         428     428    108                36287    36287    4536
     Sum       12785   12785   3189              1088527  1088527  135883

     Using Slab Decomposition



     bravais-lattice index     =            1
     lattice parameter (alat)  =      28.3459  a.u.
     unit-cell volume          =   22775.6289 (a.u.)^3
     number of atoms/cell      =            3
     number of atomic types    =            2
     number of electrons       =         8.00
     number of Kohn-Sham states=            8
     kinetic-energy cutoff     =      50.0000  Ry
     charge density cutoff     =     200.0000  Ry
     scf convergence threshold =      7.3E-07
     mixing beta               =       0.7000
     number of iterations used =            8  plain     mixing
     Exchange-correlation= PBE
                           (   1   4   3   4   0   0   0)

     celldm(1)=  28.345892  celldm(2)=   0.000000  celldm(3)=   0.000000
     celldm(4)=   0.000000  celldm(5)=   0.000000  celldm(6)=   0.000000

     crystal axes: (cart. coord. in units of alat)
               a(1) = (   1.000000   0.000000   0.000000 )  
               a(2) = (   0.000000   1.000000   0.000000 )  
               a(3) = (   0.000000   0.000000   1.000000 )  

     reciprocal axes: (cart. coord. in units 2 pi/alat)
               b(1) = (  1.000000  0.000000  0.000000 )  
               b(2) = (  0.000000  1.000000  0.000000 )  
               b(3) = (  0.000000  0.000000  1.000000 )  


     PseudoPot. # 1 for O  read from file:
     /home/ys/qepseudo/SSSP_1.3.0_PBE_efficiency/O.pbe-n-kjpaw_psl.0.1.UPF
     MD5 check sum: 0234752ac141de4415c5fc33072bef88
     Pseudo is Projector augmented-wave + core cor, Zval =  6.0
     Generated using "atomic" code by A. Dal Corso  v.5.0.99 svn rev. 10869
     Shape of augmentation charge: BESSEL
     Using radial grid of 1095 points,  4 beta functions with: 
                l(1) =   0
                l(2) =   0
                l(3) =   1
                l(4) =   1
     Q(r) pseudized with 0 coefficients 


     PseudoPot. # 2 for H  read from file:
     /home/ys/qepseudo/SSSP_1.3.0_PBE_efficiency/H.pbe-rrkjus_psl.1.0.0.UPF
     MD5 check sum: f52b6d4d1c606e5624b1dc7b2218f220
     Pseudo is Ultrasoft, Zval =  1.0
     Generated using "atomic" code by A. Dal Corso  v.5.1
     Using radial grid of  929 points,  2 beta functions with: 
                l(1) =   0
                l(2) =   0
     Q(r) pseudized with 0 coefficients 


     atomic species   valence    mass     pseudopotential
     O                 6.00    15.99940     O ( 1.00)
     H                 1.00     1.00794     H ( 1.00)

     No symmetry found


                                    s                        frac. trans.

      isym =  1     identity                                     

 cryst.   s( 1) = (     1          0          0      )
                  (     0          1          0      )
                  (     0          0          1      )

 cart.    s( 1) = (  1.0000000  0.0000000  0.0000000 )
                  (  0.0000000  1.0000000  0.0000000 )
                  (  0.0000000  0.0000000  1.0000000 )


     point group C_1 (1)    
     there are  1 classes
     the character table:

       E    
A      1.00

     the symmetry operations in each class and the name of the first element:

     E        1
          identity                                               

   Cartesian axes

     site n.     atom                  positions (alat units)
         1        O      tau(   1) = (   0.0283125   0.0668051   0.0785141  )
         2        H      tau(   2) = (   0.0934685   0.0652319   0.0757163  )
         3        H      tau(   3) = (   0.0096317   0.0360100   0.0241184  )

   Crystallographic axes

     site n.     atom                  positions (cryst. coord.)
         1        O      tau(   1) = (  0.0283125  0.0668051  0.0785141  )
         2        H      tau(   2) = (  0.0934685  0.0652319  0.0757163  )
         3        H      tau(   3) = (  0.0096317  0.0360100  0.0241184  )

     number of k points=     1  Marzari-Vanderbilt smearing, width (Ry)=  0.0200
                       cart. coord. in units 2pi/alat
        k(    1) = (   0.0000000   0.0000000   0.0000000), wk =   2.0000000

                       cryst. coord.
        k(    1) = (   0.0000000   0.0000000   0.0000000), wk =   2.0000000

     Dense  grid:   544264 G-vectors     FFT dimensions: ( 128, 128, 128)

     Dynamical RAM for                 wfc:       0.28 MB

     Dynamical RAM for     wfc (w. buffer):       0.28 MB

     Dynamical RAM for           str. fact:       0.55 MB

     Dynamical RAM for           local pot:       0.00 MB

     Dynamical RAM for          nlocal pot:       0.41 MB

     Dynamical RAM for                qrad:       0.65 MB

     Dynamical RAM for          rho,v,vnew:       2.71 MB

     Dynamical RAM for               rhoin:       0.90 MB

     Dynamical RAM for            rho*nmix:       4.43 MB

     Dynamical RAM for           G-vectors:       1.18 MB

     Dynamical RAM for          h,s,v(r/c):       0.01 MB

     Dynamical RAM for          <psi|beta>:       0.00 MB

     Dynamical RAM for                 psi:       0.55 MB

     Dynamical RAM for                hpsi:       0.55 MB

     Dynamical RAM for                spsi:       0.55 MB

     Dynamical RAM for      wfcinit/wfcrot:       0.55 MB

     Dynamical RAM for           addusdens:      12.46 MB

     Dynamical RAM for          addusforce:      13.15 MB

     Dynamical RAM for         addusstress:      13.84 MB

     Estimated static dynamical RAM per process >      10.63 MB

     Estimated max dynamical RAM per process >      28.91 MB

     Estimated total dynamical RAM >     867.16 MB

     Initial potential from superposition of free atoms

     starting charge       8.0000, renormalised to       8.0000

     negative rho (up, down):  2.259E-03 0.000E+00
     Starting wfcs are    6 randomized atomic wfcs +    2 random wfcs
     Checking if some PAW data can be deallocated... 
       PAW data deallocated on   20 nodes for type:  1

     total cpu time spent up to now is        0.4 secs

     Self-consistent Calculation

     iteration #  1     ecut=    50.00 Ry     beta= 0.70
     Davidson diagonalization with overlap

---- Real-time Memory Report at c_bands before calling an iterative solver
            45 MiB given to the printing process from OS
             0 MiB allocation reported by mallinfo(arena+hblkhd)
        107063 MiB available memory on the node where the printing process lives
------------------
     ethr =  1.00E-02,  avg # of iterations =  5.0

     negative rho (up, down):  4.804E-03 0.000E+00

     total cpu time spent up to now is        0.6 secs

     total energy              =     -43.84115362 Ry
     estimated scf accuracy    <       0.45010613 Ry

     iteration #  2     ecut=    50.00 Ry     beta= 0.70
     Davidson diagonalization with overlap

---- Real-time Memory Report at c_bands before calling an iterative solver
            49 MiB given to the printing process from OS
             0 MiB allocation reported by mallinfo(arena+hblkhd)
        106719 MiB available memory on the node where the printing process lives
------------------
     ethr =  5.63E-03,  avg # of iterations =  3.0

     negative rho (up, down):  4.000E-03 0.000E+00

     total cpu time spent up to now is        0.8 secs

     total energy              =     -43.93984378 Ry
     estimated scf accuracy    <       0.48884283 Ry

     iteration #  3     ecut=    50.00 Ry     beta= 0.70
     Davidson diagonalization with overlap

---- Real-time Memory Report at c_bands before calling an iterative solver
            49 MiB given to the printing process from OS
             0 MiB allocation reported by mallinfo(arena+hblkhd)
        106701 MiB available memory on the node where the printing process lives
------------------
     ethr =  5.63E-03,  avg # of iterations =  2.0

     negative rho (up, down):  4.164E-03 0.000E+00

     total cpu time spent up to now is        0.9 secs

     total energy              =     -44.03703153 Ry
     estimated scf accuracy    <       0.00477631 Ry

     iteration #  4     ecut=    50.00 Ry     beta= 0.70
     Davidson diagonalization with overlap

---- Real-time Memory Report at c_bands before calling an iterative solver
            50 MiB given to the printing process from OS
             0 MiB allocation reported by mallinfo(arena+hblkhd)
        106685 MiB available memory on the node where the printing process lives
------------------
     ethr =  5.97E-05,  avg # of iterations = 14.0

     negative rho (up, down):  4.227E-03 0.000E+00

     total cpu time spent up to now is        1.1 secs

     total energy              =     -44.03915428 Ry
     estimated scf accuracy    <       0.00533416 Ry

     iteration #  5     ecut=    50.00 Ry     beta= 0.70
     Davidson diagonalization with overlap

---- Real-time Memory Report at c_bands before calling an iterative solver
            51 MiB given to the printing process from OS
             0 MiB allocation reported by mallinfo(arena+hblkhd)
        106668 MiB available memory on the node where the printing process lives
------------------
     ethr =  5.97E-05,  avg # of iterations =  1.0

     negative rho (up, down):  4.274E-03 0.000E+00

     total cpu time spent up to now is        1.3 secs

     total energy              =     -44.03911150 Ry
     estimated scf accuracy    <       0.00123679 Ry

     iteration #  6     ecut=    50.00 Ry     beta= 0.70
     Davidson diagonalization with overlap

---- Real-time Memory Report at c_bands before calling an iterative solver
            51 MiB given to the printing process from OS
             0 MiB allocation reported by mallinfo(arena+hblkhd)
        106649 MiB available memory on the node where the printing process lives
------------------
     ethr =  1.55E-05,  avg # of iterations =  2.0

     negative rho (up, down):  4.407E-03 0.000E+00

     total cpu time spent up to now is        1.4 secs

     total energy              =     -44.03902145 Ry
     estimated scf accuracy    <       0.00034600 Ry

     iteration #  7     ecut=    50.00 Ry     beta= 0.70
     Davidson diagonalization with overlap

---- Real-time Memory Report at c_bands before calling an iterative solver
            52 MiB given to the printing process from OS
             0 MiB allocation reported by mallinfo(arena+hblkhd)
        106634 MiB available memory on the node where the printing process lives
------------------
     c_bands:  1 eigenvalues not converged
     ethr =  4.32E-06,  avg # of iterations = 20.0

     negative rho (up, down):  4.387E-03 0.000E+00

     total cpu time spent up to now is        1.6 secs

     total energy              =     -44.03915935 Ry
     estimated scf accuracy    <       0.00009182 Ry

     iteration #  8     ecut=    50.00 Ry     beta= 0.70
     Davidson diagonalization with overlap

---- Real-time Memory Report at c_bands before calling an iterative solver
            52 MiB given to the printing process from OS
             0 MiB allocation reported by mallinfo(arena+hblkhd)
        106613 MiB available memory on the node where the printing process lives
------------------
     c_bands:  1 eigenvalues not converged
     ethr =  1.15E-06,  avg # of iterations = 20.0

     negative rho (up, down):  4.391E-03 0.000E+00

     total cpu time spent up to now is        1.8 secs

     End of self-consistent calculation

          k = 0.0000 0.0000 0.0000 ( 67942 PWs)   bands (ev):

   -25.1692 -12.9502  -9.2878  -7.1710  -1.0544  -0.3166   0.0302   0.1445

     occupation numbers 
     1.0000   1.0000   1.0000   1.0000   0.0000   0.0000   0.0000   0.0000

     the Fermi energy is    -4.8234 ev

!    total energy              =     -44.03917646 Ry
     estimated scf accuracy    <       0.00000060 Ry
     smearing contrib. (-TS)   =       0.00000000 Ry
     internal energy E=F+TS    =     -44.03917646 Ry

     The total energy is F=E-TS. E is the sum of the following terms:
     one-electron contribution =     -69.08758293 Ry
     hartree contribution      =      36.10733563 Ry
     xc contribution           =      -8.81724560 Ry
     ewald contribution        =       7.26861975 Ry
     one-center paw contrib.   =      -9.51030330 Ry
      -> PAW hartree energy AE =      28.10599987 Ry
      -> PAW hartree energy PS =     -27.97459948 Ry
      -> PAW xc energy AE      =     -16.97972736 Ry
      -> PAW xc energy PS      =       7.33802367 Ry
      -> total E_H with PAW    =      36.23873602 Ry
      -> total E_XC with PAW   =     -18.45894929 Ry

     convergence has been achieved in   8 iterations

     negative rho (up, down):  4.391E-03 0.000E+00

     Forces acting on atoms (cartesian axes, Ry/au):

     atom    1 type  1   force =     0.01086608   -0.00756394   -0.01346009
     atom    2 type  2   force =    -0.01454230    0.00055588    0.00103191
     atom    3 type  2   force =     0.00367622    0.00700806    0.01242818
     The non-local contrib.  to forces
     atom    1 type  1   force =     1.42103862   -0.98985440   -1.74829055
     atom    2 type  2   force =    -0.10611083    0.00064273    0.00119815
     atom    3 type  2   force =     0.03405396    0.04950689    0.08744514
     The ionic contribution  to forces
     atom    1 type  1   force =    -2.49745764    1.73896694    3.07264666
     atom    2 type  2   force =     3.69290860   -0.01765108   -0.03225516
     atom    3 type  2   force =    -1.19545095   -1.72131586   -3.04039150
     The local contribution  to forces
     atom    1 type  1   force =     1.10274347   -0.76734093   -1.35643644
     atom    2 type  2   force =    -3.60092064    0.01735326    0.03178807
     atom    3 type  2   force =     1.16539428    1.67857538    2.96499636
     The core correction contribution to forces
     atom    1 type  1   force =    -0.01425845    0.00996711    0.01758058
     atom    2 type  2   force =     0.00000000    0.00000000    0.00000000
     atom    3 type  2   force =     0.00000000    0.00000000    0.00000000
     The Hubbard contrib.    to forces
     atom    1 type  1   force =     0.00000000    0.00000000    0.00000000
     atom    2 type  2   force =     0.00000000    0.00000000    0.00000000
     atom    3 type  2   force =     0.00000000    0.00000000    0.00000000
     The SCF correction term to forces
     atom    1 type  1   force =    -0.00094117    0.00054665    0.00082106
     atom    2 type  2   force =    -0.00016068    0.00006029    0.00008225
     atom    3 type  2   force =    -0.00006231    0.00009097    0.00015957

     Total force =     0.028043     Total SCF correction =     0.001390


     Computing stress (Cartesian axis) and pressure


     negative rho (up, down):  4.391E-03 0.000E+00
          total   stress  (Ry/bohr**3)                   (kbar)     P=       -0.14
  -0.00000144  -0.00000013  -0.00000022           -0.21       -0.02       -0.03
  -0.00000013  -0.00000042  -0.00000048           -0.02       -0.06       -0.07
  -0.00000022  -0.00000048  -0.00000100           -0.03       -0.07       -0.15

     kinetic stress (kbar)     75.36     -1.79     -3.16
                               -1.79     87.92     -5.66
                               -3.16     -5.66     81.13

     local   stress (kbar)   -187.47     -4.91     -8.67
                               -4.91   -154.81    -14.38
                               -8.67    -14.38   -172.19

     nonloc. stress (kbar)     14.05      0.01      0.01
                                0.01     14.66     -0.35
                                0.01     -0.35     14.24

     hartree stress (kbar)     81.12      0.99      1.74
                                0.99     74.17      3.10
                                1.74      3.10     77.92

     exc-cor stress (kbar)    -15.00      0.02      0.04
                                0.02    -15.16      0.07
                                0.04      0.07    -15.07

     corecor stress (kbar)     -2.73      0.00      0.01
                                0.00     -2.76      0.01
                                0.01      0.01     -2.75

     ewald   stress (kbar)     34.47      5.67     10.00
                                5.67     -4.08     17.14
                               10.00     17.14     16.56

     hubbard stress (kbar)      0.00      0.00      0.00
                                0.00      0.00      0.00
                                0.00      0.00      0.00

     DFT-D   stress (kbar)      0.00      0.00      0.00
                                0.00      0.00      0.00
                                0.00      0.00      0.00

     XDM     stress (kbar)      0.00      0.00      0.00
                                0.00      0.00      0.00
                                0.00      0.00      0.00

     dft-nl  stress (kbar)      0.00      0.00      0.00
                                0.00      0.00      0.00
                                0.00      0.00      0.00

     TS-vdW  stress (kbar)      0.00      0.00      0.00
                                0.00      0.00      0.00
                                0.00      0.00      0.00

     MDB     stress (kbar)      0.00      0.00      0.00
                                0.00      0.00      0.00
                                0.00      0.00      0.00

     3D-RISM stress (kbar)      0.00      0.00      0.00
                                0.00      0.00      0.00
                                0.00      0.00      0.00


     Writing all to output data dir ./tmp/H2O.save/ :
     XML data file, charge density, pseudopotentials, collected wavefunctions

     init_run     :      0.22s CPU      0.26s WALL (       1 calls)
     electrons    :      1.32s CPU      1.41s WALL (       1 calls)
     forces       :      0.09s CPU      0.09s WALL (       1 calls)
     stress       :      0.18s CPU      0.18s WALL (       1 calls)

     Called by init_run:
     wfcinit      :      0.01s CPU      0.02s WALL (       1 calls)
     wfcinit:atom :      0.00s CPU      0.00s WALL (       1 calls)
     wfcinit:wfcr :      0.01s CPU      0.01s WALL (       1 calls)
     potinit      :      0.07s CPU      0.08s WALL (       1 calls)
     hinit0       :      0.03s CPU      0.03s WALL (       1 calls)

     Called by electrons:
     c_bands      :      0.48s CPU      0.51s WALL (       8 calls)
     sum_band     :      0.21s CPU      0.21s WALL (       8 calls)
     v_of_rho     :      0.41s CPU      0.43s WALL (       9 calls)
     v_h          :      0.03s CPU      0.04s WALL (       9 calls)
     v_xc         :      0.46s CPU      0.48s WALL (      11 calls)
     newd         :      0.13s CPU      0.14s WALL (       9 calls)
     PAW_pot      :      0.08s CPU      0.08s WALL (       9 calls)
     mix_rho      :      0.05s CPU      0.05s WALL (       8 calls)

     Called by c_bands:
     init_us_2    :      0.01s CPU      0.01s WALL (      17 calls)
     regterg      :      0.47s CPU      0.50s WALL (       8 calls)

     Called by sum_band:
     sum_band:wei :      0.00s CPU      0.00s WALL (       8 calls)
     sum_band:loo :      0.05s CPU      0.05s WALL (       8 calls)
     sum_band:buf :      0.00s CPU      0.00s WALL (       8 calls)
     sum_band:ini :      0.00s CPU      0.00s WALL (       8 calls)
     sum_band:cal :      0.00s CPU      0.00s WALL (       8 calls)
     sum_band:bec :      0.00s CPU      0.00s WALL (       8 calls)
     addusdens    :      0.11s CPU      0.11s WALL (       8 calls)
                                        0.00s GPU  (       8 calls)
     addusd:skk   :      0.00s CPU      0.00s WALL (      16 calls)
                                        0.00s GPU  (      16 calls)

     Called by *egterg:
     rdiaghg      :      0.01s CPU      0.01s WALL (      75 calls)
     regterg:over :      0.03s CPU      0.03s WALL (      67 calls)
     regterg:upda :      0.01s CPU      0.01s WALL (      67 calls)
     regterg:last :      0.01s CPU      0.01s WALL (      28 calls)
     h_psi        :      0.41s CPU      0.44s WALL (      76 calls)
     s_psi        :      0.00s CPU      0.00s WALL (      76 calls)
     g_psi        :      0.00s CPU      0.00s WALL (      67 calls)

     Called by h_psi:
     h_psi:calbec :      0.02s CPU      0.02s WALL (      76 calls)
     vloc_psi     :      0.38s CPU      0.41s WALL (      76 calls)
     add_vuspsi   :      0.00s CPU      0.00s WALL (      76 calls)

     General routines
     calbec       :      0.03s CPU      0.03s WALL (      89 calls)
     fft          :      0.25s CPU      0.28s WALL (     101 calls)
     ffts         :      0.02s CPU      0.02s WALL (       8 calls)
     fftw         :      0.38s CPU      0.41s WALL (     332 calls)

     Parallel routines

     PAW routines
     PAW_pot      :      0.08s CPU      0.08s WALL (       9 calls)

     PWSCF        :      1.90s CPU      2.21s WALL


   This run was terminated on:   0:27:57  16Mar2025            

=------------------------------------------------------------------------------=
   JOB DONE.
=------------------------------------------------------------------------------=
[psid05:235040] 29 more processes have sent help message help-mpi-btl-openib.txt / ib port not selected
[psid05:235040] Set MCA parameter "orte_base_help_aggregate" to 0 to see all help / error messages
[psid05:235040] 29 more processes have sent help message help-mpi-btl-openib.txt / error in device init
