--------------------------------------------------------------------------
By default, for Open MPI 4.0 and later, infiniband ports on a device
are not used by default.  The intent is to use UCX for these devices.
You can override this policy by setting the btl_openib_allow_ib MCA parameter
to true.

  Local host:              psid02
  Local adapter:           mlx5_0
  Local port:              1

--------------------------------------------------------------------------
--------------------------------------------------------------------------
WARNING: There was an error initializing an OpenFabrics device.

  Local host:   psid02
  Local device: mlx5_0
--------------------------------------------------------------------------

     Program PWSCF v.7.3.1 starts on 26Mar2025 at  1: 5:53 

     This program is part of the open-source Quantum ESPRESSO suite
     for quantum simulation of materials; please cite
         "P. Giannozzi et al., J. Phys.:Condens. Matter 21 395502 (2009);
         "P. Giannozzi et al., J. Phys.:Condens. Matter 29 465901 (2017);
         "P. Giannozzi et al., J. Chem. Phys. 152 154105 (2020);
          URL http://www.quantum-espresso.org", 
     in publications or presentations arising from this work. More details at
     http://www.quantum-espresso.org/quote

     Parallel version (MPI), running on    32 processors

     MPI processes distributed on     1 nodes
     47373 MiB available memory on the printing compute node when the environment starts

     Waiting for input...
     Reading input from standard input

     Current dimensions of program PWSCF are:
     Max number of different atomic species (ntypx) = 10
     Max number of k-points (npk) =  40000
     Max angular momentum in pseudopotentials (lmaxx) =  4
     Found identity + ( -0.5000  0.0000  0.0000) symmetry
     This is a supercell, fractional translations are disabled

     R & G space division:  proc/nbgrp/npool/nimage =      32
     Subspace diagonalization in iterative solution of the eigenvalue problem:
     one sub-group per band group will be used
     custom distributed-memory algorithm (size of sub-group:  5*  5 procs)


     Parallelization info
     --------------------
     sticks:   dense  smooth     PW     G-vecs:    dense   smooth      PW
     Min         134     134     37                16204    16204    2341
     Max         135     135     38                16215    16215    2351
     Sum        4303    4303   1189               518755   518755   75035

     Using Slab Decomposition



     bravais-lattice index     =            0
     lattice parameter (alat)  =      19.7617  a.u.
     unit-cell volume          =   15176.5939 (a.u.)^3
     number of atoms/cell      =           48
     number of atomic types    =            1
     number of electrons       =       960.00
     number of Kohn-Sham states=          576
     kinetic-energy cutoff     =      40.0000  Ry
     charge density cutoff     =     160.0000  Ry
     scf convergence threshold =      1.0E-06
     mixing beta               =       0.4000
     number of iterations used =            8  plain     mixing
     Exchange-correlation= SLA  PW   PBE  PBE
                           (   1   4   3   4   0   0   0)

     celldm(1)=  19.761696  celldm(2)=   0.000000  celldm(3)=   0.000000
     celldm(4)=   0.000000  celldm(5)=   0.000000  celldm(6)=   0.000000

     crystal axes: (cart. coord. in units of alat)
               a(1) = (   1.000000   0.000000   0.000000 )  
               a(2) = (  -0.500000   0.866025   0.000000 )  
               a(3) = (   0.000000   0.000000   2.270759 )  

     reciprocal axes: (cart. coord. in units 2 pi/alat)
               b(1) = (  1.000000  0.577350 -0.000000 )  
               b(2) = (  0.000000  1.154701  0.000000 )  
               b(3) = (  0.000000 -0.000000  0.440381 )  


     PseudoPot. # 1 for Zn read from file:
     /home/ys/qepseudo/SSSP_1.3.0_PBE_efficiency/Zn_pbe_v1.uspp.F.UPF
     MD5 check sum: df62231357ef9e81f77b2b3087fa5675
     Pseudo is Ultrasoft, Zval = 20.0
     Generated by new atomic code, or converted to UPF format
     Using radial grid of  943 points,  6 beta functions with: 
                l(1) =   0
                l(2) =   0
                l(3) =   1
                l(4) =   1
                l(5) =   2
                l(6) =   2
     Q(r) pseudized with  8 coefficients,  rinner =    1.100   1.100   1.100
                                                       1.100   1.100

     atomic species   valence    mass     pseudopotential
     Zn               20.00    65.38000     Zn( 1.00)

     No symmetry found


                                    s                        frac. trans.

      isym =  1     identity                                     

 cryst.   s( 1) = (     1          0          0      )
                  (     0          1          0      )
                  (     0          0          1      )

 cart.    s( 1) = (  1.0000000  0.0000000  0.0000000 )
                  (  0.0000000  1.0000000  0.0000000 )
                  (  0.0000000  0.0000000  1.0000000 )


   Cartesian axes

     site n.     atom                  positions (alat units)
         1        Zn     tau(   1) = (   0.0000000   0.1443375   0.1164998  )
         2        Zn     tau(   2) = (   0.5000000   0.1443375   0.1164998  )
         3        Zn     tau(   3) = (   0.0000000   0.1443375   0.5824993  )
         4        Zn     tau(   4) = (   0.5000000   0.1443375   0.5824993  )
         5        Zn     tau(   5) = (  -0.1250000   0.3608439   0.1164998  )
         6        Zn     tau(   6) = (   0.3750000   0.3608439   0.1164998  )
         7        Zn     tau(   7) = (  -0.1250000   0.3608439   0.5824993  )
         8        Zn     tau(   8) = (   0.3750000   0.3608439   0.5824993  )
         9        Zn     tau(   9) = (  -0.2500000   0.5773502   0.1164998  )
        10        Zn     tau(  10) = (   0.2500000   0.5773502   0.1164998  )
        11        Zn     tau(  11) = (  -0.2500000   0.5773502   0.5824993  )
        12        Zn     tau(  12) = (   0.2500000   0.5773502   0.5824993  )
        13        Zn     tau(  13) = (  -0.3750000   0.7938567   0.1164998  )
        14        Zn     tau(  14) = (   0.1250000   0.7938567   0.1164998  )
        15        Zn     tau(  15) = (  -0.3750000   0.7938567   0.5824993  )
        16        Zn     tau(  16) = (   0.1250000   0.7938567   0.5824993  )
        17        Zn     tau(  17) = (   0.2500000   0.1443375   0.1164998  )
        18        Zn     tau(  18) = (   0.7500000   0.1443375   0.1164998  )
        19        Zn     tau(  19) = (   0.2500000   0.1443375   0.5824993  )
        20        Zn     tau(  20) = (   0.7500000   0.1443375   0.5824993  )
        21        Zn     tau(  21) = (   0.1250000   0.3608439   0.1164998  )
        22        Zn     tau(  22) = (   0.6250000   0.3608439   0.1164998  )
        23        Zn     tau(  23) = (   0.1250000   0.3608439   0.5824993  )
        24        Zn     tau(  24) = (   0.6250000   0.3608439   0.5824993  )
        25        Zn     tau(  25) = (   0.0000000   0.5773502   0.1164998  )
        26        Zn     tau(  26) = (   0.5000000   0.5773502   0.1164998  )
        27        Zn     tau(  27) = (   0.0000000   0.5773502   0.5824993  )
        28        Zn     tau(  28) = (   0.5000000   0.5773502   0.5824993  )
        29        Zn     tau(  29) = (  -0.1250000   0.7938567   0.1164998  )
        30        Zn     tau(  30) = (   0.3750000   0.7938567   0.1164998  )
        31        Zn     tau(  31) = (  -0.1250000   0.7938567   0.5824993  )
        32        Zn     tau(  32) = (   0.3750000   0.7938567   0.5824993  )
        33        Zn     tau(  33) = (   0.1250000   0.0721688   0.3494996  )
        34        Zn     tau(  34) = (   0.6250000   0.0721688   0.3494996  )
        35        Zn     tau(  35) = (   0.0000000   0.2886752   0.3494996  )
        36        Zn     tau(  36) = (   0.5000000   0.2886752   0.3494996  )
        37        Zn     tau(  37) = (  -0.1250000   0.5051815   0.3494996  )
        38        Zn     tau(  38) = (   0.3750000   0.5051815   0.3494996  )
        39        Zn     tau(  39) = (  -0.2500000   0.7216879   0.3494996  )
        40        Zn     tau(  40) = (   0.2500000   0.7216879   0.3494996  )
        41        Zn     tau(  41) = (   0.3750000   0.0721688   0.3494996  )
        42        Zn     tau(  42) = (   0.8750000   0.0721688   0.3494996  )
        43        Zn     tau(  43) = (   0.2500000   0.2886752   0.3494996  )
        44        Zn     tau(  44) = (   0.7500000   0.2886752   0.3494996  )
        45        Zn     tau(  45) = (   0.1250000   0.5051815   0.3494996  )
        46        Zn     tau(  46) = (   0.6250000   0.5051815   0.3494996  )
        47        Zn     tau(  47) = (   0.0000000   0.7216879   0.3494996  )
        48        Zn     tau(  48) = (   0.5000000   0.7216879   0.3494996  )

   Crystallographic axes

     site n.     atom                  positions (cryst. coord.)
         1        Zn     tau(   1) = (  0.0833333  0.1666666  0.0513044  )
         2        Zn     tau(   2) = (  0.5833333  0.1666666  0.0513044  )
         3        Zn     tau(   3) = (  0.0833333  0.1666666  0.2565219  )
         4        Zn     tau(   4) = (  0.5833333  0.1666666  0.2565219  )
         5        Zn     tau(   5) = (  0.0833333  0.4166666  0.0513044  )
         6        Zn     tau(   6) = (  0.5833333  0.4166666  0.0513044  )
         7        Zn     tau(   7) = (  0.0833333  0.4166666  0.2565219  )
         8        Zn     tau(   8) = (  0.5833333  0.4166666  0.2565219  )
         9        Zn     tau(   9) = (  0.0833333  0.6666666  0.0513044  )
        10        Zn     tau(  10) = (  0.5833333  0.6666666  0.0513044  )
        11        Zn     tau(  11) = (  0.0833333  0.6666666  0.2565219  )
        12        Zn     tau(  12) = (  0.5833333  0.6666666  0.2565219  )
        13        Zn     tau(  13) = (  0.0833333  0.9166667  0.0513044  )
        14        Zn     tau(  14) = (  0.5833334  0.9166667  0.0513044  )
        15        Zn     tau(  15) = (  0.0833333  0.9166667  0.2565219  )
        16        Zn     tau(  16) = (  0.5833334  0.9166667  0.2565219  )
        17        Zn     tau(  17) = (  0.3333333  0.1666666  0.0513044  )
        18        Zn     tau(  18) = (  0.8333334  0.1666666  0.0513044  )
        19        Zn     tau(  19) = (  0.3333333  0.1666666  0.2565219  )
        20        Zn     tau(  20) = (  0.8333334  0.1666666  0.2565219  )
        21        Zn     tau(  21) = (  0.3333333  0.4166666  0.0513044  )
        22        Zn     tau(  22) = (  0.8333333  0.4166666  0.0513044  )
        23        Zn     tau(  23) = (  0.3333333  0.4166666  0.2565219  )
        24        Zn     tau(  24) = (  0.8333333  0.4166666  0.2565219  )
        25        Zn     tau(  25) = (  0.3333333  0.6666666  0.0513044  )
        26        Zn     tau(  26) = (  0.8333333  0.6666666  0.0513044  )
        27        Zn     tau(  27) = (  0.3333333  0.6666666  0.2565219  )
        28        Zn     tau(  28) = (  0.8333333  0.6666666  0.2565219  )
        29        Zn     tau(  29) = (  0.3333334  0.9166667  0.0513044  )
        30        Zn     tau(  30) = (  0.8333334  0.9166667  0.0513044  )
        31        Zn     tau(  31) = (  0.3333334  0.9166667  0.2565219  )
        32        Zn     tau(  32) = (  0.8333334  0.9166667  0.2565219  )
        33        Zn     tau(  33) = (  0.1666667  0.0833334  0.1539131  )
        34        Zn     tau(  34) = (  0.6666667  0.0833334  0.1539131  )
        35        Zn     tau(  35) = (  0.1666667  0.3333334  0.1539131  )
        36        Zn     tau(  36) = (  0.6666667  0.3333334  0.1539131  )
        37        Zn     tau(  37) = (  0.1666667  0.5833334  0.1539131  )
        38        Zn     tau(  38) = (  0.6666667  0.5833334  0.1539131  )
        39        Zn     tau(  39) = (  0.1666667  0.8333334  0.1539131  )
        40        Zn     tau(  40) = (  0.6666667  0.8333334  0.1539131  )
        41        Zn     tau(  41) = (  0.4166667  0.0833334  0.1539131  )
        42        Zn     tau(  42) = (  0.9166667  0.0833334  0.1539131  )
        43        Zn     tau(  43) = (  0.4166667  0.3333334  0.1539131  )
        44        Zn     tau(  44) = (  0.9166667  0.3333334  0.1539131  )
        45        Zn     tau(  45) = (  0.4166667  0.5833334  0.1539131  )
        46        Zn     tau(  46) = (  0.9166667  0.5833334  0.1539131  )
        47        Zn     tau(  47) = (  0.4166667  0.8333334  0.1539131  )
        48        Zn     tau(  48) = (  0.9166667  0.8333334  0.1539131  )

     number of k points=    10  Marzari-Vanderbilt smearing, width (Ry)=  0.0200
                       cart. coord. in units 2pi/alat
        k(    1) = (   0.0000000   0.0000000   0.0000000), wk =   0.1250000
        k(    2) = (   0.0000000   0.2886751   0.0000000), wk =   0.2500000
        k(    3) = (   0.0000000  -0.5773503   0.0000000), wk =   0.1250000
        k(    4) = (   0.2500000   0.1443376   0.0000000), wk =   0.2500000
        k(    5) = (   0.2500000   0.4330127   0.0000000), wk =   0.2500000
        k(    6) = (   0.2500000  -0.4330127   0.0000000), wk =   0.2500000
        k(    7) = (   0.2500000  -0.1443376   0.0000000), wk =   0.2500000
        k(    8) = (  -0.5000000  -0.2886751   0.0000000), wk =   0.1250000
        k(    9) = (  -0.5000000   0.0000000   0.0000000), wk =   0.2500000
        k(   10) = (  -0.5000000  -0.8660254   0.0000000), wk =   0.1250000

                       cryst. coord.
        k(    1) = (   0.0000000   0.0000000   0.0000000), wk =   0.1250000
        k(    2) = (   0.0000000   0.2500000   0.0000000), wk =   0.2500000
        k(    3) = (   0.0000000  -0.5000000   0.0000000), wk =   0.1250000
        k(    4) = (   0.2500000   0.0000000   0.0000000), wk =   0.2500000
        k(    5) = (   0.2500000   0.2500000   0.0000000), wk =   0.2500000
        k(    6) = (   0.2500000  -0.5000000   0.0000000), wk =   0.2500000
        k(    7) = (   0.2500000  -0.2500000   0.0000000), wk =   0.2500000
        k(    8) = (  -0.5000000   0.0000000   0.0000000), wk =   0.1250000
        k(    9) = (  -0.5000000   0.2500000   0.0000000), wk =   0.2500000
        k(   10) = (  -0.5000000  -0.5000000   0.0000000), wk =   0.1250000

     Dense  grid:   518755 G-vectors     FFT dimensions: (  80,  80, 192)

     Dynamical RAM for                 wfc:      17.81 MB

     Dynamical RAM for     wfc (w. buffer):     195.87 MB

     Dynamical RAM for           str. fact:       0.25 MB

     Dynamical RAM for           local pot:       0.00 MB

     Dynamical RAM for          nlocal pot:      26.71 MB

     Dynamical RAM for                qrad:       1.02 MB

     Dynamical RAM for          rho,v,vnew:       1.62 MB

     Dynamical RAM for               rhoin:       0.54 MB

     Dynamical RAM for            rho*nmix:       3.96 MB

     Dynamical RAM for           G-vectors:       1.05 MB

     Dynamical RAM for          h,s,v(r/c):       2.42 MB

     Dynamical RAM for          <psi|beta>:       7.59 MB

     Dynamical RAM for                 psi:      35.61 MB

     Dynamical RAM for                hpsi:      35.61 MB

     Dynamical RAM for                spsi:      35.61 MB

     Dynamical RAM for      wfcinit/wfcrot:      47.50 MB

     Dynamical RAM for           addusdens:      57.90 MB

     Estimated static dynamical RAM per process >     229.02 MB

     Estimated max dynamical RAM per process >     349.83 MB

     Estimated total dynamical RAM >      10.93 GB

     Initial potential from superposition of free atoms

     starting charge     959.9932, renormalised to     960.0000

     negative rho (up, down):  2.080E-03 0.000E+00
     Starting wfcs are  624 randomized atomic wfcs
[psid02:136684] 31 more processes have sent help message help-mpi-btl-openib.txt / ib port not selected
[psid02:136684] Set MCA parameter "orte_base_help_aggregate" to 0 to see all help / error messages
[psid02:136684] 31 more processes have sent help message help-mpi-btl-openib.txt / error in device init

     total cpu time spent up to now is      113.6 secs

     Self-consistent Calculation

     iteration #  1     ecut=    40.00 Ry     beta= 0.40
     Davidson diagonalization with overlap

---- Real-time Memory Report at c_bands before calling an iterative solver
           296 MiB given to the printing process from OS
             0 MiB allocation reported by mallinfo(arena+hblkhd)
         39673 MiB available memory on the node where the printing process lives
------------------
     ethr =  1.00E-02,  avg # of iterations = 10.4

     Threshold (ethr) on eigenvalues was too large:
     Diagonalizing with lowered threshold

     Davidson diagonalization with overlap

---- Real-time Memory Report at c_bands before calling an iterative solver
           384 MiB given to the printing process from OS
             0 MiB allocation reported by mallinfo(arena+hblkhd)
         39152 MiB available memory on the node where the printing process lives
------------------
     ethr =  1.61E-04,  avg # of iterations = 11.0

     negative rho (up, down):  1.990E-03 0.000E+00

     total cpu time spent up to now is     1004.6 secs

     total energy              =  -22153.85639765 Ry
     estimated scf accuracy    <       1.57438709 Ry

     iteration #  2     ecut=    40.00 Ry     beta= 0.40
     Davidson diagonalization with overlap

---- Real-time Memory Report at c_bands before calling an iterative solver
           384 MiB given to the printing process from OS
             0 MiB allocation reported by mallinfo(arena+hblkhd)
         39117 MiB available memory on the node where the printing process lives
------------------
     ethr =  1.64E-04,  avg # of iterations =  2.0

     negative rho (up, down):  4.074E-03 0.000E+00

     total cpu time spent up to now is     1431.4 secs

     total energy              =  -22154.23537174 Ry
     estimated scf accuracy    <       0.27671042 Ry

     iteration #  3     ecut=    40.00 Ry     beta= 0.40
     Davidson diagonalization with overlap

---- Real-time Memory Report at c_bands before calling an iterative solver
           388 MiB given to the printing process from OS
             0 MiB allocation reported by mallinfo(arena+hblkhd)
         39004 MiB available memory on the node where the printing process lives
------------------
     c_bands:  2 eigenvalues not converged
     ethr =  2.88E-05,  avg # of iterations =  8.2

     negative rho (up, down):  8.068E-03 0.000E+00

     total cpu time spent up to now is     1825.4 secs

     total energy              =  -22154.25244371 Ry
     estimated scf accuracy    <       0.04711303 Ry

     iteration #  4     ecut=    40.00 Ry     beta= 0.40
     Davidson diagonalization with overlap

---- Real-time Memory Report at c_bands before calling an iterative solver
           389 MiB given to the printing process from OS
             0 MiB allocation reported by mallinfo(arena+hblkhd)
         38987 MiB available memory on the node where the printing process lives
------------------
     ethr =  4.91E-06,  avg # of iterations = 12.1

     negative rho (up, down):  8.453E-03 0.000E+00

     total cpu time spent up to now is     2248.9 secs

     total energy              =  -22154.25374751 Ry
     estimated scf accuracy    <       0.01479813 Ry

     iteration #  5     ecut=    40.00 Ry     beta= 0.40
     Davidson diagonalization with overlap

---- Real-time Memory Report at c_bands before calling an iterative solver
           389 MiB given to the printing process from OS
             0 MiB allocation reported by mallinfo(arena+hblkhd)
         38969 MiB available memory on the node where the printing process lives
------------------
     ethr =  1.54E-06,  avg # of iterations =  4.0

     negative rho (up, down):  8.711E-03 0.000E+00

     total cpu time spent up to now is     2630.1 secs

     total energy              =  -22154.25481188 Ry
     estimated scf accuracy    <       0.00228776 Ry

     iteration #  6     ecut=    40.00 Ry     beta= 0.40
     Davidson diagonalization with overlap

---- Real-time Memory Report at c_bands before calling an iterative solver
           390 MiB given to the printing process from OS
             0 MiB allocation reported by mallinfo(arena+hblkhd)
         38954 MiB available memory on the node where the printing process lives
------------------
     ethr =  2.38E-07,  avg # of iterations =  2.0

     negative rho (up, down):  8.761E-03 0.000E+00

     total cpu time spent up to now is     3038.8 secs

     total energy              =  -22154.25502417 Ry
     estimated scf accuracy    <       0.00210919 Ry

     iteration #  7     ecut=    40.00 Ry     beta= 0.40
     Davidson diagonalization with overlap

---- Real-time Memory Report at c_bands before calling an iterative solver
           390 MiB given to the printing process from OS
             0 MiB allocation reported by mallinfo(arena+hblkhd)
         38936 MiB available memory on the node where the printing process lives
------------------
     ethr =  2.20E-07,  avg # of iterations =  1.0

     negative rho (up, down):  8.851E-03 0.000E+00

     total cpu time spent up to now is     3334.9 secs

     total energy              =  -22154.25522520 Ry
     estimated scf accuracy    <       0.00026542 Ry

     iteration #  8     ecut=    40.00 Ry     beta= 0.40
     Davidson diagonalization with overlap

---- Real-time Memory Report at c_bands before calling an iterative solver
           391 MiB given to the printing process from OS
             0 MiB allocation reported by mallinfo(arena+hblkhd)
         38920 MiB available memory on the node where the printing process lives
------------------
     ethr =  2.76E-08,  avg # of iterations =  1.0

     negative rho (up, down):  8.862E-03 0.000E+00

     total cpu time spent up to now is     3631.7 secs

     total energy              =  -22154.25521996 Ry
     estimated scf accuracy    <       0.00004078 Ry

     iteration #  9     ecut=    40.00 Ry     beta= 0.40
     Davidson diagonalization with overlap

---- Real-time Memory Report at c_bands before calling an iterative solver
           391 MiB given to the printing process from OS
             0 MiB allocation reported by mallinfo(arena+hblkhd)
         38900 MiB available memory on the node where the printing process lives
------------------
     ethr =  4.25E-09,  avg # of iterations =  2.0

     negative rho (up, down):  8.884E-03 0.000E+00

     total cpu time spent up to now is     4080.8 secs

     total energy              =  -22154.25523187 Ry
     estimated scf accuracy    <       0.00000999 Ry

     iteration # 10     ecut=    40.00 Ry     beta= 0.40
     Davidson diagonalization with overlap

---- Real-time Memory Report at c_bands before calling an iterative solver
           392 MiB given to the printing process from OS
             0 MiB allocation reported by mallinfo(arena+hblkhd)
         38884 MiB available memory on the node where the printing process lives
------------------
     ethr =  1.04E-09,  avg # of iterations =  2.0

     negative rho (up, down):  8.883E-03 0.000E+00

     total cpu time spent up to now is     4509.9 secs

     End of self-consistent calculation

          k = 0.0000 0.0000 0.0000 ( 64855 PWs)   bands (ev):

  -125.0673-125.0659-125.0658-125.0656-125.0653-125.0652-125.0649-125.0642
  -125.0641-125.0640-125.0638-125.0637-125.0634-125.0633-125.0630-125.0627
  -124.8631-124.8629-124.8616-124.8615-124.8614-124.8614-124.8613-124.8612
  -124.8612-124.8611-124.8610-124.8610-124.8608-124.8607-124.8600-124.8599
  -124.8598-124.8598-124.8597-124.8596-124.8595-124.8595-124.8595-124.8594
  -124.8594-124.8593-124.8592-124.8591-124.8591-124.8589-124.8587-124.8586
   -79.2335 -79.2335 -79.2335 -79.2271 -79.2271 -79.2268 -79.2268 -79.2266
   -79.2266 -79.2159 -79.2157 -79.2157 -79.2156 -79.2154 -79.2153 -79.2152
   -79.2143 -79.2142 -79.2140 -79.2138 -79.2137 -79.2136 -79.2136 -79.2134
   -79.2134 -79.2134 -79.2133 -79.2132 -79.2124 -79.2123 -79.2122 -79.2120
   -79.2118 -79.2116 -79.2115 -79.2112 -79.2109 -79.2069 -79.2068 -79.2068
   -79.2023 -79.2022 -79.2022 -79.2020 -79.2019 -79.2019 -79.1974 -79.1973
   -79.0260 -79.0260 -79.0260 -79.0258 -79.0258 -79.0257 -79.0202 -79.0199
   -79.0195 -79.0195 -79.0193 -79.0193 -79.0193 -79.0193 -79.0192 -79.0192
   -79.0191 -79.0190 -79.0190 -79.0190 -79.0186 -79.0185 -79.0183 -79.0183
   -79.0182 -79.0182 -79.0181 -79.0180 -79.0179 -79.0179 -79.0178 -79.0176
   -79.0168 -79.0166 -79.0166 -79.0165 -79.0165 -79.0164 -79.0163 -79.0163
   -79.0162 -79.0162 -79.0162 -79.0161 -79.0160 -79.0159 -79.0159 -79.0157
   -79.0155 -79.0153 -79.0082 -79.0081 -79.0081 -79.0080 -79.0080 -79.0079
   -79.0079 -79.0078 -79.0078 -79.0077 -79.0077 -79.0076 -79.0061 -79.0061
   -79.0060 -79.0059 -79.0059 -79.0059 -79.0059 -79.0058 -79.0057 -79.0057
   -79.0056 -79.0056 -78.9994 -78.9994 -78.9994 -78.9992 -78.9992 -78.9991
   -78.9948 -78.9948 -78.9947 -78.9946 -78.9946 -78.9946 -78.9945 -78.9945
   -78.9945 -78.9944 -78.9943 -78.9942 -78.9900 -78.9900 -78.9897 -78.9897
    -8.6225  -7.4006  -7.0925  -7.0686  -7.0685  -7.0684  -7.0683  -7.0682
    -7.0681  -6.9142  -6.9142  -6.9142  -6.7253  -6.7253  -6.7253  -6.6778
    -6.6778  -6.6778  -6.5892  -6.5891  -6.5891  -6.5890  -6.5889  -6.5889
    -6.5399  -6.5399  -6.5399  -6.5398  -6.5398  -6.5397  -6.5362  -6.5362
    -6.5362  -6.4787  -6.4787  -6.4785  -6.4785  -6.4784  -6.4784  -6.4321
    -6.4321  -6.4319  -6.4319  -6.4317  -6.4317  -6.3346  -6.3346  -6.3345
    -6.3344  -6.3342  -6.3341  -6.3327  -6.3327  -6.3326  -6.2736  -6.2735
    -6.2735  -6.2733  -6.2733  -6.2732  -6.2707  -6.2115  -6.2114  -6.2113
    -6.2112  -6.2112  -6.2111  -6.1713  -6.1713  -6.1712  -6.1712  -6.1712
    -6.1712  -6.1458  -6.1457  -6.1457  -6.1457  -6.1457  -6.1457  -6.1219
    -6.1219  -6.1217  -6.1217  -6.1217  -6.1217  -6.1216  -6.1216  -6.0967
    -6.0967  -6.0967  -6.0967  -6.0967  -6.0967  -6.0965  -6.0965  -6.0965
    -5.9942  -5.9942  -5.9941  -5.9941  -5.9939  -5.9939  -5.9163  -5.9162
    -5.8975  -5.8975  -5.8653  -5.8653  -5.8653  -5.8653  -5.8652  -5.8652
    -5.8628  -5.8627  -5.8626  -5.8626  -5.8625  -5.8625  -5.8314  -5.8314
    -5.8314  -5.7829  -5.7828  -5.7828  -5.7828  -5.7828  -5.7828  -5.7766
    -5.7766  -5.7766  -5.7766  -5.7766  -5.7766  -5.7765  -5.7765  -5.7765
    -5.7765  -5.7764  -5.7764  -5.7541  -5.7540  -5.7540  -5.7539  -5.7539
    -5.7539  -5.7446  -5.7445  -5.7445  -5.7443  -5.7443  -5.7442  -5.7279
    -5.7279  -5.7278  -5.7276  -5.7276  -5.7275  -5.7166  -5.7085  -5.7084
    -5.7084  -5.7084  -5.7081  -5.7081  -5.6975  -5.6975  -5.6975  -5.6100
    -5.6100  -5.5745  -5.5745  -5.5744  -5.5744  -5.5741  -5.5741  -5.5688
    -5.5688  -5.5688  -5.5688  -5.5685  -5.5685  -5.5451  -5.5450  -5.5450
    -5.5449  -5.5448  -5.5447  -5.5281  -5.5281  -5.5281  -5.5024  -5.5024
    -5.5023  -5.5022  -5.5021  -5.5021  -5.4937  -5.4937  -5.4936  -5.4936
    -5.4935  -5.4935  -5.4447  -5.4447  -5.4446  -5.4445  -5.4444  -5.4444
    -5.4343  -5.4343  -5.4343  -5.4322  -5.4322  -5.4322  -5.3982  -5.3982
    -5.3982  -5.3900  -5.3900  -5.3899  -5.3898  -5.3898  -5.3897  -5.3821
    -5.3821  -5.3609  -5.3609  -5.3203  -5.3203  -5.3202  -5.3202  -5.3201
    -5.3200  -5.2903  -5.2903  -5.2903  -5.2902  -5.2902  -5.2902  -5.2807
    -5.2807  -5.2807  -5.0713  -5.0713  -5.0712  -5.0710  -5.0710  -5.0710
    -4.3978  -4.3977  -4.3976  -4.3975  -4.3974  -4.3973  -3.4504  -2.1036
    -2.1036  -2.1036  -2.1036  -2.1035  -2.1035  -2.0204  -2.0203  -2.0202
    -2.0200  -2.0199  -2.0199  -0.8426  -0.8426  -0.8426  -0.7123  -0.6401
    -0.6401  -0.6401  -0.6401  -0.6401  -0.6401  -0.0846  -0.0846  -0.0846
     0.2450   0.2450   0.2450   1.5363   1.5363   1.5363   1.5363   1.5363
     1.5363   1.5805   1.5806   1.5807   1.5808   1.5809   1.5810   2.3090
     2.3090   2.3090   3.1079   3.3012   3.3012   3.3012   4.1414   4.1414
     4.1414   4.8834   4.8834   4.8835   4.8836   4.8837   4.8838   5.0589
     5.2083   5.4272   5.4272   5.4272   5.4272   5.4272   5.4272   5.4345
     5.4345   5.4347   5.4347   5.4348   5.4348   5.6051   5.6051   5.6052
     5.6052   5.6054   5.6054   6.1723   6.3496   6.5622   6.5622   6.5622
     6.8589   6.8589   6.8589   6.8590   6.8590   6.8590   7.0105   7.0105
     7.0107   7.0107   7.0108   7.0108   7.0441   7.0441   7.0441   7.0441
     7.0441   7.0441   7.1886   7.1886   7.1887   7.1887   7.1888   7.1888
     8.0114   8.0115   8.0115   8.0115   8.0115   8.0115   8.1365   8.1365
     8.1366   8.1366   8.1366   8.1366   8.1448   8.1448   8.1449   8.1449
     8.1449   8.1449   8.1655   8.3361   8.3760   8.3760   8.3760   9.2814

     occupation numbers 
     1.0000   1.0000   1.0000   1.0000   1.0000   1.0000   1.0000   1.0000
     1.0000   1.0000   1.0000   1.0000   1.0000   1.0000   1.0000   1.0000
     1.0000   1.0000   1.0000   1.0000   1.0000   1.0000   1.0000   1.0000
     1.0000   1.0000   1.0000   1.0000   1.0000   1.0000   1.0000   1.0000
     1.0000   1.0000   1.0000   1.0000   1.0000   1.0000   1.0000   1.0000
     1.0000   1.0000   1.0000   1.0000   1.0000   1.0000   1.0000   1.0000
     1.0000   1.0000   1.0000   1.0000   1.0000   1.0000   1.0000   1.0000
     1.0000   1.0000   1.0000   1.0000   1.0000   1.0000   1.0000   1.0000
     1.0000   1.0000   1.0000   1.0000   1.0000   1.0000   1.0000   1.0000
     1.0000   1.0000   1.0000   1.0000   1.0000   1.0000   1.0000   1.0000
     1.0000   1.0000   1.0000   1.0000   1.0000   1.0000   1.0000   1.0000
     1.0000   1.0000   1.0000   1.0000   1.0000   1.0000   1.0000   1.0000
     1.0000   1.0000   1.0000   1.0000   1.0000   1.0000   1.0000   1.0000
     1.0000   1.0000   1.0000   1.0000   1.0000   1.0000   1.0000   1.0000
     1.0000   1.0000   1.0000   1.0000   1.0000   1.0000   1.0000   1.0000
     1.0000   1.0000   1.0000   1.0000   1.0000   1.0000   1.0000   1.0000
     1.0000   1.0000   1.0000   1.0000   1.0000   1.0000   1.0000   1.0000
     1.0000   1.0000   1.0000   1.0000   1.0000   1.0000   1.0000   1.0000
     1.0000   1.0000   1.0000   1.0000   1.0000   1.0000   1.0000   1.0000
     1.0000   1.0000   1.0000   1.0000   1.0000   1.0000   1.0000   1.0000
     1.0000   1.0000   1.0000   1.0000   1.0000   1.0000   1.0000   1.0000
     1.0000   1.0000   1.0000   1.0000   1.0000   1.0000   1.0000   1.0000
     1.0000   1.0000   1.0000   1.0000   1.0000   1.0000   1.0000   1.0000
     1.0000   1.0000   1.0000   1.0000   1.0000   1.0000   1.0000   1.0000
     1.0000   1.0000   1.0000   1.0000   1.0000   1.0000   1.0000   1.0000
     1.0000   1.0000   1.0000   1.0000   1.0000   1.0000   1.0000   1.0000
     1.0000   1.0000   1.0000   1.0000   1.0000   1.0000   1.0000   1.0000
     1.0000   1.0000   1.0000   1.0000   1.0000   1.0000   1.0000   1.0000
     1.0000   1.0000   1.0000   1.0000   1.0000   1.0000   1.0000   1.0000
     1.0000   1.0000   1.0000   1.0000   1.0000   1.0000   1.0000   1.0000
     1.0000   1.0000   1.0000   1.0000   1.0000   1.0000   1.0000   1.0000
     1.0000   1.0000   1.0000   1.0000   1.0000   1.0000   1.0000   1.0000
     1.0000   1.0000   1.0000   1.0000   1.0000   1.0000   1.0000   1.0000
     1.0000   1.0000   1.0000   1.0000   1.0000   1.0000   1.0000   1.0000
     1.0000   1.0000   1.0000   1.0000   1.0000   1.0000   1.0000   1.0000
     1.0000   1.0000   1.0000   1.0000   1.0000   1.0000   1.0000   1.0000
     1.0000   1.0000   1.0000   1.0000   1.0000   1.0000   1.0000   1.0000
     1.0000   1.0000   1.0000   1.0000   1.0000   1.0000   1.0000   1.0000
     1.0000   1.0000   1.0000   1.0000   1.0000   1.0000   1.0000   1.0000
     1.0000   1.0000   1.0000   1.0000   1.0000   1.0000   1.0000   1.0000
     1.0000   1.0000   1.0000   1.0000   1.0000   1.0000   1.0000   1.0000
     1.0000   1.0000   1.0000   1.0000   1.0000   1.0000   1.0000   1.0000
     1.0000   1.0000   1.0000   1.0000   1.0000   1.0000   1.0000   1.0000
     1.0000   1.0000   1.0000   1.0000   1.0000   1.0000   1.0000   1.0000
     1.0000   1.0000   1.0000   1.0000   1.0000   1.0000   1.0000   1.0000
     1.0000   1.0000   1.0000   1.0000   1.0000   1.0000   1.0000   1.0000
     1.0000   1.0000   1.0000   1.0000   1.0000   1.0000   1.0000   1.0000
     1.0000   1.0000   1.0000   1.0000   1.0000   1.0000   1.0000   1.0000
     1.0000   1.0000   1.0000   1.0000   1.0000   1.0000   1.0000   1.0000
     1.0000   1.0000   1.0000   1.0000   1.0000   1.0000   1.0000   1.0000
     1.0000   1.0000   1.0000   1.0000   1.0000   1.0000   1.0000   1.0000
     1.0000   1.0000   1.0000   1.0000   1.0000   1.0000   1.0000   1.0000
     1.0000   1.0000   1.0000   1.0000   1.0000   1.0000   1.0000   1.0000
     1.0000   1.0000   1.0000   1.0000   1.0000   1.0000   1.0000   1.0000
     1.0000   1.0000   1.0000   1.0000   1.0000   1.0000   1.0000   1.0000
     1.0000   1.0000   1.0000   1.0000   1.0000   1.0000   1.0000   1.0000
     1.0000   1.0000   1.0000   1.0000   1.0000   1.0000   1.0000   1.0000
     1.0000   1.0000   1.0000   1.0000   1.0000   1.0000   1.0000   1.0000
     1.0000   1.0000   1.0000   1.0000   1.0000   1.0000   1.0000   1.0000
     1.0000   1.0000   1.0000   0.1848   0.1848   0.1848   0.1848   0.1848
     0.1848   0.1226   0.1225   0.1224   0.1222   0.1221   0.1220   0.0000
     0.0000   0.0000   0.0000   0.0000   0.0000   0.0000   0.0000   0.0000
     0.0000   0.0000   0.0000   0.0000   0.0000   0.0000   0.0000   0.0000
     0.0000   0.0000   0.0000   0.0000   0.0000   0.0000   0.0000   0.0000
     0.0000   0.0000   0.0000   0.0000   0.0000   0.0000   0.0000   0.0000
     0.0000   0.0000   0.0000   0.0000   0.0000   0.0000   0.0000   0.0000
     0.0000   0.0000   0.0000   0.0000   0.0000   0.0000   0.0000   0.0000
     0.0000   0.0000   0.0000   0.0000   0.0000   0.0000   0.0000   0.0000
     0.0000   0.0000   0.0000   0.0000   0.0000   0.0000   0.0000   0.0000
     0.0000   0.0000   0.0000   0.0000   0.0000   0.0000   0.0000   0.0000
     0.0000   0.0000   0.0000   0.0000   0.0000   0.0000   0.0000   0.0000
     0.0000   0.0000   0.0000   0.0000   0.0000   0.0000   0.0000   0.0000

          k = 0.0000 0.2887 0.0000 ( 64808 PWs)   bands (ev):

  -125.0672-125.0663-125.0658-125.0655-125.0653-125.0651-125.0646-125.0644
  -125.0642-125.0640-125.0638-125.0636-125.0635-125.0633-125.0629-125.0626
  -124.8630-124.8628-124.8621-124.8619-124.8616-124.8614-124.8614-124.8612
  -124.8611-124.8609-124.8608-124.8607-124.8605-124.8603-124.8602-124.8601
  -124.8600-124.8598-124.8598-124.8597-124.8596-124.8595-124.8595-124.8594
  -124.8594-124.8594-124.8592-124.8591-124.8590-124.8589-124.8587-124.8585
   -79.2328 -79.2328 -79.2322 -79.2282 -79.2282 -79.2272 -79.2272 -79.2253
   -79.2253 -79.2224 -79.2192 -79.2191 -79.2165 -79.2165 -79.2158 -79.2148
   -79.2142 -79.2140 -79.2136 -79.2134 -79.2129 -79.2126 -79.2125 -79.2125
   -79.2125 -79.2122 -79.2121 -79.2121 -79.2120 -79.2118 -79.2116 -79.2115
   -79.2111 -79.2108 -79.2098 -79.2098 -79.2085 -79.2076 -79.2076 -79.2064
   -79.2040 -79.2036 -79.2035 -79.2017 -79.2016 -79.2003 -79.1987 -79.1977
   -79.0252 -79.0252 -79.0250 -79.0250 -79.0246 -79.0244 -79.0207 -79.0207
   -79.0205 -79.0204 -79.0201 -79.0198 -79.0197 -79.0197 -79.0195 -79.0195
   -79.0191 -79.0189 -79.0186 -79.0184 -79.0183 -79.0181 -79.0180 -79.0178
   -79.0178 -79.0178 -79.0177 -79.0176 -79.0176 -79.0176 -79.0174 -79.0171
   -79.0170 -79.0169 -79.0168 -79.0166 -79.0165 -79.0164 -79.0163 -79.0163
   -79.0163 -79.0162 -79.0162 -79.0162 -79.0160 -79.0159 -79.0158 -79.0157
   -79.0155 -79.0153 -79.0149 -79.0147 -79.0117 -79.0117 -79.0115 -79.0114
   -79.0090 -79.0090 -79.0088 -79.0088 -79.0050 -79.0050 -79.0048 -79.0048
   -79.0047 -79.0046 -79.0044 -79.0044 -79.0023 -79.0023 -79.0021 -79.0021
   -79.0011 -79.0008 -79.0002 -79.0001 -78.9999 -78.9999 -78.9990 -78.9988
   -78.9965 -78.9963 -78.9962 -78.9961 -78.9960 -78.9959 -78.9942 -78.9942
   -78.9940 -78.9940 -78.9929 -78.9926 -78.9913 -78.9911 -78.9903 -78.9901
    -8.5037  -7.6201  -7.3007  -7.2481  -7.2481  -7.0299  -6.8981  -6.8719
    -6.8719  -6.8492  -6.8458  -6.8458  -6.7064  -6.6915  -6.6915  -6.6909
    -6.6755  -6.6625  -6.6381  -6.6381  -6.5899  -6.5802  -6.5774  -6.5774
    -6.5675  -6.5675  -6.5482  -6.5482  -6.5284  -6.5284  -6.5181  -6.5181
    -6.5167  -6.5120  -6.5120  -6.5090  -6.5090  -6.5020  -6.5020  -6.4861
    -6.4861  -6.4603  -6.4603  -6.4229  -6.4229  -6.3948  -6.3948  -6.3798
    -6.3798  -6.3758  -6.3214  -6.3166  -6.3166  -6.3153  -6.3153  -6.3152
    -6.3152  -6.2688  -6.2688  -6.2598  -6.2515  -6.2294  -6.2294  -6.2231
    -6.2231  -6.2218  -6.2217  -6.2217  -6.2083  -6.2083  -6.2045  -6.2045
    -6.1952  -6.1952  -6.1837  -6.1837  -6.1799  -6.1784  -6.1784  -6.1543
    -6.1376  -6.1232  -6.1232  -6.1139  -6.1139  -6.0998  -6.0998  -6.0927
    -6.0896  -6.0896  -6.0772  -6.0628  -6.0628  -6.0497  -6.0497  -6.0488
    -6.0488  -5.9591  -5.9591  -5.9587  -5.9587  -5.9436  -5.9408  -5.9371
    -5.9362  -5.9349  -5.9349  -5.9241  -5.9241  -5.9127  -5.9105  -5.9105
    -5.8921  -5.8921  -5.8890  -5.8859  -5.8810  -5.8732  -5.8732  -5.8684
    -5.8454  -5.8454  -5.8389  -5.8389  -5.8244  -5.8115  -5.7956  -5.7956
    -5.7946  -5.7946  -5.7863  -5.7863  -5.7765  -5.7765  -5.7752  -5.7721
    -5.7721  -5.7550  -5.7550  -5.7478  -5.7478  -5.7396  -5.7300  -5.7300
    -5.7146  -5.7131  -5.7131  -5.7049  -5.7049  -5.6971  -5.6971  -5.6942
    -5.6942  -5.6913  -5.6913  -5.6781  -5.6672  -5.6672  -5.6568  -5.6441
    -5.6387  -5.6387  -5.6335  -5.6335  -5.6184  -5.6184  -5.6165  -5.6156
    -5.6156  -5.6120  -5.6119  -5.6045  -5.6045  -5.5791  -5.5629  -5.5600
    -5.5600  -5.5560  -5.5560  -5.5468  -5.5468  -5.5444  -5.5443  -5.5438
    -5.5438  -5.5404  -5.5263  -5.5263  -5.5245  -5.5202  -5.5202  -5.5119
    -5.5119  -5.4909  -5.4909  -5.4629  -5.4592  -5.4579  -5.4579  -5.4530
    -5.4530  -5.4506  -5.4506  -5.4385  -5.4385  -5.4293  -5.4248  -5.4248
    -5.4221  -5.4204  -5.4130  -5.4128  -5.4032  -5.4032  -5.3982  -5.3982
    -5.3871  -5.3865  -5.3865  -5.3791  -5.3690  -5.3690  -5.3630  -5.3583
    -5.3456  -5.3456  -5.3410  -5.3320  -5.3198  -5.3198  -5.3134  -5.3117
    -5.3117  -5.3019  -5.3019  -5.2930  -5.2930  -5.2825  -5.2825  -5.1435
    -5.1435  -5.1292  -5.1292  -5.1237  -5.1237  -5.1053  -5.1046  -4.9473
    -4.9342  -4.6383  -4.6383  -3.8810  -3.8810  -3.4799  -3.3938  -3.3938
    -3.3654  -2.6736  -2.3018  -2.3018  -2.2220  -2.0211  -2.0211  -1.9713
    -1.9713  -1.5148  -1.5148  -1.2921  -1.2921  -1.1169  -0.7949  -0.5729
    -0.5729  -0.5608  -0.5608  -0.5521   0.0238   0.0238   0.2690   0.2690
     0.5600   0.5600   0.6335   0.8766   0.8983   0.8983   1.1836   1.1836
     1.5565   1.5565   2.2264   2.2264   2.6473   2.6966   2.6966   2.7211
     2.7826   2.7826   2.9500   2.9500   3.2198   3.5466   3.6907   3.6907
     3.9087   3.9087   4.1122   4.1851   4.1851   4.5563   4.5564   4.8017
     4.8017   4.8432   4.8432   5.1518   5.1518   5.1605   5.1605   5.1719
     5.3232   5.4261   5.4261   5.5684   5.6427   5.7935   5.7935   5.8068
     6.0744   6.0941   6.0941   6.2420   6.2884   6.3130   6.3130   6.4621
     6.5245   6.5245   6.5945   6.5945   6.7008   6.7008   6.7102   7.0101
     7.0101   7.0869   7.0869   7.1722   7.1722   7.2131   7.3089   7.3089
     7.3599   7.4104   7.4104   7.4473   7.4473   7.6118   7.6118   7.6568
     7.6568   7.6726   7.6726   7.7358   7.8070   7.8070   7.9460   7.9460
     8.0209   8.0209   8.0763   8.2810   8.2985   8.4478   8.6099   8.6099
     8.6603   8.6603   8.6962   8.8079   8.8079   8.8259   8.8365   8.8365

     occupation numbers 
     1.0000   1.0000   1.0000   1.0000   1.0000   1.0000   1.0000   1.0000
     1.0000   1.0000   1.0000   1.0000   1.0000   1.0000   1.0000   1.0000
     1.0000   1.0000   1.0000   1.0000   1.0000   1.0000   1.0000   1.0000
     1.0000   1.0000   1.0000   1.0000   1.0000   1.0000   1.0000   1.0000
     1.0000   1.0000   1.0000   1.0000   1.0000   1.0000   1.0000   1.0000
     1.0000   1.0000   1.0000   1.0000   1.0000   1.0000   1.0000   1.0000
     1.0000   1.0000   1.0000   1.0000   1.0000   1.0000   1.0000   1.0000
     1.0000   1.0000   1.0000   1.0000   1.0000   1.0000   1.0000   1.0000
     1.0000   1.0000   1.0000   1.0000   1.0000   1.0000   1.0000   1.0000
     1.0000   1.0000   1.0000   1.0000   1.0000   1.0000   1.0000   1.0000
     1.0000   1.0000   1.0000   1.0000   1.0000   1.0000   1.0000   1.0000
     1.0000   1.0000   1.0000   1.0000   1.0000   1.0000   1.0000   1.0000
     1.0000   1.0000   1.0000   1.0000   1.0000   1.0000   1.0000   1.0000
     1.0000   1.0000   1.0000   1.0000   1.0000   1.0000   1.0000   1.0000
     1.0000   1.0000   1.0000   1.0000   1.0000   1.0000   1.0000   1.0000
     1.0000   1.0000   1.0000   1.0000   1.0000   1.0000   1.0000   1.0000
     1.0000   1.0000   1.0000   1.0000   1.0000   1.0000   1.0000   1.0000
     1.0000   1.0000   1.0000   1.0000   1.0000   1.0000   1.0000   1.0000
     1.0000   1.0000   1.0000   1.0000   1.0000   1.0000   1.0000   1.0000
     1.0000   1.0000   1.0000   1.0000   1.0000   1.0000   1.0000   1.0000
     1.0000   1.0000   1.0000   1.0000   1.0000   1.0000   1.0000   1.0000
     1.0000   1.0000   1.0000   1.0000   1.0000   1.0000   1.0000   1.0000
     1.0000   1.0000   1.0000   1.0000   1.0000   1.0000   1.0000   1.0000
     1.0000   1.0000   1.0000   1.0000   1.0000   1.0000   1.0000   1.0000
     1.0000   1.0000   1.0000   1.0000   1.0000   1.0000   1.0000   1.0000
     1.0000   1.0000   1.0000   1.0000   1.0000   1.0000   1.0000   1.0000
     1.0000   1.0000   1.0000   1.0000   1.0000   1.0000   1.0000   1.0000
     1.0000   1.0000   1.0000   1.0000   1.0000   1.0000   1.0000   1.0000
     1.0000   1.0000   1.0000   1.0000   1.0000   1.0000   1.0000   1.0000
     1.0000   1.0000   1.0000   1.0000   1.0000   1.0000   1.0000   1.0000
     1.0000   1.0000   1.0000   1.0000   1.0000   1.0000   1.0000   1.0000
     1.0000   1.0000   1.0000   1.0000   1.0000   1.0000   1.0000   1.0000
     1.0000   1.0000   1.0000   1.0000   1.0000   1.0000   1.0000   1.0000
     1.0000   1.0000   1.0000   1.0000   1.0000   1.0000   1.0000   1.0000
     1.0000   1.0000   1.0000   1.0000   1.0000   1.0000   1.0000   1.0000
     1.0000   1.0000   1.0000   1.0000   1.0000   1.0000   1.0000   1.0000
     1.0000   1.0000   1.0000   1.0000   1.0000   1.0000   1.0000   1.0000
     1.0000   1.0000   1.0000   1.0000   1.0000   1.0000   1.0000   1.0000
     1.0000   1.0000   1.0000   1.0000   1.0000   1.0000   1.0000   1.0000
     1.0000   1.0000   1.0000   1.0000   1.0000   1.0000   1.0000   1.0000
     1.0000   1.0000   1.0000   1.0000   1.0000   1.0000   1.0000   1.0000
     1.0000   1.0000   1.0000   1.0000   1.0000   1.0000   1.0000   1.0000
     1.0000   1.0000   1.0000   1.0000   1.0000   1.0000   1.0000   1.0000
     1.0000   1.0000   1.0000   1.0000   1.0000   1.0000   1.0000   1.0000
     1.0000   1.0000   1.0000   1.0000   1.0000   1.0000   1.0000   1.0000
     1.0000   1.0000   1.0000   1.0000   1.0000   1.0000   1.0000   1.0000
     1.0000   1.0000   1.0000   1.0000   1.0000   1.0000   1.0000   1.0000
     1.0000   1.0000   1.0000   1.0000   1.0000   1.0000   1.0000   1.0000
     1.0000   1.0000   1.0000   1.0000   1.0000   1.0000   1.0000   1.0000
     1.0000   1.0000   1.0000   1.0000   1.0000   1.0000   1.0000   1.0000
     1.0000   1.0000   1.0000   1.0000   1.0000   1.0000   1.0000   1.0000
     1.0000   1.0000   1.0000   1.0000   1.0000   1.0000   1.0000   1.0000
     1.0000   1.0000   1.0000   1.0000   1.0000   1.0000   1.0000   1.0000
     1.0000   1.0000   1.0000   1.0000   1.0000   1.0000   1.0000   1.0000
     1.0000   1.0000   1.0000   1.0000   1.0000   1.0000   1.0000   1.0000
     1.0000   1.0000   1.0000   1.0000   1.0000   1.0000   1.0000   1.0000
     1.0000   1.0000   1.0000   1.0000   1.0000   1.0000   1.0000   1.0000
     1.0000   1.0000   1.0000   1.0000   1.0000   1.0000   1.0000   1.0000
     1.0000   1.0000   1.0000   1.0000   1.0000   1.0000   1.0000   1.0000
     1.0006   1.0006   1.0019   1.0373   1.0443   1.0443   0.9984   0.9984
     0.1541   0.1541   0.0000   0.0000   0.0000   0.0000   0.0000   0.0000
     0.0000   0.0000   0.0000   0.0000   0.0000   0.0000   0.0000   0.0000
     0.0000   0.0000   0.0000   0.0000   0.0000   0.0000   0.0000   0.0000
     0.0000   0.0000   0.0000   0.0000   0.0000   0.0000   0.0000   0.0000
     0.0000   0.0000   0.0000   0.0000   0.0000   0.0000   0.0000   0.0000
     0.0000   0.0000   0.0000   0.0000   0.0000   0.0000   0.0000   0.0000
     0.0000   0.0000   0.0000   0.0000   0.0000   0.0000   0.0000   0.0000
     0.0000   0.0000   0.0000   0.0000   0.0000   0.0000   0.0000   0.0000
     0.0000   0.0000   0.0000   0.0000   0.0000   0.0000   0.0000   0.0000
     0.0000   0.0000   0.0000   0.0000   0.0000   0.0000   0.0000   0.0000
     0.0000   0.0000   0.0000   0.0000   0.0000   0.0000   0.0000   0.0000
     0.0000   0.0000   0.0000   0.0000   0.0000   0.0000   0.0000   0.0000

          k = 0.0000-0.5774 0.0000 ( 64842 PWs)   bands (ev):

  -125.0669-125.0667-125.0658-125.0656-125.0649-125.0648-125.0647-125.0645
  -125.0642-125.0640-125.0639-125.0636-125.0635-125.0634-125.0629-125.0626
  -124.8627-124.8625-124.8625-124.8623-124.8617-124.8616-124.8615-124.8613
  -124.8607-124.8606-124.8605-124.8604-124.8604-124.8604-124.8603-124.8602
  -124.8600-124.8599-124.8598-124.8597-124.8597-124.8596-124.8595-124.8595
  -124.8594-124.8594-124.8592-124.8591-124.8590-124.8588-124.8586-124.8585
   -79.2309 -79.2308 -79.2306 -79.2305 -79.2285 -79.2282 -79.2272 -79.2269
   -79.2227 -79.2227 -79.2226 -79.2226 -79.2178 -79.2177 -79.2155 -79.2153
   -79.2143 -79.2141 -79.2132 -79.2131 -79.2130 -79.2128 -79.2124 -79.2123
   -79.2121 -79.2118 -79.2117 -79.2116 -79.2112 -79.2112 -79.2111 -79.2108
   -79.2098 -79.2097 -79.2095 -79.2094 -79.2064 -79.2063 -79.2062 -79.2062
   -79.2055 -79.2052 -79.2029 -79.2027 -79.2017 -79.2014 -79.1989 -79.1986
   -79.0233 -79.0232 -79.0232 -79.0231 -79.0231 -79.0230 -79.0229 -79.0228
   -79.0209 -79.0207 -79.0207 -79.0205 -79.0198 -79.0197 -79.0196 -79.0196
   -79.0195 -79.0195 -79.0193 -79.0193 -79.0187 -79.0185 -79.0184 -79.0183
   -79.0175 -79.0174 -79.0173 -79.0173 -79.0173 -79.0172 -79.0171 -79.0170
   -79.0169 -79.0168 -79.0166 -79.0165 -79.0165 -79.0164 -79.0163 -79.0162
   -79.0162 -79.0162 -79.0160 -79.0159 -79.0157 -79.0156 -79.0154 -79.0153
   -79.0152 -79.0152 -79.0152 -79.0152 -79.0149 -79.0149 -79.0149 -79.0149
   -79.0103 -79.0103 -79.0101 -79.0100 -79.0037 -79.0037 -79.0035 -79.0035
   -79.0023 -79.0022 -79.0022 -79.0021 -79.0021 -79.0020 -79.0019 -79.0017
   -78.9989 -78.9989 -78.9988 -78.9988 -78.9987 -78.9986 -78.9986 -78.9986
   -78.9981 -78.9979 -78.9979 -78.9976 -78.9954 -78.9952 -78.9952 -78.9950
   -78.9942 -78.9941 -78.9940 -78.9938 -78.9914 -78.9912 -78.9912 -78.9910
    -8.1558  -8.1556  -7.3168  -7.3168  -7.0263  -7.0261  -6.8646  -6.8644
    -6.8596  -6.8593  -6.7496  -6.7495  -6.7493  -6.7492  -6.6535  -6.6533
    -6.6468  -6.6468  -6.6468  -6.6468  -6.6246  -6.6244  -6.6068  -6.6067
    -6.6065  -6.6065  -6.5539  -6.5539  -6.5288  -6.5287  -6.5286  -6.5285
    -6.5063  -6.5063  -6.4871  -6.4871  -6.4871  -6.4871  -6.4630  -6.4630
    -6.4629  -6.4629  -6.4607  -6.4605  -6.4493  -6.4492  -6.4259  -6.4259
    -6.4218  -6.4218  -6.4216  -6.4216  -6.3098  -6.3098  -6.3012  -6.3012
    -6.2930  -6.2930  -6.2930  -6.2930  -6.2912  -6.2910  -6.2703  -6.2702
    -6.2701  -6.2699  -6.2368  -6.2366  -6.2208  -6.2208  -6.2208  -6.2208
    -6.2057  -6.2057  -6.2012  -6.2012  -6.1700  -6.1698  -6.1424  -6.1424
    -6.1113  -6.1113  -6.1029  -6.1029  -6.0818  -6.0818  -6.0816  -6.0816
    -6.0618  -6.0618  -6.0618  -6.0618  -6.0418  -6.0418  -6.0322  -6.0322
    -6.0259  -6.0258  -6.0214  -6.0212  -6.0089  -6.0086  -5.9892  -5.9892
    -5.9892  -5.9892  -5.9465  -5.9465  -5.9457  -5.9454  -5.9152  -5.9151
    -5.9044  -5.9044  -5.8712  -5.8712  -5.8710  -5.8710  -5.8148  -5.8145
    -5.8086  -5.8086  -5.8086  -5.8086  -5.8084  -5.8084  -5.8046  -5.8043
    -5.7864  -5.7864  -5.7848  -5.7845  -5.7760  -5.7760  -5.7758  -5.7758
    -5.7684  -5.7682  -5.7678  -5.7677  -5.7677  -5.7677  -5.7554  -5.7554
    -5.7534  -5.7534  -5.7534  -5.7534  -5.6746  -5.6746  -5.6734  -5.6734
    -5.6662  -5.6662  -5.6449  -5.6449  -5.6449  -5.6449  -5.6306  -5.6303
    -5.6232  -5.6232  -5.6040  -5.6039  -5.6038  -5.6037  -5.5938  -5.5938
    -5.5693  -5.5691  -5.5438  -5.5436  -5.5286  -5.5286  -5.5284  -5.5284
    -5.5254  -5.5254  -5.5254  -5.5254  -5.5230  -5.5230  -5.5198  -5.5197
    -5.4981  -5.4981  -5.4979  -5.4978  -5.4893  -5.4891  -5.4879  -5.4877
    -5.4871  -5.4871  -5.4785  -5.4785  -5.4629  -5.4629  -5.4629  -5.4629
    -5.4520  -5.4520  -5.4518  -5.4517  -5.4387  -5.4387  -5.4217  -5.4215
    -5.4157  -5.4157  -5.4156  -5.4155  -5.4118  -5.4118  -5.4112  -5.4112
    -5.4061  -5.4061  -5.4014  -5.4012  -5.3998  -5.3995  -5.3694  -5.3692
    -5.3625  -5.3625  -5.3625  -5.3625  -5.3244  -5.3244  -5.3244  -5.3244
    -5.2543  -5.2542  -5.2541  -5.2540  -5.2352  -5.2352  -5.2343  -5.2342
    -5.2341  -5.2340  -5.2013  -5.2011  -5.1986  -5.1984  -4.7021  -4.7021
    -4.4182  -4.4182  -4.4182  -4.4182  -3.7283  -3.7282  -3.1107  -3.1105
    -3.0615  -3.0615  -3.0615  -3.0615  -2.3914  -2.3914  -2.2397  -2.2397
    -1.7579  -1.7579  -1.7577  -1.7577  -0.7552  -0.7552  -0.7552  -0.7552
    -0.3255  -0.3254  -0.3253  -0.3252  -0.0903  -0.0901   0.0132   0.0132
     1.0214   1.0214   1.0494   1.0494   1.3382   1.3382   1.3700   1.3700
     1.3701   1.3701   2.2237   2.2237   2.9001   2.9001   2.9002   2.9002
     3.1018   3.1018   3.1018   3.1018   3.3223   3.3223   3.5552   3.5553
     3.8667   3.8667   3.8668   3.8668   3.9985   3.9985   4.2581   4.2581
     4.4472   4.4472   4.7460   4.7460   4.8582   4.8582   5.4826   5.4826
     5.5106   5.5106   5.6680   5.6680   5.8011   5.8012   5.9297   5.9297
     5.9299   5.9299   5.9832   5.9832   5.9833   5.9833   6.1541   6.1541
     6.1541   6.1541   6.4127   6.4127   6.5599   6.5599   6.5862   6.5862
     6.6360   6.6360   6.7992   6.7992   6.8667   6.8667   7.0139   7.0139
     7.0139   7.0139   7.5587   7.5587   7.6964   7.6964   8.0646   8.0646
     8.0836   8.0836   8.0836   8.0836   8.2787   8.2787   8.4196   8.4196
     8.4196   8.4196   8.6164   8.6164   8.6164   8.6164   8.6270   8.6270
     8.7367   8.7367   8.7818   8.7819   8.9996   8.9997   8.9997   8.9998

     occupation numbers 
     1.0000   1.0000   1.0000   1.0000   1.0000   1.0000   1.0000   1.0000
     1.0000   1.0000   1.0000   1.0000   1.0000   1.0000   1.0000   1.0000
     1.0000   1.0000   1.0000   1.0000   1.0000   1.0000   1.0000   1.0000
     1.0000   1.0000   1.0000   1.0000   1.0000   1.0000   1.0000   1.0000
     1.0000   1.0000   1.0000   1.0000   1.0000   1.0000   1.0000   1.0000
     1.0000   1.0000   1.0000   1.0000   1.0000   1.0000   1.0000   1.0000
     1.0000   1.0000   1.0000   1.0000   1.0000   1.0000   1.0000   1.0000
     1.0000   1.0000   1.0000   1.0000   1.0000   1.0000   1.0000   1.0000
     1.0000   1.0000   1.0000   1.0000   1.0000   1.0000   1.0000   1.0000
     1.0000   1.0000   1.0000   1.0000   1.0000   1.0000   1.0000   1.0000
     1.0000   1.0000   1.0000   1.0000   1.0000   1.0000   1.0000   1.0000
     1.0000   1.0000   1.0000   1.0000   1.0000   1.0000   1.0000   1.0000
     1.0000   1.0000   1.0000   1.0000   1.0000   1.0000   1.0000   1.0000
     1.0000   1.0000   1.0000   1.0000   1.0000   1.0000   1.0000   1.0000
     1.0000   1.0000   1.0000   1.0000   1.0000   1.0000   1.0000   1.0000
     1.0000   1.0000   1.0000   1.0000   1.0000   1.0000   1.0000   1.0000
     1.0000   1.0000   1.0000   1.0000   1.0000   1.0000   1.0000   1.0000
     1.0000   1.0000   1.0000   1.0000   1.0000   1.0000   1.0000   1.0000
     1.0000   1.0000   1.0000   1.0000   1.0000   1.0000   1.0000   1.0000
     1.0000   1.0000   1.0000   1.0000   1.0000   1.0000   1.0000   1.0000
     1.0000   1.0000   1.0000   1.0000   1.0000   1.0000   1.0000   1.0000
     1.0000   1.0000   1.0000   1.0000   1.0000   1.0000   1.0000   1.0000
     1.0000   1.0000   1.0000   1.0000   1.0000   1.0000   1.0000   1.0000
     1.0000   1.0000   1.0000   1.0000   1.0000   1.0000   1.0000   1.0000
     1.0000   1.0000   1.0000   1.0000   1.0000   1.0000   1.0000   1.0000
     1.0000   1.0000   1.0000   1.0000   1.0000   1.0000   1.0000   1.0000
     1.0000   1.0000   1.0000   1.0000   1.0000   1.0000   1.0000   1.0000
     1.0000   1.0000   1.0000   1.0000   1.0000   1.0000   1.0000   1.0000
     1.0000   1.0000   1.0000   1.0000   1.0000   1.0000   1.0000   1.0000
     1.0000   1.0000   1.0000   1.0000   1.0000   1.0000   1.0000   1.0000
     1.0000   1.0000   1.0000   1.0000   1.0000   1.0000   1.0000   1.0000
     1.0000   1.0000   1.0000   1.0000   1.0000   1.0000   1.0000   1.0000
     1.0000   1.0000   1.0000   1.0000   1.0000   1.0000   1.0000   1.0000
     1.0000   1.0000   1.0000   1.0000   1.0000   1.0000   1.0000   1.0000
     1.0000   1.0000   1.0000   1.0000   1.0000   1.0000   1.0000   1.0000
     1.0000   1.0000   1.0000   1.0000   1.0000   1.0000   1.0000   1.0000
     1.0000   1.0000   1.0000   1.0000   1.0000   1.0000   1.0000   1.0000
     1.0000   1.0000   1.0000   1.0000   1.0000   1.0000   1.0000   1.0000
     1.0000   1.0000   1.0000   1.0000   1.0000   1.0000   1.0000   1.0000
     1.0000   1.0000   1.0000   1.0000   1.0000   1.0000   1.0000   1.0000
     1.0000   1.0000   1.0000   1.0000   1.0000   1.0000   1.0000   1.0000
     1.0000   1.0000   1.0000   1.0000   1.0000   1.0000   1.0000   1.0000
     1.0000   1.0000   1.0000   1.0000   1.0000   1.0000   1.0000   1.0000
     1.0000   1.0000   1.0000   1.0000   1.0000   1.0000   1.0000   1.0000
     1.0000   1.0000   1.0000   1.0000   1.0000   1.0000   1.0000   1.0000
     1.0000   1.0000   1.0000   1.0000   1.0000   1.0000   1.0000   1.0000
     1.0000   1.0000   1.0000   1.0000   1.0000   1.0000   1.0000   1.0000
     1.0000   1.0000   1.0000   1.0000   1.0000   1.0000   1.0000   1.0000
     1.0000   1.0000   1.0000   1.0000   1.0000   1.0000   1.0000   1.0000
     1.0000   1.0000   1.0000   1.0000   1.0000   1.0000   1.0000   1.0000
     1.0000   1.0000   1.0000   1.0000   1.0000   1.0000   1.0000   1.0000
     1.0000   1.0000   1.0000   1.0000   1.0000   1.0000   1.0000   1.0000
     1.0000   1.0000   1.0000   1.0000   1.0000   1.0000   1.0000   1.0000
     1.0000   1.0000   1.0000   1.0000   1.0000   1.0000   1.0000   1.0000
     1.0000   1.0000   1.0000   1.0000   1.0000   1.0000   1.0000   1.0000
     1.0000   1.0000   1.0000   1.0000   1.0000   1.0000   1.0000   1.0000
     1.0000   1.0000   1.0000   1.0000   1.0000   1.0000   1.0000   1.0000
     1.0000   1.0000   1.0000   1.0000   1.0000   1.0000   1.0000   1.0000
     1.0000   1.0000   1.0000   1.0000   1.0000   1.0000   1.0000   1.0000
     1.0812   1.0812   1.0833   1.0833   0.6571   0.6571   0.5691   0.5691
     0.5688   0.5687   0.0000   0.0000   0.0000   0.0000   0.0000   0.0000
     0.0000   0.0000   0.0000   0.0000   0.0000   0.0000   0.0000   0.0000
     0.0000   0.0000   0.0000   0.0000   0.0000   0.0000   0.0000   0.0000
     0.0000   0.0000   0.0000   0.0000   0.0000   0.0000   0.0000   0.0000
     0.0000   0.0000   0.0000   0.0000   0.0000   0.0000   0.0000   0.0000
     0.0000   0.0000   0.0000   0.0000   0.0000   0.0000   0.0000   0.0000
     0.0000   0.0000   0.0000   0.0000   0.0000   0.0000   0.0000   0.0000
     0.0000   0.0000   0.0000   0.0000   0.0000   0.0000   0.0000   0.0000
     0.0000   0.0000   0.0000   0.0000   0.0000   0.0000   0.0000   0.0000
     0.0000   0.0000   0.0000   0.0000   0.0000   0.0000   0.0000   0.0000
     0.0000   0.0000   0.0000   0.0000   0.0000   0.0000   0.0000   0.0000
     0.0000   0.0000   0.0000   0.0000   0.0000   0.0000   0.0000   0.0000

          k = 0.2500 0.1443 0.0000 ( 64808 PWs)   bands (ev):

  -125.0672-125.0662-125.0659-125.0657-125.0651-125.0650-125.0646-125.0643
  -125.0642-125.0641-125.0639-125.0637-125.0634-125.0633-125.0630-125.0626
  -124.8630-124.8628-124.8620-124.8618-124.8616-124.8616-124.8614-124.8613
  -124.8610-124.8609-124.8607-124.8606-124.8606-124.8603-124.8601-124.8600
  -124.8599-124.8599-124.8598-124.8597-124.8597-124.8595-124.8595-124.8595
  -124.8593-124.8593-124.8591-124.8591-124.8590-124.8589-124.8587-124.8585
   -79.2328 -79.2328 -79.2321 -79.2281 -79.2281 -79.2273 -79.2272 -79.2253
   -79.2253 -79.2224 -79.2192 -79.2192 -79.2165 -79.2165 -79.2158 -79.2147
   -79.2143 -79.2141 -79.2135 -79.2134 -79.2130 -79.2125 -79.2125 -79.2125
   -79.2124 -79.2123 -79.2121 -79.2121 -79.2121 -79.2119 -79.2116 -79.2115
   -79.2111 -79.2108 -79.2098 -79.2098 -79.2085 -79.2076 -79.2075 -79.2065
   -79.2040 -79.2036 -79.2035 -79.2016 -79.2016 -79.2003 -79.1987 -79.1977
   -79.0253 -79.0252 -79.0250 -79.0250 -79.0246 -79.0244 -79.0207 -79.0206
   -79.0204 -79.0204 -79.0201 -79.0198 -79.0198 -79.0197 -79.0195 -79.0195
   -79.0190 -79.0188 -79.0186 -79.0185 -79.0184 -79.0183 -79.0179 -79.0178
   -79.0178 -79.0178 -79.0176 -79.0176 -79.0176 -79.0175 -79.0174 -79.0172
   -79.0169 -79.0168 -79.0167 -79.0167 -79.0166 -79.0165 -79.0165 -79.0163
   -79.0163 -79.0162 -79.0161 -79.0161 -79.0159 -79.0159 -79.0158 -79.0157
   -79.0155 -79.0153 -79.0149 -79.0147 -79.0117 -79.0117 -79.0115 -79.0115
   -79.0090 -79.0090 -79.0088 -79.0088 -79.0050 -79.0050 -79.0048 -79.0047
   -79.0047 -79.0047 -79.0044 -79.0044 -79.0023 -79.0023 -79.0021 -79.0021
   -79.0011 -79.0009 -79.0001 -79.0001 -78.9999 -78.9999 -78.9991 -78.9988
   -78.9965 -78.9963 -78.9962 -78.9961 -78.9960 -78.9959 -78.9942 -78.9942
   -78.9940 -78.9940 -78.9929 -78.9926 -78.9913 -78.9911 -78.9903 -78.9901
    -8.5037  -7.6201  -7.3007  -7.2481  -7.2481  -7.0299  -6.8981  -6.8719
    -6.8719  -6.8492  -6.8458  -6.8458  -6.7064  -6.6915  -6.6915  -6.6909
    -6.6755  -6.6625  -6.6381  -6.6381  -6.5899  -6.5802  -6.5774  -6.5774
    -6.5675  -6.5675  -6.5482  -6.5482  -6.5284  -6.5284  -6.5181  -6.5181
    -6.5167  -6.5120  -6.5120  -6.5090  -6.5090  -6.5020  -6.5020  -6.4861
    -6.4861  -6.4603  -6.4603  -6.4229  -6.4229  -6.3948  -6.3948  -6.3798
    -6.3798  -6.3758  -6.3214  -6.3166  -6.3166  -6.3153  -6.3153  -6.3152
    -6.3152  -6.2688  -6.2688  -6.2598  -6.2515  -6.2294  -6.2294  -6.2231
    -6.2231  -6.2218  -6.2217  -6.2217  -6.2083  -6.2083  -6.2045  -6.2044
    -6.1952  -6.1952  -6.1837  -6.1837  -6.1799  -6.1784  -6.1784  -6.1543
    -6.1376  -6.1232  -6.1232  -6.1139  -6.1139  -6.0998  -6.0998  -6.0927
    -6.0896  -6.0896  -6.0772  -6.0628  -6.0628  -6.0497  -6.0497  -6.0488
    -6.0488  -5.9591  -5.9591  -5.9587  -5.9587  -5.9436  -5.9408  -5.9371
    -5.9362  -5.9349  -5.9349  -5.9241  -5.9241  -5.9127  -5.9105  -5.9105
    -5.8921  -5.8921  -5.8890  -5.8859  -5.8810  -5.8732  -5.8732  -5.8684
    -5.8454  -5.8454  -5.8389  -5.8389  -5.8244  -5.8115  -5.7956  -5.7956
    -5.7946  -5.7946  -5.7863  -5.7863  -5.7765  -5.7765  -5.7752  -5.7721
    -5.7721  -5.7550  -5.7550  -5.7478  -5.7478  -5.7396  -5.7300  -5.7300
    -5.7146  -5.7131  -5.7131  -5.7049  -5.7049  -5.6971  -5.6971  -5.6942
    -5.6942  -5.6913  -5.6913  -5.6781  -5.6672  -5.6672  -5.6568  -5.6441
    -5.6387  -5.6387  -5.6335  -5.6335  -5.6184  -5.6184  -5.6165  -5.6156
    -5.6156  -5.6120  -5.6119  -5.6045  -5.6045  -5.5791  -5.5629  -5.5600
    -5.5600  -5.5560  -5.5560  -5.5468  -5.5468  -5.5443  -5.5443  -5.5438
    -5.5438  -5.5404  -5.5264  -5.5263  -5.5245  -5.5202  -5.5202  -5.5119
    -5.5119  -5.4909  -5.4909  -5.4629  -5.4592  -5.4579  -5.4579  -5.4530
    -5.4530  -5.4506  -5.4506  -5.4385  -5.4385  -5.4294  -5.4248  -5.4248
    -5.4221  -5.4204  -5.4130  -5.4128  -5.4032  -5.4032  -5.3982  -5.3982
    -5.3871  -5.3865  -5.3865  -5.3791  -5.3690  -5.3690  -5.3630  -5.3583
    -5.3456  -5.3456  -5.3410  -5.3320  -5.3198  -5.3198  -5.3134  -5.3117
    -5.3117  -5.3019  -5.3019  -5.2930  -5.2930  -5.2825  -5.2825  -5.1435
    -5.1435  -5.1292  -5.1292  -5.1237  -5.1237  -5.1053  -5.1046  -4.9473
    -4.9342  -4.6383  -4.6383  -3.8810  -3.8810  -3.4799  -3.3938  -3.3938
    -3.3654  -2.6736  -2.3018  -2.3018  -2.2220  -2.0211  -2.0211  -1.9713
    -1.9713  -1.5148  -1.5148  -1.2921  -1.2921  -1.1169  -0.7949  -0.5729
    -0.5729  -0.5608  -0.5608  -0.5521   0.0238   0.0238   0.2690   0.2690
     0.5600   0.5600   0.6335   0.8766   0.8983   0.8983   1.1836   1.1836
     1.5565   1.5565   2.2264   2.2264   2.6473   2.6966   2.6966   2.7211
     2.7826   2.7826   2.9500   2.9500   3.2198   3.5466   3.6907   3.6907
     3.9087   3.9087   4.1122   4.1851   4.1851   4.5563   4.5564   4.8017
     4.8017   4.8432   4.8432   5.1518   5.1518   5.1605   5.1605   5.1719
     5.3232   5.4261   5.4262   5.5684   5.6427   5.7935   5.7935   5.8068
     6.0744   6.0941   6.0941   6.2420   6.2884   6.3130   6.3130   6.4621
     6.5245   6.5245   6.5945   6.5945   6.7008   6.7008   6.7102   7.0101
     7.0101   7.0869   7.0869   7.1722   7.1722   7.2131   7.3089   7.3089
     7.3599   7.4104   7.4104   7.4473   7.4473   7.6118   7.6118   7.6568
     7.6568   7.6726   7.6726   7.7358   7.8070   7.8070   7.9460   7.9460
     8.0209   8.0209   8.0763   8.2810   8.2985   8.4478   8.6099   8.6099
     8.6603   8.6603   8.6962   8.8079   8.8079   8.8259   8.8365   8.8365

     occupation numbers 
     1.0000   1.0000   1.0000   1.0000   1.0000   1.0000   1.0000   1.0000
     1.0000   1.0000   1.0000   1.0000   1.0000   1.0000   1.0000   1.0000
     1.0000   1.0000   1.0000   1.0000   1.0000   1.0000   1.0000   1.0000
     1.0000   1.0000   1.0000   1.0000   1.0000   1.0000   1.0000   1.0000
     1.0000   1.0000   1.0000   1.0000   1.0000   1.0000   1.0000   1.0000
     1.0000   1.0000   1.0000   1.0000   1.0000   1.0000   1.0000   1.0000
     1.0000   1.0000   1.0000   1.0000   1.0000   1.0000   1.0000   1.0000
     1.0000   1.0000   1.0000   1.0000   1.0000   1.0000   1.0000   1.0000
     1.0000   1.0000   1.0000   1.0000   1.0000   1.0000   1.0000   1.0000
     1.0000   1.0000   1.0000   1.0000   1.0000   1.0000   1.0000   1.0000
     1.0000   1.0000   1.0000   1.0000   1.0000   1.0000   1.0000   1.0000
     1.0000   1.0000   1.0000   1.0000   1.0000   1.0000   1.0000   1.0000
     1.0000   1.0000   1.0000   1.0000   1.0000   1.0000   1.0000   1.0000
     1.0000   1.0000   1.0000   1.0000   1.0000   1.0000   1.0000   1.0000
     1.0000   1.0000   1.0000   1.0000   1.0000   1.0000   1.0000   1.0000
     1.0000   1.0000   1.0000   1.0000   1.0000   1.0000   1.0000   1.0000
     1.0000   1.0000   1.0000   1.0000   1.0000   1.0000   1.0000   1.0000
     1.0000   1.0000   1.0000   1.0000   1.0000   1.0000   1.0000   1.0000
     1.0000   1.0000   1.0000   1.0000   1.0000   1.0000   1.0000   1.0000
     1.0000   1.0000   1.0000   1.0000   1.0000   1.0000   1.0000   1.0000
     1.0000   1.0000   1.0000   1.0000   1.0000   1.0000   1.0000   1.0000
     1.0000   1.0000   1.0000   1.0000   1.0000   1.0000   1.0000   1.0000
     1.0000   1.0000   1.0000   1.0000   1.0000   1.0000   1.0000   1.0000
     1.0000   1.0000   1.0000   1.0000   1.0000   1.0000   1.0000   1.0000
     1.0000   1.0000   1.0000   1.0000   1.0000   1.0000   1.0000   1.0000
     1.0000   1.0000   1.0000   1.0000   1.0000   1.0000   1.0000   1.0000
     1.0000   1.0000   1.0000   1.0000   1.0000   1.0000   1.0000   1.0000
     1.0000   1.0000   1.0000   1.0000   1.0000   1.0000   1.0000   1.0000
     1.0000   1.0000   1.0000   1.0000   1.0000   1.0000   1.0000   1.0000
     1.0000   1.0000   1.0000   1.0000   1.0000   1.0000   1.0000   1.0000
     1.0000   1.0000   1.0000   1.0000   1.0000   1.0000   1.0000   1.0000
     1.0000   1.0000   1.0000   1.0000   1.0000   1.0000   1.0000   1.0000
     1.0000   1.0000   1.0000   1.0000   1.0000   1.0000   1.0000   1.0000
     1.0000   1.0000   1.0000   1.0000   1.0000   1.0000   1.0000   1.0000
     1.0000   1.0000   1.0000   1.0000   1.0000   1.0000   1.0000   1.0000
     1.0000   1.0000   1.0000   1.0000   1.0000   1.0000   1.0000   1.0000
     1.0000   1.0000   1.0000   1.0000   1.0000   1.0000   1.0000   1.0000
     1.0000   1.0000   1.0000   1.0000   1.0000   1.0000   1.0000   1.0000
     1.0000   1.0000   1.0000   1.0000   1.0000   1.0000   1.0000   1.0000
     1.0000   1.0000   1.0000   1.0000   1.0000   1.0000   1.0000   1.0000
     1.0000   1.0000   1.0000   1.0000   1.0000   1.0000   1.0000   1.0000
     1.0000   1.0000   1.0000   1.0000   1.0000   1.0000   1.0000   1.0000
     1.0000   1.0000   1.0000   1.0000   1.0000   1.0000   1.0000   1.0000
     1.0000   1.0000   1.0000   1.0000   1.0000   1.0000   1.0000   1.0000
     1.0000   1.0000   1.0000   1.0000   1.0000   1.0000   1.0000   1.0000
     1.0000   1.0000   1.0000   1.0000   1.0000   1.0000   1.0000   1.0000
     1.0000   1.0000   1.0000   1.0000   1.0000   1.0000   1.0000   1.0000
     1.0000   1.0000   1.0000   1.0000   1.0000   1.0000   1.0000   1.0000
     1.0000   1.0000   1.0000   1.0000   1.0000   1.0000   1.0000   1.0000
     1.0000   1.0000   1.0000   1.0000   1.0000   1.0000   1.0000   1.0000
     1.0000   1.0000   1.0000   1.0000   1.0000   1.0000   1.0000   1.0000
     1.0000   1.0000   1.0000   1.0000   1.0000   1.0000   1.0000   1.0000
     1.0000   1.0000   1.0000   1.0000   1.0000   1.0000   1.0000   1.0000
     1.0000   1.0000   1.0000   1.0000   1.0000   1.0000   1.0000   1.0000
     1.0000   1.0000   1.0000   1.0000   1.0000   1.0000   1.0000   1.0000
     1.0000   1.0000   1.0000   1.0000   1.0000   1.0000   1.0000   1.0000
     1.0000   1.0000   1.0000   1.0000   1.0000   1.0000   1.0000   1.0000
     1.0000   1.0000   1.0000   1.0000   1.0000   1.0000   1.0000   1.0000
     1.0000   1.0000   1.0000   1.0000   1.0000   1.0000   1.0000   1.0000
     1.0006   1.0006   1.0019   1.0373   1.0443   1.0443   0.9984   0.9984
     0.1541   0.1541   0.0000   0.0000   0.0000   0.0000   0.0000   0.0000
     0.0000   0.0000   0.0000   0.0000   0.0000   0.0000   0.0000   0.0000
     0.0000   0.0000   0.0000   0.0000   0.0000   0.0000   0.0000   0.0000
     0.0000   0.0000   0.0000   0.0000   0.0000   0.0000   0.0000   0.0000
     0.0000   0.0000   0.0000   0.0000   0.0000   0.0000   0.0000   0.0000
     0.0000   0.0000   0.0000   0.0000   0.0000   0.0000   0.0000   0.0000
     0.0000   0.0000   0.0000   0.0000   0.0000   0.0000   0.0000   0.0000
     0.0000   0.0000   0.0000   0.0000   0.0000   0.0000   0.0000   0.0000
     0.0000   0.0000   0.0000   0.0000   0.0000   0.0000   0.0000   0.0000
     0.0000   0.0000   0.0000   0.0000   0.0000   0.0000   0.0000   0.0000
     0.0000   0.0000   0.0000   0.0000   0.0000   0.0000   0.0000   0.0000
     0.0000   0.0000   0.0000   0.0000   0.0000   0.0000   0.0000   0.0000

          k = 0.2500 0.4330 0.0000 ( 64876 PWs)   bands (ev):

  -125.0670-125.0665-125.0661-125.0653-125.0652-125.0648-125.0646-125.0644
  -125.0642-125.0640-125.0639-125.0638-125.0634-125.0633-125.0629-125.0626
  -124.8628-124.8626-124.8623-124.8621-124.8620-124.8618-124.8611-124.8610
  -124.8609-124.8608-124.8606-124.8604-124.8603-124.8602-124.8602-124.8601
  -124.8600-124.8599-124.8599-124.8598-124.8597-124.8597-124.8596-124.8595
  -124.8594-124.8593-124.8592-124.8591-124.8590-124.8589-124.8586-124.8585
   -79.2319 -79.2303 -79.2302 -79.2296 -79.2295 -79.2277 -79.2273 -79.2256
   -79.2254 -79.2248 -79.2214 -79.2206 -79.2170 -79.2169 -79.2156 -79.2151
   -79.2146 -79.2137 -79.2136 -79.2135 -79.2134 -79.2131 -79.2129 -79.2126
   -79.2124 -79.2123 -79.2121 -79.2120 -79.2116 -79.2115 -79.2111 -79.2108
   -79.2101 -79.2085 -79.2080 -79.2071 -79.2069 -79.2066 -79.2062 -79.2061
   -79.2056 -79.2053 -79.2039 -79.2039 -79.2014 -79.1999 -79.1998 -79.1984
   -79.0243 -79.0241 -79.0227 -79.0227 -79.0225 -79.0225 -79.0222 -79.0220
   -79.0219 -79.0218 -79.0201 -79.0199 -79.0198 -79.0198 -79.0196 -79.0196
   -79.0194 -79.0191 -79.0190 -79.0188 -79.0180 -79.0180 -79.0179 -79.0179
   -79.0178 -79.0178 -79.0177 -79.0177 -79.0174 -79.0174 -79.0173 -79.0172
   -79.0171 -79.0170 -79.0170 -79.0170 -79.0168 -79.0167 -79.0167 -79.0166
   -79.0165 -79.0165 -79.0164 -79.0162 -79.0162 -79.0161 -79.0160 -79.0158
   -79.0157 -79.0156 -79.0154 -79.0153 -79.0140 -79.0137 -79.0131 -79.0129
   -79.0095 -79.0095 -79.0092 -79.0092 -79.0061 -79.0059 -79.0058 -79.0057
   -79.0027 -79.0024 -79.0010 -79.0008 -79.0007 -79.0004 -78.9996 -78.9994
   -78.9994 -78.9992 -78.9992 -78.9990 -78.9987 -78.9987 -78.9985 -78.9984
   -78.9981 -78.9979 -78.9979 -78.9977 -78.9965 -78.9965 -78.9963 -78.9962
   -78.9939 -78.9937 -78.9924 -78.9924 -78.9922 -78.9921 -78.9910 -78.9908
    -8.2699  -7.8232  -7.8229  -7.1122  -6.9149  -6.8397  -6.8397  -6.8034
    -6.8034  -6.7968  -6.7968  -6.7934  -6.7932  -6.7685  -6.7284  -6.7280
    -6.6983  -6.6979  -6.6549  -6.6549  -6.6229  -6.6091  -6.6091  -6.6043
    -6.6041  -6.5878  -6.5877  -6.5679  -6.5678  -6.5597  -6.5593  -6.5436
    -6.5339  -6.5337  -6.4918  -6.4915  -6.4718  -6.4718  -6.4686  -6.4619
    -6.4619  -6.4398  -6.4398  -6.4173  -6.4120  -6.4120  -6.4117  -6.4115
    -6.4030  -6.4029  -6.3918  -6.3699  -6.3696  -6.3125  -6.3019  -6.3018
    -6.2966  -6.2966  -6.2919  -6.2919  -6.2913  -6.2779  -6.2668  -6.2628
    -6.2626  -6.2544  -6.2487  -6.2484  -6.2437  -6.2437  -6.2425  -6.2227
    -6.2227  -6.2015  -6.2014  -6.1780  -6.1778  -6.1655  -6.1470  -6.1453
    -6.1415  -6.1415  -6.1173  -6.1172  -6.1082  -6.1081  -6.0938  -6.0888
    -6.0552  -6.0552  -6.0458  -6.0456  -6.0424  -6.0327  -6.0202  -6.0202
    -5.9972  -5.9909  -5.9907  -5.9885  -5.9800  -5.9799  -5.9729  -5.9729
    -5.9700  -5.9700  -5.9576  -5.9483  -5.9418  -5.9151  -5.9150  -5.9066
    -5.9065  -5.9060  -5.8989  -5.8902  -5.8902  -5.8852  -5.8852  -5.8777
    -5.8775  -5.8537  -5.8537  -5.8463  -5.8462  -5.8330  -5.8328  -5.8327
    -5.8315  -5.8280  -5.8280  -5.8083  -5.7962  -5.7960  -5.7933  -5.7720
    -5.7626  -5.7625  -5.7548  -5.7526  -5.7525  -5.7499  -5.7123  -5.7123
    -5.6938  -5.6938  -5.6909  -5.6907  -5.6569  -5.6535  -5.6535  -5.6525
    -5.6524  -5.6458  -5.6318  -5.6305  -5.6303  -5.6240  -5.6238  -5.5926
    -5.5925  -5.5921  -5.5918  -5.5916  -5.5822  -5.5820  -5.5808  -5.5807
    -5.5793  -5.5792  -5.5734  -5.5732  -5.5661  -5.5661  -5.5486  -5.5484
    -5.5479  -5.5479  -5.5439  -5.5392  -5.5354  -5.5354  -5.5146  -5.5146
    -5.5119  -5.5091  -5.5090  -5.5076  -5.5019  -5.4828  -5.4824  -5.4809
    -5.4795  -5.4793  -5.4649  -5.4621  -5.4621  -5.4592  -5.4589  -5.4583
    -5.4580  -5.4547  -5.4547  -5.4421  -5.4421  -5.4395  -5.4395  -5.4325
    -5.4323  -5.4311  -5.4167  -5.4166  -5.4108  -5.4098  -5.4098  -5.3974
    -5.3961  -5.3853  -5.3852  -5.3742  -5.3742  -5.3733  -5.3692  -5.3674
    -5.3655  -5.3653  -5.3355  -5.3278  -5.3277  -5.3082  -5.3079  -5.2817
    -5.2759  -5.2757  -5.2728  -5.2727  -5.2720  -5.2719  -5.2567  -5.2284
    -5.1868  -5.1868  -5.1828  -5.1828  -5.1438  -5.1438  -5.0648  -5.0647
    -4.4561  -4.2332  -4.2329  -4.0438  -4.0438  -3.2450  -3.2450  -3.1957
    -3.1448  -2.8773  -2.8773  -2.8498  -2.8496  -2.7805  -2.7802  -1.7960
    -1.7959  -1.7015  -1.7015  -1.4133  -1.4133  -0.8449  -0.4759  -0.4756
    -0.4122  -0.4122  -0.3232  -0.2414   0.2946   0.3500   0.3502   0.4235
     0.4235   0.6998   0.6998   0.7891   0.9702   0.9702   1.0867   1.4156
     1.4159   1.9759   1.9759   2.5310   2.5519   2.8206   2.9856   3.0907
     3.3259   3.3259   3.3639   3.3642   3.4435   3.4465   3.4468   3.5748
     3.5748   3.6672   3.8901   3.8903   4.3747   4.3748   4.3918   4.4247
     4.4434   4.4434   4.5667   4.5668   4.8787   4.9328   5.1390   5.1390
     5.2202   5.2202   5.3977   5.4441   5.4443   5.4521   5.4521   5.5531
     5.8491   5.8492   6.0125   6.0125   6.0904   6.1238   6.1239   6.5203
     6.5419   6.5421   6.6436   6.6456   6.6456   6.6869   6.9519   6.9827
     6.9828   6.9989   6.9989   7.0018   7.0437   7.0438   7.1360   7.1361
     7.1635   7.1635   7.1975   7.1975   7.2218   7.2219   7.3882   7.3882
     8.0794   8.2145   8.2145   8.2971   8.3563   8.3563   8.3618   8.4733
     8.4733   8.5118   8.5391   8.5822   8.5823   8.6087   8.6087   8.6581
     8.6707   8.6783   8.6783   8.7393   8.7504   8.7504   8.9718   8.9718

     occupation numbers 
     1.0000   1.0000   1.0000   1.0000   1.0000   1.0000   1.0000   1.0000
     1.0000   1.0000   1.0000   1.0000   1.0000   1.0000   1.0000   1.0000
     1.0000   1.0000   1.0000   1.0000   1.0000   1.0000   1.0000   1.0000
     1.0000   1.0000   1.0000   1.0000   1.0000   1.0000   1.0000   1.0000
     1.0000   1.0000   1.0000   1.0000   1.0000   1.0000   1.0000   1.0000
     1.0000   1.0000   1.0000   1.0000   1.0000   1.0000   1.0000   1.0000
     1.0000   1.0000   1.0000   1.0000   1.0000   1.0000   1.0000   1.0000
     1.0000   1.0000   1.0000   1.0000   1.0000   1.0000   1.0000   1.0000
     1.0000   1.0000   1.0000   1.0000   1.0000   1.0000   1.0000   1.0000
     1.0000   1.0000   1.0000   1.0000   1.0000   1.0000   1.0000   1.0000
     1.0000   1.0000   1.0000   1.0000   1.0000   1.0000   1.0000   1.0000
     1.0000   1.0000   1.0000   1.0000   1.0000   1.0000   1.0000   1.0000
     1.0000   1.0000   1.0000   1.0000   1.0000   1.0000   1.0000   1.0000
     1.0000   1.0000   1.0000   1.0000   1.0000   1.0000   1.0000   1.0000
     1.0000   1.0000   1.0000   1.0000   1.0000   1.0000   1.0000   1.0000
     1.0000   1.0000   1.0000   1.0000   1.0000   1.0000   1.0000   1.0000
     1.0000   1.0000   1.0000   1.0000   1.0000   1.0000   1.0000   1.0000
     1.0000   1.0000   1.0000   1.0000   1.0000   1.0000   1.0000   1.0000
     1.0000   1.0000   1.0000   1.0000   1.0000   1.0000   1.0000   1.0000
     1.0000   1.0000   1.0000   1.0000   1.0000   1.0000   1.0000   1.0000
     1.0000   1.0000   1.0000   1.0000   1.0000   1.0000   1.0000   1.0000
     1.0000   1.0000   1.0000   1.0000   1.0000   1.0000   1.0000   1.0000
     1.0000   1.0000   1.0000   1.0000   1.0000   1.0000   1.0000   1.0000
     1.0000   1.0000   1.0000   1.0000   1.0000   1.0000   1.0000   1.0000
     1.0000   1.0000   1.0000   1.0000   1.0000   1.0000   1.0000   1.0000
     1.0000   1.0000   1.0000   1.0000   1.0000   1.0000   1.0000   1.0000
     1.0000   1.0000   1.0000   1.0000   1.0000   1.0000   1.0000   1.0000
     1.0000   1.0000   1.0000   1.0000   1.0000   1.0000   1.0000   1.0000
     1.0000   1.0000   1.0000   1.0000   1.0000   1.0000   1.0000   1.0000
     1.0000   1.0000   1.0000   1.0000   1.0000   1.0000   1.0000   1.0000
     1.0000   1.0000   1.0000   1.0000   1.0000   1.0000   1.0000   1.0000
     1.0000   1.0000   1.0000   1.0000   1.0000   1.0000   1.0000   1.0000
     1.0000   1.0000   1.0000   1.0000   1.0000   1.0000   1.0000   1.0000
     1.0000   1.0000   1.0000   1.0000   1.0000   1.0000   1.0000   1.0000
     1.0000   1.0000   1.0000   1.0000   1.0000   1.0000   1.0000   1.0000
     1.0000   1.0000   1.0000   1.0000   1.0000   1.0000   1.0000   1.0000
     1.0000   1.0000   1.0000   1.0000   1.0000   1.0000   1.0000   1.0000
     1.0000   1.0000   1.0000   1.0000   1.0000   1.0000   1.0000   1.0000
     1.0000   1.0000   1.0000   1.0000   1.0000   1.0000   1.0000   1.0000
     1.0000   1.0000   1.0000   1.0000   1.0000   1.0000   1.0000   1.0000
     1.0000   1.0000   1.0000   1.0000   1.0000   1.0000   1.0000   1.0000
     1.0000   1.0000   1.0000   1.0000   1.0000   1.0000   1.0000   1.0000
     1.0000   1.0000   1.0000   1.0000   1.0000   1.0000   1.0000   1.0000
     1.0000   1.0000   1.0000   1.0000   1.0000   1.0000   1.0000   1.0000
     1.0000   1.0000   1.0000   1.0000   1.0000   1.0000   1.0000   1.0000
     1.0000   1.0000   1.0000   1.0000   1.0000   1.0000   1.0000   1.0000
     1.0000   1.0000   1.0000   1.0000   1.0000   1.0000   1.0000   1.0000
     1.0000   1.0000   1.0000   1.0000   1.0000   1.0000   1.0000   1.0000
     1.0000   1.0000   1.0000   1.0000   1.0000   1.0000   1.0000   1.0000
     1.0000   1.0000   1.0000   1.0000   1.0000   1.0000   1.0000   1.0000
     1.0000   1.0000   1.0000   1.0000   1.0000   1.0000   1.0000   1.0000
     1.0000   1.0000   1.0000   1.0000   1.0000   1.0000   1.0000   1.0000
     1.0000   1.0000   1.0000   1.0000   1.0000   1.0000   1.0000   1.0000
     1.0000   1.0000   1.0000   1.0000   1.0000   1.0000   1.0000   1.0000
     1.0000   1.0000   1.0000   1.0000   1.0000   1.0000   1.0000   1.0000
     1.0000   1.0000   1.0000   1.0000   1.0000   1.0000   1.0000   1.0000
     1.0000   1.0000   1.0000   1.0000   1.0000   1.0000   1.0000   1.0000
     1.0000   1.0000   1.0000   1.0000   1.0000   1.0000   1.0000   1.0000
     1.0000   1.0000   1.0000   1.0000   1.0000   1.0000   1.0000   1.0000
     1.0000   1.0052   1.0052   1.0159   1.0686   1.0686   1.0779   0.4456
     0.4448   0.0003   0.0003   0.0000   0.0000   0.0000   0.0000   0.0000
     0.0000   0.0000   0.0000   0.0000   0.0000   0.0000   0.0000   0.0000
     0.0000   0.0000   0.0000   0.0000   0.0000   0.0000   0.0000   0.0000
     0.0000   0.0000   0.0000   0.0000   0.0000   0.0000   0.0000   0.0000
     0.0000   0.0000   0.0000   0.0000   0.0000   0.0000   0.0000   0.0000
     0.0000   0.0000   0.0000   0.0000   0.0000   0.0000   0.0000   0.0000
     0.0000   0.0000   0.0000   0.0000   0.0000   0.0000   0.0000   0.0000
     0.0000   0.0000   0.0000   0.0000   0.0000   0.0000   0.0000   0.0000
     0.0000   0.0000   0.0000   0.0000   0.0000   0.0000   0.0000   0.0000
     0.0000   0.0000   0.0000   0.0000   0.0000   0.0000   0.0000   0.0000
     0.0000   0.0000   0.0000   0.0000   0.0000   0.0000   0.0000   0.0000
     0.0000   0.0000   0.0000   0.0000   0.0000   0.0000   0.0000   0.0000

          k = 0.2500-0.4330 0.0000 ( 64876 PWs)   bands (ev):

  -125.0670-125.0666-125.0661-125.0653-125.0651-125.0648-125.0647-125.0643
  -125.0642-125.0641-125.0639-125.0637-125.0635-125.0633-125.0629-125.0626
  -124.8628-124.8625-124.8624-124.8622-124.8620-124.8617-124.8611-124.8610
  -124.8609-124.8608-124.8606-124.8605-124.8604-124.8603-124.8602-124.8601
  -124.8599-124.8598-124.8598-124.8598-124.8597-124.8596-124.8595-124.8595
  -124.8594-124.8593-124.8592-124.8591-124.8590-124.8588-124.8586-124.8585
   -79.2319 -79.2303 -79.2302 -79.2297 -79.2295 -79.2278 -79.2272 -79.2256
   -79.2253 -79.2248 -79.2214 -79.2206 -79.2170 -79.2169 -79.2156 -79.2151
   -79.2146 -79.2137 -79.2136 -79.2135 -79.2134 -79.2131 -79.2130 -79.2126
   -79.2125 -79.2123 -79.2121 -79.2119 -79.2117 -79.2115 -79.2111 -79.2108
   -79.2101 -79.2086 -79.2080 -79.2072 -79.2068 -79.2065 -79.2062 -79.2061
   -79.2056 -79.2052 -79.2040 -79.2039 -79.2013 -79.1999 -79.1998 -79.1984
   -79.0243 -79.0241 -79.0227 -79.0227 -79.0225 -79.0225 -79.0222 -79.0220
   -79.0219 -79.0218 -79.0202 -79.0200 -79.0198 -79.0198 -79.0196 -79.0195
   -79.0194 -79.0192 -79.0190 -79.0187 -79.0181 -79.0180 -79.0179 -79.0178
   -79.0178 -79.0178 -79.0177 -79.0176 -79.0175 -79.0174 -79.0173 -79.0172
   -79.0171 -79.0171 -79.0170 -79.0169 -79.0167 -79.0167 -79.0166 -79.0166
   -79.0165 -79.0164 -79.0163 -79.0163 -79.0162 -79.0161 -79.0160 -79.0158
   -79.0157 -79.0156 -79.0154 -79.0153 -79.0140 -79.0137 -79.0131 -79.0129
   -79.0095 -79.0095 -79.0092 -79.0092 -79.0061 -79.0059 -79.0059 -79.0057
   -79.0027 -79.0024 -79.0010 -79.0008 -79.0006 -79.0004 -78.9997 -78.9995
   -78.9994 -78.9992 -78.9992 -78.9989 -78.9987 -78.9987 -78.9985 -78.9984
   -78.9981 -78.9979 -78.9979 -78.9976 -78.9965 -78.9965 -78.9963 -78.9963
   -78.9939 -78.9937 -78.9924 -78.9924 -78.9922 -78.9921 -78.9910 -78.9908
    -8.2699  -7.8233  -7.8228  -7.1122  -6.9149  -6.8397  -6.8397  -6.8034
    -6.8034  -6.7969  -6.7967  -6.7935  -6.7931  -6.7685  -6.7284  -6.7279
    -6.6984  -6.6979  -6.6549  -6.6549  -6.6229  -6.6091  -6.6091  -6.6043
    -6.6041  -6.5878  -6.5877  -6.5679  -6.5677  -6.5597  -6.5593  -6.5436
    -6.5339  -6.5337  -6.4919  -6.4914  -6.4718  -6.4718  -6.4686  -6.4619
[...]
     1.0000   1.0000   1.0000   1.0000   1.0000   1.0000   1.0000   1.0000
     1.0000   1.0000   1.0000   1.0000   1.0000   1.0000   1.0000   1.0000
     1.0000   1.0000   1.0000   1.0000   1.0000   1.0000   1.0000   1.0000
     1.0000   1.0000   1.0000   1.0000   1.0000   1.0000   1.0000   1.0000
     1.0000   1.0000   1.0000   1.0000   1.0000   1.0000   1.0000   1.0000
     1.0000   1.0000   1.0000   1.0000   1.0000   1.0000   1.0000   1.0000
     1.0000   1.0000   1.0000   1.0000   1.0000   1.0000   1.0000   1.0000
     1.0000   1.0000   1.0000   1.0000   1.0000   1.0000   1.0000   1.0000
     1.0000   1.0000   1.0000   1.0000   1.0000   1.0000   1.0000   1.0000
     1.0000   1.0000   1.0000   1.0000   1.0000   1.0000   1.0000   1.0000
     1.0000   1.0000   1.0000   1.0000   1.0000   1.0000   1.0000   1.0000
     1.0000   1.0000   1.0000   1.0000   1.0000   1.0000   1.0000   1.0000
     1.0000   1.0000   1.0000   1.0000   1.0000   1.0000   1.0000   1.0000
     1.0000   1.0000   1.0000   1.0000   1.0000   1.0000   1.0000   1.0000
     1.0000   1.0000   1.0000   1.0000   1.0000   1.0000   1.0000   1.0000
     1.0000   1.0000   1.0000   1.0000   1.0000   1.0000   1.0000   1.0000
     1.0000   1.0000   1.0000   1.0000   1.0000   1.0000   1.0000   1.0000
     1.0000   1.0000   1.0000   1.0000   1.0000   1.0000   1.0000   1.0000
     1.0000   1.0000   1.0000   1.0000   1.0000   1.0000   1.0000   1.0000
     1.0000   1.0000   1.0000   1.0000   1.0000   1.0000   1.0000   1.0000
     1.0000   1.0000   1.0000   1.0000   1.0000   1.0000   1.0000   1.0000
     1.0000   1.0000   1.0000   1.0000   1.0000   1.0000   1.0000   1.0000
     1.0000   1.0000   1.0000   1.0000   1.0000   1.0000   1.0000   1.0000
     1.0000   1.0000   1.0000   1.0000   1.0000   1.0000   1.0000   1.0000
     1.0000   1.0000   1.0000   1.0000   1.0000   1.0000   1.0000   1.0000
     1.0000   1.0000   1.0000   1.0000   1.0000   1.0000   1.0000   1.0000
     1.0000   1.0000   1.0000   1.0000   1.0000   1.0000   1.0000   1.0000
     1.0000   1.0000   1.0000   1.0000   1.0000   1.0000   1.0000   1.0000
     1.0000   1.0000   1.0000   1.0000   1.0000   1.0000   1.0000   1.0000
     1.0000   1.0000   1.0000   1.0000   1.0000   1.0000   1.0000   1.0000
     1.0000   1.0000   1.0000   1.0000   1.0000   1.0000   1.0000   1.0000
     1.0000   1.0000   1.0000   1.0000   1.0000   1.0000   1.0000   1.0000
     1.0000   1.0000   1.0000   1.0000   1.0000   1.0000   1.0000   1.0000
     1.0000   1.0000   1.0000   1.0000   1.0000   1.0000   1.0000   1.0000
     1.0000   1.0000   1.0000   1.0000   1.0000   1.0000   1.0000   1.0000
     1.0000   1.0000   1.0000   1.0000   1.0000   1.0000   1.0000   1.0000
     1.0000   1.0000   1.0000   1.0000   1.0000   1.0000   1.0000   1.0000
     1.0000   1.0000   1.0000   1.0000   1.0000   1.0000   1.0000   1.0000
     1.0000   1.0000   1.0000   1.0000   1.0000   1.0000   1.0000   1.0000
     1.0000   1.0000   1.0000   1.0000   1.0000   1.0000   1.0000   1.0000
     1.0000   1.0000   1.0000   1.0000   1.0000   1.0000   1.0000   1.0000
     1.0000   1.0052   1.0052   1.0159   1.0686   1.0686   1.0779   0.4455
     0.4450   0.0003   0.0003   0.0000   0.0000   0.0000   0.0000   0.0000
     0.0000   0.0000   0.0000   0.0000   0.0000   0.0000   0.0000   0.0000
     0.0000   0.0000   0.0000   0.0000   0.0000   0.0000   0.0000   0.0000
     0.0000   0.0000   0.0000   0.0000   0.0000   0.0000   0.0000   0.0000
     0.0000   0.0000   0.0000   0.0000   0.0000   0.0000   0.0000   0.0000
     0.0000   0.0000   0.0000   0.0000   0.0000   0.0000   0.0000   0.0000
     0.0000   0.0000   0.0000   0.0000   0.0000   0.0000   0.0000   0.0000
     0.0000   0.0000   0.0000   0.0000   0.0000   0.0000   0.0000   0.0000
     0.0000   0.0000   0.0000   0.0000   0.0000   0.0000   0.0000   0.0000
     0.0000   0.0000   0.0000   0.0000   0.0000   0.0000   0.0000   0.0000
     0.0000   0.0000   0.0000   0.0000   0.0000   0.0000   0.0000   0.0000
     0.0000   0.0000   0.0000   0.0000   0.0000   0.0000   0.0000   0.0000

          k =-0.5000-0.8660 0.0000 ( 64842 PWs)   bands (ev):

  -125.0670-125.0666-125.0658-125.0657-125.0649-125.0647-125.0647-125.0645
  -125.0642-125.0641-125.0639-125.0636-125.0635-125.0633-125.0629-125.0626
  -124.8628-124.8625-124.8625-124.8623-124.8617-124.8616-124.8615-124.8613
  -124.8606-124.8606-124.8605-124.8604-124.8604-124.8604-124.8603-124.8602
  -124.8601-124.8599-124.8598-124.8598-124.8597-124.8597-124.8595-124.8594
  -124.8594-124.8593-124.8592-124.8591-124.8590-124.8589-124.8587-124.8585
   -79.2311 -79.2308 -79.2306 -79.2303 -79.2285 -79.2282 -79.2272 -79.2270
   -79.2227 -79.2227 -79.2227 -79.2226 -79.2178 -79.2177 -79.2156 -79.2152
   -79.2143 -79.2142 -79.2131 -79.2130 -79.2130 -79.2128 -79.2124 -79.2124
   -79.2121 -79.2118 -79.2117 -79.2115 -79.2112 -79.2112 -79.2111 -79.2108
   -79.2100 -79.2097 -79.2096 -79.2093 -79.2064 -79.2063 -79.2063 -79.2062
   -79.2056 -79.2051 -79.2029 -79.2026 -79.2016 -79.2014 -79.1990 -79.1985
   -79.0234 -79.0234 -79.0232 -79.0231 -79.0230 -79.0230 -79.0228 -79.0227
   -79.0209 -79.0207 -79.0206 -79.0205 -79.0198 -79.0197 -79.0196 -79.0195
   -79.0195 -79.0195 -79.0193 -79.0193 -79.0187 -79.0186 -79.0184 -79.0183
   -79.0175 -79.0174 -79.0173 -79.0173 -79.0172 -79.0172 -79.0171 -79.0170
   -79.0169 -79.0167 -79.0166 -79.0165 -79.0165 -79.0165 -79.0163 -79.0162
   -79.0162 -79.0161 -79.0160 -79.0158 -79.0157 -79.0156 -79.0154 -79.0153
   -79.0152 -79.0152 -79.0152 -79.0152 -79.0149 -79.0149 -79.0149 -79.0149
   -79.0103 -79.0103 -79.0101 -79.0100 -79.0037 -79.0037 -79.0035 -79.0035
   -79.0024 -79.0023 -79.0022 -79.0020 -79.0020 -79.0020 -79.0018 -79.0017
   -78.9989 -78.9989 -78.9988 -78.9988 -78.9987 -78.9986 -78.9986 -78.9986
   -78.9982 -78.9979 -78.9978 -78.9976 -78.9954 -78.9952 -78.9951 -78.9950
   -78.9942 -78.9942 -78.9940 -78.9939 -78.9915 -78.9913 -78.9912 -78.9909
    -8.1559  -8.1555  -7.3168  -7.3168  -7.0263  -7.0261  -6.8647  -6.8643
    -6.8597  -6.8593  -6.7497  -6.7495  -6.7493  -6.7491  -6.6536  -6.6532
    -6.6468  -6.6468  -6.6468  -6.6468  -6.6247  -6.6244  -6.6069  -6.6068
    -6.6065  -6.6064  -6.5539  -6.5539  -6.5289  -6.5287  -6.5285  -6.5284
    -6.5063  -6.5063  -6.4871  -6.4871  -6.4871  -6.4871  -6.4630  -6.4630
    -6.4629  -6.4629  -6.4608  -6.4604  -6.4493  -6.4492  -6.4259  -6.4259
    -6.4219  -6.4219  -6.4215  -6.4215  -6.3098  -6.3098  -6.3012  -6.3012
    -6.2930  -6.2930  -6.2930  -6.2930  -6.2912  -6.2909  -6.2704  -6.2702
    -6.2700  -6.2699  -6.2368  -6.2366  -6.2208  -6.2208  -6.2208  -6.2208
    -6.2057  -6.2057  -6.2012  -6.2012  -6.1701  -6.1698  -6.1424  -6.1424
    -6.1113  -6.1113  -6.1029  -6.1029  -6.0819  -6.0818  -6.0816  -6.0816
    -6.0618  -6.0618  -6.0618  -6.0618  -6.0418  -6.0418  -6.0322  -6.0322
    -6.0260  -6.0258  -6.0215  -6.0212  -6.0090  -6.0086  -5.9892  -5.9892
    -5.9892  -5.9892  -5.9465  -5.9465  -5.9457  -5.9454  -5.9153  -5.9151
    -5.9044  -5.9044  -5.8713  -5.8712  -5.8710  -5.8709  -5.8148  -5.8145
    -5.8087  -5.8087  -5.8086  -5.8086  -5.8083  -5.8083  -5.8047  -5.8042
    -5.7864  -5.7864  -5.7848  -5.7845  -5.7760  -5.7760  -5.7758  -5.7758
    -5.7684  -5.7681  -5.7678  -5.7677  -5.7677  -5.7677  -5.7554  -5.7554
    -5.7534  -5.7534  -5.7534  -5.7534  -5.6746  -5.6746  -5.6734  -5.6734
    -5.6662  -5.6662  -5.6449  -5.6449  -5.6449  -5.6449  -5.6306  -5.6302
    -5.6232  -5.6232  -5.6040  -5.6040  -5.6037  -5.6037  -5.5938  -5.5938
    -5.5694  -5.5691  -5.5439  -5.5436  -5.5286  -5.5286  -5.5284  -5.5283
    -5.5254  -5.5254  -5.5254  -5.5254  -5.5230  -5.5230  -5.5199  -5.5196
    -5.4981  -5.4981  -5.4978  -5.4978  -5.4894  -5.4891  -5.4879  -5.4877
    -5.4871  -5.4871  -5.4785  -5.4785  -5.4629  -5.4629  -5.4629  -5.4629
    -5.4521  -5.4520  -5.4517  -5.4517  -5.4387  -5.4387  -5.4218  -5.4214
    -5.4157  -5.4157  -5.4155  -5.4155  -5.4118  -5.4118  -5.4113  -5.4112
    -5.4061  -5.4061  -5.4015  -5.4012  -5.3998  -5.3995  -5.3694  -5.3691
    -5.3625  -5.3625  -5.3625  -5.3625  -5.3244  -5.3244  -5.3244  -5.3244
    -5.2544  -5.2543  -5.2540  -5.2539  -5.2352  -5.2352  -5.2343  -5.2343
    -5.2340  -5.2339  -5.2013  -5.2010  -5.1986  -5.1983  -4.7021  -4.7021
    -4.4182  -4.4182  -4.4182  -4.4182  -3.7283  -3.7282  -3.1108  -3.1105
    -3.0615  -3.0615  -3.0615  -3.0615  -2.3914  -2.3914  -2.2397  -2.2396
    -1.7580  -1.7580  -1.7577  -1.7576  -0.7552  -0.7552  -0.7552  -0.7552
    -0.3255  -0.3255  -0.3252  -0.3252  -0.0903  -0.0901   0.0132   0.0132
     1.0214   1.0214   1.0494   1.0494   1.3382   1.3382   1.3699   1.3700
     1.3701   1.3702   2.2237   2.2237   2.9001   2.9001   2.9002   2.9002
     3.1018   3.1018   3.1018   3.1018   3.3223   3.3223   3.5551   3.5553
     3.8666   3.8667   3.8668   3.8668   3.9984   3.9985   4.2581   4.2581
     4.4472   4.4472   4.7460   4.7460   4.8582   4.8582   5.4825   5.4826
     5.5106   5.5107   5.6680   5.6680   5.8011   5.8012   5.9297   5.9297
     5.9299   5.9299   5.9832   5.9832   5.9833   5.9833   6.1541   6.1541
     6.1541   6.1541   6.4127   6.4127   6.5599   6.5599   6.5862   6.5862
     6.6360   6.6361   6.7992   6.7992   6.8667   6.8667   7.0139   7.0139
     7.0139   7.0139   7.5587   7.5587   7.6964   7.6964   8.0646   8.0646
     8.0836   8.0836   8.0836   8.0836   8.2786   8.2787   8.4196   8.4196
     8.4196   8.4196   8.6164   8.6164   8.6164   8.6164   8.6270   8.6270
     8.7367   8.7367   8.7818   8.7819   8.9996   8.9996   8.9998   8.9998

     occupation numbers 
     1.0000   1.0000   1.0000   1.0000   1.0000   1.0000   1.0000   1.0000
     1.0000   1.0000   1.0000   1.0000   1.0000   1.0000   1.0000   1.0000
     1.0000   1.0000   1.0000   1.0000   1.0000   1.0000   1.0000   1.0000
     1.0000   1.0000   1.0000   1.0000   1.0000   1.0000   1.0000   1.0000
     1.0000   1.0000   1.0000   1.0000   1.0000   1.0000   1.0000   1.0000
     1.0000   1.0000   1.0000   1.0000   1.0000   1.0000   1.0000   1.0000
     1.0000   1.0000   1.0000   1.0000   1.0000   1.0000   1.0000   1.0000
     1.0000   1.0000   1.0000   1.0000   1.0000   1.0000   1.0000   1.0000
     1.0000   1.0000   1.0000   1.0000   1.0000   1.0000   1.0000   1.0000
     1.0000   1.0000   1.0000   1.0000   1.0000   1.0000   1.0000   1.0000
     1.0000   1.0000   1.0000   1.0000   1.0000   1.0000   1.0000   1.0000
     1.0000   1.0000   1.0000   1.0000   1.0000   1.0000   1.0000   1.0000
     1.0000   1.0000   1.0000   1.0000   1.0000   1.0000   1.0000   1.0000
     1.0000   1.0000   1.0000   1.0000   1.0000   1.0000   1.0000   1.0000
     1.0000   1.0000   1.0000   1.0000   1.0000   1.0000   1.0000   1.0000
     1.0000   1.0000   1.0000   1.0000   1.0000   1.0000   1.0000   1.0000
     1.0000   1.0000   1.0000   1.0000   1.0000   1.0000   1.0000   1.0000
     1.0000   1.0000   1.0000   1.0000   1.0000   1.0000   1.0000   1.0000
     1.0000   1.0000   1.0000   1.0000   1.0000   1.0000   1.0000   1.0000
     1.0000   1.0000   1.0000   1.0000   1.0000   1.0000   1.0000   1.0000
     1.0000   1.0000   1.0000   1.0000   1.0000   1.0000   1.0000   1.0000
     1.0000   1.0000   1.0000   1.0000   1.0000   1.0000   1.0000   1.0000
     1.0000   1.0000   1.0000   1.0000   1.0000   1.0000   1.0000   1.0000
     1.0000   1.0000   1.0000   1.0000   1.0000   1.0000   1.0000   1.0000
     1.0000   1.0000   1.0000   1.0000   1.0000   1.0000   1.0000   1.0000
     1.0000   1.0000   1.0000   1.0000   1.0000   1.0000   1.0000   1.0000
     1.0000   1.0000   1.0000   1.0000   1.0000   1.0000   1.0000   1.0000
     1.0000   1.0000   1.0000   1.0000   1.0000   1.0000   1.0000   1.0000
     1.0000   1.0000   1.0000   1.0000   1.0000   1.0000   1.0000   1.0000
     1.0000   1.0000   1.0000   1.0000   1.0000   1.0000   1.0000   1.0000
     1.0000   1.0000   1.0000   1.0000   1.0000   1.0000   1.0000   1.0000
     1.0000   1.0000   1.0000   1.0000   1.0000   1.0000   1.0000   1.0000
     1.0000   1.0000   1.0000   1.0000   1.0000   1.0000   1.0000   1.0000
     1.0000   1.0000   1.0000   1.0000   1.0000   1.0000   1.0000   1.0000
     1.0000   1.0000   1.0000   1.0000   1.0000   1.0000   1.0000   1.0000
     1.0000   1.0000   1.0000   1.0000   1.0000   1.0000   1.0000   1.0000
     1.0000   1.0000   1.0000   1.0000   1.0000   1.0000   1.0000   1.0000
     1.0000   1.0000   1.0000   1.0000   1.0000   1.0000   1.0000   1.0000
     1.0000   1.0000   1.0000   1.0000   1.0000   1.0000   1.0000   1.0000
     1.0000   1.0000   1.0000   1.0000   1.0000   1.0000   1.0000   1.0000
     1.0000   1.0000   1.0000   1.0000   1.0000   1.0000   1.0000   1.0000
     1.0000   1.0000   1.0000   1.0000   1.0000   1.0000   1.0000   1.0000
     1.0000   1.0000   1.0000   1.0000   1.0000   1.0000   1.0000   1.0000
     1.0000   1.0000   1.0000   1.0000   1.0000   1.0000   1.0000   1.0000
     1.0000   1.0000   1.0000   1.0000   1.0000   1.0000   1.0000   1.0000
     1.0000   1.0000   1.0000   1.0000   1.0000   1.0000   1.0000   1.0000
     1.0000   1.0000   1.0000   1.0000   1.0000   1.0000   1.0000   1.0000
     1.0000   1.0000   1.0000   1.0000   1.0000   1.0000   1.0000   1.0000
     1.0000   1.0000   1.0000   1.0000   1.0000   1.0000   1.0000   1.0000
     1.0000   1.0000   1.0000   1.0000   1.0000   1.0000   1.0000   1.0000
     1.0000   1.0000   1.0000   1.0000   1.0000   1.0000   1.0000   1.0000
     1.0000   1.0000   1.0000   1.0000   1.0000   1.0000   1.0000   1.0000
     1.0000   1.0000   1.0000   1.0000   1.0000   1.0000   1.0000   1.0000
     1.0000   1.0000   1.0000   1.0000   1.0000   1.0000   1.0000   1.0000
     1.0000   1.0000   1.0000   1.0000   1.0000   1.0000   1.0000   1.0000
     1.0000   1.0000   1.0000   1.0000   1.0000   1.0000   1.0000   1.0000
     1.0000   1.0000   1.0000   1.0000   1.0000   1.0000   1.0000   1.0000
     1.0000   1.0000   1.0000   1.0000   1.0000   1.0000   1.0000   1.0000
     1.0000   1.0000   1.0000   1.0000   1.0000   1.0000   1.0000   1.0000
     1.0812   1.0812   1.0833   1.0833   0.6571   0.6571   0.5692   0.5691
     0.5688   0.5686   0.0000   0.0000   0.0000   0.0000   0.0000   0.0000
     0.0000   0.0000   0.0000   0.0000   0.0000   0.0000   0.0000   0.0000
     0.0000   0.0000   0.0000   0.0000   0.0000   0.0000   0.0000   0.0000
     0.0000   0.0000   0.0000   0.0000   0.0000   0.0000   0.0000   0.0000
     0.0000   0.0000   0.0000   0.0000   0.0000   0.0000   0.0000   0.0000
     0.0000   0.0000   0.0000   0.0000   0.0000   0.0000   0.0000   0.0000
     0.0000   0.0000   0.0000   0.0000   0.0000   0.0000   0.0000   0.0000
     0.0000   0.0000   0.0000   0.0000   0.0000   0.0000   0.0000   0.0000
     0.0000   0.0000   0.0000   0.0000   0.0000   0.0000   0.0000   0.0000
     0.0000   0.0000   0.0000   0.0000   0.0000   0.0000   0.0000   0.0000
     0.0000   0.0000   0.0000   0.0000   0.0000   0.0000   0.0000   0.0000
     0.0000   0.0000   0.0000   0.0000   0.0000   0.0000   0.0000   0.0000

     the Fermi energy is     1.4331 ev

!    total energy              =  -22154.25523342 Ry
     estimated scf accuracy    <       0.00000091 Ry
     smearing contrib. (-TS)   =       0.00133538 Ry
     internal energy E=F+TS    =  -22154.25656880 Ry

     The total energy is F=E-TS. E is the sum of the following terms:
     one-electron contribution = -144865.40548247 Ry
     hartree contribution      =   72366.05185385 Ry
     xc contribution           =   -2024.15088389 Ry
     ewald contribution        =   52369.24794370 Ry

     convergence has been achieved in  10 iterations

     Writing all to output data dir ./tmp/Zn002.save/ :
     XML data file, charge density, pseudopotentials, collected wavefunctions

     init_run     :    112.78s CPU    113.54s WALL (       1 calls)
     electrons    :   4364.55s CPU   4396.36s WALL (       1 calls)

     Called by init_run:
     wfcinit      :    112.25s CPU    112.98s WALL (       1 calls)
     wfcinit:atom :      0.07s CPU      0.12s WALL (      10 calls)
     wfcinit:wfcr :    111.09s CPU    111.69s WALL (      10 calls)
     potinit      :      0.03s CPU      0.03s WALL (       1 calls)
     hinit0       :      0.02s CPU      0.02s WALL (       1 calls)

     Called by electrons:
     c_bands      :   4070.77s CPU   4100.86s WALL (      11 calls)
     sum_band     :    289.64s CPU    291.19s WALL (      11 calls)
     v_of_rho     :      0.28s CPU      0.30s WALL (      11 calls)
     v_h          :      0.02s CPU      0.02s WALL (      11 calls)
     v_xc         :      0.26s CPU      0.28s WALL (      11 calls)
     newd         :      4.20s CPU      4.32s WALL (      11 calls)
     mix_rho      :      0.04s CPU      0.04s WALL (      11 calls)

     Called by c_bands:
     init_us_2    :      4.04s CPU      4.06s WALL (     230 calls)
     cegterg      :   4061.84s CPU   4091.84s WALL (     110 calls)

     Called by sum_band:
     sum_band:wei :      0.05s CPU      0.05s WALL (      11 calls)
     sum_band:loo :    285.85s CPU    287.27s WALL (      11 calls)
     sum_band:buf :      0.86s CPU      0.86s WALL (     110 calls)
     sum_band:ini :      1.93s CPU      1.94s WALL (     110 calls)
     sum_band:cal :    247.10s CPU    248.25s WALL (     110 calls)
     sum_band:bec :      2.24s CPU      2.24s WALL (     110 calls)
     addusdens    :      3.63s CPU      3.74s WALL (      11 calls)
                                        0.00s GPU  (      11 calls)
     addusd:skk   :      0.04s CPU      0.04s WALL (      11 calls)
                                        0.00s GPU  (      11 calls)

     Called by *egterg:
     cdiaghg      :    290.46s CPU    301.66s WALL (     657 calls)
     cegterg:over :    657.96s CPU    660.57s WALL (     557 calls)
     cegterg:upda :    294.23s CPU    295.95s WALL (     557 calls)
     cegterg:last :    894.36s CPU    899.46s WALL (     200 calls)
     cdiaghg:chol :     17.82s CPU     17.86s WALL (     657 calls)
     cdiaghg:inve :      2.94s CPU      2.95s WALL (     657 calls)
     cdiaghg:para :     74.53s CPU     75.92s WALL (    1314 calls)
     h_psi        :   1281.20s CPU   1287.22s WALL (     677 calls)
     s_psi        :    533.15s CPU    534.46s WALL (     677 calls)
     g_psi        :      0.58s CPU      0.58s WALL (     557 calls)

     Called by h_psi:
     h_psi:calbec :    584.76s CPU    587.46s WALL (     677 calls)
     vloc_psi     :    158.46s CPU    159.55s WALL (     677 calls)
     add_vuspsi   :    536.48s CPU    537.83s WALL (     677 calls)

     General routines
     calbec       :    831.86s CPU    835.71s WALL (     787 calls)
     fft          :      0.19s CPU      0.22s WALL (     121 calls)
     ffts         :      0.02s CPU      0.02s WALL (      11 calls)
     fftw         :    179.27s CPU    180.53s WALL (  362524 calls)

     Parallel routines

     PWSCF        :      1h14m CPU      1h15m WALL


   This run was terminated on:   2:21:13  26Mar2025            

=------------------------------------------------------------------------------=
   JOB DONE.
=------------------------------------------------------------------------------=
Note: The following floating-point exceptions are signalling: IEEE_DENORMAL
Note: The following floating-point exceptions are signalling: IEEE_DENORMAL
Note: The following floating-point exceptions are signalling: IEEE_DENORMAL
Note: The following floating-point exceptions are signalling: IEEE_DENORMAL
Note: The following floating-point exceptions are signalling: IEEE_DENORMAL
Note: The following floating-point exceptions are signalling: IEEE_DENORMAL
Note: The following floating-point exceptions are signalling: IEEE_DENORMAL
Note: The following floating-point exceptions are signalling: IEEE_DENORMAL
Note: The following floating-point exceptions are signalling: IEEE_DENORMAL
Note: The following floating-point exceptions are signalling: IEEE_DENORMAL
Note: The following floating-point exceptions are signalling: IEEE_DENORMAL
Note: The following floating-point exceptions are signalling: IEEE_DENORMAL
