
     Program PWSCF v.7.3.1 starts on 28Mar2025 at 14: 6:21 

     This program is part of the open-source Quantum ESPRESSO suite
     for quantum simulation of materials; please cite
         "P. Giannozzi et al., J. Phys.:Condens. Matter 21 395502 (2009);
         "P. Giannozzi et al., J. Phys.:Condens. Matter 29 465901 (2017);
         "P. Giannozzi et al., J. Chem. Phys. 152 154105 (2020);
          URL http://www.quantum-espresso.org", 
     in publications or presentations arising from this work. More details at
     http://www.quantum-espresso.org/quote

     Parallel version (MPI), running on    33 processors

     MPI processes distributed on     1 nodes
     5025 MiB available memory on the printing compute node when the environment starts

     Waiting for input...
     Reading input from standard input
Warning: card &CELL ignored
Warning: card   CELL_DOFREE = 'ALL' ignored
Warning: card / ignored

     Current dimensions of program PWSCF are:
     Max number of different atomic species (ntypx) = 10
     Max number of k-points (npk) =  40000
     Max angular momentum in pseudopotentials (lmaxx) =  4
     file C.pbe-n-kjpaw_psl.1.0.0.UPF: wavefunction(s)  2S 2P renormalized

     R & G space division:  proc/nbgrp/npool/nimage =      33
     Subspace diagonalization in iterative solution of the eigenvalue problem:
     a serial algorithm will be used


     Parallelization info
     --------------------
     sticks:   dense  smooth     PW     G-vecs:    dense   smooth      PW
     Min        1506     861    219               252806   109203   14053
     Max        1507     862    220               252809   109208   14057
     Sum       49717   28417   7237              8342671  3603727  463837

     Using Slab Decomposition



     bravais-lattice index     =            1
     lattice parameter (alat)  =      47.2432  a.u.
     unit-cell volume          =  105442.7265 (a.u.)^3
     number of atoms/cell      =           15
     number of atomic types    =            3
     number of electrons       =        44.00
     number of Kohn-Sham states=           26
     kinetic-energy cutoff     =      40.0000  Ry
     charge density cutoff     =     280.0000  Ry
     scf convergence threshold =      1.0E-06
     mixing beta               =       0.4000
     number of iterations used =            8  plain     mixing
     energy convergence thresh.=      1.0E-05
     force convergence thresh. =      5.0E-04
     Exchange-correlation= PBE
                           (   1   4   3   4   0   0   0)
     nstep                     =          100


     celldm(1)=  47.243153  celldm(2)=   0.000000  celldm(3)=   0.000000
     celldm(4)=   0.000000  celldm(5)=   0.000000  celldm(6)=   0.000000

     crystal axes: (cart. coord. in units of alat)
               a(1) = (   1.000000   0.000000   0.000000 )  
               a(2) = (   0.000000   1.000000   0.000000 )  
               a(3) = (   0.000000   0.000000   1.000000 )  

     reciprocal axes: (cart. coord. in units 2 pi/alat)
               b(1) = (  1.000000  0.000000  0.000000 )  
               b(2) = (  0.000000  1.000000  0.000000 )  
               b(3) = (  0.000000  0.000000  1.000000 )  


     PseudoPot. # 1 for N  read from file:
     /home/ys/qepseudo/SSSP_1.3.0_PBE_efficiency/N.pbe-n-radius_5.UPF
     MD5 check sum: 16739722b17309cd8fe442a2ace49922
     Pseudo is Ultrasoft + core correction, Zval =  5.0
     Generated using "atomic" code by A. Dal Corso  v.5.1
     Using radial grid of 1085 points,  4 beta functions with: 
                l(1) =   0
                l(2) =   0
                l(3) =   1
                l(4) =   1
     Q(r) pseudized with 0 coefficients 


     PseudoPot. # 2 for C  read from file:
     /home/ys/qepseudo/SSSP_1.3.0_PBE_efficiency/C.pbe-n-kjpaw_psl.1.0.0.UPF
     MD5 check sum: 5d2aebdfa2cae82b50a7e79e9516da0f
     Pseudo is Projector augmented-wave + core cor, Zval =  4.0
     Generated using "atomic" code by A. Dal Corso  v.5.1
     Shape of augmentation charge: PSQ
     Using radial grid of 1073 points,  4 beta functions with: 
                l(1) =   0
                l(2) =   0
                l(3) =   1
                l(4) =   1
     Q(r) pseudized with 0 coefficients 


     PseudoPot. # 3 for H  read from file:
     /home/ys/qepseudo/SSSP_1.3.0_PBE_efficiency/H.pbe-rrkjus_psl.1.0.0.UPF
     MD5 check sum: f52b6d4d1c606e5624b1dc7b2218f220
     Pseudo is Ultrasoft, Zval =  1.0
     Generated using "atomic" code by A. Dal Corso  v.5.1
     Using radial grid of  929 points,  2 beta functions with: 
                l(1) =   0
                l(2) =   0
     Q(r) pseudized with 0 coefficients 


     atomic species   valence    mass     pseudopotential
     N                 5.00    14.00674     N ( 1.00)
     C                 4.00    12.01070     C ( 1.00)
     H                 1.00     1.00794     H ( 1.00)

     No symmetry found


                                    s                        frac. trans.

      isym =  1     identity                                     

 cryst.   s( 1) = (     1          0          0      )
                  (     0          1          0      )
                  (     0          0          1      )

 cart.    s( 1) = (  1.0000000  0.0000000  0.0000000 )
                  (  0.0000000  1.0000000  0.0000000 )
                  (  0.0000000  0.0000000  1.0000000 )


     point group C_1 (1)    
     there are  1 classes
     the character table:

       E    
A      1.00

     the symmetry operations in each class and the name of the first element:

     E        1
          identity                                               

   Cartesian axes

     site n.     atom                  positions (alat units)
         1        N      tau(   1) = (   0.3082947   0.1828037   0.1828315  )
         2        N      tau(   2) = (   0.0365610   0.1828114   0.1828110  )
         3        C      tau(   3) = (   0.2536349   0.1828048   0.1828216  )
         4        C      tau(   4) = (   0.2245678   0.1342953   0.1828205  )
         5        C      tau(   5) = (   0.2245703   0.2313162   0.1828198  )
         6        C      tau(   6) = (   0.1402862   0.1828077   0.1828165  )
         7        C      tau(   7) = (   0.1690955   0.1343761   0.1828184  )
         8        C      tau(   8) = (   0.1690981   0.2312380   0.1828176  )
         9        C      tau(   9) = (   0.0830612   0.1828096   0.1828136  )
        10        H      tau(  10) = (   0.2461947   0.0962926   0.1828220  )
        11        H      tau(  11) = (   0.2461991   0.2693177   0.1828205  )
        12        H      tau(  12) = (   0.1473592   0.0964985   0.1828172  )
        13        H      tau(  13) = (   0.1473633   0.2691166   0.1828158  )
        14        H      tau(  14) = (   0.3290493   0.2174296   0.1827788  )
        15        H      tau(  15) = (   0.3290475   0.1481764   0.1827792  )

     --------------------------------------------
     DFT-D3 Dispersion Correction (3-body terms):
     --------------------------------------------
       Reference C6 values for interpolation: 

         atom   Coordination number   C6
         H          0.912             6.05
         H          0.000            15.18
         C          0.000            98.23
         C          0.987            86.49
         C          1.998            58.72
         C          2.999            51.56
         C          3.984            36.41
         N          0.000            50.54
         N          0.994            44.25
         N          2.014            39.35
         N          2.990            31.16

       Values used:

         atom   Coordination number  R0_AB[au]  C6      C8
         N          3.079            2.478     31.25    689.34
         N          1.020            2.478     44.24    976.07
         C          3.135            2.750     50.65   1464.80
         C          3.161            2.750     50.44   1458.74
         C          3.161            2.750     50.44   1458.74
         C          3.143            2.750     50.59   1463.23
         C          3.165            2.750     50.40   1457.75
         C          3.165            2.750     50.40   1457.75
         C          2.093            2.750     58.63   1695.65
         H          1.002            2.062      6.18     74.70
         H          1.002            2.062      6.18     74.70
         H          1.002            2.062      6.18     74.69
         H          1.002            2.062      6.18     74.69
         H          1.005            2.062      6.18     74.67
         H          1.005            2.062      6.18     74.67

         Molecular C6 ( Ry / a.u.^6 ) =      5985.26


   Crystallographic axes

     site n.     atom                  positions (cryst. coord.)
         1        N      tau(   1) = (  0.3082947  0.1828037  0.1828315  )
         2        N      tau(   2) = (  0.0365610  0.1828114  0.1828110  )
         3        C      tau(   3) = (  0.2536349  0.1828048  0.1828216  )
         4        C      tau(   4) = (  0.2245678  0.1342953  0.1828205  )
         5        C      tau(   5) = (  0.2245703  0.2313162  0.1828198  )
         6        C      tau(   6) = (  0.1402862  0.1828077  0.1828165  )
         7        C      tau(   7) = (  0.1690955  0.1343761  0.1828184  )
         8        C      tau(   8) = (  0.1690981  0.2312380  0.1828176  )
         9        C      tau(   9) = (  0.0830612  0.1828096  0.1828136  )
        10        H      tau(  10) = (  0.2461947  0.0962926  0.1828220  )
        11        H      tau(  11) = (  0.2461991  0.2693177  0.1828205  )
        12        H      tau(  12) = (  0.1473592  0.0964985  0.1828172  )
        13        H      tau(  13) = (  0.1473633  0.2691166  0.1828158  )
        14        H      tau(  14) = (  0.3290493  0.2174296  0.1827788  )
        15        H      tau(  15) = (  0.3290475  0.1481764  0.1827792  )

     number of k points=     5  Marzari-Vanderbilt smearing, width (Ry)=  0.0200
                       cart. coord. in units 2pi/alat
        k(    1) = (   0.0000000   0.0000000   0.0000000), wk =   0.2222222
        k(    2) = (   0.0000000   0.3333333   0.0000000), wk =   0.4444444
        k(    3) = (   0.3333333   0.0000000   0.0000000), wk =   0.4444444
        k(    4) = (   0.3333333   0.3333333   0.0000000), wk =   0.4444444
        k(    5) = (   0.3333333  -0.3333333   0.0000000), wk =   0.4444444

                       cryst. coord.
        k(    1) = (   0.0000000   0.0000000   0.0000000), wk =   0.2222222
        k(    2) = (   0.0000000   0.3333333   0.0000000), wk =   0.4444444
        k(    3) = (   0.3333333   0.0000000   0.0000000), wk =   0.4444444
        k(    4) = (   0.3333333   0.3333333   0.0000000), wk =   0.4444444
        k(    5) = (   0.3333333  -0.3333333   0.0000000), wk =   0.4444444

     Dense  grid:  8342671 G-vectors     FFT dimensions: ( 256, 256, 256)

     Smooth grid:  3603727 G-vectors     FFT dimensions: ( 192, 192, 192)

     Dynamical RAM for                 wfc:       5.42 MB

     Dynamical RAM for     wfc (w. buffer):      32.49 MB

     Dynamical RAM for           str. fact:      11.57 MB

     Dynamical RAM for           local pot:       0.00 MB

     Dynamical RAM for          nlocal pot:      17.50 MB

     Dynamical RAM for                qrad:       1.15 MB

     Dynamical RAM for          rho,v,vnew:      23.57 MB

     Dynamical RAM for               rhoin:       7.86 MB

     Dynamical RAM for            rho*nmix:      61.72 MB

     Dynamical RAM for           G-vectors:      15.30 MB

     Dynamical RAM for          h,s,v(r/c):       0.12 MB

     Dynamical RAM for          <psi|beta>:       0.03 MB

     Dynamical RAM for                 psi:      10.83 MB

     Dynamical RAM for                hpsi:      10.83 MB

     Dynamical RAM for                spsi:      10.83 MB

     Dynamical RAM for      wfcinit/wfcrot:      17.54 MB

     Dynamical RAM for           addusdens:     192.88 MB

     Dynamical RAM for          addusforce:     241.10 MB

     Dynamical RAM for         addusstress:     192.88 MB

     Estimated static dynamical RAM per process >     144.87 MB

     Estimated max dynamical RAM per process >     447.70 MB

     Estimated total dynamical RAM >      14.43 GB

     Initial potential from superposition of free atoms

     starting charge      43.9996, renormalised to      44.0000

     negative rho (up, down):  1.008E-02 0.000E+00
     Starting wfcs are   42 randomized atomic wfcs
     Checking if some PAW data can be deallocated... 
       PAW data deallocated on   18 nodes for type:  2

     total cpu time spent up to now is       21.2 secs

     Self-consistent Calculation

     iteration #  1     ecut=    40.00 Ry     beta= 0.40
     Davidson diagonalization with overlap

---- Real-time Memory Report at c_bands before calling an iterative solver
           304 MiB given to the printing process from OS
             0 MiB allocation reported by mallinfo(arena+hblkhd)
          4826 MiB available memory on the node where the printing process lives
------------------
     ethr =  1.00E-02,  avg # of iterations =  2.0

     negative rho (up, down):  1.151E-02 0.000E+00

     total cpu time spent up to now is       50.8 secs

     total energy              =    -176.33438413 Ry
     estimated scf accuracy    <       1.81462673 Ry

     iteration #  2     ecut=    40.00 Ry     beta= 0.40
     Davidson diagonalization with overlap

---- Real-time Memory Report at c_bands before calling an iterative solver
           377 MiB given to the printing process from OS
             0 MiB allocation reported by mallinfo(arena+hblkhd)
          5658 MiB available memory on the node where the printing process lives
------------------
     ethr =  4.12E-03,  avg # of iterations =  2.0

     negative rho (up, down):  1.244E-02 0.000E+00

     total cpu time spent up to now is       77.0 secs

     total energy              =    -176.42720376 Ry
     estimated scf accuracy    <       0.24625535 Ry

     iteration #  3     ecut=    40.00 Ry     beta= 0.40
     Davidson diagonalization with overlap

---- Real-time Memory Report at c_bands before calling an iterative solver
           380 MiB given to the printing process from OS
             0 MiB allocation reported by mallinfo(arena+hblkhd)
          9118 MiB available memory on the node where the printing process lives
------------------
     ethr =  5.60E-04,  avg # of iterations =  8.0

     negative rho (up, down):  1.280E-02 0.000E+00

     total cpu time spent up to now is      105.8 secs

     total energy              =    -176.45071278 Ry
     estimated scf accuracy    <       0.06821340 Ry

     iteration #  4     ecut=    40.00 Ry     beta= 0.40
     Davidson diagonalization with overlap

---- Real-time Memory Report at c_bands before calling an iterative solver
           383 MiB given to the printing process from OS
             0 MiB allocation reported by mallinfo(arena+hblkhd)
          9416 MiB available memory on the node where the printing process lives
------------------
     ethr =  1.55E-04,  avg # of iterations =  2.0

     negative rho (up, down):  1.330E-02 0.000E+00

     total cpu time spent up to now is      129.8 secs

     total energy              =    -176.45369106 Ry
     estimated scf accuracy    <       0.01527375 Ry

     iteration #  5     ecut=    40.00 Ry     beta= 0.40
     Davidson diagonalization with overlap

---- Real-time Memory Report at c_bands before calling an iterative solver
           387 MiB given to the printing process from OS
             0 MiB allocation reported by mallinfo(arena+hblkhd)
          7899 MiB available memory on the node where the printing process lives
------------------
     ethr =  3.47E-05,  avg # of iterations = 15.8

     negative rho (up, down):  1.337E-02 0.000E+00

     total cpu time spent up to now is      164.5 secs

     total energy              =    -176.45521025 Ry
     estimated scf accuracy    <       0.00185214 Ry

     iteration #  6     ecut=    40.00 Ry     beta= 0.40
     Davidson diagonalization with overlap

---- Real-time Memory Report at c_bands before calling an iterative solver
           390 MiB given to the printing process from OS
             0 MiB allocation reported by mallinfo(arena+hblkhd)
          6664 MiB available memory on the node where the printing process lives
------------------
     ethr =  4.21E-06,  avg # of iterations =  6.0

     negative rho (up, down):  1.340E-02 0.000E+00

     total cpu time spent up to now is      180.3 secs

     total energy              =    -176.45543687 Ry
     estimated scf accuracy    <       0.00015176 Ry

     iteration #  7     ecut=    40.00 Ry     beta= 0.40
     Davidson diagonalization with overlap

---- Real-time Memory Report at c_bands before calling an iterative solver
           393 MiB given to the printing process from OS
             0 MiB allocation reported by mallinfo(arena+hblkhd)
         14946 MiB available memory on the node where the printing process lives
------------------
     ethr =  3.45E-07,  avg # of iterations =  5.0

     negative rho (up, down):  1.342E-02 0.000E+00

     total cpu time spent up to now is      195.9 secs

     total energy              =    -176.45546074 Ry
     estimated scf accuracy    <       0.00010337 Ry

     iteration #  8     ecut=    40.00 Ry     beta= 0.40
     Davidson diagonalization with overlap

---- Real-time Memory Report at c_bands before calling an iterative solver
           397 MiB given to the printing process from OS
             0 MiB allocation reported by mallinfo(arena+hblkhd)
         14825 MiB available memory on the node where the printing process lives
------------------
     ethr =  2.35E-07,  avg # of iterations =  2.0

     negative rho (up, down):  1.344E-02 0.000E+00

     total cpu time spent up to now is      208.7 secs

     total energy              =    -176.45547252 Ry
     estimated scf accuracy    <       0.00000708 Ry

     iteration #  9     ecut=    40.00 Ry     beta= 0.40
     Davidson diagonalization with overlap

---- Real-time Memory Report at c_bands before calling an iterative solver
           400 MiB given to the printing process from OS
             0 MiB allocation reported by mallinfo(arena+hblkhd)
         14713 MiB available memory on the node where the printing process lives
------------------
     ethr =  1.61E-08,  avg # of iterations =  4.4

     negative rho (up, down):  1.345E-02 0.000E+00

     total cpu time spent up to now is      224.7 secs

     total energy              =    -176.45547376 Ry
     estimated scf accuracy    <       0.00001280 Ry

     iteration # 10     ecut=    40.00 Ry     beta= 0.40
     Davidson diagonalization with overlap

---- Real-time Memory Report at c_bands before calling an iterative solver
           404 MiB given to the printing process from OS
             0 MiB allocation reported by mallinfo(arena+hblkhd)
         14595 MiB available memory on the node where the printing process lives
------------------
     ethr =  1.61E-08,  avg # of iterations =  2.0

     negative rho (up, down):  1.345E-02 0.000E+00

     total cpu time spent up to now is      237.7 secs

     total energy              =    -176.45547449 Ry
     estimated scf accuracy    <       0.00000109 Ry

     iteration # 11     ecut=    40.00 Ry     beta= 0.40
     Davidson diagonalization with overlap

---- Real-time Memory Report at c_bands before calling an iterative solver
           404 MiB given to the printing process from OS
             0 MiB allocation reported by mallinfo(arena+hblkhd)
         14586 MiB available memory on the node where the printing process lives
------------------
     ethr =  2.48E-09,  avg # of iterations =  4.2

     negative rho (up, down):  1.347E-02 0.000E+00

     total cpu time spent up to now is      252.7 secs

     End of self-consistent calculation

          k = 0.0000 0.0000 0.0000 (450991 PWs)   bands (ev):

   -23.7008 -22.1932 -21.3468 -18.9403 -18.8781 -15.9951 -15.7192 -13.7773
   -13.4704 -13.2911 -11.2299 -11.0646 -10.6353 -10.1416  -9.8846  -8.9898
    -8.7837  -8.0743  -7.7618  -7.5434  -6.7690  -5.4081  -1.7879  -1.6296
    -0.9880  -0.3593

     occupation numbers 
     1.0000   1.0000   1.0000   1.0000   1.0000   1.0000   1.0000   1.0000
     1.0000   1.0000   1.0000   1.0000   1.0000   1.0000   1.0000   1.0000
     1.0000   1.0000   1.0000   1.0000   1.0000   1.0000   0.0000   0.0000
     0.0000   0.0000

          k = 0.0000 0.3333 0.0000 (450515 PWs)   bands (ev):

   -23.7008 -22.1932 -21.3468 -18.9403 -18.8781 -15.9951 -15.7192 -13.7773
   -13.4704 -13.2910 -11.2299 -11.0646 -10.6353 -10.1416  -9.8846  -8.9898
    -8.7837  -8.0743  -7.7618  -7.5434  -6.7690  -5.4081  -1.7879  -1.6296
    -0.9880  -0.3637

     occupation numbers 
     1.0000   1.0000   1.0000   1.0000   1.0000   1.0000   1.0000   1.0000
     1.0000   1.0000   1.0000   1.0000   1.0000   1.0000   1.0000   1.0000
     1.0000   1.0000   1.0000   1.0000   1.0000   1.0000   0.0000   0.0000
     0.0000   0.0000

          k = 0.3333 0.0000 0.0000 (450515 PWs)   bands (ev):

   -23.7008 -22.1932 -21.3468 -18.9403 -18.8781 -15.9951 -15.7192 -13.7773
   -13.4704 -13.2910 -11.2299 -11.0646 -10.6353 -10.1416  -9.8846  -8.9898
    -8.7837  -8.0743  -7.7618  -7.5434  -6.7690  -5.4080  -1.7879  -1.6296
    -0.9880  -0.3591

     occupation numbers 
     1.0000   1.0000   1.0000   1.0000   1.0000   1.0000   1.0000   1.0000
     1.0000   1.0000   1.0000   1.0000   1.0000   1.0000   1.0000   1.0000
     1.0000   1.0000   1.0000   1.0000   1.0000   1.0000   0.0000   0.0000
     0.0000   0.0000

          k = 0.3333 0.3333 0.0000 (450333 PWs)   bands (ev):

   -23.7008 -22.1932 -21.3468 -18.9403 -18.8781 -15.9951 -15.7192 -13.7773
   -13.4704 -13.2910 -11.2299 -11.0646 -10.6352 -10.1416  -9.8846  -8.9898
    -8.7837  -8.0743  -7.7618  -7.5434  -6.7690  -5.4080  -1.7879  -1.6296
    -0.9879  -0.3632

     occupation numbers 
     1.0000   1.0000   1.0000   1.0000   1.0000   1.0000   1.0000   1.0000
     1.0000   1.0000   1.0000   1.0000   1.0000   1.0000   1.0000   1.0000
     1.0000   1.0000   1.0000   1.0000   1.0000   1.0000   0.0000   0.0000
     0.0000   0.0000

          k = 0.3333-0.3333 0.0000 (450333 PWs)   bands (ev):

   -23.7008 -22.1932 -21.3468 -18.9403 -18.8781 -15.9951 -15.7192 -13.7773
   -13.4704 -13.2910 -11.2299 -11.0646 -10.6352 -10.1416  -9.8846  -8.9898
    -8.7837  -8.0743  -7.7618  -7.5434  -6.7690  -5.4080  -1.7879  -1.6296
    -0.9880  -0.3632

     occupation numbers 
     1.0000   1.0000   1.0000   1.0000   1.0000   1.0000   1.0000   1.0000
     1.0000   1.0000   1.0000   1.0000   1.0000   1.0000   1.0000   1.0000
     1.0000   1.0000   1.0000   1.0000   1.0000   1.0000   0.0000   0.0000
     0.0000   0.0000

     the Fermi energy is    -3.0350 ev

!    total energy              =    -176.45547456 Ry
     estimated scf accuracy    <       0.00000064 Ry
     smearing contrib. (-TS)   =      -0.00000000 Ry
     internal energy E=F+TS    =    -176.45547456 Ry

     The total energy is F=E-TS. E is the sum of the following terms:
     one-electron contribution =    -701.50706980 Ry
     hartree contribution      =     355.96003936 Ry
     xc contribution           =     -47.26312598 Ry
     ewald contribution        =     259.54323481 Ry
     DFT-D3 Dispersion         =      -0.01065311 Ry
     one-center paw contrib.   =     -43.17789984 Ry
      -> PAW hartree energy AE =       0.00000000 Ry
      -> PAW hartree energy PS =       0.00000000 Ry
      -> PAW xc energy AE      =       0.00000000 Ry
      -> PAW xc energy PS      =       0.00000000 Ry
      -> total E_H with PAW    =     355.96003936 Ry
      -> total E_XC with PAW   =     -47.26312598 Ry

     convergence has been achieved in  11 iterations

     negative rho (up, down):  1.347E-02 0.000E+00

     Forces acting on atoms (cartesian axes, Ry/au):

     atom    1 type  1   force =     0.00234338   -0.00002270   -0.00007995
     atom    2 type  1   force =    -0.02378717   -0.00000864   -0.00012780
     atom    3 type  2   force =    -0.00821286   -0.00002360    0.00011648
     atom    4 type  2   force =     0.00109707    0.00013736    0.00015594
     atom    5 type  2   force =     0.00108538   -0.00024793    0.00014575
     atom    6 type  2   force =    -0.00608393   -0.00000187    0.00007005
     atom    7 type  2   force =    -0.00023186   -0.00262489    0.00018729
     atom    8 type  2   force =    -0.00022164    0.00256525    0.00016889
     atom    9 type  2   force =     0.03261566    0.00023422    0.00011849
     atom   10 type  3   force =    -0.00119208    0.00129280   -0.00012214
     atom   11 type  3   force =    -0.00119050   -0.00129401   -0.00012146
     atom   12 type  3   force =     0.00103758    0.00200429   -0.00012225
     atom   13 type  3   force =     0.00104044   -0.00201226   -0.00012144
     atom   14 type  3   force =     0.00085252   -0.00058745   -0.00013398
     atom   15 type  3   force =     0.00084800    0.00058943   -0.00013387
     The non-local contrib.  to forces
     atom    1 type  1   force =    -0.05421081   -0.00001866   -0.00410197
     atom    2 type  1   force =     1.80522822   -0.00007945    0.00008990
     atom    3 type  2   force =     0.33757952   -0.00003092    0.00028817
     atom    4 type  2   force =     0.05698704    0.03610777    0.00009622
     atom    5 type  2   force =     0.05697930   -0.03607457    0.00009244
     atom    6 type  2   force =    -0.27434382   -0.00002744    0.00005122
     atom    7 type  2   force =    -0.01600406    0.03187531    0.00011722
     atom    8 type  2   force =    -0.01601880   -0.03182283    0.00011204
     atom    9 type  2   force =     0.28601097    0.00008388    0.00010981
     atom   10 type  3   force =    -0.03693718    0.06736123   -0.00000220
     atom   11 type  3   force =    -0.03694111   -0.06735948   -0.00000088
     atom   12 type  3   force =     0.03924924    0.06817945    0.00000318
     atom   13 type  3   force =     0.03924640   -0.06817964    0.00000442
     atom   14 type  3   force =    -0.05265611   -0.08691968    0.00012336
     atom   15 type  3   force =    -0.05264954    0.08692032    0.00012239
     The ionic contribution  to forces
     atom    1 type  1   force =     9.92082261   -0.00024690    0.00902875
     atom    2 type  1   force =   -13.73168530    0.00049827   -0.00072898
     atom    3 type  2   force =     2.60485116   -0.00007265   -0.00009362
     atom    4 type  2   force =     2.69812878   -7.02725462    0.00017838
     atom    5 type  2   force =     2.69851637    7.02709612    0.00008579
     atom    6 type  2   force =    -3.48520681    0.00005912   -0.00011790
     atom    7 type  2   force =    -2.65133398   -6.95685705    0.00004292
     atom    8 type  2   force =    -2.65095955    6.95696958   -0.00006521
     atom    9 type  2   force =    -1.30739253   -0.00004961   -0.00001230
     atom   10 type  3   force =     1.50628778   -3.28025269    0.00013253
     atom   11 type  3   force =     1.50645275    3.28018179    0.00007135
     atom   12 type  3   force =    -1.47541803   -3.26290937   -0.00005801
     atom   13 type  3   force =    -1.47525012    3.26296039   -0.00011487
     atom   14 type  3   force =     2.92118563    2.89842297   -0.00419087
     atom   15 type  3   force =     2.92100125   -2.89854533   -0.00415795
     The local contribution  to forces
     atom    1 type  1   force =    -9.86457724    0.00024710   -0.00491387
     atom    2 type  1   force =    11.91101424   -0.00042204    0.00063453
     atom    3 type  2   force =    -2.94413479    0.00012553   -0.00022232
     atom    4 type  2   force =    -2.75164240    6.99081603   -0.00028095
     atom    5 type  2   force =    -2.75202391   -6.99071698   -0.00018566
     atom    6 type  2   force =     3.74753817   -0.00002572    0.00005851
     atom    7 type  2   force =     2.66586629    6.92151079   -0.00016954
     atom    8 type  2   force =     2.66550286   -6.92168460   -0.00005698
     atom    9 type  2   force =     1.07149013   -0.00004501   -0.00010299
     atom   10 type  3   force =    -1.47043618    3.21416089   -0.00012995
     atom   11 type  3   force =    -1.47059540   -3.21408211   -0.00006941
     atom   12 type  3   force =     1.43725272    3.19668378    0.00005513
     atom   13 type  3   force =     1.43709025   -3.19673177    0.00011159
     atom   14 type  3   force =    -2.86768870   -2.81202447    0.00405611
     atom   15 type  3   force =    -2.86751546    2.81215863    0.00402426
     The core correction contribution to forces
     atom    1 type  1   force =     0.00039465    0.00000064    0.00002964
     atom    2 type  1   force =    -0.00941095   -0.00000028   -0.00000120
     atom    3 type  2   force =    -0.00629358   -0.00004127    0.00026664
     atom    4 type  2   force =    -0.00198800    0.00054899    0.00028495
     atom    5 type  2   force =    -0.00199726   -0.00062344    0.00027585
     atom    6 type  2   force =     0.00589065   -0.00000351    0.00020106
     atom    7 type  2   force =     0.00146016    0.00054657    0.00031934
     atom    8 type  2   force =     0.00147328   -0.00058750    0.00030187
     atom    9 type  2   force =    -0.01852413    0.00025005    0.00024594
     atom   10 type  3   force =     0.00000000    0.00000000    0.00000000
     atom   11 type  3   force =     0.00000000    0.00000000    0.00000000
     atom   12 type  3   force =     0.00000000    0.00000000    0.00000000
     atom   13 type  3   force =     0.00000000    0.00000000    0.00000000
     atom   14 type  3   force =     0.00000000    0.00000000    0.00000000
     atom   15 type  3   force =     0.00000000    0.00000000    0.00000000
     The Hubbard contrib.    to forces
     atom    1 type  1   force =     0.00000000    0.00000000    0.00000000
     atom    2 type  1   force =     0.00000000    0.00000000    0.00000000
     atom    3 type  2   force =     0.00000000    0.00000000    0.00000000
     atom    4 type  2   force =     0.00000000    0.00000000    0.00000000
     atom    5 type  2   force =     0.00000000    0.00000000    0.00000000
     atom    6 type  2   force =     0.00000000    0.00000000    0.00000000
     atom    7 type  2   force =     0.00000000    0.00000000    0.00000000
     atom    8 type  2   force =     0.00000000    0.00000000    0.00000000
     atom    9 type  2   force =     0.00000000    0.00000000    0.00000000
     atom   10 type  3   force =     0.00000000    0.00000000    0.00000000
     atom   11 type  3   force =     0.00000000    0.00000000    0.00000000
     atom   12 type  3   force =     0.00000000    0.00000000    0.00000000
     atom   13 type  3   force =     0.00000000    0.00000000    0.00000000
     atom   14 type  3   force =     0.00000000    0.00000000    0.00000000
     atom   15 type  3   force =     0.00000000    0.00000000    0.00000000
     The SCF correction term to forces
     atom    1 type  1   force =    -0.00010556    0.00000041    0.00000001
     atom    2 type  1   force =     0.00087388    0.00000015    0.00000048
     atom    3 type  2   force =    -0.00019012    0.00000101    0.00000004
     atom    4 type  2   force =    -0.00024078    0.00010141   -0.00000014
     atom    5 type  2   force =    -0.00024155   -0.00010070   -0.00000014
     atom    6 type  2   force =    -0.00006287    0.00000097   -0.00000030
     atom    7 type  2   force =    -0.00009688    0.00041488   -0.00000008
     atom    8 type  2   force =    -0.00009607   -0.00041420   -0.00000026
     atom    9 type  2   force =     0.00111188    0.00000022    0.00000057
     atom   10 type  3   force =    -0.00002995    0.00003309    0.00000003
     atom   11 type  3   force =    -0.00003017   -0.00003334    0.00000002
     atom   12 type  3   force =     0.00000324    0.00006477   -0.00000001
     atom   13 type  3   force =     0.00000350   -0.00006502   -0.00000005
     atom   14 type  3   force =    -0.00002215   -0.00000818    0.00000003
     atom   15 type  3   force =    -0.00002212    0.00000830    0.00000004

     DFT-D3 dispersion contribution to forces:
     atom    1 type  1   force =     0.00005432   -0.00000000    0.00000003
     atom    2 type  1   force =     0.00022734   -0.00000001    0.00000001
     atom    3 type  2   force =     0.00000956   -0.00000000    0.00000012
     atom    4 type  2   force =    -0.00011298   -0.00017693    0.00000002
     atom    5 type  2   force =    -0.00011297    0.00017693    0.00000002
     atom    6 type  2   force =     0.00013534   -0.00000001    0.00000000
     atom    7 type  2   force =    -0.00008878   -0.00011008   -0.00000003
     atom    8 type  2   force =    -0.00008878    0.00011008   -0.00000003
     atom    9 type  2   force =    -0.00004607   -0.00000001   -0.00000000
     atom   10 type  3   force =    -0.00004196   -0.00000442    0.00000000
     atom   11 type  3   force =    -0.00004196    0.00000443    0.00000000
     atom   12 type  3   force =    -0.00001500   -0.00000905   -0.00000000
     atom   13 type  3   force =    -0.00001499    0.00000907   -0.00000000
     atom   14 type  3   force =     0.00006846   -0.00005280   -0.00000007
     atom   15 type  3   force =     0.00006846    0.00005280   -0.00000007

     Total force =     0.042124     Total SCF correction =     0.001601

     DFT-D3 dispersion Force =     0.000472


     Computing stress (Cartesian axis) and pressure


     negative rho (up, down):  1.347E-02 0.000E+00
          total   stress  (Ry/bohr**3)                   (kbar)     P=       -0.07
  -0.00000031  -0.00000000   0.00000000           -0.05       -0.00        0.00
  -0.00000000  -0.00000058   0.00000000           -0.00       -0.08        0.00
   0.00000000   0.00000000  -0.00000046            0.00        0.00       -0.07

     kinetic stress (kbar)     69.57      0.00      0.00
                                0.00     72.52      0.00
                                0.00      0.00     82.49

     local   stress (kbar)   -650.12      0.01     -0.01
                                0.01   -353.94      0.00
                               -0.01      0.00    -79.63

     nonloc. stress (kbar)     19.15     -0.00      0.00
                               -0.00     18.49     -0.00
                                0.00     -0.00     17.83

     hartree stress (kbar)    286.18     -0.00      0.01
                               -0.00    157.45     -0.00
                                0.01     -0.00     52.98

     exc-cor stress (kbar)     -6.12     -0.00     -0.00
                               -0.00     -6.32     -0.00
                               -0.00     -0.00     -6.80

     corecor stress (kbar)    -12.10     -0.00      0.00
                               -0.00    -12.03      0.00
                                0.00      0.00    -11.89

     ewald   stress (kbar)    293.39     -0.00      0.00
                               -0.00    123.75     -0.00
                                0.00     -0.00    -55.05

     hubbard stress (kbar)      0.00      0.00      0.00
                                0.00      0.00      0.00
                                0.00      0.00      0.00

     DFT-D   stress (kbar)     -0.00      0.00     -0.00
                                0.00      0.00     -0.00
                               -0.00     -0.00     -0.00

     XDM     stress (kbar)      0.00      0.00      0.00
                                0.00      0.00      0.00
                                0.00      0.00      0.00

     dft-nl  stress (kbar)      0.00      0.00      0.00
                                0.00      0.00      0.00
                                0.00      0.00      0.00

     TS-vdW  stress (kbar)      0.00      0.00      0.00
                                0.00      0.00      0.00
                                0.00      0.00      0.00

     MDB     stress (kbar)      0.00      0.00      0.00
                                0.00      0.00      0.00
                                0.00      0.00      0.00

     3D-RISM stress (kbar)      0.00      0.00      0.00
                                0.00      0.00      0.00
                                0.00      0.00      0.00


     BFGS Geometry Optimization
     Energy error            =      0.0E+00 Ry
     Gradient error          =      3.3E-02 Ry/Bohr

     number of scf cycles    =   1
     number of bfgs steps    =   0

     energy             new  =    -176.4554745648 Ry

     new trust radius        =       0.0326167167 bohr
     new conv_thr            =       0.0000010000 Ry


ATOMIC_POSITIONS (angstrom)
N                7.7086080626        4.5700809889        4.5707456917
N                0.9014383698        4.5702804257        4.5702083707
C                6.3365259441        4.5701075098        4.5706026396
C                5.6147745450        3.3574546881        4.5705955177
C                5.6148323604        5.7827738027        4.5705721270
C                3.5039345210        4.5701920100        4.5704500682
C                4.2272653058        3.3580129693        4.5705581112
C                4.2273347141        5.7823064692        4.5705293733
C                2.0937894642        4.5703629457        4.5704026997
H                6.1542371788        2.4080001208        4.5704853671
H                6.1543470166        6.7322582391        4.5704487284
H                3.6845300645        2.4135226224        4.5703663099
H                3.6846325762        6.7268511573        4.5703307350
H                8.2266841350        5.4354281355        4.5694001008
H                8.2266357418        3.7047219156        4.5694101598



     Writing config-only to output data dir ./tmp/ABN.save/ :
     XML data file
     NEW-OLD atomic charge density approx. for the potential

     negative rho (up, down):  1.344E-02 0.000E+00

     total cpu time spent up to now is      270.2 secs

     Self-consistent Calculation

     iteration #  1     ecut=    40.00 Ry     beta= 0.40
     Davidson diagonalization with overlap

---- Real-time Memory Report at c_bands before calling an iterative solver
           415 MiB given to the printing process from OS
             0 MiB allocation reported by mallinfo(arena+hblkhd)
         16086 MiB available memory on the node where the printing process lives
------------------
     ethr =  1.00E-06,  avg # of iterations =  6.0

     negative rho (up, down):  1.339E-02 0.000E+00

     total cpu time spent up to now is      291.7 secs

     total energy              =    -176.45254783 Ry
     estimated scf accuracy    <       0.00301623 Ry

     iteration #  2     ecut=    40.00 Ry     beta= 0.40
     Davidson diagonalization with overlap

---- Real-time Memory Report at c_bands before calling an iterative solver
           415 MiB given to the printing process from OS
             0 MiB allocation reported by mallinfo(arena+hblkhd)
         15070 MiB available memory on the node where the printing process lives
------------------
     ethr =  6.86E-06,  avg # of iterations =  8.0

     negative rho (up, down):  1.338E-02 0.000E+00

     total cpu time spent up to now is      305.8 secs

     total energy              =    -176.45300397 Ry
     estimated scf accuracy    <       0.00145976 Ry

     iteration #  3     ecut=    40.00 Ry     beta= 0.40
     Davidson diagonalization with overlap

---- Real-time Memory Report at c_bands before calling an iterative solver
           415 MiB given to the printing process from OS
             0 MiB allocation reported by mallinfo(arena+hblkhd)
         14946 MiB available memory on the node where the printing process lives
------------------
     ethr =  3.32E-06,  avg # of iterations =  3.4

     negative rho (up, down):  1.337E-02 0.000E+00

     total cpu time spent up to now is      318.1 secs

     total energy              =    -176.45320880 Ry
     estimated scf accuracy    <       0.00008721 Ry

     iteration #  4     ecut=    40.00 Ry     beta= 0.40
     Davidson diagonalization with overlap

---- Real-time Memory Report at c_bands before calling an iterative solver
           415 MiB given to the printing process from OS
             0 MiB allocation reported by mallinfo(arena+hblkhd)
         14831 MiB available memory on the node where the printing process lives
------------------
     ethr =  1.98E-07,  avg # of iterations =  4.0

     negative rho (up, down):  1.336E-02 0.000E+00

     total cpu time spent up to now is      331.2 secs

     total energy              =    -176.45321405 Ry
     estimated scf accuracy    <       0.00004813 Ry

     iteration #  5     ecut=    40.00 Ry     beta= 0.40
     Davidson diagonalization with overlap

---- Real-time Memory Report at c_bands before calling an iterative solver
           415 MiB given to the printing process from OS
             0 MiB allocation reported by mallinfo(arena+hblkhd)
         14721 MiB available memory on the node where the printing process lives
------------------
     ethr =  1.09E-07,  avg # of iterations =  4.0

     negative rho (up, down):  1.336E-02 0.000E+00

     total cpu time spent up to now is      344.1 secs

     total energy              =    -176.45322369 Ry
     estimated scf accuracy    <       0.00000352 Ry

     iteration #  6     ecut=    40.00 Ry     beta= 0.40
     Davidson diagonalization with overlap

---- Real-time Memory Report at c_bands before calling an iterative solver
           415 MiB given to the printing process from OS
             0 MiB allocation reported by mallinfo(arena+hblkhd)
         14610 MiB available memory on the node where the printing process lives
------------------
     ethr =  8.00E-09,  avg # of iterations =  2.0

     negative rho (up, down):  1.336E-02 0.000E+00

     total cpu time spent up to now is      356.2 secs

     total energy              =    -176.45322350 Ry
     estimated scf accuracy    <       0.00000139 Ry

     iteration #  7     ecut=    40.00 Ry     beta= 0.40
     Davidson diagonalization with overlap

---- Real-time Memory Report at c_bands before calling an iterative solver
           415 MiB given to the printing process from OS
             0 MiB allocation reported by mallinfo(arena+hblkhd)
         14497 MiB available memory on the node where the printing process lives
------------------
     ethr =  3.15E-09,  avg # of iterations =  3.8

     negative rho (up, down):  1.335E-02 0.000E+00

     total cpu time spent up to now is      368.4 secs

     End of self-consistent calculation

          k = 0.0000 0.0000 0.0000 (450991 PWs)   bands (ev):

   -23.6811 -21.9958 -21.2834 -18.9673 -18.9368 -16.0609 -15.7463 -13.8247
   -13.4804 -13.3156 -11.2642 -11.0965 -10.6648 -10.1560  -9.9120  -8.9597
    -8.8144  -8.1111  -7.5819  -7.4372  -6.7921  -5.4152  -1.8871  -1.6571
    -0.9908  -0.3727

     occupation numbers 
     1.0000   1.0000   1.0000   1.0000   1.0000   1.0000   1.0000   1.0000
     1.0000   1.0000   1.0000   1.0000   1.0000   1.0000   1.0000   1.0000
     1.0000   1.0000   1.0000   1.0000   1.0000   1.0000   0.0000   0.0000
     0.0000   0.0000

          k = 0.0000 0.3333 0.0000 (450515 PWs)   bands (ev):

   -23.6811 -21.9958 -21.2834 -18.9673 -18.9368 -16.0609 -15.7463 -13.8247
   -13.4804 -13.3156 -11.2642 -11.0965 -10.6648 -10.1560  -9.9120  -8.9597
    -8.8144  -8.1110  -7.5819  -7.4372  -6.7920  -5.4152  -1.8871  -1.6571
    -0.9908  -0.3764

     occupation numbers 
     1.0000   1.0000   1.0000   1.0000   1.0000   1.0000   1.0000   1.0000
     1.0000   1.0000   1.0000   1.0000   1.0000   1.0000   1.0000   1.0000
     1.0000   1.0000   1.0000   1.0000   1.0000   1.0000   0.0000   0.0000
     0.0000   0.0000

          k = 0.3333 0.0000 0.0000 (450515 PWs)   bands (ev):

   -23.6811 -21.9958 -21.2834 -18.9673 -18.9368 -16.0609 -15.7463 -13.8247
   -13.4804 -13.3156 -11.2642 -11.0965 -10.6648 -10.1560  -9.9119  -8.9597
    -8.8144  -8.1110  -7.5819  -7.4372  -6.7920  -5.4152  -1.8871  -1.6571
    -0.9908  -0.3724

     occupation numbers 
     1.0000   1.0000   1.0000   1.0000   1.0000   1.0000   1.0000   1.0000
     1.0000   1.0000   1.0000   1.0000   1.0000   1.0000   1.0000   1.0000
     1.0000   1.0000   1.0000   1.0000   1.0000   1.0000   0.0000   0.0000
     0.0000   0.0000

          k = 0.3333 0.3333 0.0000 (450333 PWs)   bands (ev):

   -23.6811 -21.9958 -21.2834 -18.9673 -18.9368 -16.0609 -15.7463 -13.8247
   -13.4804 -13.3156 -11.2642 -11.0965 -10.6648 -10.1560  -9.9119  -8.9597
    -8.8144  -8.1110  -7.5819  -7.4372  -6.7920  -5.4152  -1.8871  -1.6571
    -0.9907  -0.3759

     occupation numbers 
     1.0000   1.0000   1.0000   1.0000   1.0000   1.0000   1.0000   1.0000
     1.0000   1.0000   1.0000   1.0000   1.0000   1.0000   1.0000   1.0000
     1.0000   1.0000   1.0000   1.0000   1.0000   1.0000   0.0000   0.0000
     0.0000   0.0000

          k = 0.3333-0.3333 0.0000 (450333 PWs)   bands (ev):

   -23.6811 -21.9958 -21.2834 -18.9673 -18.9368 -16.0609 -15.7463 -13.8247
   -13.4804 -13.3156 -11.2642 -11.0965 -10.6648 -10.1560  -9.9119  -8.9597
    -8.8144  -8.1110  -7.5819  -7.4372  -6.7920  -5.4152  -1.8871  -1.6571
    -0.9907  -0.3759

     occupation numbers 
     1.0000   1.0000   1.0000   1.0000   1.0000   1.0000   1.0000   1.0000
     1.0000   1.0000   1.0000   1.0000   1.0000   1.0000   1.0000   1.0000
     1.0000   1.0000   1.0000   1.0000   1.0000   1.0000   0.0000   0.0000
     0.0000   0.0000

     the Fermi energy is    -3.9405 ev

!    total energy              =    -176.45322374 Ry
     estimated scf accuracy    <       0.00000006 Ry
     smearing contrib. (-TS)   =       0.00000000 Ry
     internal energy E=F+TS    =    -176.45322374 Ry

     The total energy is F=E-TS. E is the sum of the following terms:
     one-electron contribution =    -700.94219746 Ry
     hartree contribution      =     355.66153363 Ry
     xc contribution           =     -47.22286188 Ry
     ewald contribution        =     259.23800657 Ry
     DFT-D3 Dispersion         =      -0.01064593 Ry
     one-center paw contrib.   =     -43.17705868 Ry
      -> PAW hartree energy AE =       0.00000000 Ry
      -> PAW hartree energy PS =       0.00000000 Ry
      -> PAW xc energy AE      =       0.00000000 Ry
      -> PAW xc energy PS      =       0.00000000 Ry
      -> total E_H with PAW    =     355.66153363 Ry
      -> total E_XC with PAW   =     -47.22286188 Ry

     convergence has been achieved in   7 iterations

     negative rho (up, down):  1.335E-02 0.000E+00

     Forces acting on atoms (cartesian axes, Ry/au):

     atom    1 type  1   force =    -0.00700631    0.00001161   -0.00007446
     atom    2 type  1   force =     0.09425160    0.00001304   -0.00010165
     atom    3 type  2   force =     0.00609381   -0.00005630    0.00012121
     atom    4 type  2   force =    -0.00459966   -0.00124766    0.00014687
     atom    5 type  2   force =    -0.00456402    0.00124123    0.00013736
     atom    6 type  2   force =     0.01984646    0.00001461    0.00011471
     atom    7 type  2   force =     0.00268847    0.00150017    0.00015430
     atom    8 type  2   force =     0.00269792   -0.00152354    0.00014241
     atom    9 type  2   force =    -0.11084983    0.00018207    0.00008145
     atom   10 type  3   force =    -0.00014607    0.00040528   -0.00011414
     atom   11 type  3   force =    -0.00017156   -0.00046896   -0.00011412
     atom   12 type  3   force =    -0.00044196   -0.00076154   -0.00010977
     atom   13 type  3   force =    -0.00041857    0.00072333   -0.00011044
     atom   14 type  3   force =     0.00130218    0.00037637   -0.00013700
     atom   15 type  3   force =     0.00131754   -0.00040971   -0.00013672
     The non-local contrib.  to forces
     atom    1 type  1   force =    -0.06098964    0.00001050   -0.00406729
     atom    2 type  1   force =     1.89716663    0.00020273    0.00035009
     atom    3 type  2   force =     0.34948964   -0.00005946    0.00028849
     atom    4 type  2   force =     0.05191230    0.03573752    0.00011168
     atom    5 type  2   force =     0.05196170   -0.03559364    0.00010694
     atom    6 type  2   force =    -0.23647601   -0.00000792    0.00016851
     atom    7 type  2   force =    -0.01413554    0.03918695    0.00010304
     atom    8 type  2   force =    -0.01413603   -0.03904317    0.00010056
     atom    9 type  2   force =     0.17169127    0.00008421    0.00010287
     atom   10 type  3   force =    -0.03699036    0.06764804    0.00000886
     atom   11 type  3   force =    -0.03698677   -0.06763720    0.00000974
     atom   12 type  3   force =     0.03959720    0.06864651    0.00001620
     atom   13 type  3   force =     0.03959091   -0.06864236    0.00001658
     atom   14 type  3   force =    -0.05272440   -0.08712877    0.00012660
     atom   15 type  3   force =    -0.05272279    0.08713516    0.00012566
     The ionic contribution  to forces
     atom    1 type  1   force =     9.86771193   -0.00014634    0.00847264
     atom    2 type  1   force =   -13.28912674   -0.00036910   -0.00173904
     atom    3 type  2   force =     2.65957166   -0.00019481    0.00036589
     atom    4 type  2   force =     2.69539863   -7.03683176    0.00066082
     atom    5 type  2   force =     2.69591092    7.03678206    0.00053083
     atom    6 type  2   force =    -3.35679687   -0.00042563   -0.00047726
     atom    7 type  2   force =    -2.64002014   -6.94646520    0.00077543
     atom    8 type  2   force =    -2.63942526    6.94676146    0.00056599
     atom    9 type  2   force =    -1.88937800    0.00131359    0.00088338
     atom   10 type  3   force =     1.50868146   -3.28462804   -0.00020992
     atom   11 type  3   force =     1.50872481    3.28439580   -0.00025946
     atom   12 type  3   force =    -1.48079335   -3.27199526   -0.00043384
     atom   13 type  3   force =    -1.48050522    3.27200816   -0.00047249
     atom   14 type  3   force =     2.92006482    2.90095641   -0.00434774
     atom   15 type  3   force =     2.91998132   -2.90116133   -0.00431524
     The local contribution  to forces
     atom    1 type  1   force =    -9.81429798    0.00015339   -0.00438520
     atom    2 type  1   force =    11.49772973    0.00018786    0.00141408
     atom    3 type  2   force =    -2.99615266    0.00025129   -0.00068124
     atom    4 type  2   force =    -2.74982156    6.99939670   -0.00078579
     atom    5 type  2   force =    -2.75033672   -6.99941225   -0.00065186
     atom    6 type  2   force =     3.60832111    0.00044941    0.00034326
     atom    7 type  2   force =     2.65552745    6.90857885   -0.00091750
     atom    8 type  2   force =     2.65493143   -6.90898644   -0.00070339
     atom    9 type  2   force =     1.62161931   -0.00146251   -0.00103068
     atom   10 type  3   force =    -1.47176144    3.21739592    0.00021047
     atom   11 type  3   force =    -1.47183388   -3.21722624    0.00025916
     atom   12 type  3   force =     1.44079181    3.20260287    0.00043142
     atom   13 type  3   force =     1.44053328   -3.20264641    0.00046903
     atom   14 type  3   force =    -2.86608167   -2.81339203    0.00420778
     atom   15 type  3   force =    -2.86598440    2.81356919    0.00417651
     The core correction contribution to forces
     atom    1 type  1   force =     0.00052206    0.00000019    0.00002931
     atom    2 type  1   force =    -0.01138878   -0.00000239   -0.00000312
     atom    3 type  2   force =    -0.00674505   -0.00004746    0.00027141
     atom    4 type  2   force =    -0.00186920    0.00059058    0.00028379
     atom    5 type  2   force =    -0.00188005   -0.00066323    0.00027508
     atom    6 type  2   force =     0.00466849    0.00000476    0.00020344
     atom    7 type  2   force =     0.00141820    0.00032095    0.00031708
     atom    8 type  2   force =     0.00142911   -0.00036453    0.00030297
     atom    9 type  2   force =    -0.01454890    0.00025289    0.00024932
     atom   10 type  3   force =     0.00000000    0.00000000    0.00000000
     atom   11 type  3   force =     0.00000000    0.00000000    0.00000000
     atom   12 type  3   force =     0.00000000    0.00000000    0.00000000
     atom   13 type  3   force =     0.00000000    0.00000000    0.00000000
     atom   14 type  3   force =     0.00000000    0.00000000    0.00000000
     atom   15 type  3   force =     0.00000000    0.00000000    0.00000000
     The Hubbard contrib.    to forces
     atom    1 type  1   force =     0.00000000    0.00000000    0.00000000
     atom    2 type  1   force =     0.00000000    0.00000000    0.00000000
     atom    3 type  2   force =     0.00000000    0.00000000    0.00000000
     atom    4 type  2   force =     0.00000000    0.00000000    0.00000000
     atom    5 type  2   force =     0.00000000    0.00000000    0.00000000
     atom    6 type  2   force =     0.00000000    0.00000000    0.00000000
     atom    7 type  2   force =     0.00000000    0.00000000    0.00000000
     atom    8 type  2   force =     0.00000000    0.00000000    0.00000000
     atom    9 type  2   force =     0.00000000    0.00000000    0.00000000
     atom   10 type  3   force =     0.00000000    0.00000000    0.00000000
     atom   11 type  3   force =     0.00000000    0.00000000    0.00000000
     atom   12 type  3   force =     0.00000000    0.00000000    0.00000000
     atom   13 type  3   force =     0.00000000    0.00000000    0.00000000
     atom   14 type  3   force =     0.00000000    0.00000000    0.00000000
     atom   15 type  3   force =     0.00000000    0.00000000    0.00000000
     The SCF correction term to forces
     atom    1 type  1   force =     0.00002352   -0.00000018   -0.00000038
     atom    2 type  1   force =    -0.00031964   -0.00000007   -0.00000014
     atom    3 type  2   force =    -0.00004745    0.00000013    0.00000005
     atom    4 type  2   force =    -0.00007683    0.00004260   -0.00000013
     atom    5 type  2   force =    -0.00007686   -0.00004304   -0.00000012
     atom    6 type  2   force =     0.00002272   -0.00000002    0.00000028
     atom    7 type  2   force =     0.00001906   -0.00000304   -0.00000017
     atom    8 type  2   force =     0.00001922    0.00000277   -0.00000013
     atom    9 type  2   force =    -0.00015262    0.00000002    0.00000010
     atom   10 type  3   force =    -0.00000366   -0.00000239    0.00000000
     atom   11 type  3   force =    -0.00000365    0.00000237   -0.00000002
     atom   12 type  3   force =     0.00000275    0.00000736    0.00000000
     atom   13 type  3   force =     0.00000271   -0.00000733   -0.00000001
     atom   14 type  3   force =     0.00000412   -0.00000113   -0.00000004
     atom   15 type  3   force =     0.00000411    0.00000110   -0.00000003

     DFT-D3 dispersion contribution to forces:
     atom    1 type  1   force =     0.00005416    0.00000001    0.00000002
     atom    2 type  1   force =     0.00022074   -0.00000001    0.00000002
     atom    3 type  2   force =     0.00000801   -0.00000001    0.00000014
     atom    4 type  2   force =    -0.00011265   -0.00017733    0.00000004
     atom    5 type  2   force =    -0.00011265    0.00017731    0.00000004
     atom    6 type  2   force =     0.00013736   -0.00000000    0.00000001
     atom    7 type  2   force =    -0.00009020   -0.00011236   -0.00000003
     atom    8 type  2   force =    -0.00009020    0.00011234   -0.00000004
     atom    9 type  2   force =    -0.00005054   -0.00000016    0.00000000
     atom   10 type  3   force =    -0.00004172   -0.00000228   -0.00000001
     atom   11 type  3   force =    -0.00004172    0.00000230   -0.00000001
     atom   12 type  3   force =    -0.00001003   -0.00001704   -0.00000002
     atom   13 type  3   force =    -0.00000990    0.00001723   -0.00000002
     atom   14 type  3   force =     0.00006966   -0.00005215   -0.00000007
     atom   15 type  3   force =     0.00006966    0.00005215   -0.00000008

     Total force =     0.147381     Total SCF correction =     0.000381

     DFT-D3 dispersion Force =     0.000472


     Computing stress (Cartesian axis) and pressure


     negative rho (up, down):  1.335E-02 0.000E+00
          total   stress  (Ry/bohr**3)                   (kbar)     P=       -0.15
  -0.00000234  -0.00000000  -0.00000000           -0.34       -0.00       -0.00
  -0.00000000  -0.00000038   0.00000000           -0.00       -0.06        0.00
  -0.00000000   0.00000000  -0.00000045           -0.00        0.00       -0.07

     kinetic stress (kbar)     69.45      0.00      0.00
                                0.00     72.40      0.00
                                0.00      0.00     82.38

     local   stress (kbar)   -649.50      0.01     -0.01
                                0.01   -353.88      0.00
                               -0.01      0.00    -79.38

     nonloc. stress (kbar)     19.10     -0.00      0.00
                               -0.00     18.49     -0.00
                                0.00     -0.00     17.83

     hartree stress (kbar)    286.02     -0.00      0.01
                               -0.00    157.34     -0.00
                                0.01     -0.00     52.83

     exc-cor stress (kbar)     -6.11     -0.00     -0.00
                               -0.00     -6.30     -0.00
                               -0.00     -0.00     -6.79

     corecor stress (kbar)    -12.09     -0.00     -0.00
                               -0.00    -12.03      0.00
                               -0.00      0.00    -11.89

     ewald   stress (kbar)    292.79     -0.00      0.00
                               -0.00    123.92     -0.00
                                0.00     -0.00    -55.05

     hubbard stress (kbar)      0.00      0.00      0.00
                                0.00      0.00      0.00
                                0.00      0.00      0.00

     DFT-D   stress (kbar)     -0.00      0.00     -0.00
                                0.00      0.00     -0.00
                               -0.00     -0.00     -0.00

     XDM     stress (kbar)      0.00      0.00      0.00
                                0.00      0.00      0.00
                                0.00      0.00      0.00

     dft-nl  stress (kbar)      0.00      0.00      0.00
                                0.00      0.00      0.00
                                0.00      0.00      0.00

     TS-vdW  stress (kbar)      0.00      0.00      0.00
                                0.00      0.00      0.00
                                0.00      0.00      0.00

     MDB     stress (kbar)      0.00      0.00      0.00
                                0.00      0.00      0.00
                                0.00      0.00      0.00

     3D-RISM stress (kbar)      0.00      0.00      0.00
                                0.00      0.00      0.00
                                0.00      0.00      0.00

     Energy error            =      2.3E-03 Ry
     Gradient error          =      1.1E-01 Ry/Bohr

     number of scf cycles    =   2
     number of bfgs steps    =   1

     energy             old  =    -176.4554745648 Ry
     energy             new  =    -176.4532237400 Ry

     CASE: energy            _new > energy            _old

     new trust radius        =       0.0071892030 bohr
     new conv_thr            =       0.0000010000 Ry


ATOMIC_POSITIONS (angstrom)
N                7.7076413280        4.5700903526        4.5707786746
N                0.9112515016        4.5702839918        4.5702610935
C                6.3399140655        4.5701172470        4.5705545863
C                5.6143219606        3.3573980215        4.5705311881
C                5.6143845975        5.7828760822        4.5705119999
C                3.5064443796        4.5701927818        4.5704211704
C                4.2273609564        3.3590958373        4.5704808456
C                4.2274261485        5.7812482061        4.5704596992
C                2.0803342392        4.5702663195        4.5703538199
H                6.1547289577        2.4074667903        4.5705357540
H                6.1548381424        6.7327920686        4.5704988336
H                3.6841020219        2.4126957767        4.5704167414
H                3.6842033551        6.7276812930        4.5703808351
H                8.2263324368        5.4356704809        4.5694553728
H                8.2262859093        3.7044787508        4.5694653858



     Writing config-only to output data dir ./tmp/ABN.save/ :
     XML data file
     NEW-OLD atomic charge density approx. for the potential

     negative rho (up, down):  1.334E-02 0.000E+00

     total cpu time spent up to now is      385.9 secs

     Self-consistent Calculation

     iteration #  1     ecut=    40.00 Ry     beta= 0.40
     Davidson diagonalization with overlap

---- Real-time Memory Report at c_bands before calling an iterative solver
           416 MiB given to the printing process from OS
             0 MiB allocation reported by mallinfo(arena+hblkhd)
         16062 MiB available memory on the node where the printing process lives
------------------
     ethr =  1.00E-06,  avg # of iterations =  8.4

     negative rho (up, down):  1.339E-02 0.000E+00

     total cpu time spent up to now is      407.4 secs

     total energy              =    -176.45532806 Ry
     estimated scf accuracy    <       0.00165163 Ry

     iteration #  2     ecut=    40.00 Ry     beta= 0.40
     Davidson diagonalization with overlap

---- Real-time Memory Report at c_bands before calling an iterative solver
           416 MiB given to the printing process from OS
             0 MiB allocation reported by mallinfo(arena+hblkhd)
         15034 MiB available memory on the node where the printing process lives
------------------
     ethr =  3.75E-06,  avg # of iterations =  4.0

     negative rho (up, down):  1.341E-02 0.000E+00

     total cpu time spent up to now is      420.4 secs

     total energy              =    -176.45557720 Ry
     estimated scf accuracy    <       0.00059800 Ry

     iteration #  3     ecut=    40.00 Ry     beta= 0.40
     Davidson diagonalization with overlap

---- Real-time Memory Report at c_bands before calling an iterative solver
           416 MiB given to the printing process from OS
             0 MiB allocation reported by mallinfo(arena+hblkhd)
         14913 MiB available memory on the node where the printing process lives
------------------
     ethr =  1.36E-06,  avg # of iterations =  4.0

     negative rho (up, down):  1.342E-02 0.000E+00

     total cpu time spent up to now is      432.8 secs

     total energy              =    -176.45565706 Ry
     estimated scf accuracy    <       0.00004840 Ry

     iteration #  4     ecut=    40.00 Ry     beta= 0.40
     Davidson diagonalization with overlap

---- Real-time Memory Report at c_bands before calling an iterative solver
           416 MiB given to the printing process from OS
             0 MiB allocation reported by mallinfo(arena+hblkhd)
         14793 MiB available memory on the node where the printing process lives
------------------
     ethr =  1.10E-07,  avg # of iterations =  4.0

     negative rho (up, down):  1.343E-02 0.000E+00

     total cpu time spent up to now is      445.7 secs

     total energy              =    -176.45565996 Ry
     estimated scf accuracy    <       0.00001356 Ry

     iteration #  5     ecut=    40.00 Ry     beta= 0.40
     Davidson diagonalization with overlap

---- Real-time Memory Report at c_bands before calling an iterative solver
           416 MiB given to the printing process from OS
             0 MiB allocation reported by mallinfo(arena+hblkhd)
         14679 MiB available memory on the node where the printing process lives
------------------
     ethr =  3.08E-08,  avg # of iterations =  4.0

     negative rho (up, down):  1.344E-02 0.000E+00

     total cpu time spent up to now is      458.6 secs

     total energy              =    -176.45566257 Ry
     estimated scf accuracy    <       0.00000143 Ry

     iteration #  6     ecut=    40.00 Ry     beta= 0.40
     Davidson diagonalization with overlap

---- Real-time Memory Report at c_bands before calling an iterative solver
           416 MiB given to the printing process from OS
             0 MiB allocation reported by mallinfo(arena+hblkhd)
         14559 MiB available memory on the node where the printing process lives
------------------
     ethr =  3.25E-09,  avg # of iterations =  2.0

     negative rho (up, down):  1.344E-02 0.000E+00

     total cpu time spent up to now is      470.3 secs

     End of self-consistent calculation

          k = 0.0000 0.0000 0.0000 (450991 PWs)   bands (ev):

   -23.6968 -22.1444 -21.3381 -18.9471 -18.8925 -16.0106 -15.7258 -13.7885
   -13.4731 -13.2977 -11.2383 -11.0721 -10.6423 -10.1454  -9.8917  -8.9828
    -8.7905  -8.0817  -7.7217  -7.5200  -6.7748  -5.4106  -1.8100  -1.6363
    -0.9886  -0.3614

     occupation numbers 
     1.0000   1.0000   1.0000   1.0000   1.0000   1.0000   1.0000   1.0000
     1.0000   1.0000   1.0000   1.0000   1.0000   1.0000   1.0000   1.0000
     1.0000   1.0000   1.0000   1.0000   1.0000   1.0000   0.0000   0.0000
     0.0000   0.0000

          k = 0.0000 0.3333 0.0000 (450515 PWs)   bands (ev):

   -23.6968 -22.1444 -21.3381 -18.9471 -18.8925 -16.0106 -15.7258 -13.7885
   -13.4731 -13.2977 -11.2382 -11.0721 -10.6423 -10.1454  -9.8917  -8.9828
    -8.7905  -8.0817  -7.7217  -7.5200  -6.7748  -5.4106  -1.8100  -1.6363
    -0.9885  -0.3655

     occupation numbers 
     1.0000   1.0000   1.0000   1.0000   1.0000   1.0000   1.0000   1.0000
     1.0000   1.0000   1.0000   1.0000   1.0000   1.0000   1.0000   1.0000
     1.0000   1.0000   1.0000   1.0000   1.0000   1.0000   0.0000   0.0000
     0.0000   0.0000

          k = 0.3333 0.0000 0.0000 (450515 PWs)   bands (ev):

   -23.6968 -22.1444 -21.3381 -18.9471 -18.8925 -16.0106 -15.7258 -13.7885
   -13.4731 -13.2977 -11.2382 -11.0721 -10.6423 -10.1454  -9.8917  -8.9828
    -8.7905  -8.0817  -7.7217  -7.5200  -6.7748  -5.4106  -1.8100  -1.6363
    -0.9886  -0.3610

     occupation numbers 
     1.0000   1.0000   1.0000   1.0000   1.0000   1.0000   1.0000   1.0000
     1.0000   1.0000   1.0000   1.0000   1.0000   1.0000   1.0000   1.0000
     1.0000   1.0000   1.0000   1.0000   1.0000   1.0000   0.0000   0.0000
     0.0000   0.0000

          k = 0.3333 0.3333 0.0000 (450333 PWs)   bands (ev):

   -23.6968 -22.1444 -21.3381 -18.9471 -18.8925 -16.0106 -15.7258 -13.7885
   -13.4731 -13.2977 -11.2382 -11.0721 -10.6423 -10.1454  -9.8917  -8.9828
    -8.7905  -8.0817  -7.7217  -7.5200  -6.7748  -5.4106  -1.8100  -1.6363
    -0.9885  -0.3650

     occupation numbers 
     1.0000   1.0000   1.0000   1.0000   1.0000   1.0000   1.0000   1.0000
     1.0000   1.0000   1.0000   1.0000   1.0000   1.0000   1.0000   1.0000
     1.0000   1.0000   1.0000   1.0000   1.0000   1.0000   0.0000   0.0000
     0.0000   0.0000

          k = 0.3333-0.3333 0.0000 (450333 PWs)   bands (ev):

   -23.6968 -22.1444 -21.3381 -18.9471 -18.8925 -16.0106 -15.7258 -13.7885
   -13.4731 -13.2977 -11.2382 -11.0721 -10.6423 -10.1454  -9.8917  -8.9828
    -8.7905  -8.0817  -7.7217  -7.5200  -6.7748  -5.4106  -1.8100  -1.6363
    -0.9885  -0.3650

     occupation numbers 
     1.0000   1.0000   1.0000   1.0000   1.0000   1.0000   1.0000   1.0000
     1.0000   1.0000   1.0000   1.0000   1.0000   1.0000   1.0000   1.0000
     1.0000   1.0000   1.0000   1.0000   1.0000   1.0000   0.0000   0.0000
     0.0000   0.0000

     the Fermi energy is    -3.9351 ev

!    total energy              =    -176.45566251 Ry
     estimated scf accuracy    <       0.00000031 Ry
     smearing contrib. (-TS)   =       0.00000000 Ry
     internal energy E=F+TS    =    -176.45566251 Ry

     The total energy is F=E-TS. E is the sum of the following terms:
     one-electron contribution =    -701.38311734 Ry
     hartree contribution      =     355.89633441 Ry
     xc contribution           =     -47.25380263 Ry
     ewald contribution        =     259.47328247 Ry
     DFT-D3 Dispersion         =      -0.01065152 Ry
     one-center paw contrib.   =     -43.17770790 Ry
      -> PAW hartree energy AE =       0.00000000 Ry
      -> PAW hartree energy PS =       0.00000000 Ry
      -> PAW xc energy AE      =       0.00000000 Ry
      -> PAW xc energy PS      =       0.00000000 Ry
      -> total E_H with PAW    =     355.89633441 Ry
      -> total E_XC with PAW   =     -47.25380263 Ry

     convergence has been achieved in   6 iterations

     negative rho (up, down):  1.344E-02 0.000E+00

     Forces acting on atoms (cartesian axes, Ry/au):

     atom    1 type  1   force =     0.00022108   -0.00001472   -0.00007880
     atom    2 type  1   force =     0.00462057   -0.00000623   -0.00012403
     atom    3 type  2   force =    -0.00503651   -0.00003051    0.00011779
     atom    4 type  2   force =    -0.00018268   -0.00018682    0.00015408
     atom    5 type  2   force =    -0.00018414    0.00009904    0.00014409
     atom    6 type  2   force =    -0.00068706    0.00000238    0.00007992
     atom    7 type  2   force =     0.00034316   -0.00168001    0.00017978
     atom    8 type  2   force =     0.00035328    0.00162831    0.00016293
     atom    9 type  2   force =    -0.00064960    0.00022426    0.00011234
     atom   10 type  3   force =    -0.00099593    0.00110151   -0.00012042
     atom   11 type  3   force =    -0.00100032   -0.00111652   -0.00011992
     atom   12 type  3   force =     0.00067785    0.00139523   -0.00011957
     atom   13 type  3   force =     0.00068531   -0.00140995   -0.00011904
     atom   14 type  3   force =     0.00091761   -0.00037975   -0.00013466
     atom   15 type  3   force =     0.00091738    0.00037378   -0.00013449
     The non-local contrib.  to forces
     atom    1 type  1   force =    -0.05572747   -0.00001207   -0.00409301
     atom    2 type  1   force =     1.82714559   -0.00001737    0.00014928
     atom    3 type  2   force =     0.34019507   -0.00003666    0.00028829
     atom    4 type  2   force =     0.05582978    0.03605277    0.00010020
     atom    5 type  2   force =     0.05583412   -0.03599482    0.00009642
     atom    6 type  2   force =    -0.26618115   -0.00002261    0.00007822
     atom    7 type  2   force =    -0.01560353    0.03357117    0.00011343
     atom    8 type  2   force =    -0.01561482   -0.03349865    0.00010897
     atom    9 type  2   force =     0.26016508    0.00008438    0.00010717
     atom   10 type  3   force =    -0.03694896    0.06742440    0.00000023
     atom   11 type  3   force =    -0.03695125   -0.06742065    0.00000145
     atom   12 type  3   force =     0.03932434    0.06828068    0.00000603
     atom   13 type  3   force =     0.03932075   -0.06827992    0.00000709
     atom   14 type  3   force =    -0.05267154   -0.08696629    0.00012408
     atom   15 type  3   force =    -0.05266608    0.08696817    0.00012312
     The ionic contribution  to forces
     atom    1 type  1   force =     9.90906197   -0.00022477    0.00890512
     atom    2 type  1   force =   -13.63141191    0.00029548   -0.00096319
     atom    3 type  2   force =     2.61698257   -0.00009929    0.00000882
     atom    4 type  2   force =     2.69750883   -7.02935474    0.00028454
     atom    5 type  2   force =     2.69792392    7.02921992    0.00018373
     atom    6 type  2   force =    -3.45739017   -0.00004493   -0.00019684
     atom    7 type  2   force =    -2.64885557   -6.95453126    0.00020426
     atom    8 type  2   force =    -2.64843324    6.95468422    0.00007379
     atom    9 type  2   force =    -1.43786745    0.00025967    0.00019589
     atom   10 type  3   force =     1.50681479   -3.28121572    0.00005720
     atom   11 type  3   force =     1.50695299    3.28110935   -0.00000142
     atom   12 type  3   force =    -1.47659727   -3.26490543   -0.00014048
     atom   13 type  3   force =    -1.47640302    3.26494798   -0.00019334
     atom   14 type  3   force =     2.92093786    2.89897973   -0.00422545
     atom   15 type  3   force =     2.92077571   -2.89912024   -0.00419262
     The local contribution  to forces
     atom    1 type  1   force =    -9.85354605    0.00022657   -0.00479835
     atom    2 type  1   force =    11.81904717   -0.00027839    0.00081348
     atom    3 type  2   force =    -2.95586436    0.00015358   -0.00032419
     atom    4 type  2   force =    -2.75146864    6.99286495   -0.00039255
     atom    5 type  2   force =    -2.75187997   -6.99279130   -0.00028893
     atom    6 type  2   force =     3.71688146    0.00007708    0.00011989
     atom    7 type  2   force =     2.66339456    6.91900789   -0.00033408
     atom    8 type  2   force =     2.66298122   -6.91923300   -0.00019916
     atom    9 type  2   force =     1.19551264   -0.00036467   -0.00031457
     atom   10 type  3   force =    -1.47076329    3.21491189   -0.00005500
     atom   11 type  3   force =    -1.47090355   -3.21481331    0.00000291
     atom   12 type  3   force =     1.43802063    3.19807134    0.00013777
     atom   13 type  3   force =     1.43783736   -3.19811847    0.00019009
     atom   14 type  3   force =    -2.86735721   -2.81234632    0.00408959
     atom   15 type  3   force =    -2.86720078    2.81248991    0.00405789
     The core correction contribution to forces
     atom    1 type  1   force =     0.00042233    0.00000055    0.00002956
     atom    2 type  1   force =    -0.00987316   -0.00000069   -0.00000167
     atom    3 type  2   force =    -0.00639265   -0.00004266    0.00026756
     atom    4 type  2   force =    -0.00196205    0.00055845    0.00028469
     atom    5 type  2   force =    -0.00197164   -0.00063247    0.00027561
     atom    6 type  2   force =     0.00562775   -0.00000177    0.00020141
     atom    7 type  2   force =     0.00145082    0.00049578    0.00031896
     atom    8 type  2   force =     0.00146350   -0.00053734    0.00030212
     atom    9 type  2   force =    -0.01761375    0.00025023    0.00024638
     atom   10 type  3   force =     0.00000000    0.00000000    0.00000000
     atom   11 type  3   force =     0.00000000    0.00000000    0.00000000
     atom   12 type  3   force =     0.00000000    0.00000000    0.00000000
     atom   13 type  3   force =     0.00000000    0.00000000    0.00000000
     atom   14 type  3   force =     0.00000000    0.00000000    0.00000000
     atom   15 type  3   force =     0.00000000    0.00000000    0.00000000
     The Hubbard contrib.    to forces
     atom    1 type  1   force =     0.00000000    0.00000000    0.00000000
     atom    2 type  1   force =     0.00000000    0.00000000    0.00000000
     atom    3 type  2   force =     0.00000000    0.00000000    0.00000000
     atom    4 type  2   force =     0.00000000    0.00000000    0.00000000
     atom    5 type  2   force =     0.00000000    0.00000000    0.00000000
     atom    6 type  2   force =     0.00000000    0.00000000    0.00000000
     atom    7 type  2   force =     0.00000000    0.00000000    0.00000000
     atom    8 type  2   force =     0.00000000    0.00000000    0.00000000
     atom    9 type  2   force =     0.00000000    0.00000000    0.00000000
     atom   10 type  3   force =     0.00000000    0.00000000    0.00000000
     atom   11 type  3   force =     0.00000000    0.00000000    0.00000000
     atom   12 type  3   force =     0.00000000    0.00000000    0.00000000
     atom   13 type  3   force =     0.00000000    0.00000000    0.00000000
     atom   14 type  3   force =     0.00000000    0.00000000    0.00000000
     atom   15 type  3   force =     0.00000000    0.00000000    0.00000000
     The SCF correction term to forces
     atom    1 type  1   force =     0.00002051    0.00000049    0.00000070
     atom    2 type  1   force =    -0.00044850    0.00000025    0.00000089
     atom    3 type  2   force =     0.00009816    0.00000002    0.00000002
     atom    4 type  2   force =     0.00008680   -0.00012574    0.00000000
     atom    5 type  2   force =     0.00008683    0.00012620    0.00000007
     atom    6 type  2   force =     0.00030375    0.00000012    0.00000006
     atom    7 type  2   force =     0.00011048   -0.00010753    0.00000007
     atom    8 type  2   force =     0.00011022    0.00010802    0.00000009
     atom    9 type  2   force =    -0.00073460    0.00000019    0.00000032
     atom   10 type  3   force =     0.00000793   -0.00000962   -0.00000003
     atom   11 type  3   force =     0.00000790    0.00000962   -0.00000003
     atom   12 type  3   force =     0.00000854   -0.00003506   -0.00000004
     atom   13 type  3   force =     0.00000856    0.00003509   -0.00000004
     atom   14 type  3   force =     0.00000428    0.00001129    0.00000002
     atom   15 type  3   force =     0.00000431   -0.00001123    0.00000002

     DFT-D3 dispersion contribution to forces:
     atom    1 type  1   force =     0.00005428    0.00000000    0.00000002
     atom    2 type  1   force =     0.00022587   -0.00000001    0.00000001
     atom    3 type  2   force =     0.00000920   -0.00000001    0.00000012
     atom    4 type  2   force =    -0.00011291   -0.00017702    0.00000003
     atom    5 type  2   force =    -0.00011290    0.00017702    0.00000002
     atom    6 type  2   force =     0.00013579   -0.00000001    0.00000001
     atom    7 type  2   force =    -0.00008911   -0.00011056   -0.00000003
     atom    8 type  2   force =    -0.00008911    0.00011056   -0.00000003
     atom    9 type  2   force =    -0.00004701   -0.00000005   -0.00000000
     atom   10 type  3   force =    -0.00004190   -0.00000395   -0.00000000
     atom   11 type  3   force =    -0.00004191    0.00000396   -0.00000000
     atom   12 type  3   force =    -0.00001389   -0.00001081   -0.00000000
     atom   13 type  3   force =    -0.00001385    0.00001087   -0.00000000
     atom   14 type  3   force =     0.00006872   -0.00005266   -0.00000007
     atom   15 type  3   force =     0.00006872    0.00005266   -0.00000007

     Total force =     0.008067     Total SCF correction =     0.000970

     DFT-D3 dispersion Force =     0.000472
     SCF correction compared to forces is large: reduce conv_thr to get better values


     Computing stress (Cartesian axis) and pressure


     negative rho (up, down):  1.344E-02 0.000E+00
          total   stress  (Ry/bohr**3)                   (kbar)     P=       -0.09
  -0.00000081  -0.00000000   0.00000000           -0.12       -0.00        0.00
  -0.00000000  -0.00000053   0.00000000           -0.00       -0.08        0.00
   0.00000000   0.00000000  -0.00000045            0.00        0.00       -0.07

     kinetic stress (kbar)     69.54      0.00      0.00
                                0.00     72.49      0.00
                                0.00      0.00     82.47

     local   stress (kbar)   -649.99      0.01     -0.01
                                0.01   -353.93      0.00
                               -0.01      0.00    -79.57

     nonloc. stress (kbar)     19.14     -0.00      0.00
                               -0.00     18.49     -0.00
                                0.00     -0.00     17.83

     hartree stress (kbar)    286.14     -0.00      0.01
                               -0.00    157.42     -0.00
                                0.01     -0.00     52.95

     exc-cor stress (kbar)     -6.12     -0.00     -0.00
                               -0.00     -6.32     -0.00
                               -0.00     -0.00     -6.80

     corecor stress (kbar)    -12.09     -0.00      0.00
                               -0.00    -12.03      0.00
                                0.00      0.00    -11.89

[...]
    -8.8009  -8.0765  -7.7225  -7.5175  -6.7827  -5.4085  -1.8091  -1.6334
    -0.9864  -0.3631

     occupation numbers 
     1.0000   1.0000   1.0000   1.0000   1.0000   1.0000   1.0000   1.0000
     1.0000   1.0000   1.0000   1.0000   1.0000   1.0000   1.0000   1.0000
     1.0000   1.0000   1.0000   1.0000   1.0000   1.0000   0.0000   0.0000
     0.0000   0.0000

          k = 0.3333-0.3333 0.0000 (450333 PWs)   bands (ev):

   -23.6817 -22.1532 -21.3466 -18.9609 -18.9002 -16.0190 -15.7287 -13.7995
   -13.4565 -13.2949 -11.2429 -11.0777 -10.6572 -10.1492  -9.8878  -8.9838
    -8.8009  -8.0765  -7.7225  -7.5175  -6.7827  -5.4085  -1.8091  -1.6334
    -0.9864  -0.3631

     occupation numbers 
     1.0000   1.0000   1.0000   1.0000   1.0000   1.0000   1.0000   1.0000
     1.0000   1.0000   1.0000   1.0000   1.0000   1.0000   1.0000   1.0000
     1.0000   1.0000   1.0000   1.0000   1.0000   1.0000   0.0000   0.0000
     0.0000   0.0000

     the Fermi energy is    -3.9302 ev

!    total energy              =    -176.45570973 Ry
     estimated scf accuracy    <          6.2E-09 Ry
     smearing contrib. (-TS)   =       0.00000000 Ry
     internal energy E=F+TS    =    -176.45570973 Ry

     The total energy is F=E-TS. E is the sum of the following terms:
     one-electron contribution =    -701.85267490 Ry
     hartree contribution      =     356.13371799 Ry
     xc contribution           =     -47.26617362 Ry
     ewald contribution        =     259.71830046 Ry
     DFT-D3 Dispersion         =      -0.01065503 Ry
     one-center paw contrib.   =     -43.17822462 Ry
      -> PAW hartree energy AE =       0.00000000 Ry
      -> PAW hartree energy PS =       0.00000000 Ry
      -> PAW xc energy AE      =       0.00000000 Ry
      -> PAW xc energy PS      =       0.00000000 Ry
      -> total E_H with PAW    =     356.13371799 Ry
      -> total E_XC with PAW   =     -47.26617362 Ry

     convergence has been achieved in   4 iterations

     negative rho (up, down):  1.345E-02 0.000E+00

     Forces acting on atoms (cartesian axes, Ry/au):

     atom    1 type  1   force =     0.00025341   -0.00001298   -0.00005490
     atom    2 type  1   force =     0.00000912    0.00005583   -0.00008684
     atom    3 type  2   force =     0.00000590   -0.00002167    0.00009350
     atom    4 type  2   force =    -0.00013040   -0.00002520    0.00009156
     atom    5 type  2   force =    -0.00010143    0.00000795    0.00008692
     atom    6 type  2   force =     0.00033202    0.00000943    0.00015585
     atom    7 type  2   force =     0.00009897   -0.00010926    0.00009573
     atom    8 type  2   force =     0.00012918    0.00011251    0.00009263
     atom    9 type  2   force =     0.00000805    0.00002814    0.00003313
     atom   10 type  3   force =     0.00003110   -0.00026821   -0.00006971
     atom   11 type  3   force =     0.00006810    0.00024704   -0.00007298
     atom   12 type  3   force =    -0.00022825   -0.00001359   -0.00005185
     atom   13 type  3   force =    -0.00019107    0.00002253   -0.00005663
     atom   14 type  3   force =    -0.00015284    0.00014303   -0.00012877
     atom   15 type  3   force =    -0.00013186   -0.00017556   -0.00012764
     The non-local contrib.  to forces
     atom    1 type  1   force =    -0.05272778   -0.00002487   -0.00378772
     atom    2 type  1   force =     1.82363808    0.00098850    0.00144857
     atom    3 type  2   force =     0.34567427   -0.00003282    0.00028186
     atom    4 type  2   force =     0.05602995    0.03666462    0.00014266
     atom    5 type  2   force =     0.05606410   -0.03652848    0.00014201
     atom    6 type  2   force =    -0.26407761    0.00000274    0.00035294
     atom    7 type  2   force =    -0.01630075    0.03523588    0.00019183
     atom    8 type  2   force =    -0.01629059   -0.03496961    0.00019292
     atom    9 type  2   force =     0.25924060    0.00007163    0.00022109
     atom   10 type  3   force =    -0.03711424    0.06766486    0.00007016
     atom   11 type  3   force =    -0.03710875   -0.06766668    0.00006897
     atom   12 type  3   force =     0.03950276    0.06850948    0.00007763
     atom   13 type  3   force =     0.03950368   -0.06850649    0.00007571
     atom   14 type  3   force =    -0.05302192   -0.08669136    0.00014825
     atom   15 type  3   force =    -0.05302436    0.08669508    0.00014720
     The ionic contribution  to forces
     atom    1 type  1   force =     9.88675824   -0.00021626    0.00516534
     atom    2 type  1   force =   -13.65920121   -0.00275390   -0.00736777
     atom    3 type  2   force =     2.64001318   -0.00082081    0.00384627
     atom    4 type  2   force =     2.70858082   -7.03791258    0.00340968
     atom    5 type  2   force =     2.70991745    7.03726542    0.00304002
     atom    6 type  2   force =    -3.44075910   -0.00159418    0.00176780
     atom    7 type  2   force =    -2.65649921   -6.96413723    0.00293415
     atom    8 type  2   force =    -2.65457997    6.96467317    0.00240816
     atom    9 type  2   force =    -1.45016210    0.00540903    0.00443651
     atom   10 type  3   force =     1.51166242   -3.28678329   -0.00212425
     atom   11 type  3   force =     1.51181330    3.28676781   -0.00212822
     atom   12 type  3   force =    -1.48092304   -3.27072056   -0.00232733
     atom   13 type  3   force =    -1.48052803    3.27095682   -0.00232118
     atom   14 type  3   force =     2.92694858    2.89258848   -0.00538811
     atom   15 type  3   force =     2.92695866   -2.89272192   -0.00535106
     The local contribution  to forces
     atom    1 type  1   force =    -9.83421393    0.00023299   -0.00133966
     atom    2 type  1   force =    11.84527883    0.00183024    0.00596646
     atom    3 type  2   force =    -2.97906577    0.00088425   -0.00418208
     atom    4 type  2   force =    -2.76262223    7.00084985   -0.00361950
     atom    5 type  2   force =    -2.76395130   -7.00027684   -0.00324516
     atom    6 type  2   force =     3.69952684    0.00160703   -0.00203968
     atom    7 type  2   force =     2.67151720    6.92846788   -0.00322078
     atom    8 type  2   force =     2.66960974   -6.92921124   -0.00268451
     atom    9 type  2   force =     1.20882144   -0.00568386   -0.00473325
     atom   10 type  3   force =    -1.47443368    3.21885764    0.00210528
     atom   11 type  3   force =    -1.47455272   -3.21885174    0.00210717
     atom   12 type  3   force =     1.44124514    3.20221745    0.00231853
     atom   13 type  3   force =     1.44088664   -3.20243847    0.00230954
     atom   14 type  3   force =    -2.87410134   -2.80569501    0.00523240
     atom   15 type  3   force =    -2.87408772    2.80580225    0.00519754
     The core correction contribution to forces
     atom    1 type  1   force =     0.00042657    0.00000053    0.00002696
     atom    2 type  1   force =    -0.00980182   -0.00000768   -0.00000953
     atom    3 type  2   force =    -0.00659019   -0.00004679    0.00026692
     atom    4 type  2   force =    -0.00196916    0.00055114    0.00027704
     atom    5 type  2   force =    -0.00198170   -0.00062009    0.00026842
     atom    6 type  2   force =     0.00550881   -0.00000123    0.00019223
     atom    7 type  2   force =     0.00148787    0.00046020    0.00030807
     atom    8 type  2   force =     0.00149731   -0.00050503    0.00029375
     atom    9 type  2   force =    -0.01771274    0.00023611    0.00022938
     atom   10 type  3   force =     0.00000000    0.00000000    0.00000000
     atom   11 type  3   force =     0.00000000    0.00000000    0.00000000
     atom   12 type  3   force =     0.00000000    0.00000000    0.00000000
     atom   13 type  3   force =     0.00000000    0.00000000    0.00000000
     atom   14 type  3   force =     0.00000000    0.00000000    0.00000000
     atom   15 type  3   force =     0.00000000    0.00000000    0.00000000
     The Hubbard contrib.    to forces
     atom    1 type  1   force =     0.00000000    0.00000000    0.00000000
     atom    2 type  1   force =     0.00000000    0.00000000    0.00000000
     atom    3 type  2   force =     0.00000000    0.00000000    0.00000000
     atom    4 type  2   force =     0.00000000    0.00000000    0.00000000
     atom    5 type  2   force =     0.00000000    0.00000000    0.00000000
     atom    6 type  2   force =     0.00000000    0.00000000    0.00000000
     atom    7 type  2   force =     0.00000000    0.00000000    0.00000000
     atom    8 type  2   force =     0.00000000    0.00000000    0.00000000
     atom    9 type  2   force =     0.00000000    0.00000000    0.00000000
     atom   10 type  3   force =     0.00000000    0.00000000    0.00000000
     atom   11 type  3   force =     0.00000000    0.00000000    0.00000000
     atom   12 type  3   force =     0.00000000    0.00000000    0.00000000
     atom   13 type  3   force =     0.00000000    0.00000000    0.00000000
     atom   14 type  3   force =     0.00000000    0.00000000    0.00000000
     atom   15 type  3   force =     0.00000000    0.00000000    0.00000000
     The SCF correction term to forces
     atom    1 type  1   force =    -0.00000045   -0.00000037    0.00000187
     atom    2 type  1   force =    -0.00008912    0.00000368   -0.00000293
     atom    3 type  2   force =     0.00001244   -0.00000046    0.00000190
     atom    4 type  2   force =     0.00000627    0.00000445    0.00000318
     atom    5 type  2   force =     0.00000613   -0.00000473    0.00000315
     atom    6 type  2   force =     0.00004227   -0.00000001    0.00000405
     atom    7 type  2   force =     0.00002748   -0.00001943    0.00000418
     atom    8 type  2   force =     0.00002626    0.00001868    0.00000405
     atom    9 type  2   force =    -0.00008609    0.00000092    0.00000103
     atom   10 type  3   force =     0.00000189    0.00000023    0.00000084
     atom   11 type  3   force =     0.00000166   -0.00000004    0.00000082
     atom   12 type  3   force =     0.00000395   -0.00000281    0.00000108
     atom   13 type  3   force =     0.00000317    0.00000282    0.00000105
     atom   14 type  3   force =    -0.00000042   -0.00000214    0.00000047
     atom   15 type  3   force =    -0.00000059    0.00000211    0.00000047

     DFT-D3 dispersion contribution to forces:
     atom    1 type  1   force =     0.00005506    0.00000001   -0.00000004
     atom    2 type  1   force =     0.00022865   -0.00000002    0.00000000
     atom    3 type  2   force =     0.00000625   -0.00000004    0.00000028
     atom    4 type  2   force =    -0.00011175   -0.00017767    0.00000015
     atom    5 type  2   force =    -0.00011182    0.00017767    0.00000013
     atom    6 type  2   force =     0.00013510    0.00000007    0.00000016
     atom    7 type  2   force =    -0.00008934   -0.00011157   -0.00000006
     atom    8 type  2   force =    -0.00008927    0.00011153   -0.00000007
     atom    9 type  2   force =    -0.00004877   -0.00000068    0.00000003
     atom   10 type  3   force =    -0.00004101   -0.00000265   -0.00000007
     atom   11 type  3   force =    -0.00004109    0.00000269   -0.00000006
     atom   12 type  3   force =    -0.00001276   -0.00001216   -0.00000011
     atom   13 type  3   force =    -0.00001224    0.00001284   -0.00000010
     atom   14 type  3   force =     0.00006656   -0.00005194   -0.00000012
     atom   15 type  3   force =     0.00006643    0.00005192   -0.00000012

     Total force =     0.000840     Total SCF correction =     0.000141

     DFT-D3 dispersion Force =     0.000472
     SCF correction compared to forces is large: reduce conv_thr to get better values


     Computing stress (Cartesian axis) and pressure


     negative rho (up, down):  1.345E-02 0.000E+00
          total   stress  (Ry/bohr**3)                   (kbar)     P=       -0.06
  -0.00000045   0.00000000   0.00000000           -0.07        0.00        0.00
   0.00000000  -0.00000037   0.00000000            0.00       -0.05        0.00
   0.00000000   0.00000000  -0.00000045            0.00        0.00       -0.07

     kinetic stress (kbar)     69.59     -0.00      0.00
                               -0.00     72.53      0.00
                                0.00      0.00     82.49

     local   stress (kbar)   -650.25      0.01     -0.01
                                0.01   -354.27      0.00
                               -0.01      0.00    -79.66

     nonloc. stress (kbar)     19.14     -0.00      0.00
                               -0.00     18.49     -0.00
                                0.00     -0.00     17.83

     hartree stress (kbar)    286.25     -0.01      0.00
                               -0.01    157.58     -0.00
                                0.00     -0.00     53.02

     exc-cor stress (kbar)     -6.12      0.00      0.00
                                0.00     -6.32     -0.00
                                0.00     -0.00     -6.80

     corecor stress (kbar)    -12.10     -0.00     -0.00
                               -0.00    -12.03      0.00
                               -0.00      0.00    -11.89

     ewald   stress (kbar)    293.42     -0.01     -0.00
                               -0.01    123.97     -0.00
                               -0.00     -0.00    -55.05

     hubbard stress (kbar)      0.00      0.00      0.00
                                0.00      0.00      0.00
                                0.00      0.00      0.00

     DFT-D   stress (kbar)     -0.00      0.00     -0.00
                                0.00      0.00     -0.00
                               -0.00     -0.00     -0.00

     XDM     stress (kbar)      0.00      0.00      0.00
                                0.00      0.00      0.00
                                0.00      0.00      0.00

     dft-nl  stress (kbar)      0.00      0.00      0.00
                                0.00      0.00      0.00
                                0.00      0.00      0.00

     TS-vdW  stress (kbar)      0.00      0.00      0.00
                                0.00      0.00      0.00
                                0.00      0.00      0.00

     MDB     stress (kbar)      0.00      0.00      0.00
                                0.00      0.00      0.00
                                0.00      0.00      0.00

     3D-RISM stress (kbar)      0.00      0.00      0.00
                                0.00      0.00      0.00
                                0.00      0.00      0.00

     Energy error            =      9.0E-07 Ry
     Gradient error          =      3.3E-04 Ry/Bohr

     bfgs converged in   8 scf cycles and   6 bfgs steps
     (criteria: energy <  1.0E-05 Ry, force <  5.0E-04 Ry/Bohr)

     End of BFGS Geometry Optimization

     Final energy             =    -176.4557097323 Ry

     File ./tmp/ABN.bfgs deleted, as requested
Begin final coordinates

ATOMIC_POSITIONS (angstrom)
N                7.7055252260        4.5700344981        4.5704877532
N                0.9161209512        4.5703677675        4.5698333104
C                6.3363504596        4.5700208653        4.5710121025
C                5.6129559064        3.3572859993        4.5710627996
C                5.6130977586        5.7828129768        4.5710105916
C                3.5079401330        4.5702497498        4.5709381785
C                4.2271503810        3.3584895823        4.5710220087
C                4.2273447046        5.7817934214        4.5709588806
C                2.0841978935        4.5708051144        4.5706470332
H                6.1530810005        2.4087483463        4.5701295659
H                6.1531891676        6.7313712976        4.5700894435
H                3.6839727267        2.4135744422        4.5700420939
H                3.6841647119        6.7267164797        4.5699995118
H                8.2272420674        5.4339195883        4.5689303659
H                8.2272369120        3.7061638709        4.5689423607
End final coordinates



     Writing all to output data dir ./tmp/ABN.save/ :
     XML data file, charge density, pseudopotentials, collected wavefunctions

     init_run     :     19.84s CPU     21.03s WALL (       1 calls)
     electrons    :    751.91s CPU    791.06s WALL (       8 calls)
     update_pot   :      4.36s CPU      5.05s WALL (       7 calls)
     forces       :     35.73s CPU     39.16s WALL (       8 calls)
     force_dftd3  :      0.01s CPU      0.01s WALL (       8 calls)
     stress       :     70.60s CPU     78.33s WALL (       8 calls)
     stres_dftd3  :      0.01s CPU      0.01s WALL (       8 calls)

     Called by init_run:
     wfcinit      :     11.12s CPU     11.42s WALL (       1 calls)
     wfcinit:atom :      0.05s CPU      0.05s WALL (       5 calls)
     wfcinit:wfcr :     10.66s CPU     10.94s WALL (       5 calls)
     potinit      :      0.99s CPU      1.10s WALL (       1 calls)
     hinit0       :      0.49s CPU      0.54s WALL (       1 calls)

     Called by electrons:
     c_bands      :    547.17s CPU    557.99s WALL (      53 calls)
     sum_band     :    135.62s CPU    149.19s WALL (      53 calls)
     v_of_rho     :     27.41s CPU     29.17s WALL (      56 calls)
     v_h          :      2.91s CPU      3.14s WALL (      56 calls)
     v_xc         :     30.82s CPU     33.40s WALL (      72 calls)
     newd         :     39.17s CPU     51.61s WALL (      56 calls)
     PAW_pot      :      1.44s CPU      1.44s WALL (      63 calls)
     mix_rho      :      5.23s CPU      5.48s WALL (      53 calls)
     energy_dftd3 :      0.00s CPU      0.00s WALL (       8 calls)

     Called by c_bands:
     init_us_2    :     10.00s CPU     10.07s WALL (     650 calls)
     cegterg      :    537.50s CPU    548.25s WALL (     265 calls)

     Called by sum_band:
     sum_band:wei :      0.00s CPU      0.00s WALL (      53 calls)
     sum_band:loo :     82.76s CPU     84.62s WALL (      53 calls)
     sum_band:buf :      0.70s CPU      0.72s WALL (     265 calls)
     sum_band:ini :      4.13s CPU      4.15s WALL (     265 calls)
     sum_band:cal :     22.97s CPU     23.05s WALL (     300 calls)
     sum_band:bec :      0.01s CPU      0.01s WALL (     300 calls)
     addusdens    :     47.39s CPU     58.87s WALL (      53 calls)
                                        0.00s GPU  (      53 calls)
     addusd:skk   :      0.92s CPU      0.97s WALL (     159 calls)
                                        0.00s GPU  (     159 calls)

     Called by *egterg:
     cdiaghg      :      0.97s CPU      0.98s WALL (    1200 calls)
     cegterg:over :     37.87s CPU     38.01s WALL (     995 calls)
     cegterg:upda :     19.92s CPU     19.99s WALL (     995 calls)
     cegterg:last :     53.19s CPU     53.34s WALL (     574 calls)
     h_psi        :    362.32s CPU    372.77s WALL (    1265 calls)
     s_psi        :     50.88s CPU     51.01s WALL (    1265 calls)
     g_psi        :      0.63s CPU      0.63s WALL (     995 calls)

     Called by h_psi:
     h_psi:calbec :     55.95s CPU     56.14s WALL (    1265 calls)
     vloc_psi     :    252.93s CPU    263.04s WALL (    1265 calls)
     add_vuspsi   :     51.68s CPU     51.82s WALL (    1265 calls)

     General routines
     calbec       :     93.34s CPU     93.65s WALL (    1765 calls)
     fft          :     35.29s CPU     37.87s WALL (     924 calls)
     ffts         :      1.28s CPU      1.38s WALL (     109 calls)
     fftw         :    215.72s CPU    227.13s WALL (   42994 calls)
     interpolate  :      3.02s CPU      3.19s WALL (      56 calls)

     Parallel routines

     PAW routines
     PAW_pot      :      1.44s CPU      1.44s WALL (      63 calls)

     PWSCF        :  14m51.52s CPU  15m46.36s WALL


   This run was terminated on:  14:22: 7  28Mar2025            

=------------------------------------------------------------------------------=
   JOB DONE.
=------------------------------------------------------------------------------=
