
     Program PWSCF v.7.3.1 starts on  6Apr2025 at 15: 0:35 

     This program is part of the open-source Quantum ESPRESSO suite
     for quantum simulation of materials; please cite
         "P. Giannozzi et al., J. Phys.:Condens. Matter 21 395502 (2009);
         "P. Giannozzi et al., J. Phys.:Condens. Matter 29 465901 (2017);
         "P. Giannozzi et al., J. Chem. Phys. 152 154105 (2020);
          URL http://www.quantum-espresso.org", 
     in publications or presentations arising from this work. More details at
     http://www.quantum-espresso.org/quote

     Parallel version (MPI), running on    26 processors

     MPI processes distributed on     1 nodes
     220707 MiB available memory on the printing compute node when the environment starts

     Waiting for input...
     Reading input from standard input
Warning: card &CELL ignored
Warning: card   CELL_DOFREE = 'ALL' ignored
Warning: card / ignored

     Current dimensions of program PWSCF are:
     Max number of different atomic species (ntypx) = 10
     Max number of k-points (npk) =  40000
     Max angular momentum in pseudopotentials (lmaxx) =  4
     file C.pbe-n-kjpaw_psl.1.0.0.UPF: wavefunction(s)  2S 2P renormalized

     R & G space division:  proc/nbgrp/npool/nimage =      26
     Subspace diagonalization in iterative solution of the eigenvalue problem:
     one sub-group per band group will be used
     custom distributed-memory algorithm (size of sub-group:  5*  5 procs)


     Parallelization info
     --------------------
     sticks:   dense  smooth     PW     G-vecs:    dense   smooth      PW
     Min         343     196     54                51262    22144    3213
     Max         344     197     55                51270    22152    3221
     Sum        8941    5109   1411              1332973   575857   83601

     Using Slab Decomposition



     bravais-lattice index     =            0
     lattice parameter (alat)  =      20.9009  a.u.
     unit-cell volume          =   16846.7507 (a.u.)^3
     number of atoms/cell      =           63
     number of atomic types    =            4
     number of electrons       =      1004.00
     number of Kohn-Sham states=          602
     kinetic-energy cutoff     =      40.0000  Ry
     charge density cutoff     =     280.0000  Ry
     scf convergence threshold =      1.0E-06
     mixing beta               =       0.4000
     number of iterations used =            8  plain     mixing
     energy convergence thresh.=      1.0E-05
     force convergence thresh. =      5.0E-04
     Exchange-correlation= PBE
                           (   1   4   3   4   0   0   0)
     nstep                     =          100


     celldm(1)=  20.900943  celldm(2)=   0.000000  celldm(3)=   0.000000
     celldm(4)=   0.000000  celldm(5)=   0.000000  celldm(6)=   0.000000

     crystal axes: (cart. coord. in units of alat)
               a(1) = (   1.000000   0.000000   0.000000 )  
               a(2) = (  -0.223489   0.918700   0.000000 )  
               a(3) = (  -4.200249  -1.021781   2.008375 )  

     reciprocal axes: (cart. coord. in units 2 pi/alat)
               b(1) = (  1.000000  0.243267  2.215131 )  
               b(2) = ( -0.000000  1.088495  0.553783 )  
               b(3) = (  0.000000 -0.000000  0.497915 )  


     PseudoPot. # 1 for Zn read from file:
     /home/yongsang/Research/PSID_server_room/qe/[00]QE/qepseudo/SSSP_1.3.0_PBE_efficiency/Zn_pbe_v1.uspp.F.UPF
     MD5 check sum: df62231357ef9e81f77b2b3087fa5675
     Pseudo is Ultrasoft, Zval = 20.0
     Generated by new atomic code, or converted to UPF format
     Using radial grid of  943 points,  6 beta functions with: 
                l(1) =   0
                l(2) =   0
                l(3) =   1
                l(4) =   1
                l(5) =   2
                l(6) =   2
     Q(r) pseudized with  8 coefficients,  rinner =    1.100   1.100   1.100
                                                       1.100   1.100

     PseudoPot. # 2 for N  read from file:
     /home/yongsang/Research/PSID_server_room/qe/[00]QE/qepseudo/SSSP_1.3.0_PBE_efficiency/N.pbe-n-radius_5.UPF
     MD5 check sum: 16739722b17309cd8fe442a2ace49922
     Pseudo is Ultrasoft + core correction, Zval =  5.0
     Generated using "atomic" code by A. Dal Corso  v.5.1
     Using radial grid of 1085 points,  4 beta functions with: 
                l(1) =   0
                l(2) =   0
                l(3) =   1
                l(4) =   1
     Q(r) pseudized with 0 coefficients 


     PseudoPot. # 3 for C  read from file:
     /home/yongsang/Research/PSID_server_room/qe/[00]QE/qepseudo/SSSP_1.3.0_PBE_efficiency/C.pbe-n-kjpaw_psl.1.0.0.UPF
     MD5 check sum: 5d2aebdfa2cae82b50a7e79e9516da0f
     Pseudo is Projector augmented-wave + core cor, Zval =  4.0
     Generated using "atomic" code by A. Dal Corso  v.5.1
     Shape of augmentation charge: PSQ
     Using radial grid of 1073 points,  4 beta functions with: 
                l(1) =   0
                l(2) =   0
                l(3) =   1
                l(4) =   1
     Q(r) pseudized with 0 coefficients 


     PseudoPot. # 4 for H  read from file:
     /home/yongsang/Research/PSID_server_room/qe/[00]QE/qepseudo/SSSP_1.3.0_PBE_efficiency/H.pbe-rrkjus_psl.1.0.0.UPF
     MD5 check sum: f52b6d4d1c606e5624b1dc7b2218f220
     Pseudo is Ultrasoft, Zval =  1.0
     Generated using "atomic" code by A. Dal Corso  v.5.1
     Using radial grid of  929 points,  2 beta functions with: 
                l(1) =   0
                l(2) =   0
     Q(r) pseudized with 0 coefficients 


     atomic species   valence    mass     pseudopotential
     Zn               20.00    65.38000     Zn( 1.00)
     N                 5.00    14.00674     N ( 1.00)
     C                 4.00    12.01070     C ( 1.00)
     H                 1.00     1.00794     H ( 1.00)

     No symmetry found


                                    s                        frac. trans.

      isym =  1     identity                                     

 cryst.   s( 1) = (     1          0          0      )
                  (     0          1          0      )
                  (     0          0          1      )

 cart.    s( 1) = (  1.0000000  0.0000000  0.0000000 )
                  (  0.0000000  1.0000000  0.0000000 )
                  (  0.0000000  0.0000000  1.0000000 )


   Cartesian axes

     site n.     atom                  positions (alat units)
         1        Zn     tau(   1) = (  -0.0970639   0.0980210   0.1082940  )
         2        Zn     tau(   2) = (  -0.2088085   0.5573710   0.1082940  )
         3        Zn     tau(   3) = (  -0.3800989   0.0283364   0.3953317  )
         4        Zn     tau(   4) = (  -0.4918957   0.4875659   0.3957572  )
         5        Zn     tau(   5) = (  -0.7356613  -0.0630833   0.5265919  )
         6        Zn     tau(   6) = (  -0.8479391   0.3948485   0.5223629  )
         7        Zn     tau(   7) = (  -0.1529361   0.3276960   0.1082940  )
         8        Zn     tau(   8) = (  -0.2646808   0.7870460   0.1082940  )
         9        Zn     tau(   9) = (  -0.4358435   0.2576889   0.3954970  )
        10        Zn     tau(  10) = (  -0.5479037   0.7174905   0.3952582  )
        11        Zn     tau(  11) = (  -0.7917815   0.1661747   0.5263964  )
        12        Zn     tau(  12) = (  -0.9035419   0.6257882   0.5248724  )
        13        Zn     tau(  13) = (   0.4029362   0.0980210   0.1082940  )
        14        Zn     tau(  14) = (   0.2911915   0.5573710   0.1082940  )
        15        Zn     tau(  15) = (   0.0386693   0.0098553   0.3131957  )
        16        Zn     tau(  16) = (  -0.0732122   0.4694198   0.3128349  )
        17        Zn     tau(  17) = (  -0.1858512  -0.0444284   0.5142826  )
        18        Zn     tau(  18) = (  -0.2979371   0.4148495   0.5145101  )
        19        Zn     tau(  19) = (   0.3470638   0.3276960   0.1082940  )
        20        Zn     tau(  20) = (   0.2353192   0.7870460   0.1082940  )
        21        Zn     tau(  21) = (  -0.0168627   0.2396299   0.3129606  )
        22        Zn     tau(  22) = (  -0.1290562   0.6988502   0.3136095  )
        23        Zn     tau(  23) = (  -0.2422699   0.1850649   0.5148239  )
        24        Zn     tau(  24) = (  -0.3532645   0.6447946   0.5139379  )
        25        Zn     tau(  25) = (   0.1529361   0.0372043   0.0773528  )
        26        Zn     tau(  26) = (   0.0411915   0.4965543   0.0773528  )
        27        Zn     tau(  27) = (  -0.2009760  -0.0490705   0.2604305  )
        28        Zn     tau(  28) = (  -0.3129226   0.4100190   0.2607164  )
        29        Zn     tau(  29) = (  -0.5455832  -0.1345187   0.3982128  )
        30        Zn     tau(  30) = (  -0.6565147   0.3243575   0.3972420  )
        31        Zn     tau(  31) = (   0.0970639   0.2668793   0.0773528  )
        32        Zn     tau(  32) = (  -0.0146808   0.7262293   0.0773528  )
        33        Zn     tau(  33) = (  -0.2571233   0.1804221   0.2604197  )
        34        Zn     tau(  34) = (  -0.3685649   0.6398757   0.2606442  )
        35        Zn     tau(  35) = (  -0.6013876   0.0947743   0.3979131  )
        36        Zn     tau(  36) = (  -0.7126225   0.5545739   0.3983746  )
        37        Zn     tau(  37) = (   0.6529362   0.0372043   0.0773528  )
        38        Zn     tau(  38) = (   0.5411915   0.4965543   0.0773528  )
        39        Zn     tau(  39) = (   0.2723547  -0.0561635   0.2642542  )
        40        Zn     tau(  40) = (   0.1613687   0.4035805   0.2635479  )
        41        Zn     tau(  41) = (   0.0388699  -0.1099737   0.5261848  )
        42        Zn     tau(  42) = (  -0.0738581   0.3488542   0.5246947  )
        43        Zn     tau(  43) = (   0.5970639   0.2668793   0.0773528  )
        44        Zn     tau(  44) = (   0.4853193   0.7262293   0.0773528  )
        45        Zn     tau(  45) = (   0.2167548   0.1734943   0.2642589  )
        46        Zn     tau(  46) = (   0.1050078   0.6330780   0.2644624  )
        47        Zn     tau(  47) = (  -0.0173170   0.1196566   0.5261398  )
        48        Zn     tau(  48) = (  -0.1285982   0.5787721   0.5273614  )
        49        C      tau(  49) = (  -1.1890732   0.3378168   1.2249166  )
        50        C      tau(  50) = (  -1.1152090   0.3636738   1.1226278  )
        51        C      tau(  51) = (  -1.1660246   0.3725085   1.0060672  )
        52        C      tau(  52) = (  -0.9898081   0.3815880   1.1362353  )
        53        C      tau(  53) = (  -1.0943968   0.3996871   0.9068600  )
        54        C      tau(  54) = (  -0.9180469   0.4086634   1.0370785  )
        55        C      tau(  55) = (  -0.9690462   0.4193767   0.9205835  )
        56        N      tau(  56) = (  -1.2497981   0.3173117   1.3088716  )
        57        N      tau(  57) = (  -0.8978757   0.4447402   0.8216562  )
        58        H      tau(  58) = (  -0.8146441   0.4799386   0.8362288  )
        59        H      tau(  59) = (  -0.9386229   0.4740236   0.7444866  )
        60        H      tau(  60) = (  -0.9493520   0.3745793   1.2258263  )
        61        H      tau(  61) = (  -1.2628623   0.3584050   0.9944903  )
        62        H      tau(  62) = (  -0.8210782   0.4224775   1.0491317  )
        63        H      tau(  63) = (  -1.1347616   0.4065098   0.8169580  )

     --------------------------------------------
     DFT-D3 Dispersion Correction (3-body terms):
     --------------------------------------------
       Reference C6 values for interpolation: 

         atom   Coordination number   C6
         H          0.912             6.05
         H          0.000            15.18
         C          0.000            98.23
         C          0.987            86.49
         C          1.998            58.72
         C          2.999            51.56
         C          3.984            36.41
         N          0.000            50.54
         N          0.994            44.25
         N          2.014            39.35
         N          2.990            31.16
         Zn         0.000           681.04
         Zn         1.942           306.91

       Values used:

         atom   Coordination number  R0_AB[au]  C6      C8
         Zn         6.245            3.053    306.91  23930.67
         Zn         6.243            3.053    306.91  23930.67
         Zn         6.996            3.053    306.91  23930.67
         Zn         6.989            3.053    306.91  23930.67
         Zn         4.983            3.053    306.91  23930.67
         Zn         5.085            3.053    306.91  23930.67
         Zn         6.246            3.053    306.91  23930.67
         Zn         6.240            3.053    306.91  23930.67
         Zn         7.000            3.053    306.91  23930.67
         Zn         6.988            3.053    306.91  23930.67
         Zn         4.981            3.053    306.91  23930.67
         Zn         5.025            3.053    306.91  23930.67
         Zn         4.924            3.053    306.91  23930.67
         Zn         4.933            3.053    306.91  23930.67
         Zn         7.242            3.053    306.91  23930.67
         Zn         7.244            3.053    306.91  23930.67
         Zn         5.911            3.053    306.91  23930.67
         Zn         5.912            3.053    306.91  23930.67
         Zn         4.941            3.053    306.91  23930.67
         Zn         4.921            3.053    306.91  23930.67
         Zn         7.250            3.053    306.91  23930.67
         Zn         7.227            3.053    306.91  23930.67
         Zn         5.905            3.053    306.91  23930.67
         Zn         5.919            3.053    306.91  23930.67
         Zn         5.609            3.053    306.91  23930.67
         Zn         5.613            3.053    306.91  23930.67
         Zn         7.984            3.053    306.91  23930.67
         Zn         7.977            3.053    306.91  23930.67
         Zn         7.051            3.053    306.91  23930.67
         Zn         7.049            3.053    306.91  23930.67
         Zn         5.615            3.053    306.91  23930.67
         Zn         5.601            3.053    306.91  23930.67
         Zn         7.975            3.053    306.91  23930.67
         Zn         7.981            3.053    306.91  23930.67
         Zn         7.047            3.053    306.91  23930.67
         Zn         7.043            3.053    306.91  23930.67
         Zn         4.920            3.053    306.91  23930.67
         Zn         4.912            3.053    306.91  23930.67
         Zn         8.352            3.053    306.91  23930.67
         Zn         8.409            3.053    306.91  23930.67
         Zn         6.035            3.053    306.91  23930.67
         Zn         6.068            3.053    306.91  23930.67
         Zn         4.918            3.053    306.91  23930.67
         Zn         4.914            3.053    306.91  23930.67
         Zn         8.360            3.053    306.91  23930.67
         Zn         8.370            3.053    306.91  23930.67
         Zn         6.033            3.053    306.91  23930.67
         Zn         6.003            3.053    306.91  23930.67
         C          2.097            2.750     58.61   1695.16
         C          3.146            2.750     50.57   1462.51
         C          3.169            2.750     50.37   1456.75
         C          3.169            2.750     50.37   1456.82
         C          3.166            2.750     50.40   1457.56
         C          3.163            2.750     50.43   1458.40
         C          3.143            2.750     50.59   1463.10
         N          1.022            2.478     44.24    976.02
         N          3.094            2.478     31.24    689.14
         H          1.007            2.062      6.17     74.64
         H          1.016            2.062      6.17     74.55
         H          1.003            2.062      6.18     74.68
         H          1.004            2.062      6.18     74.68
         H          1.003            2.062      6.18     74.68
         H          1.005            2.062      6.18     74.66

         Molecular C6 ( Ry / a.u.^6 ) =    840996.96


   Crystallographic axes

     site n.     atom                  positions (cryst. coord.)
         1        Zn     tau(   1) = (  0.1666667  0.1666667  0.0539212  )
         2        Zn     tau(   2) = (  0.1666668  0.6666667  0.0539212  )
         3        Zn     tau(   3) = (  0.5025060  0.2497718  0.1968416  )
         4        Zn     tau(   4) = (  0.5033672  0.7498764  0.1970535  )
         5        Zn     tau(   5) = (  0.4154628  0.2229517  0.2621980  )
         6        Zn     tau(   6) = (  0.4052170  0.7190661  0.2600923  )
         7        Zn     tau(   7) = (  0.1666668  0.4166667  0.0539212  )
         8        Zn     tau(   8) = (  0.1666667  0.9166667  0.0539212  )
         9        Zn     tau(   9) = (  0.5029215  0.4995124  0.1969239  )
        10        Zn     tau(  10) = (  0.5021868  0.9998718  0.1968050  )
        11        Zn     tau(  11) = (  0.4146804  0.4723895  0.2621006  )
        12        Zn     tau(  12) = (  0.4113528  0.9718324  0.2613418  )
        13        Zn     tau(  13) = (  0.6666668  0.1666667  0.0539212  )
        14        Zn     tau(  14) = (  0.6666667  0.6666667  0.0539212  )
        15        Zn     tau(  15) = (  0.7348364  0.1841699  0.1559448  )
        16        Zn     tau(  16) = (  0.7339525  0.6842035  0.1557652  )
        17        Zn     tau(  17) = (  0.9425444  0.2364408  0.2560690  )
        18        Zn     tau(  18) = (  0.9426894  0.7364883  0.2561823  )
        19        Zn     tau(  19) = (  0.6666668  0.4166667  0.0539212  )
        20        Zn     tau(  20) = (  0.6666668  0.9166667  0.0539212  )
        21        Zn     tau(  21) = (  0.7346802  0.4341481  0.1558278  )
        22        Zn     tau(  22) = (  0.7356371  0.9343662  0.1561509  )
        23        Zn     tau(  23) = (  0.9431528  0.4865427  0.2563385  )
        24        Zn     tau(  24) = (  0.9420326  0.9864655  0.2558974  )
        25        Zn     tau(  25) = (  0.3333333  0.0833333  0.0385151  )
        26        Zn     tau(  26) = (  0.3333333  0.5833333  0.0385151  )
        27        Zn     tau(  27) = (  0.3639744  0.0908089  0.1296722  )
        28        Zn     tau(  28) = (  0.3643424  0.5906837  0.1298146  )
        29        Zn     tau(  29) = (  0.3037865  0.0741005  0.1982761  )
        30        Zn     tau(  30) = (  0.3023341  0.5730472  0.1977928  )
        31        Zn     tau(  31) = (  0.3333333  0.3333333  0.0385151  )
        32        Zn     tau(  32) = (  0.3333333  0.8333333  0.0385151  )
        33        Zn     tau(  33) = (  0.3636313  0.3406044  0.1296669  )
        34        Zn     tau(  34) = (  0.3644568  0.8408416  0.1297787  )
        35        Zn     tau(  35) = (  0.3030977  0.3235187  0.1981269  )
        36        Zn     tau(  36) = (  0.3047391  0.8242638  0.1983567  )
        37        Zn     tau(  37) = (  0.8333333  0.0833333  0.0385151  )
        38        Zn     tau(  38) = (  0.8333333  0.5833333  0.0385151  )
        39        Zn     tau(  39) = (  0.8440497  0.0852057  0.1315761  )
        40        Zn     tau(  40) = (  0.8433396  0.5852435  0.1312244  )
        41        Zn     tau(  41) = (  1.1776854  0.1716863  0.2619953  )
        42        Zn     tau(  42) = (  1.1732744  0.6702929  0.2612534  )
        43        Zn     tau(  43) = (  0.8333333  0.3333333  0.0385151  )
        44        Zn     tau(  44) = (  0.8333333  0.8333333  0.0385151  )
        45        Zn     tau(  45) = (  0.8443285  0.3351897  0.1315785  )
        46        Zn     tau(  46) = (  0.8448336  0.8355567  0.1316798  )
        47        Zn     tau(  47) = (  1.1772603  0.4216127  0.2619729  )
        48        Zn     tau(  48) = (  1.1803726  0.9220340  0.2625811  )
        49        C      tau(  49) = (  1.6064576  1.0460495  0.6099043  )
        50        C      tau(  50) = (  1.4600289  1.0175489  0.5589732  )
        51        C      tau(  51) = (  1.1531654  0.9626162  0.5009360  )
        52        C      tau(  52) = (  1.6199300  1.0445840  0.5657486  )
        53        C      tau(  53) = (  1.0116477  0.9372607  0.4515392  )
        54        C      tau(  54) = (  1.4786323  1.0191441  0.5163769  )
        55        C      tau(  55) = (  1.1721877  0.9662926  0.4583723  )
        56        N      tau(  56) = (  1.7267158  1.0702227  0.6517068  )
        57        N      tau(  57) = (  1.0303911  0.9391163  0.4091149  )
        58        H      tau(  58) = (  1.1544658  0.9854997  0.4163709  )
        59        H      tau(  59) = (  0.8258269  0.9282560  0.3706910  )
        60        H      tau(  60) = (  1.8571371  1.0865691  0.6103573  )
        61        H      tau(  61) = (  1.0272524  0.9408535  0.4951716  )
        62        H      tau(  62) = (  1.6056611  1.0408556  0.5223784  )
        63        H      tau(  63) = (  0.7737980  0.8949010  0.4067756  )

     number of k points=     5  Marzari-Vanderbilt smearing, width (Ry)=  0.0200
                       cart. coord. in units 2pi/alat
        k(    1) = (   0.0000000   0.0000000   0.0000000), wk =   0.2222222
        k(    2) = (   0.0000000   0.3628315   0.1845943), wk =   0.4444444
        k(    3) = (   0.3333333   0.0810890   0.7383771), wk =   0.4444444
        k(    4) = (   0.3333333   0.4439205   0.9229714), wk =   0.4444444
        k(    5) = (   0.3333333  -0.2817426   0.5537829), wk =   0.4444444

                       cryst. coord.
        k(    1) = (   0.0000000   0.0000000   0.0000000), wk =   0.2222222
        k(    2) = (   0.0000000   0.3333333   0.0000000), wk =   0.4444444
        k(    3) = (   0.3333333   0.0000000   0.0000000), wk =   0.4444444
        k(    4) = (   0.3333333   0.3333333   0.0000000), wk =   0.4444444
        k(    5) = (   0.3333333  -0.3333333   0.0000000), wk =   0.4444444

     Dense  grid:  1332973 G-vectors     FFT dimensions: ( 120, 108, 540)

     Smooth grid:   575857 G-vectors     FFT dimensions: (  90,  80, 405)

     Dynamical RAM for                 wfc:      25.43 MB

     Dynamical RAM for     wfc (w. buffer):     152.56 MB

     Dynamical RAM for           str. fact:       3.13 MB

     Dynamical RAM for           local pot:       0.00 MB

     Dynamical RAM for          nlocal pot:      40.04 MB

     Dynamical RAM for                qrad:       5.37 MB

     Dynamical RAM for          rho,v,vnew:       8.58 MB

     Dynamical RAM for               rhoin:       2.86 MB

     Dynamical RAM for            rho*nmix:      12.52 MB

     Dynamical RAM for           G-vectors:       3.10 MB

     Dynamical RAM for          h,s,v(r/c):       2.64 MB

     Dynamical RAM for          <psi|beta>:       8.71 MB

     Dynamical RAM for                 psi:      50.85 MB

     Dynamical RAM for                hpsi:      50.85 MB

     Dynamical RAM for                spsi:      50.85 MB

     Dynamical RAM for      wfcinit/wfcrot:      66.42 MB

     Dynamical RAM for           addusdens:     183.06 MB

     Dynamical RAM for          addusforce:     257.17 MB

     Dynamical RAM for         addusstress:     157.24 MB

     Estimated static dynamical RAM per process >     229.93 MB

     Estimated max dynamical RAM per process >     499.62 MB

     Estimated total dynamical RAM >      12.69 GB

     Initial potential from superposition of free atoms

     starting charge    1003.9929, renormalised to    1004.0000

     negative rho (up, down):  1.944E-03 0.000E+00
     Starting wfcs are  666 randomized atomic wfcs
     Checking if some PAW data can be deallocated... 
       PAW data deallocated on   22 nodes for type:  3

     total cpu time spent up to now is       40.5 secs

     Self-consistent Calculation

     iteration #  1     ecut=    40.00 Ry     beta= 0.40
     Davidson diagonalization with overlap

---- Real-time Memory Report at c_bands before calling an iterative solver
           456 MiB given to the printing process from OS
             0 MiB allocation reported by mallinfo(arena+hblkhd)
        213947 MiB available memory on the node where the printing process lives
------------------
     ethr =  1.00E-02,  avg # of iterations =  8.0

     negative rho (up, down):  2.469E-03 0.000E+00

     total cpu time spent up to now is      191.9 secs

     total energy              =  -22326.30580525 Ry
     estimated scf accuracy    <      10.43737026 Ry

     iteration #  2     ecut=    40.00 Ry     beta= 0.40
     Davidson diagonalization with overlap

---- Real-time Memory Report at c_bands before calling an iterative solver
           631 MiB given to the printing process from OS
             0 MiB allocation reported by mallinfo(arena+hblkhd)
        212919 MiB available memory on the node where the printing process lives
------------------
     ethr =  1.04E-03,  avg # of iterations = 10.0

     negative rho (up, down):  3.902E-03 0.000E+00

     total cpu time spent up to now is      343.3 secs

     total energy              =  -22311.45152904 Ry
     estimated scf accuracy    <     278.85638295 Ry

     iteration #  3     ecut=    40.00 Ry     beta= 0.40
     Davidson diagonalization with overlap

---- Real-time Memory Report at c_bands before calling an iterative solver
           638 MiB given to the printing process from OS
             0 MiB allocation reported by mallinfo(arena+hblkhd)
        212794 MiB available memory on the node where the printing process lives
------------------
     ethr =  1.04E-03,  avg # of iterations =  8.0

     negative rho (up, down):  3.616E-03 0.000E+00

     total cpu time spent up to now is      523.6 secs

     total energy              =  -22330.37746343 Ry
     estimated scf accuracy    <       6.33610876 Ry

     iteration #  4     ecut=    40.00 Ry     beta= 0.40
     Davidson diagonalization with overlap

---- Real-time Memory Report at c_bands before calling an iterative solver
           648 MiB given to the printing process from OS
             0 MiB allocation reported by mallinfo(arena+hblkhd)
        212752 MiB available memory on the node where the printing process lives
------------------
     ethr =  6.31E-04,  avg # of iterations =  3.8

     negative rho (up, down):  3.514E-03 0.000E+00

     total cpu time spent up to now is      649.4 secs

     total energy              =  -22330.67555479 Ry
     estimated scf accuracy    <       5.98076810 Ry

     iteration #  5     ecut=    40.00 Ry     beta= 0.40
     Davidson diagonalization with overlap

---- Real-time Memory Report at c_bands before calling an iterative solver
           649 MiB given to the printing process from OS
             0 MiB allocation reported by mallinfo(arena+hblkhd)
        212744 MiB available memory on the node where the printing process lives
------------------
     ethr =  5.96E-04,  avg # of iterations =  2.0

     negative rho (up, down):  3.492E-03 0.000E+00

     total cpu time spent up to now is      765.9 secs

     total energy              =  -22331.05448941 Ry
     estimated scf accuracy    <       0.36738463 Ry

     iteration #  6     ecut=    40.00 Ry     beta= 0.40
     Davidson diagonalization with overlap

---- Real-time Memory Report at c_bands before calling an iterative solver
           650 MiB given to the printing process from OS
             0 MiB allocation reported by mallinfo(arena+hblkhd)
        212725 MiB available memory on the node where the printing process lives
------------------
     ethr =  3.66E-05,  avg # of iterations =  9.8

     negative rho (up, down):  3.577E-03 0.000E+00

     total cpu time spent up to now is      902.1 secs

     total energy              =  -22331.05656243 Ry
     estimated scf accuracy    <       0.16733808 Ry

     iteration #  7     ecut=    40.00 Ry     beta= 0.40
     Davidson diagonalization with overlap

---- Real-time Memory Report at c_bands before calling an iterative solver
           651 MiB given to the printing process from OS
             0 MiB allocation reported by mallinfo(arena+hblkhd)
        212697 MiB available memory on the node where the printing process lives
------------------
     ethr =  1.67E-05,  avg # of iterations = 11.2

     negative rho (up, down):  3.658E-03 0.000E+00

     total cpu time spent up to now is     1033.3 secs

     total energy              =  -22331.05630988 Ry
     estimated scf accuracy    <       0.06816719 Ry

     iteration #  8     ecut=    40.00 Ry     beta= 0.40
     Davidson diagonalization with overlap

---- Real-time Memory Report at c_bands before calling an iterative solver
           652 MiB given to the printing process from OS
             0 MiB allocation reported by mallinfo(arena+hblkhd)
        212661 MiB available memory on the node where the printing process lives
------------------
     ethr =  6.79E-06,  avg # of iterations = 14.6

     negative rho (up, down):  3.712E-03 0.000E+00

     total cpu time spent up to now is     1172.9 secs

     total energy              =  -22331.05504495 Ry
     estimated scf accuracy    <       0.06164161 Ry

     iteration #  9     ecut=    40.00 Ry     beta= 0.40
     Davidson diagonalization with overlap

---- Real-time Memory Report at c_bands before calling an iterative solver
           653 MiB given to the printing process from OS
             0 MiB allocation reported by mallinfo(arena+hblkhd)
        212633 MiB available memory on the node where the printing process lives
------------------
     ethr =  6.14E-06,  avg # of iterations =  3.0

     negative rho (up, down):  3.746E-03 0.000E+00

     total cpu time spent up to now is     1291.0 secs

     total energy              =  -22331.05525150 Ry
     estimated scf accuracy    <       0.03129246 Ry

     iteration # 10     ecut=    40.00 Ry     beta= 0.40
     Davidson diagonalization with overlap

---- Real-time Memory Report at c_bands before calling an iterative solver
           654 MiB given to the printing process from OS
             0 MiB allocation reported by mallinfo(arena+hblkhd)
        212606 MiB available memory on the node where the printing process lives
------------------
     c_bands:  1 eigenvalues not converged
     ethr =  3.12E-06,  avg # of iterations = 17.2

     negative rho (up, down):  3.781E-03 0.000E+00

     total cpu time spent up to now is     1430.0 secs

     total energy              =  -22331.05196669 Ry
     estimated scf accuracy    <       0.02583895 Ry

     iteration # 11     ecut=    40.00 Ry     beta= 0.40
     Davidson diagonalization with overlap

---- Real-time Memory Report at c_bands before calling an iterative solver
           655 MiB given to the printing process from OS
             0 MiB allocation reported by mallinfo(arena+hblkhd)
        212571 MiB available memory on the node where the printing process lives
------------------
     c_bands:  1 eigenvalues not converged
     ethr =  2.57E-06,  avg # of iterations = 14.8

     negative rho (up, down):  3.925E-03 0.000E+00

     total cpu time spent up to now is     1565.3 secs

     total energy              =  -22331.03867182 Ry
     estimated scf accuracy    <       0.01980590 Ry

     iteration # 12     ecut=    40.00 Ry     beta= 0.40
     Davidson diagonalization with overlap

---- Real-time Memory Report at c_bands before calling an iterative solver
           655 MiB given to the printing process from OS
             0 MiB allocation reported by mallinfo(arena+hblkhd)
        212569 MiB available memory on the node where the printing process lives
------------------
     ethr =  1.97E-06,  avg # of iterations = 18.0

     negative rho (up, down):  3.891E-03 0.000E+00

     total cpu time spent up to now is     1737.6 secs

     total energy              =  -22331.04091297 Ry
     estimated scf accuracy    <       0.00333049 Ry

     iteration # 13     ecut=    40.00 Ry     beta= 0.40
     Davidson diagonalization with overlap

---- Real-time Memory Report at c_bands before calling an iterative solver
           655 MiB given to the printing process from OS
             0 MiB allocation reported by mallinfo(arena+hblkhd)
        212557 MiB available memory on the node where the printing process lives
------------------
     ethr =  3.32E-07,  avg # of iterations =  8.0

     negative rho (up, down):  3.863E-03 0.000E+00

     total cpu time spent up to now is     1865.0 secs

     total energy              =  -22331.04116225 Ry
     estimated scf accuracy    <       0.00068536 Ry

     iteration # 14     ecut=    40.00 Ry     beta= 0.40
     Davidson diagonalization with overlap

---- Real-time Memory Report at c_bands before calling an iterative solver
           655 MiB given to the printing process from OS
             0 MiB allocation reported by mallinfo(arena+hblkhd)
        212553 MiB available memory on the node where the printing process lives
------------------
     ethr =  6.83E-08,  avg # of iterations =  5.8

     negative rho (up, down):  3.863E-03 0.000E+00

     total cpu time spent up to now is     1987.3 secs

     total energy              =  -22331.04106382 Ry
     estimated scf accuracy    <       0.00334459 Ry

     iteration # 15     ecut=    40.00 Ry     beta= 0.40
     Davidson diagonalization with overlap

---- Real-time Memory Report at c_bands before calling an iterative solver
           655 MiB given to the printing process from OS
             0 MiB allocation reported by mallinfo(arena+hblkhd)
        212551 MiB available memory on the node where the printing process lives
------------------
     ethr =  6.83E-08,  avg # of iterations =  2.4

     negative rho (up, down):  3.850E-03 0.000E+00

     total cpu time spent up to now is     2102.9 secs

     total energy              =  -22331.04130260 Ry
     estimated scf accuracy    <       0.00018411 Ry

     iteration # 16     ecut=    40.00 Ry     beta= 0.40
     Davidson diagonalization with overlap

---- Real-time Memory Report at c_bands before calling an iterative solver
           655 MiB given to the printing process from OS
             0 MiB allocation reported by mallinfo(arena+hblkhd)
        212546 MiB available memory on the node where the printing process lives
------------------
     ethr =  1.83E-08,  avg # of iterations =  2.0

     negative rho (up, down):  3.844E-03 0.000E+00

     total cpu time spent up to now is     2218.6 secs

     total energy              =  -22331.04131516 Ry
     estimated scf accuracy    <       0.00006688 Ry

     iteration # 17     ecut=    40.00 Ry     beta= 0.40
     Davidson diagonalization with overlap

---- Real-time Memory Report at c_bands before calling an iterative solver
           655 MiB given to the printing process from OS
             0 MiB allocation reported by mallinfo(arena+hblkhd)
        212533 MiB available memory on the node where the printing process lives
------------------
     ethr =  6.66E-09,  avg # of iterations =  2.0

     negative rho (up, down):  3.841E-03 0.000E+00

     total cpu time spent up to now is     2335.5 secs

     total energy              =  -22331.04132227 Ry
     estimated scf accuracy    <       0.00000997 Ry

     iteration # 18     ecut=    40.00 Ry     beta= 0.40
     Davidson diagonalization with overlap

---- Real-time Memory Report at c_bands before calling an iterative solver
           655 MiB given to the printing process from OS
             0 MiB allocation reported by mallinfo(arena+hblkhd)
        212534 MiB available memory on the node where the printing process lives
------------------
     ethr =  9.93E-10,  avg # of iterations =  2.0

     negative rho (up, down):  3.840E-03 0.000E+00

     total cpu time spent up to now is     2454.4 secs

     total energy              =  -22331.04132297 Ry
     estimated scf accuracy    <       0.00000420 Ry

     iteration # 19     ecut=    40.00 Ry     beta= 0.40
     Davidson diagonalization with overlap

---- Real-time Memory Report at c_bands before calling an iterative solver
           655 MiB given to the printing process from OS
             0 MiB allocation reported by mallinfo(arena+hblkhd)
        212528 MiB available memory on the node where the printing process lives
------------------
     ethr =  4.18E-10,  avg # of iterations =  2.0

     negative rho (up, down):  3.840E-03 0.000E+00

     total cpu time spent up to now is     2572.7 secs

     total energy              =  -22331.04132329 Ry
     estimated scf accuracy    <       0.00000268 Ry

     iteration # 20     ecut=    40.00 Ry     beta= 0.40
     Davidson diagonalization with overlap

---- Real-time Memory Report at c_bands before calling an iterative solver
           655 MiB given to the printing process from OS
             0 MiB allocation reported by mallinfo(arena+hblkhd)
        212522 MiB available memory on the node where the printing process lives
------------------
     ethr =  2.67E-10,  avg # of iterations =  2.0

     negative rho (up, down):  3.840E-03 0.000E+00

     total cpu time spent up to now is     2688.2 secs

     total energy              =  -22331.04132360 Ry
     estimated scf accuracy    <       0.00000112 Ry

     iteration # 21     ecut=    40.00 Ry     beta= 0.40
     Davidson diagonalization with overlap

---- Real-time Memory Report at c_bands before calling an iterative solver
           655 MiB given to the printing process from OS
             0 MiB allocation reported by mallinfo(arena+hblkhd)
        212516 MiB available memory on the node where the printing process lives
------------------
     ethr =  1.11E-10,  avg # of iterations =  2.0

     negative rho (up, down):  3.839E-03 0.000E+00

     total cpu time spent up to now is     2805.0 secs

     End of self-consistent calculation

          k = 0.0000 0.0000 0.0000 ( 71933 PWs)   bands (ev):

  -125.3572-125.3527-125.3504-125.3487-125.3358-125.3349-125.3348-125.3339
  -125.2451-125.2440-125.2418-125.2410-125.2399-125.2390-125.2385-125.2376
  -125.1696-125.1590-125.1580-125.1558-125.1550-125.1532-125.1529-125.1519
  -125.1517-125.1505-125.1489-125.1452-125.1079-125.1021-125.1014-125.0987
  -125.0595-125.0592-125.0582-125.0580-125.0577-125.0568-125.0545-125.0536
  -125.0296-125.0278-125.0270-125.0247-125.0017-124.9998-124.9750-124.9704
   -79.5149 -79.5124 -79.5101 -79.5079 -79.5060 -79.5014 -79.4999 -79.4985
   -79.4968 -79.4967 -79.4955 -79.4954 -79.4946 -79.4942 -79.4927 -79.4917
   -79.4861 -79.4826 -79.4815 -79.4814 -79.4803 -79.4791 -79.4791 -79.4665
   -79.4080 -79.4050 -79.4042 -79.4016 -79.4004 -79.3953 -79.3950 -79.3915
   -79.3903 -79.3884 -79.3881 -79.3876 -79.3868 -79.3863 -79.3857 -79.3851
   -79.3849 -79.3845 -79.3825 -79.3813 -79.3804 -79.3791 -79.3779 -79.3740
   -79.3269 -79.3234 -79.3204 -79.3173 -79.3157 -79.3152 -79.3136 -79.3132
   -79.3117 -79.3116 -79.3112 -79.3103 -79.3099 -79.3080 -79.3073 -79.3064
   -79.3059 -79.3055 -79.3048 -79.3045 -79.3044 -79.3042 -79.3040 -79.3034
   -79.3032 -79.3023 -79.3013 -79.3003 -79.2981 -79.2980 -79.2978 -79.2954
   -79.2928 -79.2921 -79.2903 -79.2857 -79.2780 -79.2718 -79.2713 -79.2684
   -79.2557 -79.2505 -79.2501 -79.2494 -79.2469 -79.2384 -79.2371 -79.2324
   -79.2312 -79.2309 -79.2296 -79.2279 -79.2262 -79.2251 -79.2232 -79.2222
   -79.2194 -79.2153 -79.2079 -79.2075 -79.2066 -79.2056 -79.2050 -79.2037
   -79.2031 -79.2028 -79.2025 -79.2022 -79.1995 -79.1992 -79.1967 -79.1947
   -79.1940 -79.1940 -79.1915 -79.1904 -79.1834 -79.1795 -79.1778 -79.1769
   -79.1746 -79.1711 -79.1707 -79.1700 -79.1688 -79.1584 -79.1526 -79.1489
   -79.1478 -79.1436 -79.1391 -79.1376 -79.1240 -79.1210 -79.1189 -79.1079
   -17.9902 -16.6345 -15.7727 -13.3804 -13.2991 -10.3680 -10.1144  -8.3270
    -8.2181  -7.6725  -7.5986  -7.5533  -7.2897  -7.1193  -7.1112  -7.1086
    -7.0778  -7.0302  -7.0185  -7.0027  -6.9479  -6.9468  -6.9142  -6.8910
    -6.8818  -6.8517  -6.8304  -6.8067  -6.8010  -6.7849  -6.7841  -6.7735
    -6.7616  -6.7330  -6.7032  -6.7026  -6.6975  -6.6828  -6.6775  -6.6654
    -6.6644  -6.6354  -6.6268  -6.6261  -6.6239  -6.6138  -6.6128  -6.6113
    -6.5994  -6.5983  -6.5931  -6.5880  -6.5873  -6.5787  -6.5746  -6.5591
    -6.5590  -6.5564  -6.5556  -6.5518  -6.5388  -6.5203  -6.5179  -6.5034
    -6.5004  -6.4945  -6.4843  -6.4828  -6.4693  -6.4486  -6.4460  -6.4379
    -6.4336  -6.4188  -6.4117  -6.4044  -6.4035  -6.3886  -6.3849  -6.3777
    -6.3772  -6.3583  -6.3516  -6.3482  -6.3414  -6.3318  -6.3254  -6.3095
    -6.3075  -6.2932  -6.2884  -6.2864  -6.2858  -6.2752  -6.2741  -6.2666
    -6.2617  -6.2566  -6.2550  -6.2546  -6.2345  -6.2335  -6.2293  -6.2238
    -6.2227  -6.2179  -6.1945  -6.1853  -6.1845  -6.1767  -6.1527  -6.1517
    -6.1492  -6.1320  -6.1311  -6.1300  -6.1233  -6.1169  -6.1068  -6.1044
    -6.1006  -6.0966  -6.0963  -6.0878  -6.0868  -6.0833  -6.0791  -6.0782
    -6.0734  -6.0606  -6.0581  -6.0549  -6.0451  -6.0415  -6.0333  -6.0306
    -6.0267  -6.0259  -6.0225  -6.0148  -6.0079  -6.0073  -6.0068  -6.0028
    -5.9991  -5.9975  -5.9903  -5.9900  -5.9797  -5.9793  -5.9698  -5.9665
    -5.9660  -5.9461  -5.9447  -5.9414  -5.9293  -5.9288  -5.9212  -5.9134
    -5.9131  -5.9042  -5.9032  -5.8951  -5.8932  -5.8896  -5.8881  -5.8879
    -5.8826  -5.8825  -5.8691  -5.8681  -5.8635  -5.8631  -5.8557  -5.8553
    -5.8544  -5.8477  -5.8376  -5.8355  -5.8344  -5.8315  -5.8237  -5.8217
    -5.8114  -5.8109  -5.8067  -5.8035  -5.8025  -5.7980  -5.7903  -5.7870
    -5.7769  -5.7721  -5.7700  -5.7601  -5.7571  -5.7559  -5.7545  -5.7542
    -5.7468  -5.7384  -5.7373  -5.7324  -5.7271  -5.7265  -5.7218  -5.7214
    -5.7097  -5.7079  -5.7070  -5.7047  -5.6943  -5.6936  -5.6918  -5.6896
    -5.6872  -5.6834  -5.6803  -5.6794  -5.6610  -5.6585  -5.6578  -5.6571
    -5.6491  -5.6483  -5.6454  -5.6431  -5.6427  -5.6346  -5.6326  -5.6254
    -5.6226  -5.6224  -5.6201  -5.6174  -5.6123  -5.6089  -5.5953  -5.5888
    -5.5761  -5.5718  -5.5585  -5.5577  -5.5542  -5.5425  -5.5380  -5.5324
    -5.5206  -5.5184  -5.5042  -5.4933  -5.4909  -5.4632  -5.4593  -5.4112
    -5.4031  -5.3174  -5.2817  -5.2796  -5.0795  -4.7429  -4.5671  -4.5293
    -4.5152  -4.3523  -4.2799  -4.0566  -4.0549  -3.7716  -3.7670  -3.4047
    -3.2287  -2.9193  -2.5949  -2.5927  -2.5750  -2.4641  -2.2250  -2.2093
    -2.0248  -2.0196  -1.9728  -1.8578  -1.7905  -1.7754  -1.6291  -1.6151
    -1.5312  -1.4915  -1.4565  -1.2107  -1.0635  -1.0583  -0.5105  -0.2968
    -0.2271  -0.1786  -0.1019  -0.0979  -0.0423   0.0449   0.0767   0.1253
     0.3937   0.5054   0.5063   0.5979   0.8670   0.8740   1.4068   1.6785
     1.7011   1.7212   1.8259   1.9344   2.0049   2.0759   2.0933   2.2189
     2.2290   2.3436   2.6005   2.6707   2.6712   3.1086   3.1105   3.1384
     3.1730   3.3091   3.7068   3.7774   3.8333   3.8659   3.8727   3.9118
     4.0011   4.0294   4.1462   4.1555   4.4162   4.7000   4.7763   4.7875
     4.9577   5.1452   5.1939   5.2241   5.2612   5.3297   5.3614   5.3988
     5.4065   5.5307   5.5746   5.5908   5.7485   5.7938   5.8594   5.8875
     5.8958   5.9402   5.9829   6.0018   6.0589   6.1071   6.1113   6.1174
     6.1413   6.2359   6.2698   6.4134   6.4468   6.4516   6.4979   6.5671
     6.5918   6.6355   6.6541   6.7317   6.7936   6.8315   6.8617   6.9129
     7.0183   7.0489   7.0542   7.0679   7.1098   7.1251   7.1835   7.2048
     7.2559   7.2893   7.3980   7.4187   7.4269   7.5042   7.5207   7.5861
     7.6050   7.7093   7.7540   7.7994   7.8602   7.8755   7.9075   7.9511
     7.9817   7.9895

     occupation numbers 
     1.0000   1.0000   1.0000   1.0000   1.0000   1.0000   1.0000   1.0000
     1.0000   1.0000   1.0000   1.0000   1.0000   1.0000   1.0000   1.0000
     1.0000   1.0000   1.0000   1.0000   1.0000   1.0000   1.0000   1.0000
     1.0000   1.0000   1.0000   1.0000   1.0000   1.0000   1.0000   1.0000
     1.0000   1.0000   1.0000   1.0000   1.0000   1.0000   1.0000   1.0000
     1.0000   1.0000   1.0000   1.0000   1.0000   1.0000   1.0000   1.0000
     1.0000   1.0000   1.0000   1.0000   1.0000   1.0000   1.0000   1.0000
     1.0000   1.0000   1.0000   1.0000   1.0000   1.0000   1.0000   1.0000
     1.0000   1.0000   1.0000   1.0000   1.0000   1.0000   1.0000   1.0000
     1.0000   1.0000   1.0000   1.0000   1.0000   1.0000   1.0000   1.0000
     1.0000   1.0000   1.0000   1.0000   1.0000   1.0000   1.0000   1.0000
     1.0000   1.0000   1.0000   1.0000   1.0000   1.0000   1.0000   1.0000
     1.0000   1.0000   1.0000   1.0000   1.0000   1.0000   1.0000   1.0000
     1.0000   1.0000   1.0000   1.0000   1.0000   1.0000   1.0000   1.0000
     1.0000   1.0000   1.0000   1.0000   1.0000   1.0000   1.0000   1.0000
     1.0000   1.0000   1.0000   1.0000   1.0000   1.0000   1.0000   1.0000
     1.0000   1.0000   1.0000   1.0000   1.0000   1.0000   1.0000   1.0000
     1.0000   1.0000   1.0000   1.0000   1.0000   1.0000   1.0000   1.0000
     1.0000   1.0000   1.0000   1.0000   1.0000   1.0000   1.0000   1.0000
     1.0000   1.0000   1.0000   1.0000   1.0000   1.0000   1.0000   1.0000
     1.0000   1.0000   1.0000   1.0000   1.0000   1.0000   1.0000   1.0000
     1.0000   1.0000   1.0000   1.0000   1.0000   1.0000   1.0000   1.0000
     1.0000   1.0000   1.0000   1.0000   1.0000   1.0000   1.0000   1.0000
     1.0000   1.0000   1.0000   1.0000   1.0000   1.0000   1.0000   1.0000
     1.0000   1.0000   1.0000   1.0000   1.0000   1.0000   1.0000   1.0000
     1.0000   1.0000   1.0000   1.0000   1.0000   1.0000   1.0000   1.0000
     1.0000   1.0000   1.0000   1.0000   1.0000   1.0000   1.0000   1.0000
     1.0000   1.0000   1.0000   1.0000   1.0000   1.0000   1.0000   1.0000
     1.0000   1.0000   1.0000   1.0000   1.0000   1.0000   1.0000   1.0000
     1.0000   1.0000   1.0000   1.0000   1.0000   1.0000   1.0000   1.0000
     1.0000   1.0000   1.0000   1.0000   1.0000   1.0000   1.0000   1.0000
     1.0000   1.0000   1.0000   1.0000   1.0000   1.0000   1.0000   1.0000
     1.0000   1.0000   1.0000   1.0000   1.0000   1.0000   1.0000   1.0000
     1.0000   1.0000   1.0000   1.0000   1.0000   1.0000   1.0000   1.0000
     1.0000   1.0000   1.0000   1.0000   1.0000   1.0000   1.0000   1.0000
     1.0000   1.0000   1.0000   1.0000   1.0000   1.0000   1.0000   1.0000
     1.0000   1.0000   1.0000   1.0000   1.0000   1.0000   1.0000   1.0000
     1.0000   1.0000   1.0000   1.0000   1.0000   1.0000   1.0000   1.0000
     1.0000   1.0000   1.0000   1.0000   1.0000   1.0000   1.0000   1.0000
     1.0000   1.0000   1.0000   1.0000   1.0000   1.0000   1.0000   1.0000
     1.0000   1.0000   1.0000   1.0000   1.0000   1.0000   1.0000   1.0000
     1.0000   1.0000   1.0000   1.0000   1.0000   1.0000   1.0000   1.0000
     1.0000   1.0000   1.0000   1.0000   1.0000   1.0000   1.0000   1.0000
     1.0000   1.0000   1.0000   1.0000   1.0000   1.0000   1.0000   1.0000
     1.0000   1.0000   1.0000   1.0000   1.0000   1.0000   1.0000   1.0000
     1.0000   1.0000   1.0000   1.0000   1.0000   1.0000   1.0000   1.0000
     1.0000   1.0000   1.0000   1.0000   1.0000   1.0000   1.0000   1.0000
     1.0000   1.0000   1.0000   1.0000   1.0000   1.0000   1.0000   1.0000
     1.0000   1.0000   1.0000   1.0000   1.0000   1.0000   1.0000   1.0000
     1.0000   1.0000   1.0000   1.0000   1.0000   1.0000   1.0000   1.0000
     1.0000   1.0000   1.0000   1.0000   1.0000   1.0000   1.0000   1.0000
     1.0000   1.0000   1.0000   1.0000   1.0000   1.0000   1.0000   1.0000
     1.0000   1.0000   1.0000   1.0000   1.0000   1.0000   1.0000   1.0000
     1.0000   1.0000   1.0000   1.0000   1.0000   1.0000   1.0000   1.0000
     1.0000   1.0000   1.0000   1.0000   1.0000   1.0000   1.0000   1.0000
     1.0000   1.0000   1.0000   1.0000   1.0000   1.0000   1.0000   1.0000
     1.0000   1.0000   1.0000   1.0000   1.0000   1.0000   1.0000   1.0000
     1.0000   1.0000   1.0000   1.0000   1.0000   1.0000   1.0000   1.0000
     1.0000   1.0000   1.0000   1.0000   1.0000   1.0000   1.0000   1.0000
     1.0000   1.0000   1.0000   1.0000   1.0000   1.0000   1.0000   1.0000
     1.0000   1.0000   1.0000   1.0000   1.0000   1.0000   1.0000   1.0000
     1.0000   1.0000   1.0000   1.0000   1.0000   1.0000   1.0000   1.0000
     1.0029   1.0129   1.0130   1.0333   1.0540   1.0483   0.0449   0.0006
     0.0004   0.0003   0.0000   0.0000   0.0000   0.0000   0.0000   0.0000
     0.0000   0.0000   0.0000   0.0000   0.0000   0.0000   0.0000   0.0000
     0.0000   0.0000   0.0000   0.0000   0.0000   0.0000   0.0000   0.0000
     0.0000   0.0000   0.0000   0.0000   0.0000   0.0000   0.0000   0.0000
     0.0000   0.0000   0.0000   0.0000   0.0000   0.0000   0.0000   0.0000
     0.0000   0.0000   0.0000   0.0000   0.0000   0.0000   0.0000   0.0000
     0.0000   0.0000   0.0000   0.0000   0.0000   0.0000   0.0000   0.0000
     0.0000   0.0000   0.0000   0.0000   0.0000   0.0000   0.0000   0.0000
     0.0000   0.0000   0.0000   0.0000   0.0000   0.0000   0.0000   0.0000
     0.0000   0.0000   0.0000   0.0000   0.0000   0.0000   0.0000   0.0000
     0.0000   0.0000   0.0000   0.0000   0.0000   0.0000   0.0000   0.0000
     0.0000   0.0000   0.0000   0.0000   0.0000   0.0000   0.0000   0.0000
     0.0000   0.0000

          k = 0.0000 0.3628 0.1846 ( 71963 PWs)   bands (ev):

  -125.3572-125.3527-125.3504-125.3487-125.3358-125.3353-125.3345-125.3340
  -125.2451-125.2440-125.2418-125.2410-125.2399-125.2390-125.2385-125.2376
  -125.1696-125.1590-125.1580-125.1558-125.1550-125.1532-125.1529-125.1521
  -125.1515-125.1506-125.1489-125.1452-125.1079-125.1021-125.1014-125.0987
  -125.0595-125.0592-125.0584-125.0578-125.0577-125.0568-125.0545-125.0536
  -125.0296-125.0279-125.0270-125.0247-125.0017-124.9998-124.9750-124.9704
   -79.5149 -79.5111 -79.5101 -79.5079 -79.5060 -79.5049 -79.5013 -79.4968
   -79.4966 -79.4960 -79.4948 -79.4946 -79.4943 -79.4934 -79.4927 -79.4900
   -79.4874 -79.4854 -79.4825 -79.4819 -79.4809 -79.4804 -79.4728 -79.4682
   -79.4067 -79.4043 -79.4039 -79.4025 -79.4011 -79.4000 -79.3915 -79.3906
   -79.3896 -79.3891 -79.3886 -79.3880 -79.3874 -79.3864 -79.3857 -79.3851
   -79.3847 -79.3837 -79.3820 -79.3810 -79.3801 -79.3787 -79.3776 -79.3754
   -79.3265 -79.3234 -79.3204 -79.3163 -79.3159 -79.3149 -79.3138 -79.3134
   -79.3120 -79.3118 -79.3113 -79.3102 -79.3095 -79.3089 -79.3081 -79.3073
   -79.3063 -79.3058 -79.3055 -79.3047 -79.3046 -79.3042 -79.3039 -79.3033
   -79.3031 -79.3021 -79.3010 -79.3003 -79.2982 -79.2976 -79.2953 -79.2938
   -79.2921 -79.2918 -79.2914 -79.2873 -79.2780 -79.2718 -79.2713 -79.2684
   -79.2557 -79.2501 -79.2494 -79.2493 -79.2469 -79.2431 -79.2324 -79.2323
   -79.2314 -79.2307 -79.2297 -79.2279 -79.2263 -79.2262 -79.2231 -79.2222
   -79.2180 -79.2137 -79.2126 -79.2092 -79.2077 -79.2062 -79.2044 -79.2038
   -79.2031 -79.2025 -79.2008 -79.1996 -79.1993 -79.1967 -79.1965 -79.1954
   -79.1947 -79.1939 -79.1920 -79.1915 -79.1819 -79.1795 -79.1778 -79.1769
   -79.1768 -79.1746 -79.1700 -79.1688 -79.1649 -79.1599 -79.1525 -79.1487
   -79.1477 -79.1436 -79.1391 -79.1383 -79.1240 -79.1204 -79.1189 -79.1081
   -17.9902 -16.6345 -15.7727 -13.3804 -13.2991 -10.3680 -10.1144  -8.2183
    -8.1632  -7.7075  -7.6630  -7.5950  -7.4565  -7.1891  -7.1629  -7.0199
    -7.0124  -7.0044  -6.9829  -6.9756  -6.9252  -6.8953  -6.8923  -6.8880
    -6.8502  -6.8346  -6.8185  -6.8122  -6.7959  -6.7864  -6.7836  -6.7802
    -6.7719  -6.7686  -6.7454  -6.7418  -6.7259  -6.7197  -6.6981  -6.6889
    -6.6827  -6.6713  -6.6619  -6.6609  -6.6573  -6.6355  -6.6336  -6.6200
    -6.6177  -6.6128  -6.6044  -6.5871  -6.5843  -6.5708  -6.5679  -6.5531
    -6.5471  -6.5396  -6.5341  -6.5300  -6.5276  -6.5256  -6.5198  -6.5068
    -6.5027  -6.4894  -6.4713  -6.4622  -6.4572  -6.4544  -6.4522  -6.4342
    -6.4307  -6.4290  -6.4106  -6.4051  -6.3970  -6.3943  -6.3867  -6.3768
    -6.3732  -6.3703  -6.3676  -6.3639  -6.3501  -6.3437  -6.3292  -6.3262
    -6.3181  -6.3089  -6.3076  -6.3023  -6.2913  -6.2896  -6.2850  -6.2744
    -6.2731  -6.2684  -6.2566  -6.2551  -6.2470  -6.2296  -6.2276  -6.2270
    -6.2234  -6.2144  -6.2136  -6.2087  -6.1981  -6.1927  -6.1922  -6.1834
    -6.1707  -6.1682  -6.1670  -6.1523  -6.1495  -6.1459  -6.1335  -6.1322
    -6.1215  -6.1202  -6.1160  -6.1067  -6.1048  -6.1040  -6.0920  -6.0887
    -6.0778  -6.0741  -6.0696  -6.0649  -6.0555  -6.0453  -6.0426  -6.0376
    -6.0324  -6.0304  -6.0255  -6.0211  -6.0201  -6.0111  -6.0094  -5.9999
    -5.9922  -5.9900  -5.9827  -5.9728  -5.9723  -5.9710  -5.9659  -5.9557
    -5.9416  -5.9391  -5.9275  -5.9269  -5.9216  -5.9167  -5.9065  -5.8996
    -5.8977  -5.8941  -5.8867  -5.8828  -5.8787  -5.8763  -5.8745  -5.8732
    -5.8601  -5.8553  -5.8524  -5.8516  -5.8434  -5.8407  -5.8336  -5.8305
    -5.8231  -5.8201  -5.8169  -5.8117  -5.8086  -5.8059  -5.7982  -5.7973
    -5.7971  -5.7887  -5.7865  -5.7797  -5.7777  -5.7753  -5.7694  -5.7684
    -5.7679  -5.7606  -5.7551  -5.7495  -5.7492  -5.7461  -5.7431  -5.7402
    -5.7312  -5.7243  -5.7208  -5.7157  -5.7117  -5.7103  -5.7079  -5.7060
    -5.7020  -5.7007  -5.6987  -5.6938  -5.6880  -5.6842  -5.6791  -5.6765
    -5.6740  -5.6688  -5.6664  -5.6644  -5.6580  -5.6547  -5.6539  -5.6524
    -5.6511  -5.6474  -5.6454  -5.6444  -5.6386  -5.6367  -5.6355  -5.6326
    -5.6226  -5.6196  -5.6141  -5.6120  -5.6067  -5.6050  -5.6026  -5.6002
    -5.5914  -5.5886  -5.5817  -5.5648  -5.5588  -5.5538  -5.5519  -5.5393
    -5.5173  -5.5073  -5.5058  -5.4975  -5.4919  -5.4829  -5.4645  -5.4024
    -5.3768  -5.3659  -5.1185  -5.0737  -4.9564  -4.8947  -4.6378  -4.5596
    -4.5293  -4.3413  -4.2860  -4.1224  -3.5436  -3.5257  -3.4886  -3.4007
    -3.2280  -3.2194  -2.9503  -2.7882  -2.7136  -2.5772  -2.5389  -2.4649
    -2.3068  -2.2087  -2.0398  -1.9893  -1.9415  -1.6314  -1.6238  -1.6160
    -1.4401  -1.2625  -1.2129  -1.1980  -1.1723  -0.8923  -0.6227  -0.5734
    -0.3835  -0.3663  -0.2199  -0.0243   0.0973   0.1520   0.2055   0.3429
     0.3943   0.5425   0.7164   0.7660   0.8445   1.0014   1.2251   1.5125
     1.7269   1.7784   1.8747   2.0830   2.1292   2.2883   2.3586   2.4298
     2.4538   2.5428   2.9296   2.9472   2.9569   3.2079   3.3457   3.3891
     3.4280   3.6788   3.7918   3.8611   3.8845   3.8948   3.9391   3.9606
     4.0074   4.0739   4.0939   4.1736   4.4198   4.4877   4.4971   4.5698
     4.5928   4.6706   4.8217   4.9105   4.9341   4.9434   5.0589   5.0962
     5.1491   5.3371   5.3699   5.4164   5.4673   5.5153   5.5514   5.6526
     5.6693   5.7345   5.8262   5.8720   5.8899   5.9501   6.0351   6.0452
     6.1255   6.1897   6.2041   6.2876   6.3161   6.3546   6.4101   6.4214
     6.5016   6.5579   6.6026   6.6569   6.7746   6.8121   6.8399   6.8953
     6.9314   6.9605   6.9819   7.0337   7.1443   7.1617   7.2299   7.2808
     7.3773   7.4090   7.4335   7.5000   7.5166   7.5648   7.5873   7.6602
     7.6963   7.7622   7.8237   7.8579   7.9235   7.9928   8.0334   8.0964
     8.1214   8.1514

     occupation numbers 
     1.0000   1.0000   1.0000   1.0000   1.0000   1.0000   1.0000   1.0000
     1.0000   1.0000   1.0000   1.0000   1.0000   1.0000   1.0000   1.0000
     1.0000   1.0000   1.0000   1.0000   1.0000   1.0000   1.0000   1.0000
     1.0000   1.0000   1.0000   1.0000   1.0000   1.0000   1.0000   1.0000
     1.0000   1.0000   1.0000   1.0000   1.0000   1.0000   1.0000   1.0000
     1.0000   1.0000   1.0000   1.0000   1.0000   1.0000   1.0000   1.0000
     1.0000   1.0000   1.0000   1.0000   1.0000   1.0000   1.0000   1.0000
     1.0000   1.0000   1.0000   1.0000   1.0000   1.0000   1.0000   1.0000
     1.0000   1.0000   1.0000   1.0000   1.0000   1.0000   1.0000   1.0000
     1.0000   1.0000   1.0000   1.0000   1.0000   1.0000   1.0000   1.0000
     1.0000   1.0000   1.0000   1.0000   1.0000   1.0000   1.0000   1.0000
     1.0000   1.0000   1.0000   1.0000   1.0000   1.0000   1.0000   1.0000
     1.0000   1.0000   1.0000   1.0000   1.0000   1.0000   1.0000   1.0000
     1.0000   1.0000   1.0000   1.0000   1.0000   1.0000   1.0000   1.0000
     1.0000   1.0000   1.0000   1.0000   1.0000   1.0000   1.0000   1.0000
     1.0000   1.0000   1.0000   1.0000   1.0000   1.0000   1.0000   1.0000
     1.0000   1.0000   1.0000   1.0000   1.0000   1.0000   1.0000   1.0000
     1.0000   1.0000   1.0000   1.0000   1.0000   1.0000   1.0000   1.0000
     1.0000   1.0000   1.0000   1.0000   1.0000   1.0000   1.0000   1.0000
     1.0000   1.0000   1.0000   1.0000   1.0000   1.0000   1.0000   1.0000
     1.0000   1.0000   1.0000   1.0000   1.0000   1.0000   1.0000   1.0000
     1.0000   1.0000   1.0000   1.0000   1.0000   1.0000   1.0000   1.0000
     1.0000   1.0000   1.0000   1.0000   1.0000   1.0000   1.0000   1.0000
     1.0000   1.0000   1.0000   1.0000   1.0000   1.0000   1.0000   1.0000
     1.0000   1.0000   1.0000   1.0000   1.0000   1.0000   1.0000   1.0000
     1.0000   1.0000   1.0000   1.0000   1.0000   1.0000   1.0000   1.0000
     1.0000   1.0000   1.0000   1.0000   1.0000   1.0000   1.0000   1.0000
     1.0000   1.0000   1.0000   1.0000   1.0000   1.0000   1.0000   1.0000
     1.0000   1.0000   1.0000   1.0000   1.0000   1.0000   1.0000   1.0000
     1.0000   1.0000   1.0000   1.0000   1.0000   1.0000   1.0000   1.0000
     1.0000   1.0000   1.0000   1.0000   1.0000   1.0000   1.0000   1.0000
     1.0000   1.0000   1.0000   1.0000   1.0000   1.0000   1.0000   1.0000
     1.0000   1.0000   1.0000   1.0000   1.0000   1.0000   1.0000   1.0000
     1.0000   1.0000   1.0000   1.0000   1.0000   1.0000   1.0000   1.0000
     1.0000   1.0000   1.0000   1.0000   1.0000   1.0000   1.0000   1.0000
     1.0000   1.0000   1.0000   1.0000   1.0000   1.0000   1.0000   1.0000
     1.0000   1.0000   1.0000   1.0000   1.0000   1.0000   1.0000   1.0000
     1.0000   1.0000   1.0000   1.0000   1.0000   1.0000   1.0000   1.0000
     1.0000   1.0000   1.0000   1.0000   1.0000   1.0000   1.0000   1.0000
     1.0000   1.0000   1.0000   1.0000   1.0000   1.0000   1.0000   1.0000
     1.0000   1.0000   1.0000   1.0000   1.0000   1.0000   1.0000   1.0000
     1.0000   1.0000   1.0000   1.0000   1.0000   1.0000   1.0000   1.0000
     1.0000   1.0000   1.0000   1.0000   1.0000   1.0000   1.0000   1.0000
     1.0000   1.0000   1.0000   1.0000   1.0000   1.0000   1.0000   1.0000
     1.0000   1.0000   1.0000   1.0000   1.0000   1.0000   1.0000   1.0000
     1.0000   1.0000   1.0000   1.0000   1.0000   1.0000   1.0000   1.0000
     1.0000   1.0000   1.0000   1.0000   1.0000   1.0000   1.0000   1.0000
     1.0000   1.0000   1.0000   1.0000   1.0000   1.0000   1.0000   1.0000
     1.0000   1.0000   1.0000   1.0000   1.0000   1.0000   1.0000   1.0000
     1.0000   1.0000   1.0000   1.0000   1.0000   1.0000   1.0000   1.0000
     1.0000   1.0000   1.0000   1.0000   1.0000   1.0000   1.0000   1.0000
     1.0000   1.0000   1.0000   1.0000   1.0000   1.0000   1.0000   1.0000
     1.0000   1.0000   1.0000   1.0000   1.0000   1.0000   1.0000   1.0000
     1.0000   1.0000   1.0000   1.0000   1.0000   1.0000   1.0000   1.0000
     1.0000   1.0000   1.0000   1.0000   1.0000   1.0000   1.0000   1.0000
     1.0000   1.0000   1.0000   1.0000   1.0000   1.0000   1.0000   1.0000
     1.0000   1.0000   1.0000   1.0000   1.0000   1.0000   1.0000   1.0000
     1.0000   1.0000   1.0000   1.0000   1.0000   1.0000   1.0000   1.0000
     1.0000   1.0000   1.0000   1.0000   1.0000   1.0000   1.0000   1.0000
     1.0000   1.0000   1.0000   1.0000   1.0000   1.0000   1.0000   1.0000
     1.0000   1.0000   1.0000   1.0000   1.0000   1.0000   1.0000   1.0000
     1.0000   1.0000   1.0000   1.0000   1.0000   1.0000   1.0001   1.0013
     1.0029   1.0195   1.0720   1.0824   1.0685   0.8420   0.2694   0.0108
     0.0002   0.0001   0.0000   0.0000   0.0000   0.0000   0.0000   0.0000
     0.0000   0.0000   0.0000   0.0000   0.0000   0.0000   0.0000   0.0000
     0.0000   0.0000   0.0000   0.0000   0.0000   0.0000   0.0000   0.0000
     0.0000   0.0000   0.0000   0.0000   0.0000   0.0000   0.0000   0.0000
     0.0000   0.0000   0.0000   0.0000   0.0000   0.0000   0.0000   0.0000
     0.0000   0.0000   0.0000   0.0000   0.0000   0.0000   0.0000   0.0000
     0.0000   0.0000   0.0000   0.0000   0.0000   0.0000   0.0000   0.0000
     0.0000   0.0000   0.0000   0.0000   0.0000   0.0000   0.0000   0.0000
     0.0000   0.0000   0.0000   0.0000   0.0000   0.0000   0.0000   0.0000
     0.0000   0.0000   0.0000   0.0000   0.0000   0.0000   0.0000   0.0000
     0.0000   0.0000   0.0000   0.0000   0.0000   0.0000   0.0000   0.0000
     0.0000   0.0000   0.0000   0.0000   0.0000   0.0000   0.0000   0.0000
     0.0000   0.0000

          k = 0.3333 0.0811 0.7384 ( 72005 PWs)   bands (ev):

  -125.3572-125.3527-125.3504-125.3487-125.3358-125.3349-125.3348-125.3339
  -125.2451-125.2440-125.2418-125.2410-125.2399-125.2390-125.2385-125.2376
  -125.1696-125.1590-125.1580-125.1558-125.1550-125.1532-125.1529-125.1519
  -125.1517-125.1505-125.1489-125.1452-125.1079-125.1021-125.1014-125.0987
  -125.0595-125.0592-125.0582-125.0580-125.0577-125.0568-125.0545-125.0536
  -125.0296-125.0278-125.0270-125.0247-125.0017-124.9998-124.9750-124.9704
   -79.5149 -79.5124 -79.5101 -79.5079 -79.5060 -79.5014 -79.4999 -79.4985
   -79.4968 -79.4967 -79.4955 -79.4954 -79.4946 -79.4942 -79.4927 -79.4917
   -79.4861 -79.4826 -79.4815 -79.4814 -79.4803 -79.4791 -79.4791 -79.4665
   -79.4080 -79.4050 -79.4042 -79.4016 -79.4004 -79.3953 -79.3950 -79.3915
   -79.3903 -79.3884 -79.3881 -79.3876 -79.3868 -79.3863 -79.3857 -79.3851
   -79.3849 -79.3845 -79.3825 -79.3813 -79.3804 -79.3791 -79.3779 -79.3740
   -79.3269 -79.3234 -79.3204 -79.3173 -79.3157 -79.3152 -79.3136 -79.3132
   -79.3117 -79.3116 -79.3112 -79.3103 -79.3099 -79.3080 -79.3073 -79.3064
   -79.3059 -79.3055 -79.3048 -79.3045 -79.3044 -79.3042 -79.3040 -79.3034
   -79.3032 -79.3023 -79.3013 -79.3003 -79.2981 -79.2980 -79.2978 -79.2954
   -79.2928 -79.2921 -79.2903 -79.2857 -79.2780 -79.2718 -79.2713 -79.2684
   -79.2557 -79.2505 -79.2501 -79.2494 -79.2469 -79.2384 -79.2371 -79.2324
   -79.2312 -79.2309 -79.2296 -79.2279 -79.2262 -79.2251 -79.2232 -79.2222
   -79.2194 -79.2153 -79.2079 -79.2075 -79.2066 -79.2056 -79.2050 -79.2037
   -79.2031 -79.2028 -79.2025 -79.2022 -79.1995 -79.1992 -79.1967 -79.1947
   -79.1940 -79.1940 -79.1915 -79.1904 -79.1834 -79.1795 -79.1778 -79.1769
   -79.1746 -79.1711 -79.1707 -79.1700 -79.1688 -79.1584 -79.1526 -79.1489
   -79.1478 -79.1436 -79.1391 -79.1376 -79.1240 -79.1210 -79.1189 -79.1079
   -17.9902 -16.6345 -15.7727 -13.3804 -13.2991 -10.3680 -10.1144  -8.2193
    -8.2086  -7.8505  -7.6703  -7.5963  -7.1805  -7.1260  -7.1084  -7.0845
    -7.0557  -7.0263  -7.0191  -6.9920  -6.9678  -6.9400  -6.9155  -6.8973
    -6.8950  -6.8525  -6.8363  -6.8306  -6.7934  -6.7919  -6.7856  -6.7665
    -6.7476  -6.7421  -6.7145  -6.7121  -6.6968  -6.6729  -6.6655  -6.6642
    -6.6595  -6.6408  -6.6289  -6.6277  -6.6249  -6.6219  -6.6157  -6.6111
    -6.6039  -6.5990  -6.5956  -6.5929  -6.5892  -6.5803  -6.5764  -6.5586
    -6.5569  -6.5560  -6.5535  -6.5365  -6.5268  -6.5156  -6.5118  -6.5063
    -6.4978  -6.4948  -6.4814  -6.4747  -6.4680  -6.4525  -6.4464  -6.4403
    -6.4242  -6.4231  -6.4147  -6.4098  -6.4028  -6.3915  -6.3834  -6.3769
    -6.3575  -6.3525  -6.3512  -6.3481  -6.3461  -6.3433  -6.3317  -6.3180
    -6.3034  -6.3015  -6.2877  -6.2866  -6.2844  -6.2811  -6.2792  -6.2689
    -6.2584  -6.2536  -6.2493  -6.2390  -6.2334  -6.2264  -6.2237  -6.2164
    -6.2064  -6.2057  -6.2016  -6.1865  -6.1765  -6.1701  -6.1588  -6.1581
    -6.1514  -6.1477  -6.1390  -6.1377  -6.1374  -6.1356  -6.1162  -6.1106
    -6.1044  -6.1035  -6.0999  -6.0965  -6.0945  -6.0914  -6.0843  -6.0709
    -6.0669  -6.0599  -6.0579  -6.0527  -6.0484  -6.0469  -6.0416  -6.0407
    -6.0249  -6.0230  -6.0156  -6.0126  -6.0090  -6.0080  -5.9976  -5.9942
    -5.9905  -5.9887  -5.9817  -5.9791  -5.9766  -5.9734  -5.9703  -5.9677
    -5.9564  -5.9463  -5.9446  -5.9439  -5.9391  -5.9309  -5.9284  -5.9184
    -5.9172  -5.9139  -5.9120  -5.9113  -5.9024  -5.8953  -5.8876  -5.8856
    -5.8829  -5.8806  -5.8745  -5.8705  -5.8699  -5.8672  -5.8627  -5.8534
    -5.8492  -5.8441  -5.8431  -5.8343  -5.8316  -5.8241  -5.8228  -5.8224
    -5.8205  -5.8178  -5.8120  -5.8102  -5.8020  -5.7973  -5.7962  -5.7800
    -5.7794  -5.7754  -5.7717  -5.7672  -5.7611  -5.7594  -5.7585  -5.7575
    -5.7536  -5.7460  -5.7434  -5.7410  -5.7327  -5.7235  -5.7226  -5.7220
    -5.7163  -5.7142  -5.7084  -5.7082  -5.6978  -5.6920  -5.6878  -5.6851
    -5.6834  -5.6822  -5.6765  -5.6720  -5.6679  -5.6589  -5.6577  -5.6513
    -5.6476  -5.6462  -5.6382  -5.6373  -5.6362  -5.6280  -5.6248  -5.6244
    -5.6176  -5.6165  -5.6091  -5.6063  -5.5994  -5.5920  -5.5877  -5.5858
    -5.5659  -5.5629  -5.5585  -5.5540  -5.5441  -5.5405  -5.5271  -5.5258
    -5.5067  -5.5033  -5.4931  -5.4856  -5.4508  -5.4466  -5.4339  -5.4306
    -5.3975  -5.3348  -5.0903  -5.0626  -5.0461  -5.0367  -4.5932  -4.5589
    -4.4554  -4.4440  -4.2841  -4.0076  -3.8856  -3.6373  -3.5235  -3.4956
    -3.4017  -3.2282  -3.0011  -2.8326  -2.7161  -2.6372  -2.5764  -2.2103
    -2.1001  -1.9763  -1.9165  -1.8917  -1.6739  -1.6631  -1.6229  -1.4286
    -1.2603  -1.2105  -1.1922  -1.1207  -0.7555  -0.6329  -0.5855  -0.4431
    -0.3641  -0.3597  -0.2993  -0.2633  -0.1536   0.0280   0.0670   0.1259
     0.4590   0.4748   0.6303   0.9215   1.0364   1.2990   1.3135   1.3476
     1.4337   1.6144   1.6775   1.8102   1.8182   1.9003   2.3311   2.4526
     2.6046   2.6455   2.7665   2.7852   2.7972   2.8210   3.0583   3.3223
     3.3701   3.4216   3.4393   3.6063   3.7124   3.7279   3.7482   3.9322
     3.9698   4.1002   4.2780   4.2854   4.5666   4.5806   4.5909   4.6406
     4.7289   4.9029   4.9948   5.0542   5.0783   5.1120   5.1594   5.1895
     5.2083   5.3526   5.3992   5.4873   5.5399   5.6216   5.6713   5.7028
     5.7810   5.8612   5.9209   6.0272   6.0593   6.0969   6.1193   6.2203
     6.2611   6.3405   6.3727   6.4472   6.5300   6.6024   6.6496   6.6739
     6.7377   6.7994   6.8387   6.8597   6.8905   6.9139   6.9787   6.9979
     7.0179   7.0465   7.0887   7.1368   7.1620   7.2108   7.2571   7.3067
     7.3916   7.4149   7.4257   7.4415   7.4679   7.5166   7.5274   7.5728
     7.6056   7.6859   7.7373   7.7872   7.8275   7.8855   7.9442   7.9808
     8.0057   8.1031

     occupation numbers 
     1.0000   1.0000   1.0000   1.0000   1.0000   1.0000   1.0000   1.0000
     1.0000   1.0000   1.0000   1.0000   1.0000   1.0000   1.0000   1.0000
     1.0000   1.0000   1.0000   1.0000   1.0000   1.0000   1.0000   1.0000
     1.0000   1.0000   1.0000   1.0000   1.0000   1.0000   1.0000   1.0000
     1.0000   1.0000   1.0000   1.0000   1.0000   1.0000   1.0000   1.0000
     1.0000   1.0000   1.0000   1.0000   1.0000   1.0000   1.0000   1.0000
     1.0000   1.0000   1.0000   1.0000   1.0000   1.0000   1.0000   1.0000
     1.0000   1.0000   1.0000   1.0000   1.0000   1.0000   1.0000   1.0000
     1.0000   1.0000   1.0000   1.0000   1.0000   1.0000   1.0000   1.0000
     1.0000   1.0000   1.0000   1.0000   1.0000   1.0000   1.0000   1.0000
     1.0000   1.0000   1.0000   1.0000   1.0000   1.0000   1.0000   1.0000
     1.0000   1.0000   1.0000   1.0000   1.0000   1.0000   1.0000   1.0000
     1.0000   1.0000   1.0000   1.0000   1.0000   1.0000   1.0000   1.0000
     1.0000   1.0000   1.0000   1.0000   1.0000   1.0000   1.0000   1.0000
     1.0000   1.0000   1.0000   1.0000   1.0000   1.0000   1.0000   1.0000
     1.0000   1.0000   1.0000   1.0000   1.0000   1.0000   1.0000   1.0000
     1.0000   1.0000   1.0000   1.0000   1.0000   1.0000   1.0000   1.0000
     1.0000   1.0000   1.0000   1.0000   1.0000   1.0000   1.0000   1.0000
     1.0000   1.0000   1.0000   1.0000   1.0000   1.0000   1.0000   1.0000
     1.0000   1.0000   1.0000   1.0000   1.0000   1.0000   1.0000   1.0000
     1.0000   1.0000   1.0000   1.0000   1.0000   1.0000   1.0000   1.0000
     1.0000   1.0000   1.0000   1.0000   1.0000   1.0000   1.0000   1.0000
     1.0000   1.0000   1.0000   1.0000   1.0000   1.0000   1.0000   1.0000
     1.0000   1.0000   1.0000   1.0000   1.0000   1.0000   1.0000   1.0000
     1.0000   1.0000   1.0000   1.0000   1.0000   1.0000   1.0000   1.0000
     1.0000   1.0000   1.0000   1.0000   1.0000   1.0000   1.0000   1.0000
     1.0000   1.0000   1.0000   1.0000   1.0000   1.0000   1.0000   1.0000
     1.0000   1.0000   1.0000   1.0000   1.0000   1.0000   1.0000   1.0000
     1.0000   1.0000   1.0000   1.0000   1.0000   1.0000   1.0000   1.0000
     1.0000   1.0000   1.0000   1.0000   1.0000   1.0000   1.0000   1.0000
     1.0000   1.0000   1.0000   1.0000   1.0000   1.0000   1.0000   1.0000
     1.0000   1.0000   1.0000   1.0000   1.0000   1.0000   1.0000   1.0000
     1.0000   1.0000   1.0000   1.0000   1.0000   1.0000   1.0000   1.0000
     1.0000   1.0000   1.0000   1.0000   1.0000   1.0000   1.0000   1.0000
     1.0000   1.0000   1.0000   1.0000   1.0000   1.0000   1.0000   1.0000
     1.0000   1.0000   1.0000   1.0000   1.0000   1.0000   1.0000   1.0000
     1.0000   1.0000   1.0000   1.0000   1.0000   1.0000   1.0000   1.0000
     1.0000   1.0000   1.0000   1.0000   1.0000   1.0000   1.0000   1.0000
     1.0000   1.0000   1.0000   1.0000   1.0000   1.0000   1.0000   1.0000
     1.0000   1.0000   1.0000   1.0000   1.0000   1.0000   1.0000   1.0000
     1.0000   1.0000   1.0000   1.0000   1.0000   1.0000   1.0000   1.0000
     1.0000   1.0000   1.0000   1.0000   1.0000   1.0000   1.0000   1.0000
     1.0000   1.0000   1.0000   1.0000   1.0000   1.0000   1.0000   1.0000
     1.0000   1.0000   1.0000   1.0000   1.0000   1.0000   1.0000   1.0000
     1.0000   1.0000   1.0000   1.0000   1.0000   1.0000   1.0000   1.0000
     1.0000   1.0000   1.0000   1.0000   1.0000   1.0000   1.0000   1.0000
     1.0000   1.0000   1.0000   1.0000   1.0000   1.0000   1.0000   1.0000
     1.0000   1.0000   1.0000   1.0000   1.0000   1.0000   1.0000   1.0000
     1.0000   1.0000   1.0000   1.0000   1.0000   1.0000   1.0000   1.0000
     1.0000   1.0000   1.0000   1.0000   1.0000   1.0000   1.0000   1.0000
     1.0000   1.0000   1.0000   1.0000   1.0000   1.0000   1.0000   1.0000
     1.0000   1.0000   1.0000   1.0000   1.0000   1.0000   1.0000   1.0000
     1.0000   1.0000   1.0000   1.0000   1.0000   1.0000   1.0000   1.0000
     1.0000   1.0000   1.0000   1.0000   1.0000   1.0000   1.0000   1.0000
     1.0000   1.0000   1.0000   1.0000   1.0000   1.0000   1.0000   1.0000
     1.0000   1.0000   1.0000   1.0000   1.0000   1.0000   1.0000   1.0000
     1.0000   1.0000   1.0000   1.0000   1.0000   1.0000   1.0000   1.0000
     1.0000   1.0000   1.0000   1.0000   1.0000   1.0000   1.0000   1.0000
     1.0000   1.0000   1.0000   1.0000   1.0000   1.0000   1.0000   1.0000
     1.0000   1.0000   1.0000   1.0000   1.0000   1.0000   1.0000   1.0000
     1.0000   1.0000   1.0000   1.0000   1.0000   1.0000   1.0000   1.0000
     1.0000   1.0000   1.0000   1.0000   1.0000   1.0000   1.0000   1.0000
     1.0072   1.0089   1.0434   0.9942   0.7556   0.1436   0.1249   0.0882
     0.0321   0.0021   0.0006   0.0000   0.0000   0.0000   0.0000   0.0000
     0.0000   0.0000   0.0000   0.0000   0.0000   0.0000   0.0000   0.0000
     0.0000   0.0000   0.0000   0.0000   0.0000   0.0000   0.0000   0.0000
     0.0000   0.0000   0.0000   0.0000   0.0000   0.0000   0.0000   0.0000
     0.0000   0.0000   0.0000   0.0000   0.0000   0.0000   0.0000   0.0000
     0.0000   0.0000   0.0000   0.0000   0.0000   0.0000   0.0000   0.0000
     0.0000   0.0000   0.0000   0.0000   0.0000   0.0000   0.0000   0.0000
     0.0000   0.0000   0.0000   0.0000   0.0000   0.0000   0.0000   0.0000
     0.0000   0.0000   0.0000   0.0000   0.0000   0.0000   0.0000   0.0000
     0.0000   0.0000   0.0000   0.0000   0.0000   0.0000   0.0000   0.0000
     0.0000   0.0000   0.0000   0.0000   0.0000   0.0000   0.0000   0.0000
     0.0000   0.0000   0.0000   0.0000   0.0000   0.0000   0.0000   0.0000
     0.0000   0.0000

          k = 0.3333 0.4439 0.9230 ( 71974 PWs)   bands (ev):

  -125.3572-125.3527-125.3504-125.3487-125.3358-125.3353-125.3345-125.3340
  -125.2451-125.2440-125.2418-125.2410-125.2399-125.2390-125.2385-125.2376
  -125.1696-125.1590-125.1580-125.1558-125.1550-125.1532-125.1529-125.1521
  -125.1515-125.1506-125.1489-125.1452-125.1079-125.1021-125.1014-125.0987
  -125.0595-125.0592-125.0584-125.0578-125.0577-125.0568-125.0545-125.0536
  -125.0296-125.0279-125.0270-125.0247-125.0017-124.9998-124.9750-124.9704
   -79.5149 -79.5111 -79.5101 -79.5079 -79.5060 -79.5049 -79.5013 -79.4968
   -79.4966 -79.4960 -79.4948 -79.4946 -79.4943 -79.4934 -79.4927 -79.4900
   -79.4874 -79.4854 -79.4825 -79.4819 -79.4809 -79.4804 -79.4728 -79.4682
   -79.4067 -79.4043 -79.4039 -79.4025 -79.4011 -79.4000 -79.3915 -79.3906
   -79.3896 -79.3891 -79.3886 -79.3880 -79.3874 -79.3864 -79.3857 -79.3851
   -79.3847 -79.3837 -79.3820 -79.3810 -79.3801 -79.3787 -79.3776 -79.3754
   -79.3265 -79.3234 -79.3204 -79.3163 -79.3159 -79.3149 -79.3138 -79.3134
   -79.3120 -79.3118 -79.3113 -79.3102 -79.3095 -79.3089 -79.3081 -79.3073
   -79.3063 -79.3058 -79.3055 -79.3047 -79.3046 -79.3042 -79.3039 -79.3033
   -79.3031 -79.3021 -79.3010 -79.3003 -79.2982 -79.2976 -79.2953 -79.2938
   -79.2921 -79.2918 -79.2914 -79.2873 -79.2780 -79.2718 -79.2713 -79.2684
   -79.2557 -79.2501 -79.2494 -79.2493 -79.2469 -79.2431 -79.2324 -79.2323
   -79.2314 -79.2307 -79.2297 -79.2279 -79.2263 -79.2262 -79.2231 -79.2222
   -79.2180 -79.2137 -79.2126 -79.2092 -79.2077 -79.2062 -79.2044 -79.2038
   -79.2031 -79.2025 -79.2008 -79.1996 -79.1993 -79.1967 -79.1965 -79.1954
   -79.1947 -79.1939 -79.1920 -79.1915 -79.1819 -79.1795 -79.1778 -79.1769
   -79.1768 -79.1746 -79.1700 -79.1688 -79.1649 -79.1599 -79.1525 -79.1487
   -79.1477 -79.1436 -79.1391 -79.1383 -79.1240 -79.1204 -79.1189 -79.1081
   -17.9902 -16.6345 -15.7727 -13.3804 -13.2991 -10.3680 -10.1144  -8.2182
    -8.0005  -7.7914  -7.7057  -7.6616  -7.5938  -7.1912  -7.0681  -7.0261
    -7.0092  -6.9848  -6.9759  -6.9710  -6.8988  -6.8918  -6.8910  -6.8864
    -6.8552  -6.8347  -6.8314  -6.8195  -6.8108  -6.7962  -6.7902  -6.7798
    -6.7755  -6.7501  -6.7453  -6.7407  -6.7316  -6.7200  -6.7123  -6.6984
    -6.6897  -6.6716  -6.6600  -6.6504  -6.6413  -6.6366  -6.6345  -6.6196
    -6.6181  -6.6119  -6.6092  -6.6048  -6.5911  -6.5764  -6.5717  -6.5505
    -6.5440  -6.5420  -6.5377  -6.5260  -6.5231  -6.5116  -6.5069  -6.5010
    -6.4911  -6.4816  -6.4689  -6.4660  -6.4572  -6.4537  -6.4507  -6.4441
    -6.4336  -6.4287  -6.4158  -6.4060  -6.3986  -6.3956  -6.3922  -6.3827
    -6.3697  -6.3690  -6.3628  -6.3574  -6.3417  -6.3363  -6.3347  -6.3316
    -6.3262  -6.3225  -6.3051  -6.3041  -6.2912  -6.2895  -6.2781  -6.2730
    -6.2710  -6.2684  -6.2482  -6.2477  -6.2395  -6.2291  -6.2256  -6.2193
    -6.2124  -6.2100  -6.2044  -6.2017  -6.1959  -6.1928  -6.1853  -6.1825
    -6.1709  -6.1687  -6.1633  -6.1552  -6.1527  -6.1464  -6.1455  -6.1345
    -6.1334  -6.1275  -6.1265  -6.1179  -6.1129  -6.1056  -6.0960  -6.0802
    -6.0784  -6.0759  -6.0679  -6.0661  -6.0630  -6.0561  -6.0493  -6.0344
    -6.0334  -6.0325  -6.0194  -6.0132  -6.0122  -6.0073  -6.0040  -6.0026
    -5.9947  -5.9932  -5.9814  -5.9802  -5.9722  -5.9663  -5.9629  -5.9600
    -5.9587  -5.9437  -5.9427  -5.9373  -5.9228  -5.9186  -5.9097  -5.9065
    -5.8978  -5.8968  -5.8849  -5.8834  -5.8794  -5.8762  -5.8741  -5.8722
    -5.8637  -5.8618  -5.8561  -5.8534  -5.8459  -5.8430  -5.8332  -5.8316
    -5.8293  -5.8272  -5.8218  -5.8205  -5.8144  -5.8130  -5.8043  -5.7993
    -5.7982  -5.7954  -5.7947  -5.7866  -5.7854  -5.7810  -5.7721  -5.7698
    -5.7687  -5.7615  -5.7519  -5.7502  -5.7494  -5.7479  -5.7398  -5.7347
    -5.7302  -5.7233  -5.7221  -5.7204  -5.7197  -5.7171  -5.7091  -5.7063
    -5.7009  -5.6996  -5.6952  -5.6928  -5.6916  -5.6799  -5.6792  -5.6730
    -5.6722  -5.6662  -5.6647  -5.6639  -5.6617  -5.6563  -5.6540  -5.6511
    -5.6497  -5.6459  -5.6418  -5.6405  -5.6374  -5.6319  -5.6256  -5.6215
    -5.6203  -5.6175  -5.6139  -5.6114  -5.6055  -5.6038  -5.6013  -5.5988
    -5.5909  -5.5850  -5.5775  -5.5717  -5.5627  -5.5467  -5.5371  -5.5244
    -5.5105  -5.5070  -5.5016  -5.4978  -5.4890  -5.4865  -5.4523  -5.3859
    -5.3646  -5.1187  -5.0743  -4.9766  -4.9553  -4.8978  -4.6556  -4.5597
    -4.5286  -4.3386  -4.2844  -3.9851  -3.6724  -3.5286  -3.4897  -3.4020
    -3.2916  -3.2138  -2.9485  -2.7717  -2.7686  -2.7168  -2.5989  -2.5752
    -2.4650  -2.3070  -2.2165  -2.2066  -2.0371  -1.9671  -1.6284  -1.5974
    -1.4380  -1.2141  -1.2010  -1.0695  -0.8916  -0.6233  -0.5992  -0.5732
    -0.2169  -0.2010  -0.0327  -0.0241   0.1219   0.1743   0.3804   0.4178
     0.5083   0.7609   0.7639   0.8446   1.0121   1.2260   1.4074   1.4423
     1.7817   1.8093   1.8748   1.9603   2.1174   2.2394   2.3496   2.4518
     2.5382   2.5495   2.5817   2.8953   2.9247   2.9538   2.9802   3.2180
     3.2294   3.4197   3.4509   3.6614   3.7492   3.8766   3.8882   3.8969
     3.9070   3.9417   3.9750   4.0883   4.2556   4.4050   4.4717   4.4858
     4.5787   4.6785   4.7883   4.9046   4.9149   5.1420   5.1590   5.1725
     5.3759   5.4356   5.4512   5.5074   5.5306   5.5515   5.6003   5.6239
     5.6565   5.8254   5.8620   5.9024   5.9331   5.9719   5.9948   6.1025
     6.1423   6.1609   6.2008   6.2782   6.3479   6.3978   6.4201   6.5177
     6.5356   6.5523   6.5946   6.6413   6.6577   6.7000   6.8044   6.8918
     6.9555   6.9768   7.0642   7.1326   7.1781   7.2174   7.3021   7.3376
     7.4261   7.4764   7.5167   7.5837   7.6072   7.6331   7.7230   7.7759
     7.8212   7.8591   7.8981   7.9845   8.0089   8.0706   8.1296   8.1568
     8.1727   8.2217

     occupation numbers 
     1.0000   1.0000   1.0000   1.0000   1.0000   1.0000   1.0000   1.0000
     1.0000   1.0000   1.0000   1.0000   1.0000   1.0000   1.0000   1.0000
     1.0000   1.0000   1.0000   1.0000   1.0000   1.0000   1.0000   1.0000
     1.0000   1.0000   1.0000   1.0000   1.0000   1.0000   1.0000   1.0000
     1.0000   1.0000   1.0000   1.0000   1.0000   1.0000   1.0000   1.0000
     1.0000   1.0000   1.0000   1.0000   1.0000   1.0000   1.0000   1.0000
     1.0000   1.0000   1.0000   1.0000   1.0000   1.0000   1.0000   1.0000
     1.0000   1.0000   1.0000   1.0000   1.0000   1.0000   1.0000   1.0000
     1.0000   1.0000   1.0000   1.0000   1.0000   1.0000   1.0000   1.0000
     1.0000   1.0000   1.0000   1.0000   1.0000   1.0000   1.0000   1.0000
     1.0000   1.0000   1.0000   1.0000   1.0000   1.0000   1.0000   1.0000
     1.0000   1.0000   1.0000   1.0000   1.0000   1.0000   1.0000   1.0000
     1.0000   1.0000   1.0000   1.0000   1.0000   1.0000   1.0000   1.0000
     1.0000   1.0000   1.0000   1.0000   1.0000   1.0000   1.0000   1.0000
     1.0000   1.0000   1.0000   1.0000   1.0000   1.0000   1.0000   1.0000
     1.0000   1.0000   1.0000   1.0000   1.0000   1.0000   1.0000   1.0000
     1.0000   1.0000   1.0000   1.0000   1.0000   1.0000   1.0000   1.0000
     1.0000   1.0000   1.0000   1.0000   1.0000   1.0000   1.0000   1.0000
     1.0000   1.0000   1.0000   1.0000   1.0000   1.0000   1.0000   1.0000
     1.0000   1.0000   1.0000   1.0000   1.0000   1.0000   1.0000   1.0000
     1.0000   1.0000   1.0000   1.0000   1.0000   1.0000   1.0000   1.0000
     1.0000   1.0000   1.0000   1.0000   1.0000   1.0000   1.0000   1.0000
     1.0000   1.0000   1.0000   1.0000   1.0000   1.0000   1.0000   1.0000
     1.0000   1.0000   1.0000   1.0000   1.0000   1.0000   1.0000   1.0000
     1.0000   1.0000   1.0000   1.0000   1.0000   1.0000   1.0000   1.0000
     1.0000   1.0000   1.0000   1.0000   1.0000   1.0000   1.0000   1.0000
     1.0000   1.0000   1.0000   1.0000   1.0000   1.0000   1.0000   1.0000
     1.0000   1.0000   1.0000   1.0000   1.0000   1.0000   1.0000   1.0000
     1.0000   1.0000   1.0000   1.0000   1.0000   1.0000   1.0000   1.0000
     1.0000   1.0000   1.0000   1.0000   1.0000   1.0000   1.0000   1.0000
[...]
     atom   27 type  1   force =    -0.00006685   -0.00002295    0.00006234
     atom   28 type  1   force =    -0.00006518   -0.00001586    0.00002843
     atom   29 type  1   force =     0.00008716    0.00001412    0.00000266
     atom   30 type  1   force =     0.00009874    0.00002015   -0.00003250
     atom   31 type  1   force =     0.00000000    0.00000000    0.00000000
     atom   32 type  1   force =     0.00000000   -0.00000000   -0.00000000
     atom   33 type  1   force =    -0.00006172    0.00000853    0.00004068
     atom   34 type  1   force =    -0.00006720   -0.00004807    0.00005031
     atom   35 type  1   force =     0.00008666    0.00002112   -0.00000602
     atom   36 type  1   force =     0.00009397    0.00001423   -0.00002402
     atom   37 type  1   force =    -0.00000000    0.00000000    0.00000000
     atom   38 type  1   force =    -0.00000000   -0.00000000    0.00000000
     atom   39 type  1   force =     0.00005930    0.00001515    0.00000498
     atom   40 type  1   force =     0.00007019    0.00001575   -0.00002436
     atom   41 type  1   force =    -0.00004889   -0.00001620    0.00001550
     atom   42 type  1   force =    -0.00005635   -0.00000815   -0.00000040
     atom   43 type  1   force =    -0.00000000    0.00000000    0.00000000
     atom   44 type  1   force =    -0.00000000   -0.00000000    0.00000000
     atom   45 type  1   force =     0.00006587    0.00003850   -0.00000638
     atom   46 type  1   force =     0.00006590   -0.00001357   -0.00001444
     atom   47 type  1   force =    -0.00005704   -0.00001845    0.00001027
     atom   48 type  1   force =    -0.00006437   -0.00000281   -0.00001199
     atom   49 type  3   force =    -0.00001352   -0.00000351    0.00001877
     atom   50 type  3   force =     0.00000301    0.00000150   -0.00000700
     atom   51 type  3   force =     0.00000241    0.00000012   -0.00001301
     atom   52 type  3   force =     0.00000212   -0.00000096   -0.00000313
     atom   53 type  3   force =    -0.00000235   -0.00000173   -0.00000319
     atom   54 type  3   force =     0.00000405    0.00000034   -0.00000734
     atom   55 type  3   force =    -0.00000258   -0.00000431    0.00000074
     atom   56 type  2   force =    -0.00001100   -0.00000137    0.00001882
     atom   57 type  2   force =     0.00000061    0.00000641    0.00000268
     atom   58 type  4   force =     0.00000099    0.00000083    0.00000005
     atom   59 type  4   force =     0.00000007    0.00000051    0.00000096
     atom   60 type  4   force =     0.00000100   -0.00000024    0.00000174
     atom   61 type  4   force =    -0.00000011    0.00000006   -0.00000239
     atom   62 type  4   force =     0.00000012    0.00000034   -0.00000090
     atom   63 type  4   force =    -0.00000041   -0.00000030    0.00000129

     DFT-D3 dispersion contribution to forces:
     atom    1 type  1   force =    -0.00078376   -0.00018637    0.00277665
     atom    2 type  1   force =    -0.00078180   -0.00020410    0.00277148
     atom    3 type  1   force =    -0.00116644   -0.00030373   -0.00272437
     atom    4 type  1   force =    -0.00115738   -0.00030704   -0.00270446
     atom    5 type  1   force =     0.00069859    0.00042242   -0.00178099
     atom    6 type  1   force =     0.00064690    0.00078035   -0.00061561
     atom    7 type  1   force =    -0.00077467   -0.00019556    0.00278287
     atom    8 type  1   force =    -0.00079198   -0.00019373    0.00275825
     atom    9 type  1   force =    -0.00113862   -0.00029026   -0.00270755
     atom   10 type  1   force =    -0.00116275   -0.00031766   -0.00271530
     atom   11 type  1   force =     0.00052929    0.00085486   -0.00151807
     atom   12 type  1   force =     0.00067983   -0.00016011   -0.00072361
     atom   13 type  1   force =     0.00059350    0.00018285    0.00294356
     atom   14 type  1   force =     0.00058432    0.00015530    0.00296445
     atom   15 type  1   force =    -0.00015960   -0.00008836   -0.00073587
     atom   16 type  1   force =    -0.00027998   -0.00007398   -0.00073292
     atom   17 type  1   force =    -0.00016120   -0.00002352   -0.00261162
     atom   18 type  1   force =     0.00019666   -0.00004462   -0.00202716
     atom   19 type  1   force =     0.00057608    0.00018130    0.00296544
     atom   20 type  1   force =     0.00059862    0.00016789    0.00294044
     atom   21 type  1   force =    -0.00025057   -0.00015827   -0.00076121
     atom   22 type  1   force =    -0.00019510   -0.00009249   -0.00078000
     atom   23 type  1   force =    -0.00001948    0.00015755   -0.00231482
     atom   24 type  1   force =    -0.00009156   -0.00013711   -0.00250778
     atom   25 type  1   force =     0.00059061    0.00015784    0.00278649
     atom   26 type  1   force =     0.00059052    0.00014617    0.00280702
     atom   27 type  1   force =     0.00075169    0.00021395    0.00189249
     atom   28 type  1   force =     0.00074847    0.00020146    0.00189716
     atom   29 type  1   force =     0.00078270    0.00016908   -0.00200335
     atom   30 type  1   force =     0.00075182    0.00023019   -0.00194613
     atom   31 type  1   force =     0.00058513    0.00016356    0.00281714
     atom   32 type  1   force =     0.00059236    0.00015481    0.00277393
     atom   33 type  1   force =     0.00075920    0.00022898    0.00190344
     atom   34 type  1   force =     0.00073484    0.00020370    0.00189432
     atom   35 type  1   force =     0.00078369    0.00021497   -0.00204502
     atom   36 type  1   force =     0.00070545    0.00014955   -0.00180423
     atom   37 type  1   force =     0.00030816    0.00008302    0.00261657
     atom   38 type  1   force =     0.00030391    0.00008167    0.00263319
     atom   39 type  1   force =    -0.00111702   -0.00030836    0.00161384
     atom   40 type  1   force =    -0.00105089   -0.00029917    0.00166123
     atom   41 type  1   force =    -0.00034108   -0.00045627   -0.00436013
     atom   42 type  1   force =    -0.00002071    0.00004076   -0.00301184
     atom   43 type  1   force =     0.00030358    0.00008592    0.00262616
     atom   44 type  1   force =     0.00030818    0.00007965    0.00261044
     atom   45 type  1   force =    -0.00110030   -0.00036537    0.00157683
     atom   46 type  1   force =    -0.00112315   -0.00031354    0.00166114
     atom   47 type  1   force =    -0.00038097   -0.00011226   -0.00404438
     atom   48 type  1   force =     0.00010494   -0.00090191   -0.00328720
     atom   49 type  3   force =    -0.00008988   -0.00002071    0.00001178
     atom   50 type  3   force =    -0.00004275    0.00001050   -0.00020662
     atom   51 type  3   force =    -0.00010856   -0.00001594   -0.00035793
     atom   52 type  3   force =     0.00016719    0.00000455    0.00012531
     atom   53 type  3   force =    -0.00030041   -0.00005289   -0.00109777
     atom   54 type  3   force =     0.00004087   -0.00003558   -0.00005434
     atom   55 type  3   force =     0.00004449   -0.00001208   -0.00095507
     atom   56 type  2   force =     0.00022434    0.00008418   -0.00017801
     atom   57 type  2   force =    -0.00017396   -0.00004601   -0.00153344
     atom   58 type  4   force =    -0.00017718   -0.00000739   -0.00092630
     atom   59 type  4   force =    -0.00024872    0.00010143   -0.00154566
     atom   60 type  4   force =    -0.00003806    0.00001161   -0.00002711
     atom   61 type  4   force =    -0.00002562    0.00000287   -0.00013215
     atom   62 type  4   force =    -0.00000253   -0.00000746   -0.00002432
     atom   63 type  4   force =    -0.00002928    0.00000890   -0.00130926

     Total force =     0.001823     Total SCF correction =     0.000375

     DFT-D3 dispersion Force =     0.017812
     SCF correction compared to forces is large: reduce conv_thr to get better values


     Computing stress (Cartesian axis) and pressure


     negative rho (up, down):  3.838E-03 0.000E+00
          total   stress  (Ry/bohr**3)                   (kbar)     P=      -10.89
  -0.00012158  -0.00000453   0.00000265          -17.88       -0.67        0.39
  -0.00000453  -0.00009355   0.00000178           -0.67      -13.76        0.26
   0.00000265   0.00000178  -0.00000703            0.39        0.26       -1.03

     kinetic stress (kbar)  11681.55     -8.89      8.60
                               -8.89  11727.98     14.35
                                8.60     14.35  11720.80

     local   stress (kbar)-823554.54   3894.17    904.23
                             3894.17-837563.97    561.04
                              904.23    561.04 829200.62

     nonloc. stress (kbar)  -1081.82     -2.41     -2.76
                               -2.41  -1073.27     -1.55
                               -2.76     -1.55  -1107.15

     hartree stress (kbar) 436490.67  -1821.91   -359.28
                            -1821.91 443088.03   -219.61
                             -359.28   -219.61-383162.00

     exc-cor stress (kbar)  -5697.13      0.11     -0.68
                                0.11  -5698.28     -0.72
                               -0.68     -0.72  -5702.57

     corecor stress (kbar)    -75.43     -0.18      0.16
                               -0.18    -74.49      0.19
                                0.16      0.19    -75.56

     ewald   stress (kbar) 382226.31  -2061.80   -549.76
                            -2061.80 389588.36   -353.42
                             -549.76   -353.42-450870.98

     hubbard stress (kbar)      0.00      0.00      0.00
                                0.00      0.00      0.00
                                0.00      0.00      0.00

     DFT-D   stress (kbar)     -7.50      0.24     -0.12
                                0.24     -8.12     -0.02
                               -0.12     -0.02     -4.20

     XDM     stress (kbar)      0.00      0.00      0.00
                                0.00      0.00      0.00
                                0.00      0.00      0.00

     dft-nl  stress (kbar)      0.00      0.00      0.00
                                0.00      0.00      0.00
                                0.00      0.00      0.00

     TS-vdW  stress (kbar)      0.00      0.00      0.00
                                0.00      0.00      0.00
                                0.00      0.00      0.00

     MDB     stress (kbar)      0.00      0.00      0.00
                                0.00      0.00      0.00
                                0.00      0.00      0.00

     3D-RISM stress (kbar)      0.00      0.00      0.00
                                0.00      0.00      0.00
                                0.00      0.00      0.00

     Energy error            =      8.5E-06 Ry
     Gradient error          =      4.1E-04 Ry/Bohr

     bfgs converged in  11 scf cycles and  10 bfgs steps
     (criteria: energy <  1.0E-05 Ry, force <  5.0E-04 Ry/Bohr)

     End of BFGS Geometry Optimization

     Final energy             =  -22331.0414024972 Ry

     File ./tmp/05_Zn101_ABN_topsite_edge_on_tilted.bfgs deleted, as requested
Begin final coordinates

ATOMIC_POSITIONS (angstrom)
Zn              -1.0735560000        1.0841420000        1.1977640000    0   0   0
Zn              -2.3094850000        6.1646920000        1.1977640000    0   0   0
Zn              -4.2089141709        0.3109664342        4.3691917204
Zn              -5.4417855539        5.3934354417        4.3716825045
Zn              -8.1363352674       -0.6955552791        5.8234753829
Zn              -9.3802732131        4.3682978700        5.7808010903
Zn              -1.6915200000        3.6244170000        1.1977640000    0   0   0
Zn              -2.9274500000        8.7049670000        1.1977640000    0   0   0
Zn              -4.8244539417        2.8530336700        4.3711475549
Zn              -6.0603967884        7.9322190055        4.3672660517
Zn              -8.7558581428        1.8398586205        5.8237223262
Zn              -9.9932513764        6.9243923950        5.8065227443
Zn               4.4565960000        1.0841420000        1.1977640000    0   0   0
Zn               3.2206660000        6.1646920000        1.1977640000    0   0   0
Zn               0.4252924270        0.1080037286        3.4658496924
Zn              -0.8114431628        5.1908959235        3.4623518458
Zn              -2.0587646929       -0.4920907878        5.6875218992
Zn              -3.2952399549        4.5890626938        5.6927446673
Zn               3.8386310000        3.6244170000        1.1977640000    0   0   0
Zn               2.6027020000        8.7049670000        1.1977640000    0   0   0
Zn              -0.1918962428        2.6478630027        3.4589907333
Zn              -1.4275499520        7.7273777244        3.4710051325
Zn              -2.6799614711        2.0452199879        5.6925668037
Zn              -3.9084584290        7.1284464694        5.6859747542
Zn               1.6915200000        0.4114910000        0.8555450000    0   0   0
Zn               0.4555910000        5.4920410000        0.8555450000    0   0   0
Zn              -2.2266510495       -0.5439315586        2.8795175945
Zn              -3.4634862413        4.5363585158        2.8793870595
Zn              -6.0329418616       -1.4892669981        4.4049578238
Zn              -7.2668236482        3.5896119758        4.3946316578
Zn               1.0735560000        2.9517660000        0.8555450000    0   0   0
Zn              -0.1623740000        8.0323160000        0.8555450000    0   0   0
Zn              -2.8440970331        1.9967473262        2.8818170483
Zn              -4.0815959503        7.0761371583        2.8776512119
Zn              -6.6514744270        1.0517637394        4.4024775110
Zn              -7.8857506942        6.1304540408        4.4058224527
Zn               7.2216720000        0.4114910000        0.8555450000    0   0   0
Zn               5.9857420000        5.4920410000        0.8555450000    0   0   0
Zn               3.0118310380       -0.6197120306        2.9251030317
Zn               1.7839413533        4.4634095576        2.9121299122
Zn               0.4290385016       -1.2167627982        5.8210940269
Zn              -0.8141676748        3.8589109095        5.8016448470
Zn               6.6037070000        2.9517660000        0.8555450000    0   0   0
Zn               5.3677780000        8.0323160000        0.8555450000    0   0   0
Zn               2.3952229054        1.9190868059        2.9219934723
Zn               1.1589211752        7.0022872483        2.9250515631
Zn              -0.1902030173        1.3263141251        5.8236403478
Zn              -1.4214089922        6.3991405915        5.8349092736
C              -13.1529950743        3.7320099880       13.5404666139
C              -12.3352252913        4.0197499955       12.4110033885
C              -12.8973637682        4.1199097668       11.1224266055
C              -10.9487051372        4.2204681480       12.5634043693
C              -12.1057773974        4.4237905153       10.0261397535
C              -10.1555805429        4.5235775315       11.4683603720
C              -10.7190757460        4.6432877580       10.1798466774
N              -13.8234626211        3.5043614040       14.4696291581
N               -9.9316992966        4.9281768762        9.0881562314
H               -9.0088093245        5.3137625474        9.2469451809
H              -10.3831732245        5.2458918099        8.2335924664
H              -10.5008386390        4.1424060415       13.5541626670
H              -13.9686314827        3.9635182996       10.9944379010
H               -9.0831823894        4.6774271436       11.6040160246
H              -12.5547300353        4.5002647388        9.0327660470
End final coordinates



     Writing all to output data dir ./tmp/05_Zn101_ABN_topsite_edge_on_tilted.save/ :
     XML data file, charge density, pseudopotentials, collected wavefunctions

     init_run     :     39.85s CPU     40.33s WALL (       1 calls)
     electrons    :  12995.69s CPU  13075.66s WALL (      11 calls)
     update_pot   :      3.18s CPU      3.38s WALL (      10 calls)
     forces       :    257.80s CPU    260.41s WALL (      11 calls)
     force_dftd3  :      2.40s CPU      2.43s WALL (      11 calls)
     stress       :   2235.33s CPU   2244.66s WALL (      11 calls)
     stres_dftd3  :      2.41s CPU      2.42s WALL (      11 calls)

     Called by init_run:
     wfcinit      :     38.04s CPU     38.38s WALL (       1 calls)
     wfcinit:atom :      0.07s CPU      0.10s WALL (       5 calls)
     wfcinit:wfcr :     37.41s CPU     37.66s WALL (       5 calls)
     potinit      :      0.54s CPU      0.58s WALL (       1 calls)
     hinit0       :      0.58s CPU      0.60s WALL (       1 calls)

     Called by electrons:
     c_bands      :  11576.87s CPU  11638.44s WALL (     102 calls)
     sum_band     :   1355.49s CPU   1367.40s WALL (     102 calls)
     v_of_rho     :     20.52s CPU     22.10s WALL (     103 calls)
     v_h          :      1.23s CPU      1.61s WALL (     103 calls)
     v_xc         :     23.34s CPU     24.84s WALL (     125 calls)
     newd         :     37.76s CPU     41.94s WALL (     103 calls)
     PAW_pot      :      6.28s CPU      6.30s WALL (     113 calls)
     mix_rho      :      2.31s CPU      2.59s WALL (     102 calls)
     energy_dftd3 :      1.28s CPU      1.29s WALL (      11 calls)

     Called by c_bands:
     init_us_2    :     30.80s CPU     31.06s WALL (    1185 calls)
     cegterg      :  11522.65s CPU  11583.45s WALL (     510 calls)

     Called by sum_band:
     sum_band:wei :      0.13s CPU      0.14s WALL (     102 calls)
     sum_band:loo :   1314.53s CPU   1320.33s WALL (     102 calls)
     sum_band:buf :      6.18s CPU      6.46s WALL (     510 calls)
     sum_band:ini :     13.53s CPU     13.61s WALL (     510 calls)
     sum_band:cal :    667.67s CPU    669.44s WALL (     560 calls)
     sum_band:bec :      3.12s CPU      3.13s WALL (     560 calls)
     addusdens    :     37.23s CPU     42.73s WALL (     102 calls)
                                        0.00s GPU  (     102 calls)
     addusd:skk   :      1.40s CPU      2.25s WALL (     408 calls)
                                        0.00s GPU  (     408 calls)

     Called by *egterg:
     cdiaghg      :    871.49s CPU    874.73s WALL (    2202 calls)
     cegterg:over :   1363.83s CPU   1367.69s WALL (    1792 calls)
     cegterg:upda :    839.74s CPU    845.52s WALL (    1792 calls)
     cegterg:last :   2437.92s CPU   2444.23s WALL (    1022 calls)
     cdiaghg:chol :     65.28s CPU     65.43s WALL (    2202 calls)
     cdiaghg:inve :      8.94s CPU      8.96s WALL (    2202 calls)
     cdiaghg:para :    236.41s CPU    238.10s WALL (    4404 calls)
     h_psi        :   4434.75s CPU   4461.61s WALL (    2307 calls)
     s_psi        :   1154.65s CPU   1157.50s WALL (    2307 calls)
     g_psi        :      5.82s CPU      5.85s WALL (    1792 calls)

     Called by h_psi:
     h_psi:calbec :   1223.61s CPU   1227.14s WALL (    2307 calls)
     vloc_psi     :   2045.40s CPU   2058.03s WALL (    2307 calls)
     add_vuspsi   :   1154.74s CPU   1157.82s WALL (    2307 calls)

     General routines
     calbec       :   2192.49s CPU   2198.57s WALL (    3142 calls)
     fft          :     16.64s CPU     19.85s WALL (    1612 calls)
     ffts         :      1.80s CPU      2.14s WALL (     205 calls)
     fftw         :   1841.30s CPU   1851.56s WALL ( 1661608 calls)
     interpolate  :      2.69s CPU      3.05s WALL (     103 calls)

     Parallel routines

     PAW routines
     PAW_pot      :      6.28s CPU      6.30s WALL (     113 calls)

     PWSCF        :      4h19m CPU      4h21m WALL


   This run was terminated on:  19:22: 5   6Apr2025            

=------------------------------------------------------------------------------=
   JOB DONE.
=------------------------------------------------------------------------------=
