
     Program PWSCF v.7.3.1 starts on  5Apr2025 at 15:10:11 

     This program is part of the open-source Quantum ESPRESSO suite
     for quantum simulation of materials; please cite
         "P. Giannozzi et al., J. Phys.:Condens. Matter 21 395502 (2009);
         "P. Giannozzi et al., J. Phys.:Condens. Matter 29 465901 (2017);
         "P. Giannozzi et al., J. Chem. Phys. 152 154105 (2020);
          URL http://www.quantum-espresso.org", 
     in publications or presentations arising from this work. More details at
     http://www.quantum-espresso.org/quote

     Parallel version (MPI), running on    29 processors

     MPI processes distributed on     1 nodes
     220329 MiB available memory on the printing compute node when the environment starts

     Waiting for input...
     Reading input from standard input
Warning: card &CELL ignored
Warning: card   CELL_DOFREE = 'ALL' ignored
Warning: card / ignored

     Current dimensions of program PWSCF are:
     Max number of different atomic species (ntypx) = 10
     Max number of k-points (npk) =  40000
     Max angular momentum in pseudopotentials (lmaxx) =  4

     File ./tmp/05_Zn101_ABN_topsite_edge_on_tilted.update deleted, as requested

     File ./tmp/05_Zn101_ABN_topsite_edge_on_tilted.bfgs deleted, as requested
     file C.pbe-n-kjpaw_psl.1.0.0.UPF: wavefunction(s)  2S 2P renormalized

     R & G space division:  proc/nbgrp/npool/nimage =      29
     Subspace diagonalization in iterative solution of the eigenvalue problem:
     one sub-group per band group will be used
     custom distributed-memory algorithm (size of sub-group:  5*  5 procs)


     Parallelization info
     --------------------
     sticks:   dense  smooth     PW     G-vecs:    dense   smooth      PW
     Min         308     176     48                45962    19855    2880
     Max         309     177     49                45970    19862    2886
     Sum        8941    5109   1411              1332973   575857   83601

     Using Slab Decomposition



     bravais-lattice index     =            0
     lattice parameter (alat)  =      20.9009  a.u.
     unit-cell volume          =   16846.7507 (a.u.)^3
     number of atoms/cell      =           63
     number of atomic types    =            4
     number of electrons       =      1004.00
     number of Kohn-Sham states=          602
     kinetic-energy cutoff     =      40.0000  Ry
     charge density cutoff     =     280.0000  Ry
     scf convergence threshold =      1.0E-06
     mixing beta               =       0.4000
     number of iterations used =            8  plain     mixing
     energy convergence thresh.=      1.0E-05
     force convergence thresh. =      5.0E-04
     Exchange-correlation= PBE
                           (   1   4   3   4   0   0   0)
     nstep                     =          100


     celldm(1)=  20.900943  celldm(2)=   0.000000  celldm(3)=   0.000000
     celldm(4)=   0.000000  celldm(5)=   0.000000  celldm(6)=   0.000000

     crystal axes: (cart. coord. in units of alat)
               a(1) = (   1.000000   0.000000   0.000000 )  
               a(2) = (  -0.223489   0.918700   0.000000 )  
               a(3) = (  -4.200249  -1.021781   2.008375 )  

     reciprocal axes: (cart. coord. in units 2 pi/alat)
               b(1) = (  1.000000  0.243267  2.215131 )  
               b(2) = ( -0.000000  1.088495  0.553783 )  
               b(3) = (  0.000000 -0.000000  0.497915 )  


     PseudoPot. # 1 for Zn read from file:
     /home/yongsang/Research/PSID_server_room/qe/[00]QE/qepseudo/SSSP_1.3.0_PBE_efficiency/Zn_pbe_v1.uspp.F.UPF
     MD5 check sum: df62231357ef9e81f77b2b3087fa5675
     Pseudo is Ultrasoft, Zval = 20.0
     Generated by new atomic code, or converted to UPF format
     Using radial grid of  943 points,  6 beta functions with: 
                l(1) =   0
                l(2) =   0
                l(3) =   1
                l(4) =   1
                l(5) =   2
                l(6) =   2
     Q(r) pseudized with  8 coefficients,  rinner =    1.100   1.100   1.100
                                                       1.100   1.100

     PseudoPot. # 2 for N  read from file:
     /home/yongsang/Research/PSID_server_room/qe/[00]QE/qepseudo/SSSP_1.3.0_PBE_efficiency/N.pbe-n-radius_5.UPF
     MD5 check sum: 16739722b17309cd8fe442a2ace49922
     Pseudo is Ultrasoft + core correction, Zval =  5.0
     Generated using "atomic" code by A. Dal Corso  v.5.1
     Using radial grid of 1085 points,  4 beta functions with: 
                l(1) =   0
                l(2) =   0
                l(3) =   1
                l(4) =   1
     Q(r) pseudized with 0 coefficients 


     PseudoPot. # 3 for C  read from file:
     /home/yongsang/Research/PSID_server_room/qe/[00]QE/qepseudo/SSSP_1.3.0_PBE_efficiency/C.pbe-n-kjpaw_psl.1.0.0.UPF
     MD5 check sum: 5d2aebdfa2cae82b50a7e79e9516da0f
     Pseudo is Projector augmented-wave + core cor, Zval =  4.0
     Generated using "atomic" code by A. Dal Corso  v.5.1
     Shape of augmentation charge: PSQ
     Using radial grid of 1073 points,  4 beta functions with: 
                l(1) =   0
                l(2) =   0
                l(3) =   1
                l(4) =   1
     Q(r) pseudized with 0 coefficients 


     PseudoPot. # 4 for H  read from file:
     /home/yongsang/Research/PSID_server_room/qe/[00]QE/qepseudo/SSSP_1.3.0_PBE_efficiency/H.pbe-rrkjus_psl.1.0.0.UPF
     MD5 check sum: f52b6d4d1c606e5624b1dc7b2218f220
     Pseudo is Ultrasoft, Zval =  1.0
     Generated using "atomic" code by A. Dal Corso  v.5.1
     Using radial grid of  929 points,  2 beta functions with: 
                l(1) =   0
                l(2) =   0
     Q(r) pseudized with 0 coefficients 


     atomic species   valence    mass     pseudopotential
     Zn               20.00    65.38000     Zn( 1.00)
     N                 5.00    14.00674     N ( 1.00)
     C                 4.00    12.01070     C ( 1.00)
     H                 1.00     1.00794     H ( 1.00)

     No symmetry found


                                    s                        frac. trans.

      isym =  1     identity                                     

 cryst.   s( 1) = (     1          0          0      )
                  (     0          1          0      )
                  (     0          0          1      )

 cart.    s( 1) = (  1.0000000  0.0000000  0.0000000 )
                  (  0.0000000  1.0000000  0.0000000 )
                  (  0.0000000  0.0000000  1.0000000 )


   Cartesian axes

     site n.     atom                  positions (alat units)
         1        Zn     tau(   1) = (  -0.0970639   0.0980210   0.1082940  )
         2        Zn     tau(   2) = (  -0.2088085   0.5573710   0.1082940  )
         3        Zn     tau(   3) = (  -0.3797449   0.0283508   0.3961597  )
         4        Zn     tau(   4) = (  -0.4912642   0.4876137   0.3956030  )
         5        Zn     tau(   5) = (  -0.7357496  -0.0636515   0.5246611  )
         6        Zn     tau(   6) = (  -0.8476636   0.3943961   0.5226576  )
         7        Zn     tau(   7) = (  -0.1529361   0.3276960   0.1082940  )
         8        Zn     tau(   8) = (  -0.2646808   0.7870460   0.1082940  )
         9        Zn     tau(   9) = (  -0.4352943   0.2584378   0.3959069  )
        10        Zn     tau(  10) = (  -0.5471246   0.7169611   0.3956216  )
        11        Zn     tau(  11) = (  -0.7912211   0.1654248   0.5261158  )
        12        Zn     tau(  12) = (  -0.9026122   0.6258103   0.5253340  )
        13        Zn     tau(  13) = (   0.4029362   0.0980210   0.1082940  )
        14        Zn     tau(  14) = (   0.2911915   0.5573710   0.1082940  )
        15        Zn     tau(  15) = (   0.0389826   0.0098329   0.3129025  )
        16        Zn     tau(  16) = (  -0.0722334   0.4697307   0.3126443  )
        17        Zn     tau(  17) = (  -0.1863601  -0.0443121   0.5161458  )
        18        Zn     tau(  18) = (  -0.2978135   0.4149025   0.5169625  )
        19        Zn     tau(  19) = (   0.3470638   0.3276960   0.1082940  )
        20        Zn     tau(  20) = (   0.2353192   0.7870460   0.1082940  )
        21        Zn     tau(  21) = (  -0.0167432   0.2396089   0.3120092  )
        22        Zn     tau(  22) = (  -0.1281781   0.6989320   0.3134422  )
        23        Zn     tau(  23) = (  -0.2423161   0.1851644   0.5166948  )
        24        Zn     tau(  24) = (  -0.3533708   0.6443580   0.5161059  )
        25        Zn     tau(  25) = (   0.1529361   0.0372043   0.0773528  )
        26        Zn     tau(  26) = (   0.0411915   0.4965543   0.0773528  )
        27        Zn     tau(  27) = (  -0.2011414  -0.0490508   0.2608353  )
        28        Zn     tau(  28) = (  -0.3123341   0.4102883   0.2611056  )
        29        Zn     tau(  29) = (  -0.5447079  -0.1348199   0.3980829  )
        30        Zn     tau(  30) = (  -0.6564112   0.3245091   0.3979545  )
        31        Zn     tau(  31) = (   0.0970639   0.2668793   0.0773528  )
        32        Zn     tau(  32) = (  -0.0146808   0.7262293   0.0773528  )
        33        Zn     tau(  33) = (  -0.2565177   0.1806976   0.2618977  )
        34        Zn     tau(  34) = (  -0.3686089   0.6399101   0.2603145  )
        35        Zn     tau(  35) = (  -0.6006151   0.0953372   0.3979026  )
        36        Zn     tau(  36) = (  -0.7123966   0.5540970   0.3985831  )
        37        Zn     tau(  37) = (   0.6529362   0.0372043   0.0773528  )
        38        Zn     tau(  38) = (   0.5411915   0.4965543   0.0773528  )
        39        Zn     tau(  39) = (   0.2735272  -0.0557070   0.2639813  )
        40        Zn     tau(  40) = (   0.1620723   0.4036480   0.2628425  )
        41        Zn     tau(  41) = (   0.0381795  -0.1096996   0.5251024  )
        42        Zn     tau(  42) = (  -0.0736083   0.3490087   0.5234401  )
        43        Zn     tau(  43) = (   0.5970639   0.2668793   0.0773528  )
        44        Zn     tau(  44) = (   0.4853193   0.7262293   0.0773528  )
        45        Zn     tau(  45) = (   0.2171793   0.1738080   0.2639167  )
        46        Zn     tau(  46) = (   0.1055073   0.6331203   0.2644127  )
        47        Zn     tau(  47) = (  -0.0168828   0.1201368   0.5261541  )
        48        Zn     tau(  48) = (  -0.1278834   0.5792449   0.5271549  )
        49        C      tau(  49) = (  -1.1889082   0.3386145   1.2259224  )
        50        C      tau(  50) = (  -1.1148225   0.3627741   1.1233824  )
        51        C      tau(  51) = (  -1.1658188   0.3720700   1.0069383  )
        52        C      tau(  52) = (  -0.9893964   0.3808902   1.1367428  )
        53        C      tau(  53) = (  -1.0943723   0.3992430   0.9075976  )
        54        C      tau(  54) = (  -0.9178593   0.4084746   1.0375613  )
        55        C      tau(  55) = (  -0.9689428   0.4189417   0.9210670  )
        56        N      tau(  56) = (  -1.2497199   0.3198702   1.3102740  )
        57        N      tau(  57) = (  -0.8980136   0.4448377   0.8222797  )
        58        H      tau(  58) = (  -0.8137613   0.4779088   0.8359368  )
        59        H      tau(  59) = (  -0.9381519   0.4721620   0.7441969  )
        60        H      tau(  60) = (  -0.9489703   0.3737109   1.2263185  )
        61        H      tau(  61) = (  -1.2626067   0.3576197   0.9952890  )
        62        H      tau(  62) = (  -0.8209320   0.4225243   1.0496969  )
        63        H      tau(  63) = (  -1.1347204   0.4065063   0.8177154  )

     --------------------------------------------
     DFT-D3 Dispersion Correction (3-body terms):
     --------------------------------------------
       Reference C6 values for interpolation: 

         atom   Coordination number   C6
         H          0.912             6.05
         H          0.000            15.18
         C          0.000            98.23
         C          0.987            86.49
         C          1.998            58.72
         C          2.999            51.56
         C          3.984            36.41
         N          0.000            50.54
         N          0.994            44.25
         N          2.014            39.35
         N          2.990            31.16
         Zn         0.000           681.04
         Zn         1.942           306.91

       Values used:

         atom   Coordination number  R0_AB[au]  C6      C8
         Zn         6.248            3.053    306.91  23930.67
         Zn         6.239            3.053    306.91  23930.67
         Zn         6.986            3.053    306.91  23930.67
         Zn         6.990            3.053    306.91  23930.67
         Zn         5.024            3.053    306.91  23930.67
         Zn         5.068            3.053    306.91  23930.67
         Zn         6.247            3.053    306.91  23930.67
         Zn         6.236            3.053    306.91  23930.67
         Zn         6.996            3.053    306.91  23930.67
         Zn         6.983            3.053    306.91  23930.67
         Zn         4.985            3.053    306.91  23930.67
         Zn         5.014            3.053    306.91  23930.67
         Zn         4.946            3.053    306.91  23930.67
         Zn         4.950            3.053    306.91  23930.67
         Zn         7.233            3.053    306.91  23930.67
         Zn         7.249            3.053    306.91  23930.67
         Zn         5.868            3.053    306.91  23930.67
         Zn         5.857            3.053    306.91  23930.67
         Zn         4.958            3.053    306.91  23930.67
         Zn         4.939            3.053    306.91  23930.67
         Zn         7.277            3.053    306.91  23930.67
         Zn         7.216            3.053    306.91  23930.67
         Zn         5.881            3.053    306.91  23930.67
         Zn         5.859            3.053    306.91  23930.67
         Zn         5.613            3.053    306.91  23930.67
         Zn         5.624            3.053    306.91  23930.67
         Zn         7.945            3.053    306.91  23930.67
         Zn         7.934            3.053    306.91  23930.67
         Zn         7.047            3.053    306.91  23930.67
         Zn         7.049            3.053    306.91  23930.67
         Zn         5.634            3.053    306.91  23930.67
         Zn         5.603            3.053    306.91  23930.67
         Zn         7.938            3.053    306.91  23930.67
         Zn         7.945            3.053    306.91  23930.67
         Zn         7.041            3.053    306.91  23930.67
         Zn         7.045            3.053    306.91  23930.67
         Zn         4.894            3.053    306.91  23930.67
         Zn         4.908            3.053    306.91  23930.67
         Zn         8.380            3.053    306.91  23930.67
         Zn         8.420            3.053    306.91  23930.67
         Zn         6.049            3.053    306.91  23930.67
         Zn         6.082            3.053    306.91  23930.67
         Zn         4.889            3.053    306.91  23930.67
         Zn         4.914            3.053    306.91  23930.67
         Zn         8.366            3.053    306.91  23930.67
         Zn         8.380            3.053    306.91  23930.67
         Zn         6.014            3.053    306.91  23930.67
         Zn         5.993            3.053    306.91  23930.67
         C          2.097            2.750     58.61   1695.19
         C          3.145            2.750     50.57   1462.63
         C          3.169            2.750     50.37   1456.72
         C          3.169            2.750     50.37   1456.88
         C          3.166            2.750     50.40   1457.62
         C          3.163            2.750     50.43   1458.39
         C          3.142            2.750     50.59   1463.27
         N          1.021            2.478     44.24    976.02
         N          3.094            2.478     31.24    689.14
         H          1.007            2.062      6.17     74.64
         H          1.016            2.062      6.17     74.55
         H          1.003            2.062      6.18     74.68
         H          1.004            2.062      6.18     74.68
         H          1.003            2.062      6.18     74.68
         H          1.005            2.062      6.18     74.67

         Molecular C6 ( Ry / a.u.^6 ) =    840998.85


   Crystallographic axes

     site n.     atom                  positions (cryst. coord.)
         1        Zn     tau(   1) = (  0.1666667  0.1666667  0.0539212  )
         2        Zn     tau(   2) = (  0.1666668  0.6666667  0.0539212  )
         3        Zn     tau(   3) = (  0.5046977  0.2502461  0.1972539  )
         4        Zn     tau(   4) = (  0.5036687  0.7498430  0.1969767  )
         5        Zn     tau(   5) = (  0.4109594  0.2212640  0.2612366  )
         6        Zn     tau(   6) = (  0.4060351  0.7187368  0.2602391  )
         7        Zn     tau(   7) = (  0.1666668  0.4166667  0.0539212  )
         8        Zn     tau(   8) = (  0.1666667  0.9166667  0.0539212  )
         9        Zn     tau(   9) = (  0.5045607  0.5005546  0.1971280  )
        10        Zn     tau(  10) = (  0.5036420  0.9994967  0.1969859  )
        11        Zn     tau(  11) = (  0.4144368  0.4714179  0.2619609  )
        12        Zn     tau(  12) = (  0.4133106  0.9721121  0.2615717  )
        13        Zn     tau(  13) = (  0.6666668  0.1666667  0.0539212  )
        14        Zn     tau(  14) = (  0.6666667  0.6666667  0.0539212  )
        15        Zn     tau(  15) = (  0.7344948  0.1839831  0.1557989  )
        16        Zn     tau(  16) = (  0.7345846  0.6844364  0.1556703  )
        17        Zn     tau(  17) = (  0.9461911  0.2375992  0.2569968  )
        18        Zn     tau(  18) = (  0.9482585  0.7379041  0.2574034  )
        19        Zn     tau(  19) = (  0.6666668  0.4166667  0.0539212  )
        20        Zn     tau(  20) = (  0.6666668  0.9166667  0.0539212  )
        21        Zn     tau(  21) = (  0.7326871  0.4335983  0.1553541  )
        22        Zn     tau(  22) = (  0.7361644  0.9343626  0.1560676  )
        23        Zn     tau(  23) = (  0.9472751  0.4876872  0.2572701  )
        24        Zn     tau(  24) = (  0.9466225  0.9871908  0.2569769  )
        25        Zn     tau(  25) = (  0.3333333  0.0833333  0.0385151  )
        26        Zn     tau(  26) = (  0.3333333  0.5833333  0.0385151  )
        27        Zn     tau(  27) = (  0.3647106  0.0910545  0.1298738  )
        28        Zn     tau(  28) = (  0.3658586  0.5911924  0.1300084  )
        29        Zn     tau(  29) = (  0.3043008  0.0737008  0.1982114  )
        30        Zn     tau(  30) = (  0.3040525  0.5736068  0.1981475  )
        31        Zn     tau(  31) = (  0.3333333  0.3333333  0.0385151  )
        32        Zn     tau(  32) = (  0.3333333  0.8333333  0.0385151  )
        33        Zn     tau(  33) = (  0.3675778  0.3417228  0.1304028  )
        34        Zn     tau(  34) = (  0.3636908  0.8406965  0.1296145  )
        35        Zn     tau(  35) = (  0.3039837  0.3241256  0.1981216  )
        36        Zn     tau(  36) = (  0.3053107  0.8238601  0.1984605  )
        37        Zn     tau(  37) = (  0.8333333  0.0833333  0.0385151  )
        38        Zn     tau(  38) = (  0.8333333  0.5833333  0.0385151  )
        39        Zn     tau(  39) = (  0.8447288  0.0855515  0.1314402  )
        40        Zn     tau(  40) = (  0.8424970  0.5849263  0.1308732  )
        41        Zn     tau(  41) = (  1.1746640  0.1713852  0.2614564  )
        42        Zn     tau(  42) = (  1.1707825  0.6697662  0.2606287  )
        43        Zn     tau(  43) = (  0.8333333  0.3333333  0.0385151  )
        44        Zn     tau(  44) = (  0.8333333  0.8333333  0.0385151  )
        45        Zn     tau(  45) = (  0.8440712  0.3353416  0.1314081  )
        46        Zn     tau(  46) = (  0.8452335  0.8355752  0.1316551  )
        47        Zn     tau(  47) = (  1.1778429  0.4221434  0.2619800  )
        48        Zn     tau(  48) = (  1.1807450  0.9224343  0.2624783  )
        49        C      tau(  49) = (  1.6090447  1.0474748  0.6104052  )
        50        C      tau(  50) = (  1.4618681  1.0169875  0.5593490  )
        51        C      tau(  51) = (  1.1551940  0.9626212  0.5013697  )
        52        C      tau(  52) = (  1.6212960  1.0441055  0.5660013  )
        53        C      tau(  53) = (  1.0131982  0.9371858  0.4519065  )
        54        C      tau(  54) = (  1.4798435  1.0192060  0.5166173  )
        55        C      tau(  55) = (  1.1732561  0.9660868  0.4586131  )
        56        N      tau(  56) = (  1.7305229  1.0737842  0.6524051  )
        57        N      tau(  57) = (  1.0316582  0.9395678  0.4094254  )
        58        H      tau(  58) = (  1.1542077  0.9831286  0.4162254  )
        59        H      tau(  59) = (  0.8252033  0.9260693  0.3705468  )
        60        H      tau(  60) = (  1.8583977  1.0858964  0.6106024  )
        61        H      tau(  61) = (  1.0290861  0.9404410  0.4955693  )
        62        H      tau(  62) = (  1.6070707  1.0412195  0.5226598  )
        63        H      tau(  63) = (  0.7755161  0.8953167  0.4071527  )

     number of k points=     5  Marzari-Vanderbilt smearing, width (Ry)=  0.0200
                       cart. coord. in units 2pi/alat
        k(    1) = (   0.0000000   0.0000000   0.0000000), wk =   0.2222222
        k(    2) = (   0.0000000   0.3628315   0.1845943), wk =   0.4444444
        k(    3) = (   0.3333333   0.0810890   0.7383771), wk =   0.4444444
        k(    4) = (   0.3333333   0.4439205   0.9229714), wk =   0.4444444
        k(    5) = (   0.3333333  -0.2817426   0.5537829), wk =   0.4444444

                       cryst. coord.
        k(    1) = (   0.0000000   0.0000000   0.0000000), wk =   0.2222222
        k(    2) = (   0.0000000   0.3333333   0.0000000), wk =   0.4444444
        k(    3) = (   0.3333333   0.0000000   0.0000000), wk =   0.4444444
        k(    4) = (   0.3333333   0.3333333   0.0000000), wk =   0.4444444
        k(    5) = (   0.3333333  -0.3333333   0.0000000), wk =   0.4444444

     Dense  grid:  1332973 G-vectors     FFT dimensions: ( 120, 108, 540)

     Smooth grid:   575857 G-vectors     FFT dimensions: (  90,  80, 405)

     Dynamical RAM for                 wfc:      22.79 MB

     Dynamical RAM for     wfc (w. buffer):     136.74 MB

     Dynamical RAM for           str. fact:       2.81 MB

     Dynamical RAM for           local pot:       0.00 MB

     Dynamical RAM for          nlocal pot:      35.89 MB

     Dynamical RAM for                qrad:       5.37 MB

     Dynamical RAM for          rho,v,vnew:       7.74 MB

     Dynamical RAM for               rhoin:       2.58 MB

     Dynamical RAM for            rho*nmix:      11.22 MB

     Dynamical RAM for           G-vectors:       2.78 MB

     Dynamical RAM for          h,s,v(r/c):       2.64 MB

     Dynamical RAM for          <psi|beta>:       8.71 MB

     Dynamical RAM for                 psi:      45.58 MB

     Dynamical RAM for                hpsi:      45.58 MB

     Dynamical RAM for                spsi:      45.58 MB

     Dynamical RAM for      wfcinit/wfcrot:      60.58 MB

     Dynamical RAM for           addusdens:     164.12 MB

     Dynamical RAM for          addusforce:     230.58 MB

     Dynamical RAM for         addusstress:     140.97 MB

     Estimated static dynamical RAM per process >     206.81 MB

     Estimated max dynamical RAM per process >     448.61 MB

     Estimated total dynamical RAM >      12.70 GB

     Initial potential from superposition of free atoms

     starting charge    1003.9929, renormalised to    1004.0000

     negative rho (up, down):  1.936E-03 0.000E+00
     Starting wfcs are  666 randomized atomic wfcs
     Checking if some PAW data can be deallocated... 
       PAW data deallocated on   25 nodes for type:  3

     total cpu time spent up to now is       40.5 secs

     Self-consistent Calculation

     iteration #  1     ecut=    40.00 Ry     beta= 0.40
     Davidson diagonalization with overlap

---- Real-time Memory Report at c_bands before calling an iterative solver
           433 MiB given to the printing process from OS
             0 MiB allocation reported by mallinfo(arena+hblkhd)
        213488 MiB available memory on the node where the printing process lives
------------------
     ethr =  1.00E-02,  avg # of iterations =  7.6

     negative rho (up, down):  2.459E-03 0.000E+00

     total cpu time spent up to now is      186.4 secs

     total energy              =  -22326.30263325 Ry
     estimated scf accuracy    <      10.44004044 Ry

     iteration #  2     ecut=    40.00 Ry     beta= 0.40
     Davidson diagonalization with overlap

---- Real-time Memory Report at c_bands before calling an iterative solver
           589 MiB given to the printing process from OS
             0 MiB allocation reported by mallinfo(arena+hblkhd)
        212461 MiB available memory on the node where the printing process lives
------------------
     ethr =  1.04E-03,  avg # of iterations =  9.6

     negative rho (up, down):  3.887E-03 0.000E+00

     total cpu time spent up to now is      338.2 secs

     total energy              =  -22311.45241688 Ry
     estimated scf accuracy    <     278.94317942 Ry

     iteration #  3     ecut=    40.00 Ry     beta= 0.40
     Davidson diagonalization with overlap

---- Real-time Memory Report at c_bands before calling an iterative solver
           593 MiB given to the printing process from OS
             0 MiB allocation reported by mallinfo(arena+hblkhd)
        212371 MiB available memory on the node where the printing process lives
------------------
     ethr =  1.04E-03,  avg # of iterations =  8.0

     negative rho (up, down):  3.602E-03 0.000E+00

     total cpu time spent up to now is      514.3 secs

     total energy              =  -22330.37690943 Ry
     estimated scf accuracy    <       6.32180152 Ry

     iteration #  4     ecut=    40.00 Ry     beta= 0.40
     Davidson diagonalization with overlap

---- Real-time Memory Report at c_bands before calling an iterative solver
           594 MiB given to the printing process from OS
             0 MiB allocation reported by mallinfo(arena+hblkhd)
        212310 MiB available memory on the node where the printing process lives
------------------
     ethr =  6.30E-04,  avg # of iterations =  3.8

     negative rho (up, down):  3.503E-03 0.000E+00

     total cpu time spent up to now is      635.9 secs

     total energy              =  -22330.67547279 Ry
     estimated scf accuracy    <       5.99634999 Ry

     iteration #  5     ecut=    40.00 Ry     beta= 0.40
     Davidson diagonalization with overlap

---- Real-time Memory Report at c_bands before calling an iterative solver
           599 MiB given to the printing process from OS
             0 MiB allocation reported by mallinfo(arena+hblkhd)
        212292 MiB available memory on the node where the printing process lives
------------------
     ethr =  5.97E-04,  avg # of iterations =  2.0

     negative rho (up, down):  3.483E-03 0.000E+00

     total cpu time spent up to now is      750.9 secs

     total energy              =  -22331.05454221 Ry
     estimated scf accuracy    <       0.36782741 Ry

     iteration #  6     ecut=    40.00 Ry     beta= 0.40
     Davidson diagonalization with overlap

---- Real-time Memory Report at c_bands before calling an iterative solver
           601 MiB given to the printing process from OS
             0 MiB allocation reported by mallinfo(arena+hblkhd)
        212266 MiB available memory on the node where the printing process lives
------------------
     ethr =  3.66E-05,  avg # of iterations =  7.6

     negative rho (up, down):  3.568E-03 0.000E+00

     total cpu time spent up to now is      882.8 secs

     total energy              =  -22331.05674001 Ry
     estimated scf accuracy    <       0.16781109 Ry

     iteration #  7     ecut=    40.00 Ry     beta= 0.40
     Davidson diagonalization with overlap

---- Real-time Memory Report at c_bands before calling an iterative solver
           608 MiB given to the printing process from OS
             0 MiB allocation reported by mallinfo(arena+hblkhd)
        212230 MiB available memory on the node where the printing process lives
------------------
     ethr =  1.67E-05,  avg # of iterations = 13.0

     negative rho (up, down):  3.650E-03 0.000E+00

     total cpu time spent up to now is     1015.9 secs

     total energy              =  -22331.05655072 Ry
     estimated scf accuracy    <       0.06706818 Ry

     iteration #  8     ecut=    40.00 Ry     beta= 0.40
     Davidson diagonalization with overlap

---- Real-time Memory Report at c_bands before calling an iterative solver
           609 MiB given to the printing process from OS
             0 MiB allocation reported by mallinfo(arena+hblkhd)
        212198 MiB available memory on the node where the printing process lives
------------------
     ethr =  6.68E-06,  avg # of iterations = 14.2

     negative rho (up, down):  3.703E-03 0.000E+00

     total cpu time spent up to now is     1153.9 secs

     total energy              =  -22331.05504880 Ry
     estimated scf accuracy    <       0.06123605 Ry

     iteration #  9     ecut=    40.00 Ry     beta= 0.40
     Davidson diagonalization with overlap

---- Real-time Memory Report at c_bands before calling an iterative solver
           615 MiB given to the printing process from OS
             0 MiB allocation reported by mallinfo(arena+hblkhd)
        212165 MiB available memory on the node where the printing process lives
------------------
     ethr =  6.10E-06,  avg # of iterations =  3.0

     negative rho (up, down):  3.737E-03 0.000E+00

     total cpu time spent up to now is     1275.9 secs

     total energy              =  -22331.05514940 Ry
     estimated scf accuracy    <       0.03171153 Ry

     iteration # 10     ecut=    40.00 Ry     beta= 0.40
     Davidson diagonalization with overlap

---- Real-time Memory Report at c_bands before calling an iterative solver
           616 MiB given to the printing process from OS
             0 MiB allocation reported by mallinfo(arena+hblkhd)
        212130 MiB available memory on the node where the printing process lives
------------------
     c_bands:  1 eigenvalues not converged
     ethr =  3.16E-06,  avg # of iterations = 16.8

     negative rho (up, down):  3.772E-03 0.000E+00

     total cpu time spent up to now is     1414.6 secs

     total energy              =  -22331.05179395 Ry
     estimated scf accuracy    <       0.02615897 Ry

     iteration # 11     ecut=    40.00 Ry     beta= 0.40
     Davidson diagonalization with overlap

---- Real-time Memory Report at c_bands before calling an iterative solver
           617 MiB given to the printing process from OS
             0 MiB allocation reported by mallinfo(arena+hblkhd)
        212108 MiB available memory on the node where the printing process lives
------------------
     c_bands:  1 eigenvalues not converged
     ethr =  2.61E-06,  avg # of iterations = 14.6

     negative rho (up, down):  3.918E-03 0.000E+00

     total cpu time spent up to now is     1551.2 secs

     total energy              =  -22331.03829549 Ry
     estimated scf accuracy    <       0.02000644 Ry

     iteration # 12     ecut=    40.00 Ry     beta= 0.40
     Davidson diagonalization with overlap

---- Real-time Memory Report at c_bands before calling an iterative solver
           617 MiB given to the printing process from OS
             0 MiB allocation reported by mallinfo(arena+hblkhd)
        212104 MiB available memory on the node where the printing process lives
------------------
     c_bands:  1 eigenvalues not converged
     ethr =  1.99E-06,  avg # of iterations = 17.8

     negative rho (up, down):  3.883E-03 0.000E+00

     total cpu time spent up to now is     1725.5 secs

     total energy              =  -22331.04061759 Ry
     estimated scf accuracy    <       0.00332002 Ry

     iteration # 13     ecut=    40.00 Ry     beta= 0.40
     Davidson diagonalization with overlap

---- Real-time Memory Report at c_bands before calling an iterative solver
           617 MiB given to the printing process from OS
             0 MiB allocation reported by mallinfo(arena+hblkhd)
        212093 MiB available memory on the node where the printing process lives
------------------
     ethr =  3.31E-07,  avg # of iterations =  7.4

     negative rho (up, down):  3.854E-03 0.000E+00

     total cpu time spent up to now is     1850.6 secs

     total energy              =  -22331.04087587 Ry
     estimated scf accuracy    <       0.00067407 Ry

     iteration # 14     ecut=    40.00 Ry     beta= 0.40
     Davidson diagonalization with overlap

---- Real-time Memory Report at c_bands before calling an iterative solver
           617 MiB given to the printing process from OS
             0 MiB allocation reported by mallinfo(arena+hblkhd)
        212088 MiB available memory on the node where the printing process lives
------------------
     ethr =  6.71E-08,  avg # of iterations =  2.6

     negative rho (up, down):  3.855E-03 0.000E+00

     total cpu time spent up to now is     1970.1 secs

     total energy              =  -22331.04077813 Ry
     estimated scf accuracy    <       0.00326729 Ry

     iteration # 15     ecut=    40.00 Ry     beta= 0.40
     Davidson diagonalization with overlap

---- Real-time Memory Report at c_bands before calling an iterative solver
           617 MiB given to the printing process from OS
             0 MiB allocation reported by mallinfo(arena+hblkhd)
        212078 MiB available memory on the node where the printing process lives
------------------
     ethr =  6.71E-08,  avg # of iterations =  2.8

     negative rho (up, down):  3.841E-03 0.000E+00

     total cpu time spent up to now is     2086.1 secs

     total energy              =  -22331.04101177 Ry
     estimated scf accuracy    <       0.00018546 Ry

     iteration # 16     ecut=    40.00 Ry     beta= 0.40
     Davidson diagonalization with overlap

---- Real-time Memory Report at c_bands before calling an iterative solver
           617 MiB given to the printing process from OS
             0 MiB allocation reported by mallinfo(arena+hblkhd)
        212076 MiB available memory on the node where the printing process lives
------------------
     ethr =  1.85E-08,  avg # of iterations =  2.0

     negative rho (up, down):  3.836E-03 0.000E+00

     total cpu time spent up to now is     2199.7 secs

     total energy              =  -22331.04102422 Ry
     estimated scf accuracy    <       0.00006974 Ry

     iteration # 17     ecut=    40.00 Ry     beta= 0.40
     Davidson diagonalization with overlap

---- Real-time Memory Report at c_bands before calling an iterative solver
           617 MiB given to the printing process from OS
             0 MiB allocation reported by mallinfo(arena+hblkhd)
        212073 MiB available memory on the node where the printing process lives
------------------
     ethr =  6.95E-09,  avg # of iterations =  2.2

     negative rho (up, down):  3.833E-03 0.000E+00

     total cpu time spent up to now is     2316.1 secs

     total energy              =  -22331.04103171 Ry
     estimated scf accuracy    <       0.00000960 Ry

     iteration # 18     ecut=    40.00 Ry     beta= 0.40
     Davidson diagonalization with overlap

---- Real-time Memory Report at c_bands before calling an iterative solver
           617 MiB given to the printing process from OS
             0 MiB allocation reported by mallinfo(arena+hblkhd)
        212061 MiB available memory on the node where the printing process lives
------------------
     ethr =  9.56E-10,  avg # of iterations =  2.2

     negative rho (up, down):  3.832E-03 0.000E+00

     total cpu time spent up to now is     2432.9 secs

     total energy              =  -22331.04103233 Ry
     estimated scf accuracy    <       0.00000408 Ry

     iteration # 19     ecut=    40.00 Ry     beta= 0.40
     Davidson diagonalization with overlap

---- Real-time Memory Report at c_bands before calling an iterative solver
           617 MiB given to the printing process from OS
             0 MiB allocation reported by mallinfo(arena+hblkhd)
        212060 MiB available memory on the node where the printing process lives
------------------
     ethr =  4.06E-10,  avg # of iterations =  2.0

     negative rho (up, down):  3.831E-03 0.000E+00

     total cpu time spent up to now is     2550.3 secs

     total energy              =  -22331.04103264 Ry
     estimated scf accuracy    <       0.00000279 Ry

     iteration # 20     ecut=    40.00 Ry     beta= 0.40
     Davidson diagonalization with overlap

---- Real-time Memory Report at c_bands before calling an iterative solver
           617 MiB given to the printing process from OS
             0 MiB allocation reported by mallinfo(arena+hblkhd)
        212056 MiB available memory on the node where the printing process lives
------------------
     ethr =  2.78E-10,  avg # of iterations =  2.0

     negative rho (up, down):  3.831E-03 0.000E+00

     total cpu time spent up to now is     2668.1 secs

     total energy              =  -22331.04103295 Ry
     estimated scf accuracy    <       0.00000109 Ry

     iteration # 21     ecut=    40.00 Ry     beta= 0.40
     Davidson diagonalization with overlap

---- Real-time Memory Report at c_bands before calling an iterative solver
           617 MiB given to the printing process from OS
             0 MiB allocation reported by mallinfo(arena+hblkhd)
        212042 MiB available memory on the node where the printing process lives
------------------
     ethr =  1.09E-10,  avg # of iterations =  2.0

     negative rho (up, down):  3.831E-03 0.000E+00

     total cpu time spent up to now is     2784.3 secs

     End of self-consistent calculation

          k = 0.0000 0.0000 0.0000 ( 71933 PWs)   bands (ev):

  -125.3634-125.3575-125.3549-125.3540-125.3346-125.3330-125.3310-125.3299
  -125.2469-125.2459-125.2433-125.2418-125.2409-125.2403-125.2379-125.2367
  -125.1749-125.1650-125.1637-125.1592-125.1575-125.1550-125.1547-125.1535
  -125.1526-125.1523-125.1513-125.1435-125.1046-125.1006-125.0981-125.0953
  -125.0641-125.0631-125.0627-125.0615-125.0594-125.0582-125.0572-125.0560
  -125.0361-125.0331-125.0303-125.0274-125.0046-125.0016-124.9810-124.9752
   -79.5208 -79.5179 -79.5148 -79.5123 -79.5112 -79.5075 -79.5055 -79.5031
   -79.5019 -79.4992 -79.4981 -79.4952 -79.4935 -79.4915 -79.4912 -79.4902
   -79.4891 -79.4814 -79.4798 -79.4778 -79.4767 -79.4765 -79.4761 -79.4636
   -79.4096 -79.4056 -79.4050 -79.4024 -79.4013 -79.3966 -79.3962 -79.3933
   -79.3922 -79.3898 -79.3892 -79.3884 -79.3881 -79.3870 -79.3861 -79.3859
   -79.3853 -79.3842 -79.3828 -79.3822 -79.3811 -79.3795 -79.3781 -79.3740
   -79.3314 -79.3285 -79.3259 -79.3221 -79.3204 -79.3185 -79.3175 -79.3167
   -79.3152 -79.3139 -79.3129 -79.3124 -79.3119 -79.3117 -79.3111 -79.3107
   -79.3090 -79.3082 -79.3080 -79.3076 -79.3073 -79.3061 -79.3058 -79.3049
   -79.3047 -79.3038 -79.3019 -79.3008 -79.3003 -79.2993 -79.2989 -79.2966
   -79.2958 -79.2917 -79.2908 -79.2868 -79.2755 -79.2712 -79.2685 -79.2657
   -79.2521 -79.2484 -79.2476 -79.2460 -79.2435 -79.2360 -79.2353 -79.2346
   -79.2341 -79.2327 -79.2317 -79.2304 -79.2292 -79.2279 -79.2265 -79.2243
   -79.2220 -79.2171 -79.2122 -79.2120 -79.2111 -79.2098 -79.2078 -79.2074
   -79.2064 -79.2049 -79.2038 -79.2033 -79.2032 -79.2023 -79.2014 -79.1999
   -79.1987 -79.1972 -79.1941 -79.1911 -79.1884 -79.1859 -79.1830 -79.1801
   -79.1773 -79.1758 -79.1749 -79.1731 -79.1709 -79.1623 -79.1556 -79.1510
   -79.1497 -79.1491 -79.1439 -79.1399 -79.1303 -79.1265 -79.1238 -79.1127
   -17.9866 -16.6213 -15.7619 -13.3694 -13.2932 -10.3718 -10.1081  -8.3250
    -8.2084  -7.6869  -7.6155  -7.5526  -7.2893  -7.1188  -7.1084  -7.1049
    -7.0785  -7.0288  -7.0162  -7.0027  -6.9470  -6.9452  -6.9167  -6.8911
    -6.8830  -6.8522  -6.8330  -6.8121  -6.7998  -6.7849  -6.7837  -6.7727
    -6.7638  -6.7341  -6.7036  -6.7023  -6.6953  -6.6816  -6.6805  -6.6642
    -6.6632  -6.6355  -6.6295  -6.6278  -6.6238  -6.6164  -6.6143  -6.6130
    -6.6040  -6.6018  -6.5975  -6.5864  -6.5858  -6.5806  -6.5745  -6.5612
    -6.5607  -6.5594  -6.5584  -6.5524  -6.5426  -6.5222  -6.5172  -6.5046
    -6.4985  -6.4952  -6.4832  -6.4806  -6.4702  -6.4527  -6.4472  -6.4375
    -6.4336  -6.4178  -6.4147  -6.4050  -6.4031  -6.3914  -6.3873  -6.3787
    -6.3765  -6.3615  -6.3561  -6.3500  -6.3431  -6.3345  -6.3263  -6.3113
    -6.3078  -6.2956  -6.2905  -6.2881  -6.2859  -6.2787  -6.2764  -6.2685
    -6.2641  -6.2606  -6.2575  -6.2565  -6.2367  -6.2344  -6.2292  -6.2268
    -6.2244  -6.2225  -6.1960  -6.1877  -6.1862  -6.1781  -6.1532  -6.1516
    -6.1508  -6.1349  -6.1326  -6.1322  -6.1251  -6.1181  -6.1085  -6.1051
    -6.1029  -6.0987  -6.0978  -6.0916  -6.0899  -6.0832  -6.0797  -6.0777
    -6.0727  -6.0646  -6.0620  -6.0563  -6.0484  -6.0423  -6.0344  -6.0339
    -6.0297  -6.0291  -6.0229  -6.0124  -6.0100  -6.0100  -6.0093  -6.0041
    -6.0005  -5.9991  -5.9930  -5.9924  -5.9829  -5.9819  -5.9728  -5.9675
    -5.9668  -5.9485  -5.9463  -5.9444  -5.9317  -5.9306  -5.9239  -5.9171
    -5.9160  -5.9077  -5.9062  -5.8965  -5.8947  -5.8913  -5.8908  -5.8897
    -5.8860  -5.8838  -5.8706  -5.8704  -5.8664  -5.8659  -5.8578  -5.8570
    -5.8563  -5.8488  -5.8409  -5.8387  -5.8374  -5.8343  -5.8266  -5.8241
    -5.8135  -5.8127  -5.8105  -5.8060  -5.8043  -5.8000  -5.7935  -5.7880
    -5.7789  -5.7751  -5.7724  -5.7622  -5.7582  -5.7573  -5.7566  -5.7555
    -5.7498  -5.7396  -5.7377  -5.7349  -5.7313  -5.7291  -5.7243  -5.7240
    -5.7127  -5.7094  -5.7090  -5.7072  -5.6963  -5.6961  -5.6944  -5.6920
    -5.6900  -5.6864  -5.6830  -5.6821  -5.6628  -5.6601  -5.6599  -5.6588
    -5.6516  -5.6507  -5.6460  -5.6452  -5.6448  -5.6372  -5.6347  -5.6278
    -5.6256  -5.6253  -5.6226  -5.6200  -5.6143  -5.6119  -5.5988  -5.5906
    -5.5781  -5.5750  -5.5614  -5.5599  -5.5569  -5.5452  -5.5402  -5.5333
    -5.5215  -5.5209  -5.5066  -5.4963  -5.4824  -5.4640  -5.4609  -5.4140
    -5.4070  -5.3210  -5.2825  -5.2797  -5.0689  -4.7459  -4.5567  -4.5308
    -4.5142  -4.3552  -4.2852  -4.0572  -4.0543  -3.7756  -3.7701  -3.3969
    -3.2184  -2.9243  -2.5974  -2.5942  -2.5680  -2.4638  -2.2253  -2.1980
    -2.0236  -2.0203  -1.9624  -1.8668  -1.7868  -1.7794  -1.6332  -1.6178
    -1.5295  -1.4864  -1.4578  -1.2005  -1.0705  -1.0635  -0.5103  -0.2992
    -0.2302  -0.1826  -0.1062  -0.1020  -0.0436   0.0457   0.0721   0.1414
     0.3883   0.4997   0.5030   0.5990   0.8656   0.8748   1.4023   1.6761
     1.6988   1.7178   1.8201   1.9375   2.0064   2.0744   2.0791   2.2147
     2.2266   2.3434   2.6055   2.6678   2.6698   3.0938   3.0961   3.1289
     3.1657   3.2938   3.7203   3.7778   3.8304   3.8682   3.8768   3.9151
     4.0056   4.0258   4.1495   4.1597   4.3929   4.6916   4.7719   4.7831
     4.9600   5.1447   5.1942   5.2185   5.2565   5.3166   5.3636   5.3948
     5.4029   5.5330   5.5674   5.5866   5.7439   5.7833   5.8547   5.8847
     5.8944   5.9392   5.9815   6.0000   6.0576   6.1042   6.1071   6.1139
     6.1447   6.2367   6.2722   6.4138   6.4439   6.4539   6.4990   6.5673
     6.5904   6.6344   6.6502   6.7336   6.7948   6.8384   6.8609   6.9109
     7.0199   7.0492   7.0515   7.0636   7.1099   7.1279   7.1852   7.2024
     7.2481   7.2760   7.3974   7.4174   7.4277   7.5071   7.5181   7.5861
     7.6031   7.7106   7.7511   7.7964   7.8579   7.8752   7.9099   7.9462
     7.9790   7.9901

     occupation numbers 
     1.0000   1.0000   1.0000   1.0000   1.0000   1.0000   1.0000   1.0000
     1.0000   1.0000   1.0000   1.0000   1.0000   1.0000   1.0000   1.0000
     1.0000   1.0000   1.0000   1.0000   1.0000   1.0000   1.0000   1.0000
     1.0000   1.0000   1.0000   1.0000   1.0000   1.0000   1.0000   1.0000
     1.0000   1.0000   1.0000   1.0000   1.0000   1.0000   1.0000   1.0000
     1.0000   1.0000   1.0000   1.0000   1.0000   1.0000   1.0000   1.0000
     1.0000   1.0000   1.0000   1.0000   1.0000   1.0000   1.0000   1.0000
     1.0000   1.0000   1.0000   1.0000   1.0000   1.0000   1.0000   1.0000
     1.0000   1.0000   1.0000   1.0000   1.0000   1.0000   1.0000   1.0000
     1.0000   1.0000   1.0000   1.0000   1.0000   1.0000   1.0000   1.0000
     1.0000   1.0000   1.0000   1.0000   1.0000   1.0000   1.0000   1.0000
     1.0000   1.0000   1.0000   1.0000   1.0000   1.0000   1.0000   1.0000
     1.0000   1.0000   1.0000   1.0000   1.0000   1.0000   1.0000   1.0000
     1.0000   1.0000   1.0000   1.0000   1.0000   1.0000   1.0000   1.0000
     1.0000   1.0000   1.0000   1.0000   1.0000   1.0000   1.0000   1.0000
     1.0000   1.0000   1.0000   1.0000   1.0000   1.0000   1.0000   1.0000
     1.0000   1.0000   1.0000   1.0000   1.0000   1.0000   1.0000   1.0000
     1.0000   1.0000   1.0000   1.0000   1.0000   1.0000   1.0000   1.0000
     1.0000   1.0000   1.0000   1.0000   1.0000   1.0000   1.0000   1.0000
     1.0000   1.0000   1.0000   1.0000   1.0000   1.0000   1.0000   1.0000
     1.0000   1.0000   1.0000   1.0000   1.0000   1.0000   1.0000   1.0000
     1.0000   1.0000   1.0000   1.0000   1.0000   1.0000   1.0000   1.0000
     1.0000   1.0000   1.0000   1.0000   1.0000   1.0000   1.0000   1.0000
     1.0000   1.0000   1.0000   1.0000   1.0000   1.0000   1.0000   1.0000
     1.0000   1.0000   1.0000   1.0000   1.0000   1.0000   1.0000   1.0000
     1.0000   1.0000   1.0000   1.0000   1.0000   1.0000   1.0000   1.0000
     1.0000   1.0000   1.0000   1.0000   1.0000   1.0000   1.0000   1.0000
     1.0000   1.0000   1.0000   1.0000   1.0000   1.0000   1.0000   1.0000
     1.0000   1.0000   1.0000   1.0000   1.0000   1.0000   1.0000   1.0000
     1.0000   1.0000   1.0000   1.0000   1.0000   1.0000   1.0000   1.0000
     1.0000   1.0000   1.0000   1.0000   1.0000   1.0000   1.0000   1.0000
     1.0000   1.0000   1.0000   1.0000   1.0000   1.0000   1.0000   1.0000
     1.0000   1.0000   1.0000   1.0000   1.0000   1.0000   1.0000   1.0000
     1.0000   1.0000   1.0000   1.0000   1.0000   1.0000   1.0000   1.0000
     1.0000   1.0000   1.0000   1.0000   1.0000   1.0000   1.0000   1.0000
     1.0000   1.0000   1.0000   1.0000   1.0000   1.0000   1.0000   1.0000
     1.0000   1.0000   1.0000   1.0000   1.0000   1.0000   1.0000   1.0000
     1.0000   1.0000   1.0000   1.0000   1.0000   1.0000   1.0000   1.0000
     1.0000   1.0000   1.0000   1.0000   1.0000   1.0000   1.0000   1.0000
     1.0000   1.0000   1.0000   1.0000   1.0000   1.0000   1.0000   1.0000
     1.0000   1.0000   1.0000   1.0000   1.0000   1.0000   1.0000   1.0000
     1.0000   1.0000   1.0000   1.0000   1.0000   1.0000   1.0000   1.0000
     1.0000   1.0000   1.0000   1.0000   1.0000   1.0000   1.0000   1.0000
     1.0000   1.0000   1.0000   1.0000   1.0000   1.0000   1.0000   1.0000
     1.0000   1.0000   1.0000   1.0000   1.0000   1.0000   1.0000   1.0000
     1.0000   1.0000   1.0000   1.0000   1.0000   1.0000   1.0000   1.0000
     1.0000   1.0000   1.0000   1.0000   1.0000   1.0000   1.0000   1.0000
     1.0000   1.0000   1.0000   1.0000   1.0000   1.0000   1.0000   1.0000
     1.0000   1.0000   1.0000   1.0000   1.0000   1.0000   1.0000   1.0000
     1.0000   1.0000   1.0000   1.0000   1.0000   1.0000   1.0000   1.0000
     1.0000   1.0000   1.0000   1.0000   1.0000   1.0000   1.0000   1.0000
     1.0000   1.0000   1.0000   1.0000   1.0000   1.0000   1.0000   1.0000
     1.0000   1.0000   1.0000   1.0000   1.0000   1.0000   1.0000   1.0000
     1.0000   1.0000   1.0000   1.0000   1.0000   1.0000   1.0000   1.0000
     1.0000   1.0000   1.0000   1.0000   1.0000   1.0000   1.0000   1.0000
     1.0000   1.0000   1.0000   1.0000   1.0000   1.0000   1.0000   1.0000
     1.0000   1.0000   1.0000   1.0000   1.0000   1.0000   1.0000   1.0000
     1.0000   1.0000   1.0000   1.0000   1.0000   1.0000   1.0000   1.0000
     1.0000   1.0000   1.0000   1.0000   1.0000   1.0000   1.0000   1.0000
     1.0000   1.0000   1.0000   1.0000   1.0000   1.0000   1.0000   1.0000
     1.0000   1.0000   1.0000   1.0000   1.0000   1.0000   1.0000   1.0000
     1.0000   1.0000   1.0000   1.0000   1.0000   1.0000   1.0000   1.0000
     1.0028   1.0125   1.0129   1.0344   1.0529   1.0451   0.0458   0.0006
     0.0004   0.0003   0.0000   0.0000   0.0000   0.0000   0.0000   0.0000
     0.0000   0.0000   0.0000   0.0000   0.0000   0.0000   0.0000   0.0000
     0.0000   0.0000   0.0000   0.0000   0.0000   0.0000   0.0000   0.0000
     0.0000   0.0000   0.0000   0.0000   0.0000   0.0000   0.0000   0.0000
     0.0000   0.0000   0.0000   0.0000   0.0000   0.0000   0.0000   0.0000
     0.0000   0.0000   0.0000   0.0000   0.0000   0.0000   0.0000   0.0000
     0.0000   0.0000   0.0000   0.0000   0.0000   0.0000   0.0000   0.0000
     0.0000   0.0000   0.0000   0.0000   0.0000   0.0000   0.0000   0.0000
     0.0000   0.0000   0.0000   0.0000   0.0000   0.0000   0.0000   0.0000
     0.0000   0.0000   0.0000   0.0000   0.0000   0.0000   0.0000   0.0000
     0.0000   0.0000   0.0000   0.0000   0.0000   0.0000   0.0000   0.0000
     0.0000   0.0000   0.0000   0.0000   0.0000   0.0000   0.0000   0.0000
     0.0000   0.0000

          k = 0.0000 0.3628 0.1846 ( 71963 PWs)   bands (ev):

  -125.3634-125.3575-125.3549-125.3540-125.3346-125.3330-125.3309-125.3299
  -125.2469-125.2459-125.2433-125.2418-125.2409-125.2403-125.2378-125.2367
  -125.1749-125.1650-125.1637-125.1592-125.1575-125.1550-125.1547-125.1536
  -125.1526-125.1522-125.1513-125.1435-125.1046-125.1006-125.0981-125.0953
  -125.0641-125.0631-125.0627-125.0615-125.0594-125.0582-125.0572-125.0560
  -125.0361-125.0331-125.0303-125.0274-125.0046-125.0016-124.9810-124.9752
   -79.5208 -79.5168 -79.5148 -79.5123 -79.5112 -79.5099 -79.5075 -79.5019
   -79.4992 -79.4985 -79.4981 -79.4952 -79.4935 -79.4925 -79.4915 -79.4902
   -79.4876 -79.4825 -79.4814 -79.4798 -79.4778 -79.4767 -79.4703 -79.4651
   -79.4084 -79.4053 -79.4046 -79.4034 -79.4019 -79.4006 -79.3933 -79.3924
   -79.3907 -79.3901 -79.3898 -79.3892 -79.3882 -79.3875 -79.3867 -79.3855
   -79.3851 -79.3843 -79.3823 -79.3816 -79.3803 -79.3793 -79.3779 -79.3754
   -79.3311 -79.3284 -79.3259 -79.3211 -79.3205 -79.3183 -79.3177 -79.3170
   -79.3153 -79.3147 -79.3137 -79.3128 -79.3123 -79.3118 -79.3114 -79.3105
   -79.3098 -79.3081 -79.3076 -79.3073 -79.3062 -79.3060 -79.3050 -79.3049
   -79.3048 -79.3038 -79.3037 -79.3010 -79.3001 -79.3001 -79.2971 -79.2965
   -79.2932 -79.2924 -79.2908 -79.2884 -79.2755 -79.2712 -79.2685 -79.2657
   -79.2521 -79.2484 -79.2465 -79.2460 -79.2435 -79.2400 -79.2360 -79.2346
   -79.2327 -79.2317 -79.2304 -79.2293 -79.2292 -79.2279 -79.2266 -79.2232
   -79.2229 -79.2174 -79.2159 -79.2120 -79.2104 -79.2095 -79.2077 -79.2074
   -79.2063 -79.2056 -79.2040 -79.2033 -79.2024 -79.2014 -79.2001 -79.1999
   -79.1982 -79.1972 -79.1941 -79.1924 -79.1871 -79.1859 -79.1830 -79.1809
   -79.1801 -79.1773 -79.1731 -79.1709 -79.1698 -79.1636 -79.1555 -79.1507
   -79.1496 -79.1491 -79.1439 -79.1409 -79.1303 -79.1257 -79.1238 -79.1130
   -17.9866 -16.6213 -15.7619 -13.3693 -13.2932 -10.3718 -10.1081  -8.2086
    -8.1612  -7.7099  -7.6731  -7.6123  -7.4552  -7.1874  -7.1623  -7.0195
    -7.0101  -7.0051  -6.9813  -6.9725  -6.9249  -6.8977  -6.8911  -6.8879
    -6.8508  -6.8342  -6.8195  -6.8131  -6.7970  -6.7882  -6.7876  -6.7809
    -6.7719  -6.7704  -6.7445  -6.7407  -6.7276  -6.7227  -6.6985  -6.6891
    -6.6804  -6.6704  -6.6636  -6.6626  -6.6564  -6.6359  -6.6331  -6.6215
    -6.6199  -6.6132  -6.6041  -6.5884  -6.5853  -6.5732  -6.5707  -6.5537
    -6.5481  -6.5418  -6.5340  -6.5323  -6.5289  -6.5280  -6.5236  -6.5084
    -6.5027  -6.4921  -6.4719  -6.4622  -6.4586  -6.4573  -6.4536  -6.4356
    -6.4311  -6.4293  -6.4119  -6.4054  -6.3989  -6.3966  -6.3886  -6.3781
    -6.3761  -6.3729  -6.3701  -6.3655  -6.3524  -6.3454  -6.3307  -6.3277
    -6.3203  -6.3097  -6.3082  -6.3048  -6.2927  -6.2915  -6.2862  -6.2759
    -6.2751  -6.2698  -6.2590  -6.2575  -6.2480  -6.2325  -6.2296  -6.2284
    -6.2255  -6.2156  -6.2155  -6.2107  -6.2006  -6.1971  -6.1945  -6.1861
    -6.1734  -6.1704  -6.1692  -6.1533  -6.1515  -6.1480  -6.1370  -6.1344
    -6.1206  -6.1193  -6.1161  -6.1086  -6.1073  -6.1050  -6.0939  -6.0899
    -6.0800  -6.0752  -6.0709  -6.0665  -6.0571  -6.0478  -6.0443  -6.0380
    -6.0351  -6.0309  -6.0261  -6.0225  -6.0210  -6.0128  -6.0119  -6.0019
    -5.9957  -5.9915  -5.9850  -5.9753  -5.9746  -5.9732  -5.9690  -5.9588
    -5.9445  -5.9415  -5.9298  -5.9292  -5.9235  -5.9180  -5.9096  -5.9035
    -5.9002  -5.8964  -5.8903  -5.8847  -5.8806  -5.8780  -5.8766  -5.8754
    -5.8633  -5.8577  -5.8545  -5.8534  -5.8451  -5.8421  -5.8358  -5.8326
    -5.8258  -5.8218  -5.8193  -5.8137  -5.8116  -5.8088  -5.7997  -5.7990
    -5.7984  -5.7901  -5.7893  -5.7820  -5.7794  -5.7777  -5.7717  -5.7708
    -5.7702  -5.7634  -5.7577  -5.7514  -5.7507  -5.7488  -5.7462  -5.7430
    -5.7333  -5.7271  -5.7224  -5.7174  -5.7145  -5.7123  -5.7093  -5.7075
    -5.7043  -5.7027  -5.7012  -5.6957  -5.6907  -5.6867  -5.6817  -5.6795
    -5.6762  -5.6710  -5.6689  -5.6669  -5.6604  -5.6575  -5.6567  -5.6549
    -5.6537  -5.6497  -5.6483  -5.6474  -5.6410  -5.6388  -5.6384  -5.6353
    -5.6259  -5.6218  -5.6169  -5.6150  -5.6090  -5.6070  -5.6042  -5.6028
    -5.5937  -5.5909  -5.5834  -5.5662  -5.5613  -5.5559  -5.5546  -5.5420
    -5.5190  -5.5086  -5.5077  -5.4971  -5.4885  -5.4826  -5.4684  -5.4051
    -5.3803  -5.3663  -5.1200  -5.0644  -4.9567  -4.8945  -4.6408  -4.5464
    -4.5284  -4.3447  -4.2918  -4.1249  -3.5438  -3.5276  -3.4889  -3.3934
    -3.2245  -3.2114  -2.9529  -2.7927  -2.7154  -2.5695  -2.5389  -2.4662
    -2.3097  -2.1974  -2.0390  -1.9861  -1.9378  -1.6369  -1.6286  -1.6200
    -1.4400  -1.2626  -1.2073  -1.1965  -1.1737  -0.8953  -0.6249  -0.5759
    -0.3821  -0.3692  -0.2255  -0.0256   0.1094   0.1551   0.2015   0.3463
     0.3864   0.5382   0.7194   0.7624   0.8393   0.9962   1.2190   1.5095
     1.7267   1.7748   1.8733   2.0759   2.1267   2.2813   2.3543   2.4275
     2.4404   2.5444   2.9288   2.9481   2.9547   3.2074   3.3359   3.3888
     3.4272   3.6888   3.7943   3.8643   3.8825   3.8911   3.9431   3.9613
     4.0053   4.0701   4.0912   4.1650   4.4115   4.4659   4.4887   4.5684
     4.5876   4.6741   4.8085   4.9091   4.9296   4.9402   5.0598   5.0936
     5.1472   5.3348   5.3690   5.4169   5.4620   5.5169   5.5550   5.6517
     5.6641   5.7347   5.8206   5.8703   5.8876   5.9497   6.0340   6.0440
     6.1201   6.1858   6.2072   6.2873   6.3172   6.3556   6.4112   6.4178
     6.5058   6.5594   6.6006   6.6500   6.7756   6.8112   6.8342   6.8950
     6.9310   6.9559   6.9828   7.0324   7.1416   7.1614   7.2264   7.2776
     7.3727   7.3976   7.4332   7.5013   7.5163   7.5570   7.5852   7.6592
     7.6929   7.7587   7.8217   7.8576   7.9217   7.9927   8.0303   8.0939
     8.1211   8.1525

     occupation numbers 
     1.0000   1.0000   1.0000   1.0000   1.0000   1.0000   1.0000   1.0000
     1.0000   1.0000   1.0000   1.0000   1.0000   1.0000   1.0000   1.0000
     1.0000   1.0000   1.0000   1.0000   1.0000   1.0000   1.0000   1.0000
     1.0000   1.0000   1.0000   1.0000   1.0000   1.0000   1.0000   1.0000
     1.0000   1.0000   1.0000   1.0000   1.0000   1.0000   1.0000   1.0000
     1.0000   1.0000   1.0000   1.0000   1.0000   1.0000   1.0000   1.0000
     1.0000   1.0000   1.0000   1.0000   1.0000   1.0000   1.0000   1.0000
     1.0000   1.0000   1.0000   1.0000   1.0000   1.0000   1.0000   1.0000
     1.0000   1.0000   1.0000   1.0000   1.0000   1.0000   1.0000   1.0000
     1.0000   1.0000   1.0000   1.0000   1.0000   1.0000   1.0000   1.0000
     1.0000   1.0000   1.0000   1.0000   1.0000   1.0000   1.0000   1.0000
     1.0000   1.0000   1.0000   1.0000   1.0000   1.0000   1.0000   1.0000
     1.0000   1.0000   1.0000   1.0000   1.0000   1.0000   1.0000   1.0000
     1.0000   1.0000   1.0000   1.0000   1.0000   1.0000   1.0000   1.0000
     1.0000   1.0000   1.0000   1.0000   1.0000   1.0000   1.0000   1.0000
     1.0000   1.0000   1.0000   1.0000   1.0000   1.0000   1.0000   1.0000
     1.0000   1.0000   1.0000   1.0000   1.0000   1.0000   1.0000   1.0000
     1.0000   1.0000   1.0000   1.0000   1.0000   1.0000   1.0000   1.0000
     1.0000   1.0000   1.0000   1.0000   1.0000   1.0000   1.0000   1.0000
     1.0000   1.0000   1.0000   1.0000   1.0000   1.0000   1.0000   1.0000
     1.0000   1.0000   1.0000   1.0000   1.0000   1.0000   1.0000   1.0000
     1.0000   1.0000   1.0000   1.0000   1.0000   1.0000   1.0000   1.0000
     1.0000   1.0000   1.0000   1.0000   1.0000   1.0000   1.0000   1.0000
     1.0000   1.0000   1.0000   1.0000   1.0000   1.0000   1.0000   1.0000
     1.0000   1.0000   1.0000   1.0000   1.0000   1.0000   1.0000   1.0000
     1.0000   1.0000   1.0000   1.0000   1.0000   1.0000   1.0000   1.0000
     1.0000   1.0000   1.0000   1.0000   1.0000   1.0000   1.0000   1.0000
     1.0000   1.0000   1.0000   1.0000   1.0000   1.0000   1.0000   1.0000
     1.0000   1.0000   1.0000   1.0000   1.0000   1.0000   1.0000   1.0000
     1.0000   1.0000   1.0000   1.0000   1.0000   1.0000   1.0000   1.0000
     1.0000   1.0000   1.0000   1.0000   1.0000   1.0000   1.0000   1.0000
     1.0000   1.0000   1.0000   1.0000   1.0000   1.0000   1.0000   1.0000
     1.0000   1.0000   1.0000   1.0000   1.0000   1.0000   1.0000   1.0000
     1.0000   1.0000   1.0000   1.0000   1.0000   1.0000   1.0000   1.0000
     1.0000   1.0000   1.0000   1.0000   1.0000   1.0000   1.0000   1.0000
     1.0000   1.0000   1.0000   1.0000   1.0000   1.0000   1.0000   1.0000
     1.0000   1.0000   1.0000   1.0000   1.0000   1.0000   1.0000   1.0000
     1.0000   1.0000   1.0000   1.0000   1.0000   1.0000   1.0000   1.0000
     1.0000   1.0000   1.0000   1.0000   1.0000   1.0000   1.0000   1.0000
     1.0000   1.0000   1.0000   1.0000   1.0000   1.0000   1.0000   1.0000
     1.0000   1.0000   1.0000   1.0000   1.0000   1.0000   1.0000   1.0000
     1.0000   1.0000   1.0000   1.0000   1.0000   1.0000   1.0000   1.0000
     1.0000   1.0000   1.0000   1.0000   1.0000   1.0000   1.0000   1.0000
     1.0000   1.0000   1.0000   1.0000   1.0000   1.0000   1.0000   1.0000
     1.0000   1.0000   1.0000   1.0000   1.0000   1.0000   1.0000   1.0000
     1.0000   1.0000   1.0000   1.0000   1.0000   1.0000   1.0000   1.0000
     1.0000   1.0000   1.0000   1.0000   1.0000   1.0000   1.0000   1.0000
     1.0000   1.0000   1.0000   1.0000   1.0000   1.0000   1.0000   1.0000
     1.0000   1.0000   1.0000   1.0000   1.0000   1.0000   1.0000   1.0000
     1.0000   1.0000   1.0000   1.0000   1.0000   1.0000   1.0000   1.0000
     1.0000   1.0000   1.0000   1.0000   1.0000   1.0000   1.0000   1.0000
     1.0000   1.0000   1.0000   1.0000   1.0000   1.0000   1.0000   1.0000
     1.0000   1.0000   1.0000   1.0000   1.0000   1.0000   1.0000   1.0000
     1.0000   1.0000   1.0000   1.0000   1.0000   1.0000   1.0000   1.0000
     1.0000   1.0000   1.0000   1.0000   1.0000   1.0000   1.0000   1.0000
     1.0000   1.0000   1.0000   1.0000   1.0000   1.0000   1.0000   1.0000
     1.0000   1.0000   1.0000   1.0000   1.0000   1.0000   1.0000   1.0000
     1.0000   1.0000   1.0000   1.0000   1.0000   1.0000   1.0000   1.0000
     1.0000   1.0000   1.0000   1.0000   1.0000   1.0000   1.0000   1.0000
     1.0000   1.0000   1.0000   1.0000   1.0000   1.0000   1.0000   1.0000
     1.0000   1.0000   1.0000   1.0000   1.0000   1.0000   1.0000   1.0000
     1.0000   1.0000   1.0000   1.0000   1.0000   1.0000   1.0001   1.0014
     1.0027   1.0192   1.0737   1.0823   1.0697   0.8475   0.2762   0.0108
     0.0002   0.0001   0.0000   0.0000   0.0000   0.0000   0.0000   0.0000
     0.0000   0.0000   0.0000   0.0000   0.0000   0.0000   0.0000   0.0000
     0.0000   0.0000   0.0000   0.0000   0.0000   0.0000   0.0000   0.0000
     0.0000   0.0000   0.0000   0.0000   0.0000   0.0000   0.0000   0.0000
     0.0000   0.0000   0.0000   0.0000   0.0000   0.0000   0.0000   0.0000
     0.0000   0.0000   0.0000   0.0000   0.0000   0.0000   0.0000   0.0000
     0.0000   0.0000   0.0000   0.0000   0.0000   0.0000   0.0000   0.0000
     0.0000   0.0000   0.0000   0.0000   0.0000   0.0000   0.0000   0.0000
     0.0000   0.0000   0.0000   0.0000   0.0000   0.0000   0.0000   0.0000
     0.0000   0.0000   0.0000   0.0000   0.0000   0.0000   0.0000   0.0000
     0.0000   0.0000   0.0000   0.0000   0.0000   0.0000   0.0000   0.0000
     0.0000   0.0000   0.0000   0.0000   0.0000   0.0000   0.0000   0.0000
     0.0000   0.0000

          k = 0.3333 0.0811 0.7384 ( 72005 PWs)   bands (ev):

  -125.3634-125.3575-125.3549-125.3540-125.3346-125.3330-125.3310-125.3299
  -125.2469-125.2459-125.2433-125.2418-125.2409-125.2403-125.2379-125.2367
  -125.1749-125.1650-125.1637-125.1592-125.1575-125.1550-125.1547-125.1535
  -125.1526-125.1523-125.1513-125.1435-125.1046-125.1006-125.0981-125.0953
  -125.0641-125.0631-125.0627-125.0615-125.0594-125.0582-125.0572-125.0560
  -125.0361-125.0331-125.0303-125.0274-125.0046-125.0016-124.9810-124.9752
   -79.5208 -79.5179 -79.5148 -79.5123 -79.5112 -79.5075 -79.5055 -79.5031
   -79.5019 -79.4992 -79.4981 -79.4952 -79.4935 -79.4915 -79.4912 -79.4902
   -79.4891 -79.4814 -79.4798 -79.4778 -79.4767 -79.4765 -79.4761 -79.4636
   -79.4096 -79.4056 -79.4050 -79.4024 -79.4013 -79.3966 -79.3962 -79.3933
   -79.3922 -79.3898 -79.3892 -79.3884 -79.3881 -79.3870 -79.3861 -79.3859
   -79.3853 -79.3842 -79.3828 -79.3822 -79.3811 -79.3795 -79.3781 -79.3740
   -79.3314 -79.3285 -79.3259 -79.3221 -79.3204 -79.3185 -79.3175 -79.3167
   -79.3152 -79.3139 -79.3129 -79.3124 -79.3119 -79.3117 -79.3111 -79.3107
   -79.3090 -79.3082 -79.3080 -79.3076 -79.3073 -79.3061 -79.3058 -79.3049
   -79.3047 -79.3038 -79.3019 -79.3008 -79.3003 -79.2993 -79.2989 -79.2966
   -79.2958 -79.2917 -79.2908 -79.2868 -79.2755 -79.2712 -79.2685 -79.2657
   -79.2521 -79.2484 -79.2476 -79.2460 -79.2435 -79.2360 -79.2353 -79.2346
   -79.2341 -79.2327 -79.2317 -79.2304 -79.2292 -79.2279 -79.2265 -79.2243
   -79.2220 -79.2171 -79.2122 -79.2120 -79.2111 -79.2098 -79.2078 -79.2074
   -79.2064 -79.2049 -79.2038 -79.2033 -79.2032 -79.2023 -79.2014 -79.1999
   -79.1987 -79.1972 -79.1941 -79.1911 -79.1884 -79.1859 -79.1830 -79.1801
   -79.1773 -79.1758 -79.1749 -79.1731 -79.1709 -79.1623 -79.1556 -79.1510
   -79.1497 -79.1491 -79.1439 -79.1399 -79.1303 -79.1265 -79.1238 -79.1127
   -17.9866 -16.6213 -15.7619 -13.3694 -13.2932 -10.3718 -10.1081  -8.2115
    -8.2052  -7.8482  -7.6848  -7.6140  -7.1790  -7.1227  -7.1096  -7.0808
    -7.0555  -7.0245  -7.0166  -6.9925  -6.9666  -6.9392  -6.9181  -6.8997
    -6.8953  -6.8524  -6.8382  -6.8355  -6.7946  -6.7926  -6.7836  -6.7666
    -6.7470  -6.7405  -6.7149  -6.7132  -6.6966  -6.6765  -6.6645  -6.6630
    -6.6610  -6.6414  -6.6295  -6.6287  -6.6260  -6.6242  -6.6161  -6.6144
    -6.6085  -6.6023  -6.6003  -6.5934  -6.5884  -6.5803  -6.5757  -6.5593
    -6.5584  -6.5571  -6.5562  -6.5400  -6.5272  -6.5172  -6.5144  -6.5063
    -6.4968  -6.4948  -6.4803  -6.4739  -6.4695  -6.4532  -6.4484  -6.4430
    -6.4237  -6.4218  -6.4144  -6.4091  -6.4049  -6.3933  -6.3833  -6.3791
    -6.3596  -6.3567  -6.3539  -6.3496  -6.3480  -6.3455  -6.3341  -6.3183
    -6.3047  -6.3038  -6.2900  -6.2877  -6.2840  -6.2833  -6.2813  -6.2725
    -6.2614  -6.2560  -6.2541  -6.2408  -6.2344  -6.2286  -6.2249  -6.2175
    -6.2085  -6.2078  -6.2043  -6.1894  -6.1778  -6.1717  -6.1618  -6.1596
    -6.1515  -6.1493  -6.1406  -6.1395  -6.1385  -6.1374  -6.1175  -6.1126
    -6.1058  -6.1050  -6.1018  -6.0985  -6.0956  -6.0899  -6.0865  -6.0742
    -6.0699  -6.0623  -6.0607  -6.0574  -6.0503  -6.0484  -6.0431  -6.0422
    -6.0275  -6.0258  -6.0188  -6.0117  -6.0113  -6.0095  -6.0001  -5.9964
    -5.9931  -5.9912  -5.9842  -5.9817  -5.9792  -5.9743  -5.9706  -5.9689
    -5.9576  -5.9483  -5.9472  -5.9458  -5.9420  -5.9332  -5.9306  -5.9208
    -5.9194  -5.9156  -5.9148  -5.9142  -5.9050  -5.8972  -5.8902  -5.8883
    -5.8857  -5.8836  -5.8768  -5.8735  -5.8731  -5.8702  -5.8643  -5.8556
    -5.8517  -5.8451  -5.8447  -5.8371  -5.8338  -5.8266  -5.8251  -5.8248
    -5.8222  -5.8203  -5.8138  -5.8120  -5.8051  -5.7994  -5.7976  -5.7833
    -5.7820  -5.7784  -5.7739  -5.7688  -5.7641  -5.7614  -5.7604  -5.7597
    -5.7555  -5.7488  -5.7458  -5.7415  -5.7342  -5.7259  -5.7251  -5.7243
    -5.7195  -5.7169  -5.7107  -5.7098  -5.7002  -5.6961  -5.6905  -5.6876
    -5.6853  -5.6843  -5.6792  -5.6733  -5.6701  -5.6608  -5.6575  -5.6547
    -5.6497  -5.6483  -5.6410  -5.6403  -5.6388  -5.6302  -5.6276  -5.6270
    -5.6197  -5.6187  -5.6112  -5.6085  -5.6019  -5.5956  -5.5898  -5.5881
    -5.5684  -5.5651  -5.5609  -5.5566  -5.5472  -5.5424  -5.5307  -5.5291
    -5.5082  -5.5063  -5.4874  -5.4842  -5.4524  -5.4476  -5.4362  -5.4314
    -5.4015  -5.3381  -5.0844  -5.0583  -5.0452  -5.0392  -4.5951  -4.5468
    -4.4566  -4.4430  -4.2896  -4.0115  -3.8837  -3.6405  -3.5248  -3.4983
    -3.3944  -3.2179  -3.0037  -2.8371  -2.7144  -2.6412  -2.5686  -2.1989
    -2.1046  -1.9644  -1.9142  -1.8934  -1.6787  -1.6685  -1.6228  -1.4352
    -1.2609  -1.2003  -1.1893  -1.1195  -0.7625  -0.6403  -0.5864  -0.4438
    -0.3668  -0.3638  -0.3051  -0.2611  -0.1540   0.0283   0.0691   0.1424
     0.4564   0.4698   0.6302   0.9203   1.0329   1.2894   1.3096   1.3385
     1.4307   1.6112   1.6690   1.8041   1.8160   1.9039   2.3293   2.4549
     2.6076   2.6478   2.7571   2.7853   2.7909   2.8218   3.0565   3.3149
     3.3640   3.4111   3.4354   3.6002   3.7217   3.7268   3.7458   3.9415
     3.9544   4.0927   4.2754   4.2880   4.5638   4.5720   4.5870   4.6358
     4.7265   4.9031   4.9901   5.0509   5.0773   5.0991   5.1550   5.1892
     5.2083   5.3515   5.3971   5.4853   5.5428   5.6232   5.6603   5.6940
     5.7814   5.8619   5.9220   6.0288   6.0593   6.0955   6.1183   6.2237
     6.2627   6.3417   6.3671   6.4412   6.5262   6.6021   6.6499   6.6759
     6.7353   6.7983   6.8371   6.8584   6.8815   6.9081   6.9752   6.9975
     7.0156   7.0449   7.0888   7.1373   7.1628   7.2098   7.2572   7.3063
     7.3864   7.4116   7.4183   7.4360   7.4609   7.5198   7.5261   7.5728
     7.6048   7.6848   7.7337   7.7885   7.8271   7.8868   7.9420   7.9792
     8.0036   8.1017

     occupation numbers 
     1.0000   1.0000   1.0000   1.0000   1.0000   1.0000   1.0000   1.0000
     1.0000   1.0000   1.0000   1.0000   1.0000   1.0000   1.0000   1.0000
     1.0000   1.0000   1.0000   1.0000   1.0000   1.0000   1.0000   1.0000
     1.0000   1.0000   1.0000   1.0000   1.0000   1.0000   1.0000   1.0000
     1.0000   1.0000   1.0000   1.0000   1.0000   1.0000   1.0000   1.0000
     1.0000   1.0000   1.0000   1.0000   1.0000   1.0000   1.0000   1.0000
     1.0000   1.0000   1.0000   1.0000   1.0000   1.0000   1.0000   1.0000
     1.0000   1.0000   1.0000   1.0000   1.0000   1.0000   1.0000   1.0000
     1.0000   1.0000   1.0000   1.0000   1.0000   1.0000   1.0000   1.0000
     1.0000   1.0000   1.0000   1.0000   1.0000   1.0000   1.0000   1.0000
     1.0000   1.0000   1.0000   1.0000   1.0000   1.0000   1.0000   1.0000
     1.0000   1.0000   1.0000   1.0000   1.0000   1.0000   1.0000   1.0000
     1.0000   1.0000   1.0000   1.0000   1.0000   1.0000   1.0000   1.0000
     1.0000   1.0000   1.0000   1.0000   1.0000   1.0000   1.0000   1.0000
     1.0000   1.0000   1.0000   1.0000   1.0000   1.0000   1.0000   1.0000
     1.0000   1.0000   1.0000   1.0000   1.0000   1.0000   1.0000   1.0000
     1.0000   1.0000   1.0000   1.0000   1.0000   1.0000   1.0000   1.0000
     1.0000   1.0000   1.0000   1.0000   1.0000   1.0000   1.0000   1.0000
     1.0000   1.0000   1.0000   1.0000   1.0000   1.0000   1.0000   1.0000
     1.0000   1.0000   1.0000   1.0000   1.0000   1.0000   1.0000   1.0000
     1.0000   1.0000   1.0000   1.0000   1.0000   1.0000   1.0000   1.0000
     1.0000   1.0000   1.0000   1.0000   1.0000   1.0000   1.0000   1.0000
     1.0000   1.0000   1.0000   1.0000   1.0000   1.0000   1.0000   1.0000
     1.0000   1.0000   1.0000   1.0000   1.0000   1.0000   1.0000   1.0000
     1.0000   1.0000   1.0000   1.0000   1.0000   1.0000   1.0000   1.0000
     1.0000   1.0000   1.0000   1.0000   1.0000   1.0000   1.0000   1.0000
     1.0000   1.0000   1.0000   1.0000   1.0000   1.0000   1.0000   1.0000
     1.0000   1.0000   1.0000   1.0000   1.0000   1.0000   1.0000   1.0000
     1.0000   1.0000   1.0000   1.0000   1.0000   1.0000   1.0000   1.0000
     1.0000   1.0000   1.0000   1.0000   1.0000   1.0000   1.0000   1.0000
     1.0000   1.0000   1.0000   1.0000   1.0000   1.0000   1.0000   1.0000
     1.0000   1.0000   1.0000   1.0000   1.0000   1.0000   1.0000   1.0000
     1.0000   1.0000   1.0000   1.0000   1.0000   1.0000   1.0000   1.0000
     1.0000   1.0000   1.0000   1.0000   1.0000   1.0000   1.0000   1.0000
     1.0000   1.0000   1.0000   1.0000   1.0000   1.0000   1.0000   1.0000
     1.0000   1.0000   1.0000   1.0000   1.0000   1.0000   1.0000   1.0000
     1.0000   1.0000   1.0000   1.0000   1.0000   1.0000   1.0000   1.0000
     1.0000   1.0000   1.0000   1.0000   1.0000   1.0000   1.0000   1.0000
     1.0000   1.0000   1.0000   1.0000   1.0000   1.0000   1.0000   1.0000
     1.0000   1.0000   1.0000   1.0000   1.0000   1.0000   1.0000   1.0000
     1.0000   1.0000   1.0000   1.0000   1.0000   1.0000   1.0000   1.0000
     1.0000   1.0000   1.0000   1.0000   1.0000   1.0000   1.0000   1.0000
     1.0000   1.0000   1.0000   1.0000   1.0000   1.0000   1.0000   1.0000
     1.0000   1.0000   1.0000   1.0000   1.0000   1.0000   1.0000   1.0000
     1.0000   1.0000   1.0000   1.0000   1.0000   1.0000   1.0000   1.0000
     1.0000   1.0000   1.0000   1.0000   1.0000   1.0000   1.0000   1.0000
     1.0000   1.0000   1.0000   1.0000   1.0000   1.0000   1.0000   1.0000
     1.0000   1.0000   1.0000   1.0000   1.0000   1.0000   1.0000   1.0000
     1.0000   1.0000   1.0000   1.0000   1.0000   1.0000   1.0000   1.0000
     1.0000   1.0000   1.0000   1.0000   1.0000   1.0000   1.0000   1.0000
     1.0000   1.0000   1.0000   1.0000   1.0000   1.0000   1.0000   1.0000
     1.0000   1.0000   1.0000   1.0000   1.0000   1.0000   1.0000   1.0000
     1.0000   1.0000   1.0000   1.0000   1.0000   1.0000   1.0000   1.0000
     1.0000   1.0000   1.0000   1.0000   1.0000   1.0000   1.0000   1.0000
     1.0000   1.0000   1.0000   1.0000   1.0000   1.0000   1.0000   1.0000
     1.0000   1.0000   1.0000   1.0000   1.0000   1.0000   1.0000   1.0000
     1.0000   1.0000   1.0000   1.0000   1.0000   1.0000   1.0000   1.0000
     1.0000   1.0000   1.0000   1.0000   1.0000   1.0000   1.0000   1.0000
     1.0000   1.0000   1.0000   1.0000   1.0000   1.0000   1.0000   1.0000
     1.0000   1.0000   1.0000   1.0000   1.0000   1.0000   1.0000   1.0000
     1.0000   1.0000   1.0000   1.0000   1.0000   1.0000   1.0000   1.0000
     1.0000   1.0000   1.0000   1.0000   1.0000   1.0000   1.0000   1.0000
     1.0072   1.0086   1.0443   0.9918   0.7574   0.1530   0.1262   0.0942
     0.0322   0.0021   0.0007   0.0000   0.0000   0.0000   0.0000   0.0000
     0.0000   0.0000   0.0000   0.0000   0.0000   0.0000   0.0000   0.0000
     0.0000   0.0000   0.0000   0.0000   0.0000   0.0000   0.0000   0.0000
     0.0000   0.0000   0.0000   0.0000   0.0000   0.0000   0.0000   0.0000
     0.0000   0.0000   0.0000   0.0000   0.0000   0.0000   0.0000   0.0000
     0.0000   0.0000   0.0000   0.0000   0.0000   0.0000   0.0000   0.0000
     0.0000   0.0000   0.0000   0.0000   0.0000   0.0000   0.0000   0.0000
     0.0000   0.0000   0.0000   0.0000   0.0000   0.0000   0.0000   0.0000
     0.0000   0.0000   0.0000   0.0000   0.0000   0.0000   0.0000   0.0000
     0.0000   0.0000   0.0000   0.0000   0.0000   0.0000   0.0000   0.0000
     0.0000   0.0000   0.0000   0.0000   0.0000   0.0000   0.0000   0.0000
     0.0000   0.0000   0.0000   0.0000   0.0000   0.0000   0.0000   0.0000
     0.0000   0.0000

          k = 0.3333 0.4439 0.9230 ( 71974 PWs)   bands (ev):

  -125.3634-125.3575-125.3549-125.3540-125.3346-125.3330-125.3309-125.3299
  -125.2469-125.2459-125.2433-125.2418-125.2409-125.2403-125.2378-125.2367
  -125.1749-125.1650-125.1637-125.1592-125.1575-125.1550-125.1547-125.1536
  -125.1526-125.1522-125.1513-125.1435-125.1046-125.1006-125.0981-125.0953
  -125.0641-125.0631-125.0627-125.0615-125.0594-125.0582-125.0572-125.0560
  -125.0361-125.0331-125.0303-125.0274-125.0046-125.0016-124.9810-124.9752
   -79.5208 -79.5168 -79.5148 -79.5123 -79.5112 -79.5099 -79.5075 -79.5019
   -79.4992 -79.4985 -79.4981 -79.4952 -79.4935 -79.4925 -79.4915 -79.4902
   -79.4876 -79.4825 -79.4814 -79.4798 -79.4778 -79.4767 -79.4703 -79.4651
   -79.4084 -79.4053 -79.4046 -79.4034 -79.4019 -79.4006 -79.3933 -79.3924
   -79.3907 -79.3901 -79.3898 -79.3892 -79.3882 -79.3875 -79.3867 -79.3855
   -79.3851 -79.3843 -79.3823 -79.3816 -79.3803 -79.3793 -79.3779 -79.3754
   -79.3311 -79.3284 -79.3259 -79.3211 -79.3205 -79.3183 -79.3177 -79.3170
   -79.3153 -79.3147 -79.3137 -79.3128 -79.3123 -79.3118 -79.3114 -79.3105
   -79.3098 -79.3081 -79.3076 -79.3073 -79.3062 -79.3060 -79.3050 -79.3049
   -79.3048 -79.3038 -79.3037 -79.3010 -79.3001 -79.3001 -79.2971 -79.2965
   -79.2932 -79.2924 -79.2908 -79.2884 -79.2755 -79.2712 -79.2685 -79.2657
   -79.2521 -79.2484 -79.2465 -79.2460 -79.2435 -79.2400 -79.2360 -79.2346
   -79.2327 -79.2317 -79.2304 -79.2293 -79.2292 -79.2279 -79.2266 -79.2232
   -79.2229 -79.2174 -79.2159 -79.2120 -79.2104 -79.2095 -79.2077 -79.2074
   -79.2063 -79.2056 -79.2040 -79.2033 -79.2024 -79.2014 -79.2001 -79.1999
   -79.1982 -79.1972 -79.1941 -79.1924 -79.1871 -79.1859 -79.1830 -79.1809
   -79.1801 -79.1773 -79.1731 -79.1709 -79.1698 -79.1636 -79.1555 -79.1507
   -79.1496 -79.1491 -79.1439 -79.1409 -79.1303 -79.1257 -79.1238 -79.1130
   -17.9866 -16.6213 -15.7619 -13.3694 -13.2932 -10.3718 -10.1081  -8.2085
    -7.9994  -7.7886  -7.7076  -7.6719  -7.6112  -7.1896  -7.0669  -7.0271
    -7.0065  -6.9831  -6.9728  -6.9702  -6.8996  -6.8941  -6.8900  -6.8861
    -6.8557  -6.8345  -6.8336  -6.8206  -6.8151  -6.7974  -6.7907  -6.7808
    -6.7763  -6.7495  -6.7468  -6.7392  -6.7301  -6.7230  -6.7120  -6.6988
    -6.6898  -6.6709  -6.6616  -6.6507  -6.6429  -6.6366  -6.6342  -6.6209
    -6.6189  -6.6153  -6.6116  -6.6046  -6.5909  -6.5801  -6.5736  -6.5510
    -6.5444  -6.5432  -6.5372  -6.5274  -6.5262  -6.5146  -6.5082  -6.5011
    -6.4936  -6.4841  -6.4693  -6.4666  -6.4585  -6.4565  -6.4524  -6.4452
    -6.4352  -6.4287  -6.4150  -6.4065  -6.4003  -6.3979  -6.3929  -6.3845
    -6.3721  -6.3701  -6.3640  -6.3588  -6.3426  -6.3396  -6.3359  -6.3333
    -6.3292  -6.3241  -6.3073  -6.3055  -6.2934  -6.2906  -6.2809  -6.2740
    -6.2726  -6.2708  -6.2515  -6.2489  -6.2433  -6.2321  -6.2277  -6.2218
    -6.2142  -6.2121  -6.2056  -6.2040  -6.1960  -6.1947  -6.1878  -6.1845
    -6.1732  -6.1710  -6.1663  -6.1581  -6.1534  -6.1484  -6.1481  -6.1380
    -6.1353  -6.1286  -6.1268  -6.1178  -6.1140  -6.1086  -6.0958  -6.0809
    -6.0803  -6.0771  -6.0688  -6.0674  -6.0646  -6.0569  -6.0514  -6.0362
    -6.0346  -6.0338  -6.0223  -6.0162  -6.0149  -6.0083  -6.0060  -6.0041
    -5.9977  -5.9949  -5.9835  -5.9823  -5.9742  -5.9679  -5.9642  -5.9622
    -5.9611  -5.9466  -5.9458  -5.9395  -5.9248  -5.9211  -5.9118  -5.9099
    -5.9008  -5.8994  -5.8880  -5.8857  -5.8822  -5.8787  -5.8763  -5.8745
    -5.8652  -5.8636  -5.8584  -5.8550  -5.8476  -5.8447  -5.8359  -5.8336
    -5.8316  -5.8294  -5.8238  -5.8228  -5.8167  -5.8157  -5.8044  -5.8006
    -5.7996  -5.7980  -5.7973  -5.7902  -5.7885  -5.7836  -5.7737  -5.7716
    -5.7704  -5.7644  -5.7538  -5.7530  -5.7512  -5.7496  -5.7428  -5.7372
    -5.7333  -5.7263  -5.7248  -5.7226  -5.7215  -5.7192  -5.7116  -5.7085
    -5.7030  -5.7022  -5.6969  -5.6947  -5.6925  -5.6825  -5.6819  -5.6753
    -5.6741  -5.6686  -5.6677  -5.6667  -5.6639  -5.6587  -5.6564  -5.6544
    -5.6529  -5.6483  -5.6448  -5.6429  -5.6405  -5.6341  -5.6281  -5.6243
    -5.6228  -5.6199  -5.6162  -5.6138  -5.6079  -5.6061  -5.6030  -5.6009
    -5.5936  -5.5881  -5.5797  -5.5752  -5.5653  -5.5493  -5.5391  -5.5258
    -5.5121  -5.5094  -5.5023  -5.4970  -5.4891  -5.4830  -5.4562  -5.3888
    -5.3670  -5.1202  -5.0651  -4.9801  -4.9553  -4.8979  -4.6554  -4.5463
    -4.5277  -4.3418  -4.2902  -3.9833  -3.6723  -3.5310  -3.4899  -3.3947
    -3.2935  -3.2053  -2.9509  -2.7712  -2.7692  -2.7190  -2.6038  -2.5680
    -2.4664  -2.3099  -2.2182  -2.1962  -2.0352  -1.9553  -1.6345  -1.6034
    -1.4380  -1.2106  -1.1976  -1.0731  -0.8946  -0.6254  -0.6011  -0.5760
    -0.2223  -0.2075  -0.0377  -0.0254   0.1391   0.1751   0.3806   0.4197
     0.5051   0.7573   0.7612   0.8394   1.0134   1.2200   1.4038   1.4302
     1.7783   1.8072   1.8736   1.9602   2.1140   2.2437   2.3469   2.4377
     2.5400   2.5452   2.5794   2.8925   2.9249   2.9542   2.9830   3.2164
     3.2298   3.4187   3.4455   3.6715   3.7516   3.8655   3.8765   3.8923
     3.9015   3.9450   3.9745   4.0845   4.2484   4.4050   4.4669   4.4791
     4.5728   4.6825   4.7792   4.8942   4.9127   5.1395   5.1559   5.1718
     5.3765   5.4336   5.4520   5.5053   5.5300   5.5541   5.6012   5.6211
     5.6472   5.8175   5.8599   5.9023   5.9318   5.9689   5.9895   6.0995
     6.1422   6.1544   6.2009   6.2798   6.3473   6.3958   6.4171   6.5159
     6.5327   6.5513   6.5946   6.6406   6.6517   6.6939   6.8060   6.8895
     6.9496   6.9742   7.0594   7.1316   7.1796   7.2187   7.3006   7.3348
     7.4237   7.4744   7.5137   7.5831   7.6052   7.6321   7.7227   7.7754
     7.8205   7.8573   7.8854   7.9849   8.0080   8.0681   8.1291   8.1556
     8.1751   8.2199

     occupation numbers 
     1.0000   1.0000   1.0000   1.0000   1.0000   1.0000   1.0000   1.0000
     1.0000   1.0000   1.0000   1.0000   1.0000   1.0000   1.0000   1.0000
     1.0000   1.0000   1.0000   1.0000   1.0000   1.0000   1.0000   1.0000
     1.0000   1.0000   1.0000   1.0000   1.0000   1.0000   1.0000   1.0000
     1.0000   1.0000   1.0000   1.0000   1.0000   1.0000   1.0000   1.0000
     1.0000   1.0000   1.0000   1.0000   1.0000   1.0000   1.0000   1.0000
     1.0000   1.0000   1.0000   1.0000   1.0000   1.0000   1.0000   1.0000
     1.0000   1.0000   1.0000   1.0000   1.0000   1.0000   1.0000   1.0000
     1.0000   1.0000   1.0000   1.0000   1.0000   1.0000   1.0000   1.0000
     1.0000   1.0000   1.0000   1.0000   1.0000   1.0000   1.0000   1.0000
     1.0000   1.0000   1.0000   1.0000   1.0000   1.0000   1.0000   1.0000
     1.0000   1.0000   1.0000   1.0000   1.0000   1.0000   1.0000   1.0000
     1.0000   1.0000   1.0000   1.0000   1.0000   1.0000   1.0000   1.0000
     1.0000   1.0000   1.0000   1.0000   1.0000   1.0000   1.0000   1.0000
     1.0000   1.0000   1.0000   1.0000   1.0000   1.0000   1.0000   1.0000
     1.0000   1.0000   1.0000   1.0000   1.0000   1.0000   1.0000   1.0000
     1.0000   1.0000   1.0000   1.0000   1.0000   1.0000   1.0000   1.0000
     1.0000   1.0000   1.0000   1.0000   1.0000   1.0000   1.0000   1.0000
     1.0000   1.0000   1.0000   1.0000   1.0000   1.0000   1.0000   1.0000
     1.0000   1.0000   1.0000   1.0000   1.0000   1.0000   1.0000   1.0000
     1.0000   1.0000   1.0000   1.0000   1.0000   1.0000   1.0000   1.0000
     1.0000   1.0000   1.0000   1.0000   1.0000   1.0000   1.0000   1.0000
     1.0000   1.0000   1.0000   1.0000   1.0000   1.0000   1.0000   1.0000
     1.0000   1.0000   1.0000   1.0000   1.0000   1.0000   1.0000   1.0000
     1.0000   1.0000   1.0000   1.0000   1.0000   1.0000   1.0000   1.0000
     1.0000   1.0000   1.0000   1.0000   1.0000   1.0000   1.0000   1.0000
     1.0000   1.0000   1.0000   1.0000   1.0000   1.0000   1.0000   1.0000
[...]
     atom   51 type  3   force =     0.00000000    0.00000000    0.00000000
     atom   52 type  3   force =     0.00000000    0.00000000    0.00000000
     atom   53 type  3   force =     0.00000000    0.00000000    0.00000000
     atom   54 type  3   force =     0.00000000    0.00000000    0.00000000
     atom   55 type  3   force =     0.00000000    0.00000000    0.00000000
     atom   56 type  2   force =     0.00000000    0.00000000    0.00000000
     atom   57 type  2   force =     0.00000000    0.00000000    0.00000000
     atom   58 type  4   force =     0.00000000    0.00000000    0.00000000
     atom   59 type  4   force =     0.00000000    0.00000000    0.00000000
     atom   60 type  4   force =     0.00000000    0.00000000    0.00000000
     atom   61 type  4   force =     0.00000000    0.00000000    0.00000000
     atom   62 type  4   force =     0.00000000    0.00000000    0.00000000
     atom   63 type  4   force =     0.00000000    0.00000000    0.00000000
     The SCF correction term to forces
     atom    1 type  1   force =     0.00000000    0.00000000   -0.00000000
     atom    2 type  1   force =     0.00000000    0.00000000   -0.00000000
     atom    3 type  1   force =    -0.00007773    0.00004194    0.00002023
     atom    4 type  1   force =     0.00002081   -0.00005558    0.00000783
     atom    5 type  1   force =    -0.00002494   -0.00000501   -0.00000337
     atom    6 type  1   force =    -0.00000722   -0.00002131    0.00003015
     atom    7 type  1   force =    -0.00000000    0.00000000   -0.00000000
     atom    8 type  1   force =     0.00000000   -0.00000000   -0.00000000
     atom    9 type  1   force =    -0.00004171    0.00001796    0.00000025
     atom   10 type  1   force =    -0.00001707   -0.00003440    0.00002690
     atom   11 type  1   force =     0.00002891   -0.00003898    0.00000328
     atom   12 type  1   force =    -0.00005251    0.00002488    0.00001525
     atom   13 type  1   force =    -0.00000000    0.00000000   -0.00000000
     atom   14 type  1   force =    -0.00000000   -0.00000000   -0.00000000
     atom   15 type  1   force =     0.00012051   -0.00001964   -0.00000089
     atom   16 type  1   force =    -0.00000607    0.00004982    0.00000976
     atom   17 type  1   force =     0.00006310    0.00000044    0.00006951
     atom   18 type  1   force =     0.00003114    0.00002389    0.00002205
     atom   19 type  1   force =     0.00000000   -0.00000000   -0.00000000
     atom   20 type  1   force =    -0.00000000    0.00000000   -0.00000000
     atom   21 type  1   force =     0.00006057    0.00001614    0.00000461
     atom   22 type  1   force =     0.00005433    0.00001333    0.00000303
     atom   23 type  1   force =     0.00000734    0.00005883    0.00005212
     atom   24 type  1   force =     0.00008490   -0.00003220    0.00003981
     atom   25 type  1   force =     0.00000000   -0.00000000    0.00000000
     atom   26 type  1   force =    -0.00000000    0.00000000   -0.00000000
     atom   27 type  1   force =     0.00004865   -0.00000379   -0.00004699
     atom   28 type  1   force =     0.00000949    0.00001651   -0.00003199
     atom   29 type  1   force =    -0.00011145    0.00002914    0.00003692
     atom   30 type  1   force =    -0.00001455   -0.00006275    0.00002234
     atom   31 type  1   force =     0.00000000   -0.00000000   -0.00000000
     atom   32 type  1   force =    -0.00000000    0.00000000    0.00000000
     atom   33 type  1   force =    -0.00002261    0.00006127   -0.00004037
     atom   34 type  1   force =     0.00007924   -0.00004846   -0.00003936
     atom   35 type  1   force =    -0.00008258   -0.00000280    0.00001177
     atom   36 type  1   force =    -0.00004238   -0.00003722    0.00004552
     atom   37 type  1   force =    -0.00000000    0.00000000   -0.00000000
     atom   38 type  1   force =     0.00000000   -0.00000000   -0.00000000
     atom   39 type  1   force =    -0.00003136    0.00002488    0.00001713
     atom   40 type  1   force =     0.00000625   -0.00003287    0.00002473
     atom   41 type  1   force =     0.00010671   -0.00001081    0.00001841
     atom   42 type  1   force =     0.00003393    0.00005187    0.00002880
     atom   43 type  1   force =    -0.00000000    0.00000000   -0.00000000
     atom   44 type  1   force =     0.00000000   -0.00000000   -0.00000000
     atom   45 type  1   force =     0.00004089   -0.00004636    0.00001863
     atom   46 type  1   force =    -0.00006668    0.00003944    0.00002573
     atom   47 type  1   force =     0.00009553    0.00000769    0.00003572
     atom   48 type  1   force =     0.00004837    0.00003412    0.00000650
     atom   49 type  3   force =    -0.00000840   -0.00000382    0.00001414
     atom   50 type  3   force =     0.00000205    0.00000396    0.00000116
     atom   51 type  3   force =     0.00000063    0.00000281   -0.00000946
     atom   52 type  3   force =     0.00000117    0.00000314   -0.00000215
     atom   53 type  3   force =     0.00000983    0.00000341   -0.00001162
     atom   54 type  3   force =     0.00000391    0.00000020   -0.00001256
     atom   55 type  3   force =    -0.00000075   -0.00000090   -0.00000736
     atom   56 type  2   force =    -0.00000134   -0.00000582    0.00000570
     atom   57 type  2   force =     0.00000330   -0.00000022   -0.00000076
     atom   58 type  4   force =    -0.00000185   -0.00000131   -0.00000081
     atom   59 type  4   force =     0.00000042   -0.00000048    0.00000036
     atom   60 type  4   force =     0.00000041    0.00000039    0.00000161
     atom   61 type  4   force =    -0.00000065    0.00000025   -0.00000102
     atom   62 type  4   force =    -0.00000055   -0.00000024   -0.00000167
     atom   63 type  4   force =     0.00000243    0.00000062    0.00000075

     DFT-D3 dispersion contribution to forces:
     atom    1 type  1   force =    -0.00078740   -0.00019232    0.00277876
     atom    2 type  1   force =    -0.00077728   -0.00020089    0.00277136
     atom    3 type  1   force =    -0.00112601   -0.00027987   -0.00273053
     atom    4 type  1   force =    -0.00115342   -0.00031626   -0.00271825
     atom    5 type  1   force =     0.00070103    0.00043666   -0.00177133
     atom    6 type  1   force =     0.00064057    0.00079477   -0.00059328
     atom    7 type  1   force =    -0.00077781   -0.00019590    0.00278052
     atom    8 type  1   force =    -0.00079017   -0.00019334    0.00276409
     atom    9 type  1   force =    -0.00110813   -0.00030479   -0.00271391
     atom   10 type  1   force =    -0.00116402   -0.00029804   -0.00272714
     atom   11 type  1   force =     0.00054497    0.00086272   -0.00148865
     atom   12 type  1   force =     0.00066512   -0.00015341   -0.00072335
     atom   13 type  1   force =     0.00058560    0.00018238    0.00294795
     atom   14 type  1   force =     0.00056782    0.00015406    0.00295992
     atom   15 type  1   force =    -0.00016074   -0.00008818   -0.00074063
     atom   16 type  1   force =    -0.00028243   -0.00008217   -0.00074707
     atom   17 type  1   force =    -0.00014702   -0.00002070   -0.00261253
     atom   18 type  1   force =     0.00019172   -0.00006383   -0.00204696
     atom   19 type  1   force =     0.00056441    0.00017644    0.00296079
     atom   20 type  1   force =     0.00058579    0.00017014    0.00294479
     atom   21 type  1   force =    -0.00025955   -0.00015722   -0.00077236
     atom   22 type  1   force =    -0.00019662   -0.00008304   -0.00078012
     atom   23 type  1   force =    -0.00001768    0.00016114   -0.00231594
     atom   24 type  1   force =    -0.00009428   -0.00012208   -0.00251720
     atom   25 type  1   force =     0.00058677    0.00015705    0.00279369
     atom   26 type  1   force =     0.00058450    0.00014929    0.00280695
     atom   27 type  1   force =     0.00076866    0.00024054    0.00189373
     atom   28 type  1   force =     0.00076610    0.00019753    0.00191426
     atom   29 type  1   force =     0.00076188    0.00018236   -0.00200649
     atom   30 type  1   force =     0.00078655    0.00021843   -0.00194987
     atom   31 type  1   force =     0.00057972    0.00015960    0.00280893
     atom   32 type  1   force =     0.00058995    0.00015903    0.00278033
     atom   33 type  1   force =     0.00075152    0.00021747    0.00189770
     atom   34 type  1   force =     0.00076744    0.00021850    0.00190651
     atom   35 type  1   force =     0.00077325    0.00019337   -0.00205034
     atom   36 type  1   force =     0.00072746    0.00017805   -0.00180472
     atom   37 type  1   force =     0.00029945    0.00008387    0.00262931
     atom   38 type  1   force =     0.00029227    0.00007859    0.00264079
     atom   39 type  1   force =    -0.00112038   -0.00032003    0.00160644
     atom   40 type  1   force =    -0.00106818   -0.00030682    0.00166974
     atom   41 type  1   force =    -0.00034891   -0.00047226   -0.00436493
     atom   42 type  1   force =    -0.00003852    0.00002140   -0.00300682
     atom   43 type  1   force =     0.00029716    0.00008217    0.00263417
     atom   44 type  1   force =     0.00029637    0.00008104    0.00261845
     atom   45 type  1   force =    -0.00109483   -0.00037736    0.00157682
     atom   46 type  1   force =    -0.00111337   -0.00031194    0.00165934
     atom   47 type  1   force =    -0.00038947   -0.00012810   -0.00406597
     atom   48 type  1   force =     0.00009739   -0.00091177   -0.00329660
     atom   49 type  3   force =    -0.00009226   -0.00002047    0.00001001
     atom   50 type  3   force =    -0.00004241    0.00001088   -0.00020578
     atom   51 type  3   force =    -0.00010877   -0.00001561   -0.00035509
     atom   52 type  3   force =     0.00016695    0.00000459    0.00012526
     atom   53 type  3   force =    -0.00030016   -0.00005198   -0.00109473
     atom   54 type  3   force =     0.00004079   -0.00003565   -0.00005173
     atom   55 type  3   force =     0.00004415   -0.00001280   -0.00095231
     atom   56 type  2   force =     0.00022401    0.00008298   -0.00017732
     atom   57 type  2   force =    -0.00016987   -0.00004563   -0.00153445
     atom   58 type  4   force =    -0.00017697   -0.00000651   -0.00092640
     atom   59 type  4   force =    -0.00024565    0.00009954   -0.00155313
     atom   60 type  4   force =    -0.00003607    0.00001188   -0.00002837
     atom   61 type  4   force =    -0.00002430    0.00000266   -0.00013025
     atom   62 type  4   force =    -0.00000343   -0.00000799   -0.00002225
     atom   63 type  4   force =    -0.00003329    0.00000781   -0.00130379

     Total force =     0.003398     Total SCF correction =     0.000418

     DFT-D3 dispersion Force =     0.017835
     SCF correction compared to forces is large: reduce conv_thr to get better values


     Computing stress (Cartesian axis) and pressure


     negative rho (up, down):  3.839E-03 0.000E+00
          total   stress  (Ry/bohr**3)                   (kbar)     P=      -10.87
  -0.00012083  -0.00000456   0.00000317          -17.78       -0.67        0.47
  -0.00000456  -0.00009335   0.00000205           -0.67      -13.73        0.30
   0.00000317   0.00000205  -0.00000752            0.47        0.30       -1.11

     kinetic stress (kbar)  11681.59     -8.80      8.69
                               -8.80  11727.94     14.27
                                8.69     14.27  11720.71

     local   stress (kbar)-823606.06   3897.35    896.23
                             3897.35-837607.51    551.05
                              896.23    551.05 829252.89

     nonloc. stress (kbar)  -1081.74     -2.41     -2.76
                               -2.41  -1073.23     -1.53
                               -2.76     -1.53  -1107.10

     hartree stress (kbar) 436515.29  -1823.25   -355.74
                            -1823.25 443110.08   -215.47
                             -355.74   -215.47-383187.14

     exc-cor stress (kbar)  -5697.13      0.10     -0.68
                                0.10  -5698.29     -0.72
                               -0.68     -0.72  -5702.57

     corecor stress (kbar)    -75.43     -0.18      0.16
                               -0.18    -74.49      0.19
                                0.16      0.19    -75.55

     ewald   stress (kbar) 382253.20  -2063.72   -545.30
                            -2063.72 389609.88   -347.46
                             -545.30   -347.46-450898.14

     hubbard stress (kbar)      0.00      0.00      0.00
                                0.00      0.00      0.00
                                0.00      0.00      0.00

     DFT-D   stress (kbar)     -7.50      0.24     -0.12
                                0.24     -8.12     -0.02
                               -0.12     -0.02     -4.20

     XDM     stress (kbar)      0.00      0.00      0.00
                                0.00      0.00      0.00
                                0.00      0.00      0.00

     dft-nl  stress (kbar)      0.00      0.00      0.00
                                0.00      0.00      0.00
                                0.00      0.00      0.00

     TS-vdW  stress (kbar)      0.00      0.00      0.00
                                0.00      0.00      0.00
                                0.00      0.00      0.00

     MDB     stress (kbar)      0.00      0.00      0.00
                                0.00      0.00      0.00
                                0.00      0.00      0.00

     3D-RISM stress (kbar)      0.00      0.00      0.00
                                0.00      0.00      0.00
                                0.00      0.00      0.00

     Energy error            =      1.0E-05 Ry
     Gradient error          =      8.8E-04 Ry/Bohr

     number of scf cycles    =  15
     number of bfgs steps    =  14

     energy             old  =  -22331.0413039722 Ry
     energy             new  =  -22331.0413140638 Ry

     CASE: energy            _new < energy            _old

     new trust radius        =       0.0036178221 bohr
     new conv_thr            =       0.0000000101 Ry


ATOMIC_POSITIONS (angstrom)
Zn              -1.0735560000        1.0841420000        1.1977640000    0   0   0
Zn              -2.3094850000        6.1646920000        1.1977640000    0   0   0
Zn              -4.2040084417        0.3134087087        4.3724878266
Zn              -5.4405149677        5.3926265588        4.3771949593
Zn              -8.1366366761       -0.6977205710        5.8242654679
Zn              -9.3784634209        4.3671443015        5.7774923061
Zn              -1.6915200000        3.6244170000        1.1977640000    0   0   0
Zn              -2.9274500000        8.7049670000        1.1977640000    0   0   0
Zn              -4.8205605369        2.8501175246        4.3743164258
Zn              -6.0599810793        7.9356626390        4.3716755053
Zn              -8.7573430924        1.8379428858        5.8221030645
Zn              -9.9934472287        6.9214068165        5.8052471892
Zn               4.4565960000        1.0841420000        1.1977640000    0   0   0
Zn               3.2206660000        6.1646920000        1.1977640000    0   0   0
Zn               0.4276941182        0.1090029668        3.4640394458
Zn              -0.8097488879        5.1919253106        3.4600485655
Zn              -2.0555703966       -0.4913914669        5.6881216370
Zn              -3.2952749185        4.5883614002        5.6906371291
Zn               3.8386310000        3.6244170000        1.1977640000    0   0   0
Zn               2.6027020000        8.7049670000        1.1977640000    0   0   0
Zn              -0.1865061010        2.6503796235        3.4614391020
Zn              -1.4274003194        7.7294944739        3.4686156985
Zn              -2.6795781676        2.0468734141        5.6941079160
Zn              -3.9072122609        7.1316239030        5.6843088462
Zn               1.6915200000        0.4114910000        0.8555450000    0   0   0
Zn               0.4555910000        5.4920410000        0.8555450000    0   0   0
Zn              -2.2228553438       -0.5427346696        2.8804396586
Zn              -3.4610186463        4.5349343257        2.8836019226
Zn              -6.0343148342       -1.4878171640        4.4043536156
Zn              -7.2612507841        3.5874919657        4.3936172677
Zn               1.0735560000        2.9517660000        0.8555450000    0   0   0
Zn              -0.1623740000        8.0323160000        0.8555450000    0   0   0
Zn              -2.8438611523        1.9955226990        2.8803207240
Zn              -4.0764391423        7.0772193917        2.8828038456
Zn              -6.6515287669        1.0482324002        4.4010395842
Zn              -7.8818207384        6.1337556339        4.4061440671
Zn               7.2216720000        0.4114910000        0.8555450000    0   0   0
Zn               5.9857420000        5.4920410000        0.8555450000    0   0   0
Zn               3.0123252087       -0.6211853659        2.9227313662
Zn               1.7847864124        4.4637226624        2.9149190418
Zn               0.4299128954       -1.2163427410        5.8197635103
Zn              -0.8168927747        3.8584335729        5.8032826973
Zn               6.6037070000        2.9517660000        0.8555450000    0   0   0
Zn               5.3677780000        8.0323160000        0.8555450000    0   0   0
Zn               2.3973734801        1.9188995118        2.9227839622
Zn               1.1614182735        7.0020342031        2.9250339430
Zn              -0.1915307762        1.3234382016        5.8192655005
Zn              -1.4223349545        6.4013946286        5.8327764322
C              -13.1515095795        3.7363560184       13.5479482597
C              -12.3345487507        4.0223419102       12.4166035542
C              -12.8965853034        4.1200565894       11.1274081282
C              -10.9475773926        4.2204787121       12.5671064576
C              -12.1043602735        4.4206602166       10.0301457569
C              -10.1538767061        4.5199406549       11.4704016457
C              -10.7179441412        4.6384332355       10.1819325510
N              -13.8231450282        3.5095639965       14.4765160234
N               -9.9307771657        4.9189611725        9.0877658075
H               -9.0102102708        5.3082657921        9.2489442051
H              -10.3814535762        5.2428444679        8.2342472820
H              -10.5001208304        4.1429607926       13.5580105248
H              -13.9676391585        3.9640673214       10.9993639705
H               -9.0813734225        4.6727293511       11.6037142041
H              -12.5508072821        4.4961215231        9.0358027654



     Writing config-only to output data dir ./tmp/05_Zn101_ABN_topsite_edge_on_tilted.save/ :
     XML data file
     NEW-OLD atomic charge density approx. for the potential

     negative rho (up, down):  3.840E-03 0.000E+00

     total cpu time spent up to now is    20865.7 secs

     Self-consistent Calculation

     iteration #  1     ecut=    40.00 Ry     beta= 0.40
     Davidson diagonalization with overlap

---- Real-time Memory Report at c_bands before calling an iterative solver
           690 MiB given to the printing process from OS
             0 MiB allocation reported by mallinfo(arena+hblkhd)
        211718 MiB available memory on the node where the printing process lives
------------------
     ethr =  1.00E-06,  avg # of iterations =  3.0

     Threshold (ethr) on eigenvalues was too large:
     Diagonalizing with lowered threshold

     Davidson diagonalization with overlap

---- Real-time Memory Report at c_bands before calling an iterative solver
           690 MiB given to the printing process from OS
             0 MiB allocation reported by mallinfo(arena+hblkhd)
        211721 MiB available memory on the node where the printing process lives
------------------
