--------------------------------------------------------------------------
By default, for Open MPI 4.0 and later, infiniband ports on a device
are not used by default.  The intent is to use UCX for these devices.
You can override this policy by setting the btl_openib_allow_ib MCA parameter
to true.

  Local host:              psid04
  Local adapter:           mlx5_0
  Local port:              1

--------------------------------------------------------------------------
--------------------------------------------------------------------------
WARNING: There was an error initializing an OpenFabrics device.

  Local host:   psid04
  Local device: mlx5_0
--------------------------------------------------------------------------

     Program PWSCF v.7.3.1 starts on 15Mar2025 at 20:29:33 

     This program is part of the open-source Quantum ESPRESSO suite
     for quantum simulation of materials; please cite
         "P. Giannozzi et al., J. Phys.:Condens. Matter 21 395502 (2009);
         "P. Giannozzi et al., J. Phys.:Condens. Matter 29 465901 (2017);
         "P. Giannozzi et al., J. Chem. Phys. 152 154105 (2020);
          URL http://www.quantum-espresso.org", 
     in publications or presentations arising from this work. More details at
     http://www.quantum-espresso.org/quote

     Parallel version (MPI), running on    30 processors

     MPI processes distributed on     1 nodes
     117249 MiB available memory on the printing compute node when the environment starts

     Waiting for input...
     Reading input from standard input
Warning: card &CELL ignored
Warning: card   CELL_DOFREE = 'ALL' ignored
Warning: card / ignored

     Current dimensions of program PWSCF are:
     Max number of different atomic species (ntypx) = 10
     Max number of k-points (npk) =  40000
     Max angular momentum in pseudopotentials (lmaxx) =  4
     file C.pbe-n-kjpaw_psl.1.0.0.UPF: wavefunction(s)  2S 2P renormalized

     gamma-point specific algorithms are used

     R & G space division:  proc/nbgrp/npool/nimage =      30
     Subspace diagonalization in iterative solution of the eigenvalue problem:
     a serial algorithm will be used


     Parallelization info
     --------------------
     sticks:   dense  smooth     PW     G-vecs:    dense   smooth      PW
     Min         709     709    176                78013    78013    9744
     Max         712     712    178                78024    78024    9754
     Sum       21329   21329   5337              2340509  2340509  292499

     Using Slab Decomposition



     bravais-lattice index     =            1
     lattice parameter (alat)  =      47.2432  a.u.
     unit-cell volume          =  105442.7265 (a.u.)^3
     number of atoms/cell      =           15
     number of atomic types    =            3
     number of electrons       =        44.00
     number of Kohn-Sham states=           26
     kinetic-energy cutoff     =      30.0000  Ry
     charge density cutoff     =     120.0000  Ry
     scf convergence threshold =      1.0E-06
     mixing beta               =       0.7000
     number of iterations used =            8  plain     mixing
     energy convergence thresh.=      1.0E-05
     force convergence thresh. =      5.0E-04
     Exchange-correlation= PBE
                           (   1   4   3   4   0   0   0)
     nstep                     =          100


     celldm(1)=  47.243153  celldm(2)=   0.000000  celldm(3)=   0.000000
     celldm(4)=   0.000000  celldm(5)=   0.000000  celldm(6)=   0.000000

     crystal axes: (cart. coord. in units of alat)
               a(1) = (   1.000000   0.000000   0.000000 )  
               a(2) = (   0.000000   1.000000   0.000000 )  
               a(3) = (   0.000000   0.000000   1.000000 )  

     reciprocal axes: (cart. coord. in units 2 pi/alat)
               b(1) = (  1.000000  0.000000  0.000000 )  
               b(2) = (  0.000000  1.000000  0.000000 )  
               b(3) = (  0.000000  0.000000  1.000000 )  


     PseudoPot. # 1 for N  read from file:
     /home/ys/qepseudo/SSSP_1.3.0_PBE_efficiency/N.pbe-n-radius_5.UPF
     MD5 check sum: 16739722b17309cd8fe442a2ace49922
     Pseudo is Ultrasoft + core correction, Zval =  5.0
     Generated using "atomic" code by A. Dal Corso  v.5.1
     Using radial grid of 1085 points,  4 beta functions with: 
                l(1) =   0
                l(2) =   0
                l(3) =   1
                l(4) =   1
     Q(r) pseudized with 0 coefficients 


     PseudoPot. # 2 for C  read from file:
     /home/ys/qepseudo/SSSP_1.3.0_PBE_efficiency/C.pbe-n-kjpaw_psl.1.0.0.UPF
     MD5 check sum: 5d2aebdfa2cae82b50a7e79e9516da0f
     Pseudo is Projector augmented-wave + core cor, Zval =  4.0
     Generated using "atomic" code by A. Dal Corso  v.5.1
     Shape of augmentation charge: PSQ
     Using radial grid of 1073 points,  4 beta functions with: 
                l(1) =   0
                l(2) =   0
                l(3) =   1
                l(4) =   1
     Q(r) pseudized with 0 coefficients 


     PseudoPot. # 3 for H  read from file:
     /home/ys/qepseudo/SSSP_1.3.0_PBE_efficiency/H.pbe-rrkjus_psl.1.0.0.UPF
     MD5 check sum: f52b6d4d1c606e5624b1dc7b2218f220
     Pseudo is Ultrasoft, Zval =  1.0
     Generated using "atomic" code by A. Dal Corso  v.5.1
     Using radial grid of  929 points,  2 beta functions with: 
                l(1) =   0
                l(2) =   0
     Q(r) pseudized with 0 coefficients 


     atomic species   valence    mass     pseudopotential
     N                 5.00    14.00674     N ( 1.00)
     C                 4.00    12.01070     C ( 1.00)
     H                 1.00     1.00794     H ( 1.00)

     No symmetry found


                                    s                        frac. trans.

      isym =  1     identity                                     

 cryst.   s( 1) = (     1          0          0      )
                  (     0          1          0      )
                  (     0          0          1      )

 cart.    s( 1) = (  1.0000000  0.0000000  0.0000000 )
                  (  0.0000000  1.0000000  0.0000000 )
                  (  0.0000000  0.0000000  1.0000000 )


     point group C_1 (1)    
     there are  1 classes
     the character table:

       E    
A      1.00

     the symmetry operations in each class and the name of the first element:

     E        1
          identity                                               

   Cartesian axes

     site n.     atom                  positions (alat units)
         1        N      tau(   1) = (   0.3082947   0.1828037   0.1828315  )
         2        N      tau(   2) = (   0.0365610   0.1828114   0.1828110  )
         3        C      tau(   3) = (   0.2536349   0.1828048   0.1828216  )
         4        C      tau(   4) = (   0.2245678   0.1342953   0.1828205  )
         5        C      tau(   5) = (   0.2245703   0.2313162   0.1828198  )
         6        C      tau(   6) = (   0.1402862   0.1828077   0.1828165  )
         7        C      tau(   7) = (   0.1690955   0.1343761   0.1828184  )
         8        C      tau(   8) = (   0.1690981   0.2312380   0.1828176  )
         9        C      tau(   9) = (   0.0830612   0.1828096   0.1828136  )
        10        H      tau(  10) = (   0.2461947   0.0962926   0.1828220  )
        11        H      tau(  11) = (   0.2461991   0.2693177   0.1828205  )
        12        H      tau(  12) = (   0.1473592   0.0964985   0.1828172  )
        13        H      tau(  13) = (   0.1473633   0.2691166   0.1828158  )
        14        H      tau(  14) = (   0.3290493   0.2174296   0.1827788  )
        15        H      tau(  15) = (   0.3290475   0.1481764   0.1827792  )

   Crystallographic axes

     site n.     atom                  positions (cryst. coord.)
         1        N      tau(   1) = (  0.3082947  0.1828037  0.1828315  )
         2        N      tau(   2) = (  0.0365610  0.1828114  0.1828110  )
         3        C      tau(   3) = (  0.2536349  0.1828048  0.1828216  )
         4        C      tau(   4) = (  0.2245678  0.1342953  0.1828205  )
         5        C      tau(   5) = (  0.2245703  0.2313162  0.1828198  )
         6        C      tau(   6) = (  0.1402862  0.1828077  0.1828165  )
         7        C      tau(   7) = (  0.1690955  0.1343761  0.1828184  )
         8        C      tau(   8) = (  0.1690981  0.2312380  0.1828176  )
         9        C      tau(   9) = (  0.0830612  0.1828096  0.1828136  )
        10        H      tau(  10) = (  0.2461947  0.0962926  0.1828220  )
        11        H      tau(  11) = (  0.2461991  0.2693177  0.1828205  )
        12        H      tau(  12) = (  0.1473592  0.0964985  0.1828172  )
        13        H      tau(  13) = (  0.1473633  0.2691166  0.1828158  )
        14        H      tau(  14) = (  0.3290493  0.2174296  0.1827788  )
        15        H      tau(  15) = (  0.3290475  0.1481764  0.1827792  )

     number of k points=     1  Marzari-Vanderbilt smearing, width (Ry)=  0.0200
                       cart. coord. in units 2pi/alat
        k(    1) = (   0.0000000   0.0000000   0.0000000), wk =   2.0000000

                       cryst. coord.
        k(    1) = (   0.0000000   0.0000000   0.0000000), wk =   2.0000000

     Dense  grid:  1170255 G-vectors     FFT dimensions: ( 180, 180, 180)

     Dynamical RAM for                 wfc:       1.93 MB

     Dynamical RAM for     wfc (w. buffer):       1.93 MB

     Dynamical RAM for           str. fact:       1.79 MB

     Dynamical RAM for           local pot:       0.00 MB

     Dynamical RAM for          nlocal pot:       6.25 MB

     Dynamical RAM for                qrad:       0.75 MB

     Dynamical RAM for          rho,v,vnew:       6.24 MB

     Dynamical RAM for               rhoin:       2.08 MB

     Dynamical RAM for            rho*nmix:       9.52 MB

     Dynamical RAM for           G-vectors:       2.53 MB

     Dynamical RAM for          h,s,v(r/c):       0.06 MB

     Dynamical RAM for          <psi|beta>:       0.02 MB

     Dynamical RAM for                 psi:       3.87 MB

     Dynamical RAM for                hpsi:       3.87 MB

     Dynamical RAM for                spsi:       3.87 MB

     Dynamical RAM for      wfcinit/wfcrot:       6.29 MB

     Dynamical RAM for           addusdens:      29.76 MB

     Dynamical RAM for          addusforce:      37.21 MB

     Dynamical RAM for         addusstress:      29.76 MB

     Estimated static dynamical RAM per process >      31.37 MB

     Estimated max dynamical RAM per process >      78.10 MB

     Estimated total dynamical RAM >       2.29 GB

     Check: negative core charge=   -0.000016

     Initial potential from superposition of free atoms

     starting charge      43.9996, renormalised to      44.0000

     negative rho (up, down):  9.902E-02 0.000E+00
     Starting wfcs are   42 randomized atomic wfcs
     Checking if some PAW data can be deallocated... 
       PAW data deallocated on   16 nodes for type:  2

     total cpu time spent up to now is        1.1 secs

     Self-consistent Calculation

     iteration #  1     ecut=    30.00 Ry     beta= 0.70
     Davidson diagonalization with overlap

---- Real-time Memory Report at c_bands before calling an iterative solver
            82 MiB given to the printing process from OS
             0 MiB allocation reported by mallinfo(arena+hblkhd)
        115242 MiB available memory on the node where the printing process lives
------------------
     ethr =  1.00E-02,  avg # of iterations =  2.0

     negative rho (up, down):  2.457E-01 0.000E+00

     total cpu time spent up to now is        2.3 secs

     total energy              =    -175.88073442 Ry
     estimated scf accuracy    <       1.82366666 Ry

     iteration #  2     ecut=    30.00 Ry     beta= 0.70
     Davidson diagonalization with overlap

---- Real-time Memory Report at c_bands before calling an iterative solver
            86 MiB given to the printing process from OS
             0 MiB allocation reported by mallinfo(arena+hblkhd)
        115130 MiB available memory on the node where the printing process lives
------------------
     ethr =  4.14E-03,  avg # of iterations =  2.0

     negative rho (up, down):  2.653E-01 0.000E+00

     total cpu time spent up to now is        3.4 secs

     total energy              =    -176.22006813 Ry
     estimated scf accuracy    <       0.64283759 Ry

     iteration #  3     ecut=    30.00 Ry     beta= 0.70
     Davidson diagonalization with overlap

---- Real-time Memory Report at c_bands before calling an iterative solver
            87 MiB given to the printing process from OS
             0 MiB allocation reported by mallinfo(arena+hblkhd)
        115092 MiB available memory on the node where the printing process lives
------------------
     ethr =  1.46E-03,  avg # of iterations =  6.0

     negative rho (up, down):  2.763E-01 0.000E+00

     total cpu time spent up to now is        4.6 secs

     total energy              =    -176.32775927 Ry
     estimated scf accuracy    <       0.23656033 Ry

     iteration #  4     ecut=    30.00 Ry     beta= 0.70
     Davidson diagonalization with overlap

---- Real-time Memory Report at c_bands before calling an iterative solver
            88 MiB given to the printing process from OS
             0 MiB allocation reported by mallinfo(arena+hblkhd)
        115053 MiB available memory on the node where the printing process lives
------------------
[psid04:262244] 29 more processes have sent help message help-mpi-btl-openib.txt / ib port not selected
[psid04:262244] Set MCA parameter "orte_base_help_aggregate" to 0 to see all help / error messages
[psid04:262244] 29 more processes have sent help message help-mpi-btl-openib.txt / error in device init
     ethr =  5.38E-04,  avg # of iterations =  3.0

     negative rho (up, down):  2.912E-01 0.000E+00

     total cpu time spent up to now is        5.6 secs

     total energy              =    -176.37928257 Ry
     estimated scf accuracy    <       0.02848177 Ry

     iteration #  5     ecut=    30.00 Ry     beta= 0.70
     Davidson diagonalization with overlap

---- Real-time Memory Report at c_bands before calling an iterative solver
            89 MiB given to the printing process from OS
             0 MiB allocation reported by mallinfo(arena+hblkhd)
        115004 MiB available memory on the node where the printing process lives
------------------
     ethr =  6.47E-05,  avg # of iterations = 14.0

     negative rho (up, down):  2.941E-01 0.000E+00

     total cpu time spent up to now is        6.8 secs

     total energy              =    -176.38375759 Ry
     estimated scf accuracy    <       0.00118240 Ry

     iteration #  6     ecut=    30.00 Ry     beta= 0.70
     Davidson diagonalization with overlap

---- Real-time Memory Report at c_bands before calling an iterative solver
            91 MiB given to the printing process from OS
             0 MiB allocation reported by mallinfo(arena+hblkhd)
        114975 MiB available memory on the node where the printing process lives
------------------
     ethr =  2.69E-06,  avg # of iterations = 13.0

     negative rho (up, down):  2.949E-01 0.000E+00

     total cpu time spent up to now is        8.3 secs

     total energy              =    -176.38417485 Ry
     estimated scf accuracy    <       0.00019081 Ry

     iteration #  7     ecut=    30.00 Ry     beta= 0.70
     Davidson diagonalization with overlap

---- Real-time Memory Report at c_bands before calling an iterative solver
            92 MiB given to the printing process from OS
             0 MiB allocation reported by mallinfo(arena+hblkhd)
        114946 MiB available memory on the node where the printing process lives
------------------
     ethr =  4.34E-07,  avg # of iterations =  2.0

     negative rho (up, down):  2.952E-01 0.000E+00

     total cpu time spent up to now is        9.4 secs

     total energy              =    -176.38420836 Ry
     estimated scf accuracy    <       0.00002985 Ry

     iteration #  8     ecut=    30.00 Ry     beta= 0.70
     Davidson diagonalization with overlap

---- Real-time Memory Report at c_bands before calling an iterative solver
            93 MiB given to the printing process from OS
             0 MiB allocation reported by mallinfo(arena+hblkhd)
        114911 MiB available memory on the node where the printing process lives
------------------
     ethr =  6.78E-08,  avg # of iterations =  2.0

     negative rho (up, down):  2.953E-01 0.000E+00

     total cpu time spent up to now is       10.4 secs

     total energy              =    -176.38421415 Ry
     estimated scf accuracy    <       0.00001002 Ry

     iteration #  9     ecut=    30.00 Ry     beta= 0.70
     Davidson diagonalization with overlap

---- Real-time Memory Report at c_bands before calling an iterative solver
            94 MiB given to the printing process from OS
             0 MiB allocation reported by mallinfo(arena+hblkhd)
        114876 MiB available memory on the node where the printing process lives
------------------
     ethr =  2.28E-08,  avg # of iterations =  2.0

     negative rho (up, down):  2.954E-01 0.000E+00

     total cpu time spent up to now is       11.4 secs

     End of self-consistent calculation

          k = 0.0000 0.0000 0.0000 (146250 PWs)   bands (ev):

   -23.7741 -22.2759 -21.4268 -19.0170 -18.9508 -16.0536 -15.7735 -13.8228
   -13.5020 -13.3355 -11.2645 -11.1071 -10.6754 -10.1800  -9.9249  -9.0244
    -8.8144  -8.0993  -7.7940  -7.5745  -6.8036  -5.4364  -1.8347  -1.6850
    -1.6202  -1.2109

     occupation numbers 
     1.0000   1.0000   1.0000   1.0000   1.0000   1.0000   1.0000   1.0000
     1.0000   1.0000   1.0000   1.0000   1.0000   1.0000   1.0000   1.0000
     1.0000   1.0000   1.0000   1.0000   1.0000   1.0000   0.0000   0.0000
     0.0000   0.0000

     the Fermi energy is    -3.7408 ev

!    total energy              =    -176.38421635 Ry
     estimated scf accuracy    <       0.00000028 Ry
     smearing contrib. (-TS)   =       0.00000000 Ry
     internal energy E=F+TS    =    -176.38421635 Ry

     The total energy is F=E-TS. E is the sum of the following terms:
     one-electron contribution =    -701.17948922 Ry
     hartree contribution      =     355.68740241 Ry
     xc contribution           =     -47.25169345 Ry
     ewald contribution        =     259.54323485 Ry
     one-center paw contrib.   =     -43.18367094 Ry
      -> PAW hartree energy AE =       0.00000000 Ry
      -> PAW hartree energy PS =       0.00000000 Ry
      -> PAW xc energy AE      =       0.00000000 Ry
      -> PAW xc energy PS      =       0.00000000 Ry
      -> total E_H with PAW    =     355.68740241 Ry
      -> total E_XC with PAW   =     -47.25169345 Ry

     convergence has been achieved in   9 iterations

     negative rho (up, down):  2.954E-01 0.000E+00

     Forces acting on atoms (cartesian axes, Ry/au):

     atom    1 type  1   force =    -0.00477626   -0.00014977   -0.00033566
     atom    2 type  1   force =    -0.05182762   -0.00016157   -0.00043554
     atom    3 type  2   force =    -0.00867367   -0.00000973    0.00085988
     atom    4 type  2   force =    -0.00068548    0.00169287    0.00061693
     atom    5 type  2   force =    -0.00028431   -0.00185684   -0.00007817
     atom    6 type  2   force =    -0.00721893    0.00013616    0.00023680
     atom    7 type  2   force =     0.00184486   -0.00041611    0.00076099
     atom    8 type  2   force =     0.00128400    0.00036181    0.00004093
     atom    9 type  2   force =     0.05894407    0.00131840    0.00103209
     atom   10 type  3   force =     0.00127273   -0.00286763   -0.00042682
     atom   11 type  3   force =     0.00125017    0.00255063   -0.00045769
     atom   12 type  3   force =    -0.00119071   -0.00229751   -0.00043125
     atom   13 type  3   force =    -0.00117004    0.00199003   -0.00043178
     atom   14 type  3   force =     0.00562589    0.00745328   -0.00047048
     atom   15 type  3   force =     0.00560528   -0.00774403   -0.00048025
     The non-local contrib.  to forces
     atom    1 type  1   force =    -0.04882825    0.00001431   -0.00412598
     atom    2 type  1   force =     1.85078836   -0.00014894    0.00009155
     atom    3 type  2   force =     0.32870647   -0.00006563    0.00042795
     atom    4 type  2   force =     0.05661830    0.03847082    0.00016673
     atom    5 type  2   force =     0.05665122   -0.03852191   -0.00002174
     atom    6 type  2   force =    -0.27040954   -0.00014946    0.00012668
     atom    7 type  2   force =    -0.01523853    0.03399311    0.00029141
     atom    8 type  2   force =    -0.01541294   -0.03399757    0.00006604
     atom    9 type  2   force =     0.28385777    0.00027178    0.00033453
     atom   10 type  3   force =    -0.03748941    0.06826415    0.00002909
     atom   11 type  3   force =    -0.03746520   -0.06822383   -0.00000450
     atom   12 type  3   force =     0.03980400    0.06909280    0.00002105
     atom   13 type  3   force =     0.03977685   -0.06904837    0.00002531
     atom   14 type  3   force =    -0.05342840   -0.08829024    0.00013215
     atom   15 type  3   force =    -0.05343353    0.08829075    0.00012264
     The ionic contribution  to forces
     atom    1 type  1   force =     9.92082261   -0.00024690    0.00902875
     atom    2 type  1   force =   -13.73168530    0.00049827   -0.00072898
     atom    3 type  2   force =     2.60485116   -0.00007265   -0.00009362
     atom    4 type  2   force =     2.69812878   -7.02725462    0.00017838
     atom    5 type  2   force =     2.69851637    7.02709612    0.00008579
     atom    6 type  2   force =    -3.48520681    0.00005912   -0.00011790
     atom    7 type  2   force =    -2.65133398   -6.95685705    0.00004292
     atom    8 type  2   force =    -2.65095955    6.95696958   -0.00006521
     atom    9 type  2   force =    -1.30739253   -0.00004961   -0.00001230
     atom   10 type  3   force =     1.50628778   -3.28025269    0.00013253
     atom   11 type  3   force =     1.50645275    3.28018179    0.00007135
     atom   12 type  3   force =    -1.47541803   -3.26290937   -0.00005801
     atom   13 type  3   force =    -1.47525012    3.26296039   -0.00011487
     atom   14 type  3   force =     2.92118563    2.89842297   -0.00419087
     atom   15 type  3   force =     2.92100125   -2.89854533   -0.00415795
     The local contribution  to forces
     atom    1 type  1   force =    -9.87643888    0.00023203   -0.00482852
     atom    2 type  1   force =    11.84013311   -0.00036785    0.00066685
     atom    3 type  2   force =    -2.93889666    0.00021444   -0.00051982
     atom    4 type  2   force =    -2.75333254    6.99191969   -0.00048554
     atom    5 type  2   force =    -2.75387283   -6.99176839   -0.00010413
     atom    6 type  2   force =     3.74631321    0.00010169   -0.00006809
     atom    7 type  2   force =     2.66609419    6.92343172   -0.00046492
     atom    8 type  2   force =     2.66609777   -6.92360541   -0.00003976
     atom    9 type  2   force =     1.09582516   -0.00044276   -0.00047090
     atom   10 type  3   force =    -1.46768169    3.20920825   -0.00013347
     atom   11 type  3   force =    -1.46789319   -3.20918730   -0.00006908
     atom   12 type  3   force =     1.43425885    3.19169387    0.00006076
     atom   13 type  3   force =     1.43413823   -3.19178970    0.00011283
     atom   14 type  3   force =    -2.86223726   -2.80254749    0.00404356
     atom   15 type  3   force =    -2.86206823    2.80268520    0.00401038
     The core correction contribution to forces
     atom    1 type  1   force =     0.00013592    0.00000403    0.00004549
     atom    2 type  1   force =    -0.01091020    0.00001067   -0.00001032
     atom    3 type  2   force =    -0.00343730    0.00006567    0.00150067
     atom    4 type  2   force =    -0.00258411   -0.00151203    0.00121214
     atom    5 type  2   force =    -0.00206239    0.00171206    0.00041794
     atom    6 type  2   force =     0.00183505    0.00027692    0.00075019
     atom    7 type  2   force =     0.00184367   -0.00071660    0.00134577
     atom    8 type  2   force =     0.00107728    0.00103400    0.00053486
     atom    9 type  2   force =    -0.01355324    0.00169245    0.00163476
     atom   10 type  3   force =     0.00000000    0.00000000    0.00000000
     atom   11 type  3   force =     0.00000000    0.00000000    0.00000000
     atom   12 type  3   force =     0.00000000    0.00000000    0.00000000
     atom   13 type  3   force =     0.00000000    0.00000000    0.00000000
     atom   14 type  3   force =     0.00000000    0.00000000    0.00000000
     atom   15 type  3   force =     0.00000000    0.00000000    0.00000000
     The Hubbard contrib.    to forces
     atom    1 type  1   force =     0.00000000    0.00000000    0.00000000
     atom    2 type  1   force =     0.00000000    0.00000000    0.00000000
     atom    3 type  2   force =     0.00000000    0.00000000    0.00000000
     atom    4 type  2   force =     0.00000000    0.00000000    0.00000000
     atom    5 type  2   force =     0.00000000    0.00000000    0.00000000
     atom    6 type  2   force =     0.00000000    0.00000000    0.00000000
     atom    7 type  2   force =     0.00000000    0.00000000    0.00000000
     atom    8 type  2   force =     0.00000000    0.00000000    0.00000000
     atom    9 type  2   force =     0.00000000    0.00000000    0.00000000
     atom   10 type  3   force =     0.00000000    0.00000000    0.00000000
     atom   11 type  3   force =     0.00000000    0.00000000    0.00000000
     atom   12 type  3   force =     0.00000000    0.00000000    0.00000000
     atom   13 type  3   force =     0.00000000    0.00000000    0.00000000
     atom   14 type  3   force =     0.00000000    0.00000000    0.00000000
     atom   15 type  3   force =     0.00000000    0.00000000    0.00000000
     The SCF correction term to forces
     atom    1 type  1   force =    -0.00061252    0.00000027   -0.00000022
     atom    2 type  1   force =    -0.00029845   -0.00000024    0.00000053
     atom    3 type  2   force =    -0.00004220    0.00000193   -0.00000013
     atom    4 type  2   force =     0.00033921    0.00022249    0.00000039
     atom    5 type  2   force =     0.00033846   -0.00022123   -0.00000087
     atom    6 type  2   force =     0.00010430    0.00000139    0.00000109
     atom    7 type  2   force =     0.00033464   -0.00011380    0.00000098
     atom    8 type  2   force =     0.00033657    0.00011469    0.00000017
     atom    9 type  2   force =     0.00006203    0.00000003    0.00000116
     atom   10 type  3   force =     0.00001118    0.00006615    0.00000019
     atom   11 type  3   force =     0.00001094   -0.00006654   -0.00000030
     atom   12 type  3   force =     0.00001960   -0.00002133    0.00000012
     atom   13 type  3   force =     0.00002013    0.00002120    0.00000012
     atom   14 type  3   force =    -0.00003894    0.00002153   -0.00000015
     atom   15 type  3   force =    -0.00003908   -0.00002116   -0.00000015

     Total force =     0.080855     Total SCF correction =     0.001037


     Computing stress (Cartesian axis) and pressure


     negative rho (up, down):  2.954E-01 0.000E+00
          total   stress  (Ry/bohr**3)                   (kbar)     P=       -0.30
  -0.00000145   0.00000000  -0.00000000           -0.21        0.00       -0.00
   0.00000000  -0.00000228   0.00000000            0.00       -0.34        0.00
  -0.00000000   0.00000000  -0.00000247           -0.00        0.00       -0.36

     kinetic stress (kbar)     68.84      0.00      0.00
                                0.00     71.74      0.00
                                0.00      0.00     81.57

     local   stress (kbar)   -649.73      0.01     -0.01
                                0.01   -353.74      0.00
                               -0.01      0.00    -79.67

     nonloc. stress (kbar)     19.29     -0.00      0.00
                               -0.00     18.65     -0.00
                                0.00     -0.00     18.04

     hartree stress (kbar)    285.90     -0.00      0.01
                               -0.00    157.30     -0.00
                                0.01     -0.00     53.02

     exc-cor stress (kbar)     -6.05     -0.00     -0.00
                               -0.00     -6.24      0.00
                               -0.00      0.00     -6.70

     corecor stress (kbar)    -11.86      0.00     -0.00
                                0.00    -11.80      0.00
                               -0.00      0.00    -11.58

     ewald   stress (kbar)    293.39     -0.00      0.00
                               -0.00    123.75     -0.00
                                0.00     -0.00    -55.05

     hubbard stress (kbar)      0.00      0.00      0.00
                                0.00      0.00      0.00
                                0.00      0.00      0.00

     DFT-D   stress (kbar)      0.00      0.00      0.00
                                0.00      0.00      0.00
                                0.00      0.00      0.00

     XDM     stress (kbar)      0.00      0.00      0.00
                                0.00      0.00      0.00
                                0.00      0.00      0.00

     dft-nl  stress (kbar)      0.00      0.00      0.00
                                0.00      0.00      0.00
                                0.00      0.00      0.00

     TS-vdW  stress (kbar)      0.00      0.00      0.00
                                0.00      0.00      0.00
                                0.00      0.00      0.00

     MDB     stress (kbar)      0.00      0.00      0.00
                                0.00      0.00      0.00
                                0.00      0.00      0.00

     3D-RISM stress (kbar)      0.00      0.00      0.00
                                0.00      0.00      0.00
                                0.00      0.00      0.00


     BFGS Geometry Optimization
     Energy error            =      0.0E+00 Ry
     Gradient error          =      5.9E-02 Ry/Bohr

     number of scf cycles    =   1
     number of bfgs steps    =   0

     energy             new  =    -176.3842163535 Ry

     new trust radius        =       0.0589678410 bohr
     new conv_thr            =       0.0000010000 Ry


ATOMIC_POSITIONS (angstrom)
N                7.7048405137        4.5700137474        4.5706103787
N                0.8866000057        4.5701994983        4.5700455235
C                6.3362820937        4.5701148533        4.5709960310
C                5.6138312577        3.3582778268        4.5708394671
C                5.6141075487        5.7819224036        4.5704536326
C                3.5033339080        4.5702650532        4.5705383089
C                4.2283642588        3.3591818044        4.5708617011
C                4.2281314659        5.7811404606        4.5704616588
C                2.1077218564        4.5709366648        4.5708861566
H                6.1555415020        2.4057985175        4.5703241347
H                6.1556385640        6.7342927377        4.5702708001
H                3.6833509041        2.4112462084        4.5702027939
H                3.6834628410        6.7289690806        4.5701665140
H                8.2292100923        5.4396831082        4.5692220345
H                8.2291531882        3.7003120352        4.5692268644



     Writing config-only to output data dir ./tmp/ABN.save/ :
     XML data file
     NEW-OLD atomic charge density approx. for the potential

     Check: negative core charge=   -0.000015

     negative rho (up, down):  2.933E-01 0.000E+00

     total cpu time spent up to now is       13.4 secs

     Self-consistent Calculation

     iteration #  1     ecut=    30.00 Ry     beta= 0.70
     Davidson diagonalization with overlap

---- Real-time Memory Report at c_bands before calling an iterative solver
            96 MiB given to the printing process from OS
             0 MiB allocation reported by mallinfo(arena+hblkhd)
        114802 MiB available memory on the node where the printing process lives
------------------
     ethr =  1.00E-06,  avg # of iterations =  8.0

     negative rho (up, down):  2.919E-01 0.000E+00

     total cpu time spent up to now is       15.1 secs

     total energy              =    -176.37176029 Ry
     estimated scf accuracy    <       0.01004041 Ry

     iteration #  2     ecut=    30.00 Ry     beta= 0.70
     Davidson diagonalization with overlap

---- Real-time Memory Report at c_bands before calling an iterative solver
            96 MiB given to the printing process from OS
             0 MiB allocation reported by mallinfo(arena+hblkhd)
        114803 MiB available memory on the node where the printing process lives
------------------
     ethr =  2.28E-05,  avg # of iterations =  5.0

     negative rho (up, down):  2.919E-01 0.000E+00

     total cpu time spent up to now is       16.3 secs

     total energy              =    -176.37019283 Ry
     estimated scf accuracy    <       0.03227933 Ry

     iteration #  3     ecut=    30.00 Ry     beta= 0.70
     Davidson diagonalization with overlap

---- Real-time Memory Report at c_bands before calling an iterative solver
            96 MiB given to the printing process from OS
             0 MiB allocation reported by mallinfo(arena+hblkhd)
        114803 MiB available memory on the node where the printing process lives
------------------
     ethr =  2.28E-05,  avg # of iterations =  5.0

     negative rho (up, down):  2.925E-01 0.000E+00

     total cpu time spent up to now is       17.3 secs

     total energy              =    -176.37598846 Ry
     estimated scf accuracy    <       0.00109022 Ry

     iteration #  4     ecut=    30.00 Ry     beta= 0.70
     Davidson diagonalization with overlap

---- Real-time Memory Report at c_bands before calling an iterative solver
            96 MiB given to the printing process from OS
             0 MiB allocation reported by mallinfo(arena+hblkhd)
        114803 MiB available memory on the node where the printing process lives
------------------
     ethr =  2.48E-06,  avg # of iterations =  3.0

     negative rho (up, down):  2.927E-01 0.000E+00

     total cpu time spent up to now is       18.3 secs

     total energy              =    -176.37619351 Ry
     estimated scf accuracy    <       0.00007049 Ry

     iteration #  5     ecut=    30.00 Ry     beta= 0.70
     Davidson diagonalization with overlap

---- Real-time Memory Report at c_bands before calling an iterative solver
            96 MiB given to the printing process from OS
             0 MiB allocation reported by mallinfo(arena+hblkhd)
        114803 MiB available memory on the node where the printing process lives
------------------
     ethr =  1.60E-07,  avg # of iterations =  4.0

     negative rho (up, down):  2.928E-01 0.000E+00

     total cpu time spent up to now is       19.4 secs

     total energy              =    -176.37620622 Ry
     estimated scf accuracy    <       0.00000674 Ry

     iteration #  6     ecut=    30.00 Ry     beta= 0.70
     Davidson diagonalization with overlap

---- Real-time Memory Report at c_bands before calling an iterative solver
            96 MiB given to the printing process from OS
             0 MiB allocation reported by mallinfo(arena+hblkhd)
        114802 MiB available memory on the node where the printing process lives
------------------
     ethr =  1.53E-08,  avg # of iterations =  4.0

     negative rho (up, down):  2.928E-01 0.000E+00

     total cpu time spent up to now is       20.5 secs

     total energy              =    -176.37620770 Ry
     estimated scf accuracy    <       0.00000127 Ry

     iteration #  7     ecut=    30.00 Ry     beta= 0.70
     Davidson diagonalization with overlap

---- Real-time Memory Report at c_bands before calling an iterative solver
            96 MiB given to the printing process from OS
             0 MiB allocation reported by mallinfo(arena+hblkhd)
        114803 MiB available memory on the node where the printing process lives
------------------
     ethr =  2.88E-09,  avg # of iterations =  2.0

     negative rho (up, down):  2.929E-01 0.000E+00

     total cpu time spent up to now is       21.5 secs

     End of self-consistent calculation

          k = 0.0000 0.0000 0.0000 (146250 PWs)   bands (ev):

   -23.7808 -21.9449 -21.2380 -19.0566 -19.0320 -16.1691 -15.8051 -13.8925
   -13.4949 -13.4024 -11.3065 -11.1281 -10.7037 -10.2238  -9.9830  -8.9826
    -8.8316  -8.1719  -7.4396  -7.3782  -6.8440  -5.4335  -1.9989  -1.7138
    -1.6368  -1.2199

     occupation numbers 
     1.0000   1.0000   1.0000   1.0000   1.0000   1.0000   1.0000   1.0000
     1.0000   1.0000   1.0000   1.0000   1.0000   1.0000   1.0000   1.0000
     1.0000   1.0000   1.0000   1.0000   1.0000   1.0000   0.0000   0.0000
     0.0000   0.0000

     the Fermi energy is    -3.7493 ev

!    total energy              =    -176.37620790 Ry
     estimated scf accuracy    <       0.00000032 Ry
     smearing contrib. (-TS)   =       0.00000000 Ry
     internal energy E=F+TS    =    -176.37620790 Ry

     The total energy is F=E-TS. E is the sum of the following terms:
     one-electron contribution =    -700.05434949 Ry
     hartree contribution      =     355.09663301 Ry
     xc contribution           =     -47.16062777 Ry
     ewald contribution        =     258.92419384 Ry
     one-center paw contrib.   =     -43.18205749 Ry
      -> PAW hartree energy AE =       0.00000000 Ry
      -> PAW hartree energy PS =       0.00000000 Ry
      -> PAW xc energy AE      =       0.00000000 Ry
      -> PAW xc energy PS      =       0.00000000 Ry
      -> total E_H with PAW    =     355.09663301 Ry
      -> total E_XC with PAW   =     -47.16062777 Ry

     convergence has been achieved in   7 iterations

     negative rho (up, down):  2.929E-01 0.000E+00

     Forces acting on atoms (cartesian axes, Ry/au):

     atom    1 type  1   force =     0.00341270   -0.00009309   -0.00031014
     atom    2 type  1   force =     0.16749646    0.00003947   -0.00025937
     atom    3 type  2   force =     0.00252289   -0.00008037    0.00058968
     atom    4 type  2   force =    -0.00218706   -0.00491989    0.00061133
     atom    5 type  2   force =    -0.00252414    0.00482523    0.00002723
     atom    6 type  2   force =     0.03428221    0.00010631    0.00049295
     atom    7 type  2   force =     0.00119271   -0.00356105    0.00076286
     atom    8 type  2   force =     0.00188836    0.00339271    0.00008170
     atom    9 type  2   force =    -0.20371090    0.00058170    0.00053167
     atom   10 type  3   force =    -0.00023534    0.00036774   -0.00038829
     atom   11 type  3   force =    -0.00014583   -0.00046035   -0.00045711
     atom   12 type  3   force =    -0.00017541   -0.00037713   -0.00035839
     atom   13 type  3   force =    -0.00033301    0.00042980   -0.00042531
     atom   14 type  3   force =    -0.00071924   -0.00141919   -0.00045674
     atom   15 type  3   force =    -0.00076440    0.00116812   -0.00044206
     The non-local contrib.  to forces
     atom    1 type  1   force =    -0.03926002    0.00006750   -0.00328909
     atom    2 type  1   force =     2.00047043    0.00159012    0.00166464
     atom    3 type  2   force =     0.33896845   -0.00028795    0.00020963
     atom    4 type  2   force =     0.05773199    0.03365067    0.00036800
     atom    5 type  2   force =     0.05678732   -0.03374634    0.00025207
     atom    6 type  2   force =    -0.20619673   -0.00022100    0.00065633
     atom    7 type  2   force =    -0.01739659    0.03581999    0.00019517
     atom    8 type  2   force =    -0.01614599   -0.03564976   -0.00000898
     atom    9 type  2   force =     0.08230946    0.00026921    0.00031168
     atom   10 type  3   force =    -0.03713682    0.06781542    0.00007395
     atom   11 type  3   force =    -0.03714236   -0.06784346    0.00001640
     atom   12 type  3   force =     0.03974195    0.06881036    0.00008753
     atom   13 type  3   force =     0.03973291   -0.06883155    0.00004540
     atom   14 type  3   force =    -0.05264805   -0.08636712    0.00013319
     atom   15 type  3   force =    -0.05267805    0.08635838    0.00013882
     The ionic contribution  to forces
     atom    1 type  1   force =     9.93549658   -0.00077600    0.00577964
     atom    2 type  1   force =   -12.88010741   -0.00455381   -0.00599353
     atom    3 type  2   force =     2.64464883   -0.00085292    0.00585529
     atom    4 type  2   force =     2.71078803   -7.05644636    0.00162612
     atom    5 type  2   force =     2.70771609    7.05657318   -0.00176422
     atom    6 type  2   force =    -3.29336603   -0.00370213   -0.00171499
     atom    7 type  2   force =    -2.65413772   -6.96689491    0.00308728
     atom    8 type  2   force =    -2.64810214    6.96794647   -0.00050594
     atom    9 type  2   force =    -2.38798406    0.00706296    0.00689779
     atom   10 type  3   force =     1.50241490   -3.27265384   -0.00116001
     atom   11 type  3   force =     1.50267904    3.27324612   -0.00058641
     atom   12 type  3   force =    -1.47432383   -3.25921527   -0.00149118
     atom   13 type  3   force =    -1.47403220    3.26050979   -0.00084836
     atom   14 type  3   force =     2.90427867    2.86290669   -0.00458435
     atom   15 type  3   force =     2.90403125   -2.86314997   -0.00459711
     The local contribution  to forces
     atom    1 type  1   force =    -9.89334827    0.00073816   -0.00238267
     atom    2 type  1   force =    11.06070508    0.00312421    0.00455121
     atom    3 type  2   force =    -2.97711006    0.00117154   -0.00643324
     atom    4 type  2   force =    -2.76789091    7.01963823   -0.00209346
     atom    5 type  2   force =    -2.76491819   -7.01981158    0.00156638
     atom    6 type  2   force =     3.53485864    0.00391551    0.00114722
     atom    7 type  2   force =     2.67123468    6.92851493   -0.00355175
     atom    8 type  2   force =     2.66540271   -6.92991417    0.00044158
     atom    9 type  2   force =     2.10778687   -0.00788339   -0.00762062
     atom   10 type  3   force =    -1.46551934    3.20541147    0.00115218
     atom   11 type  3   force =    -1.46568669   -3.20582719    0.00056737
     atom   12 type  3   force =     1.43441057    3.19011198    0.00149955
     atom   13 type  3   force =     1.43396875   -3.19109152    0.00083197
     atom   14 type  3   force =    -2.85244828   -2.77791232    0.00444875
     atom   15 type  3   force =    -2.85221658    2.77815224    0.00447075
     The core correction contribution to forces
     atom    1 type  1   force =     0.00005117   -0.00000652    0.00003624
     atom    2 type  1   force =    -0.01382779   -0.00000351   -0.00002781
     atom    3 type  2   force =    -0.00390030    0.00000087    0.00141186
     atom    4 type  2   force =    -0.00245891   -0.00129258    0.00116501
     atom    5 type  2   force =    -0.00174642    0.00157456    0.00042717
     atom    6 type  2   force =    -0.00076797    0.00022579    0.00085849
     atom    7 type  2   force =     0.00192985   -0.00087816    0.00148644
     atom    8 type  2   force =     0.00116521    0.00112214    0.00060912
     atom    9 type  2   force =    -0.00600786    0.00125017    0.00139741
     atom   10 type  3   force =     0.00000000    0.00000000    0.00000000
     atom   11 type  3   force =     0.00000000    0.00000000    0.00000000
     atom   12 type  3   force =     0.00000000    0.00000000    0.00000000
     atom   13 type  3   force =     0.00000000    0.00000000    0.00000000
     atom   14 type  3   force =     0.00000000    0.00000000    0.00000000
     atom   15 type  3   force =     0.00000000    0.00000000    0.00000000
     The Hubbard contrib.    to forces
     atom    1 type  1   force =     0.00000000    0.00000000    0.00000000
     atom    2 type  1   force =     0.00000000    0.00000000    0.00000000
     atom    3 type  2   force =     0.00000000    0.00000000    0.00000000
     atom    4 type  2   force =     0.00000000    0.00000000    0.00000000
     atom    5 type  2   force =     0.00000000    0.00000000    0.00000000
     atom    6 type  2   force =     0.00000000    0.00000000    0.00000000
     atom    7 type  2   force =     0.00000000    0.00000000    0.00000000
     atom    8 type  2   force =     0.00000000    0.00000000    0.00000000
     atom    9 type  2   force =     0.00000000    0.00000000    0.00000000
     atom   10 type  3   force =     0.00000000    0.00000000    0.00000000
     atom   11 type  3   force =     0.00000000    0.00000000    0.00000000
     atom   12 type  3   force =     0.00000000    0.00000000    0.00000000
     atom   13 type  3   force =     0.00000000    0.00000000    0.00000000
     atom   14 type  3   force =     0.00000000    0.00000000    0.00000000
     atom   15 type  3   force =     0.00000000    0.00000000    0.00000000
     The SCF correction term to forces
     atom    1 type  1   force =     0.00045328    0.00000348    0.00000013
     atom    2 type  1   force =     0.00023619    0.00000218    0.00000051
     atom    3 type  2   force =    -0.00010399    0.00000781    0.00000052
     atom    4 type  2   force =    -0.00037722   -0.00035013    0.00000005
     atom    5 type  2   force =    -0.00038291    0.00035512    0.00000022
     atom    6 type  2   force =    -0.00026566    0.00000785    0.00000029
     atom    7 type  2   force =    -0.00045747   -0.00000319    0.00000012
     atom    8 type  2   force =    -0.00045140    0.00000774    0.00000031
     atom    9 type  2   force =     0.00016472    0.00000245   -0.00000020
     atom   10 type  3   force =    -0.00001405   -0.00008560   -0.00000001
     atom   11 type  3   force =    -0.00001578    0.00008389   -0.00000007
     atom   12 type  3   force =    -0.00002407    0.00003551    0.00000010
     atom   13 type  3   force =    -0.00002244   -0.00003721    0.00000008
     atom   14 type  3   force =     0.00007845    0.00007327    0.00000006
     atom   15 type  3   force =     0.00007902   -0.00007282   -0.00000012

     Total force =     0.266164     Total SCF correction =     0.001167


     Computing stress (Cartesian axis) and pressure


     negative rho (up, down):  2.929E-01 0.000E+00
          total   stress  (Ry/bohr**3)                   (kbar)     P=       -0.48
  -0.00000492   0.00000000  -0.00000001           -0.72        0.00       -0.00
   0.00000000  -0.00000243   0.00000000            0.00       -0.36        0.00
  -0.00000001   0.00000000  -0.00000240           -0.00        0.00       -0.35

     kinetic stress (kbar)     68.56     -0.00      0.00
                               -0.00     71.51      0.00
                                0.00      0.00     81.34

     local   stress (kbar)   -648.69      0.01     -0.01
                                0.01   -353.40      0.03
                               -0.01      0.03    -79.17

     nonloc. stress (kbar)     19.19     -0.00      0.00
                               -0.00     18.64     -0.00
                                0.00     -0.00     18.04

     hartree stress (kbar)    285.59     -0.01      0.00
                               -0.01    157.09     -0.01
                                0.00     -0.01     52.73

     exc-cor stress (kbar)     -6.01     -0.00     -0.00
                               -0.00     -6.20      0.00
                               -0.00      0.00     -6.66

     corecor stress (kbar)    -11.84      0.00     -0.00
                                0.00    -11.79      0.00
                               -0.00      0.00    -11.57

     ewald   stress (kbar)    292.47     -0.00      0.00
                               -0.00    123.81     -0.02
                                0.00     -0.02    -55.05

     hubbard stress (kbar)      0.00      0.00      0.00
                                0.00      0.00      0.00
                                0.00      0.00      0.00

     DFT-D   stress (kbar)      0.00      0.00      0.00
                                0.00      0.00      0.00
                                0.00      0.00      0.00

     XDM     stress (kbar)      0.00      0.00      0.00
                                0.00      0.00      0.00
                                0.00      0.00      0.00

     dft-nl  stress (kbar)      0.00      0.00      0.00
                                0.00      0.00      0.00
                                0.00      0.00      0.00

     TS-vdW  stress (kbar)      0.00      0.00      0.00
                                0.00      0.00      0.00
                                0.00      0.00      0.00

     MDB     stress (kbar)      0.00      0.00      0.00
                                0.00      0.00      0.00
                                0.00      0.00      0.00

     3D-RISM stress (kbar)      0.00      0.00      0.00
                                0.00      0.00      0.00
                                0.00      0.00      0.00

     Energy error            =      8.0E-03 Ry
     Gradient error          =      2.0E-01 Ry/Bohr

     number of scf cycles    =   2
     number of bfgs steps    =   1

     energy             old  =    -176.3842163535 Ry
     energy             new  =    -176.3762078992 Ry

     CASE: energy            _new > energy            _old

     new trust radius        =       0.0132512565 bohr
     new conv_thr            =       0.0000010000 Ry


ATOMIC_POSITIONS (angstrom)
N                7.7068000231        4.5700751904        4.5707480849
N                0.9078628290        4.5702657861        4.5702242073
C                6.3398405560        4.5701188434        4.5706432546
C                5.6141124845        3.3575833103        4.5705863637
C                5.6142241906        5.7826841909        4.5704857039
C                3.5062955487        4.5702091918        4.5704411594
C                4.2276073849        3.3593525176        4.5705494950
C                4.2276046896        5.7809920250        4.5704448672
C                2.0835394357        4.5703957793        4.5704627323
H                6.1550193494        2.4069749912        4.5704992435
H                6.1551256667        6.7332463131        4.5704585728
H                3.6838394048        2.4121887872        4.5703797175
H                3.6839428626        6.7281526483        4.5703436546
H                8.2269020123        5.4366253202        4.5694150525
H                8.2268535620        3.7034891051        4.5694238906



     Writing config-only to output data dir ./tmp/ABN.save/ :
     XML data file
     NEW-OLD atomic charge density approx. for the potential

     Check: negative core charge=   -0.000015

     negative rho (up, down):  2.926E-01 0.000E+00

     total cpu time spent up to now is       23.5 secs

     Self-consistent Calculation

     iteration #  1     ecut=    30.00 Ry     beta= 0.70
     Davidson diagonalization with overlap

---- Real-time Memory Report at c_bands before calling an iterative solver
            96 MiB given to the printing process from OS
             0 MiB allocation reported by mallinfo(arena+hblkhd)
        114803 MiB available memory on the node where the printing process lives
------------------
     ethr =  1.00E-06,  avg # of iterations =  6.0

     negative rho (up, down):  2.936E-01 0.000E+00

     total cpu time spent up to now is       25.1 secs

     total energy              =    -176.38253107 Ry
     estimated scf accuracy    <       0.00556548 Ry

     iteration #  2     ecut=    30.00 Ry     beta= 0.70
     Davidson diagonalization with overlap

---- Real-time Memory Report at c_bands before calling an iterative solver
            96 MiB given to the printing process from OS
             0 MiB allocation reported by mallinfo(arena+hblkhd)
        114794 MiB available memory on the node where the printing process lives
------------------
     ethr =  1.26E-05,  avg # of iterations =  5.0

     negative rho (up, down):  2.939E-01 0.000E+00

     total cpu time spent up to now is       26.3 secs

     total energy              =    -176.38206476 Ry
     estimated scf accuracy    <       0.01386213 Ry

     iteration #  3     ecut=    30.00 Ry     beta= 0.70
     Davidson diagonalization with overlap

---- Real-time Memory Report at c_bands before calling an iterative solver
            96 MiB given to the printing process from OS
             0 MiB allocation reported by mallinfo(arena+hblkhd)
        114794 MiB available memory on the node where the printing process lives
------------------
     ethr =  1.26E-05,  avg # of iterations =  4.0

     negative rho (up, down):  2.941E-01 0.000E+00

     total cpu time spent up to now is       27.3 secs

     total energy              =    -176.38477224 Ry
     estimated scf accuracy    <       0.00058493 Ry

     iteration #  4     ecut=    30.00 Ry     beta= 0.70
     Davidson diagonalization with overlap

---- Real-time Memory Report at c_bands before calling an iterative solver
            96 MiB given to the printing process from OS
             0 MiB allocation reported by mallinfo(arena+hblkhd)
        114795 MiB available memory on the node where the printing process lives
------------------
     ethr =  1.33E-06,  avg # of iterations =  4.0

     negative rho (up, down):  2.943E-01 0.000E+00

     total cpu time spent up to now is       28.4 secs

     total energy              =    -176.38487975 Ry
     estimated scf accuracy    <       0.00003262 Ry

     iteration #  5     ecut=    30.00 Ry     beta= 0.70
     Davidson diagonalization with overlap

---- Real-time Memory Report at c_bands before calling an iterative solver
            96 MiB given to the printing process from OS
             0 MiB allocation reported by mallinfo(arena+hblkhd)
        114795 MiB available memory on the node where the printing process lives
------------------
     ethr =  7.41E-08,  avg # of iterations =  2.0

     negative rho (up, down):  2.944E-01 0.000E+00

     total cpu time spent up to now is       29.4 secs

     total energy              =    -176.38488372 Ry
     estimated scf accuracy    <       0.00000499 Ry

     iteration #  6     ecut=    30.00 Ry     beta= 0.70
     Davidson diagonalization with overlap

---- Real-time Memory Report at c_bands before calling an iterative solver
            96 MiB given to the printing process from OS
             0 MiB allocation reported by mallinfo(arena+hblkhd)
        114795 MiB available memory on the node where the printing process lives
------------------
     ethr =  1.13E-08,  avg # of iterations =  3.0

     negative rho (up, down):  2.945E-01 0.000E+00

     total cpu time spent up to now is       30.5 secs

     End of self-consistent calculation

          k = 0.0000 0.0000 0.0000 (146250 PWs)   bands (ev):

   -23.7736 -22.1800 -21.4058 -19.0252 -18.9702 -16.0793 -15.7797 -13.8381
   -13.4991 -13.3509 -11.2731 -11.1112 -10.6809 -10.1885  -9.9381  -9.0111
    -8.8162  -8.1190  -7.7150  -7.5307  -6.8120  -5.4367  -1.8704  -1.6909
    -1.6236  -1.2126

     occupation numbers 
     1.0000   1.0000   1.0000   1.0000   1.0000   1.0000   1.0000   1.0000
     1.0000   1.0000   1.0000   1.0000   1.0000   1.0000   1.0000   1.0000
     1.0000   1.0000   1.0000   1.0000   1.0000   1.0000   0.0000   0.0000
     0.0000   0.0000

     the Fermi energy is    -3.7421 ev

!    total energy              =    -176.38488457 Ry
     estimated scf accuracy    <       0.00000094 Ry
     smearing contrib. (-TS)   =       0.00000000 Ry
     internal energy E=F+TS    =    -176.38488457 Ry

     The total energy is F=E-TS. E is the sum of the following terms:
     one-electron contribution =    -700.91503576 Ry
     hartree contribution      =     355.54881487 Ry
     xc contribution           =     -47.22987861 Ry
     ewald contribution        =     259.39440864 Ry
     one-center paw contrib.   =     -43.18319371 Ry
      -> PAW hartree energy AE =       0.00000000 Ry
      -> PAW hartree energy PS =       0.00000000 Ry
      -> PAW xc energy AE      =       0.00000000 Ry
      -> PAW xc energy PS      =       0.00000000 Ry
      -> total E_H with PAW    =     355.54881487 Ry
      -> total E_XC with PAW   =     -47.22987861 Ry

     convergence has been achieved in   6 iterations

     negative rho (up, down):  2.945E-01 0.000E+00

     Forces acting on atoms (cartesian axes, Ry/au):

     atom    1 type  1   force =    -0.00290388   -0.00013893   -0.00033067
     atom    2 type  1   force =     0.00561781   -0.00015218   -0.00042083
     atom    3 type  2   force =    -0.00608701   -0.00000475    0.00080681
     atom    4 type  2   force =    -0.00114365    0.00018321    0.00059762
     atom    5 type  2   force =    -0.00085708   -0.00033830   -0.00005155
     atom    6 type  2   force =     0.00144701    0.00012385    0.00030911
     atom    7 type  2   force =     0.00165648   -0.00103818    0.00076238
     atom    8 type  2   force =     0.00135841    0.00095417    0.00002503
     atom    9 type  2   force =    -0.00743211    0.00123263    0.00094756
     atom   10 type  3   force =     0.00093392   -0.00216804   -0.00041678
     atom   11 type  3   force =     0.00093460    0.00188772   -0.00045602
     atom   12 type  3   force =    -0.00094066   -0.00183552   -0.00041437
     atom   13 type  3   force =    -0.00096472    0.00159324   -0.00042842
     atom   14 type  3   force =     0.00420386    0.00544673   -0.00046167
     atom   15 type  3   force =     0.00417701   -0.00574564   -0.00046820
     The non-local contrib.  to forces
     atom    1 type  1   force =    -0.04644115    0.00003496   -0.00393990
     atom    2 type  1   force =     1.88963686    0.00022628    0.00042692
     atom    3 type  2   force =     0.33107511   -0.00011784    0.00037863
     atom    4 type  2   force =     0.05674075    0.03734697    0.00021206
     atom    5 type  2   force =     0.05655027   -0.03740729    0.00004144
     atom    6 type  2   force =    -0.25676643   -0.00016794    0.00024901
     atom    7 type  2   force =    -0.01583724    0.03448909    0.00026804
     atom    8 type  2   force =    -0.01568735   -0.03445549    0.00004724
     atom    9 type  2   force =     0.23522714    0.00027739    0.00033739
     atom   10 type  3   force =    -0.03741207    0.06816655    0.00003694
     atom   11 type  3   force =    -0.03739728   -0.06814261   -0.00000169
     atom   12 type  3   force =     0.03978910    0.06902835    0.00003285
     atom   13 type  3   force =     0.03976150   -0.06900112    0.00002809
     atom   14 type  3   force =    -0.05325916   -0.08786062    0.00013426
     atom   15 type  3   force =    -0.05327042    0.08785648    0.00012589
     The ionic contribution  to forces
     atom    1 type  1   force =     9.92411486   -0.00036563    0.00829792
     atom    2 type  1   force =   -13.53002404   -0.00076915   -0.00204254
     atom    3 type  2   force =     2.61380057   -0.00024653    0.00124376
     atom    4 type  2   force =     2.70094586   -7.03379167    0.00050562
     atom    5 type  2   force =     2.70055555    7.03369531   -0.00032712
     atom    6 type  2   force =    -3.44361581   -0.00076133   -0.00045887
     atom    7 type  2   force =    -2.65200499   -6.95900659    0.00072976
     atom    8 type  2   force =    -2.65036953    6.95933013   -0.00016201
     atom    9 type  2   force =    -1.55883483    0.00165680    0.00164762
     atom   10 type  3   force =     1.50541283   -3.27853905   -0.00015912
     atom   11 type  3   force =     1.50559997    3.27861790   -0.00007686
     atom   12 type  3   force =    -1.47516358   -3.26206735   -0.00038069
     atom   13 type  3   force =    -1.47496835    3.26239692   -0.00027969
     atom   14 type  3   force =     2.91737505    2.89038286   -0.00428019
     atom   15 type  3   force =     2.91717644   -2.89053262   -0.00425759
     The local contribution  to forces
     atom    1 type  1   force =    -9.88013523    0.00034149   -0.00428090
     atom    2 type  1   force =    11.65794771    0.00052904    0.00165154
     atom    3 type  2   force =    -2.94767695    0.00042002   -0.00185083
     atom    4 type  2   force =    -2.75711496    6.99798487   -0.00084311
     atom    5 type  2   force =    -2.75687492   -6.99791001    0.00026647
     atom    6 type  2   force =     3.70018564    0.00093484    0.00018247
     atom    7 type  2   force =     2.66678348    6.92477158   -0.00116012
     atom    8 type  2   force =     2.66549043   -6.92522557    0.00007361
     atom    9 type  2   force =     1.32791809   -0.00223086   -0.00217378
     atom   10 type  3   force =    -1.46721174    3.20825063    0.00015620
     atom   11 type  3   force =    -1.46741199   -3.20832699    0.00007347
     atom   12 type  3   force =     1.43427807    3.19147384    0.00038427
     atom   13 type  3   force =     1.43408515   -3.19176568    0.00027411
     atom   14 type  3   force =    -2.85995331   -2.79688672    0.00413521
     atom   15 type  3   force =    -2.85977049    2.79704703    0.00411450
     The core correction contribution to forces
     atom    1 type  1   force =     0.00011466    0.00000008    0.00004367
     atom    2 type  1   force =    -0.01165743    0.00001263   -0.00000568
     atom    3 type  2   force =    -0.00355192    0.00008673    0.00148533
     atom    4 type  2   force =    -0.00260673   -0.00145916    0.00117235
     atom    5 type  2   force =    -0.00197626    0.00168737    0.00041791
     atom    6 type  2   force =     0.00129823    0.00026320    0.00078615
     atom    7 type  2   force =     0.00187685   -0.00073346    0.00137356
     atom    8 type  2   force =     0.00108567    0.00104784    0.00051636
     atom    9 type  2   force =    -0.01183017    0.00167783    0.00158575
     atom   10 type  3   force =     0.00000000    0.00000000    0.00000000
     atom   11 type  3   force =     0.00000000    0.00000000    0.00000000
     atom   12 type  3   force =     0.00000000    0.00000000    0.00000000
     atom   13 type  3   force =     0.00000000    0.00000000    0.00000000
     atom   14 type  3   force =     0.00000000    0.00000000    0.00000000
     atom   15 type  3   force =     0.00000000    0.00000000    0.00000000
     The Hubbard contrib.    to forces
     atom    1 type  1   force =     0.00000000    0.00000000    0.00000000
     atom    2 type  1   force =     0.00000000    0.00000000    0.00000000
     atom    3 type  2   force =     0.00000000    0.00000000    0.00000000
     atom    4 type  2   force =     0.00000000    0.00000000    0.00000000
     atom    5 type  2   force =     0.00000000    0.00000000    0.00000000
     atom    6 type  2   force =     0.00000000    0.00000000    0.00000000
     atom    7 type  2   force =     0.00000000    0.00000000    0.00000000
     atom    8 type  2   force =     0.00000000    0.00000000    0.00000000
     atom    9 type  2   force =     0.00000000    0.00000000    0.00000000
     atom   10 type  3   force =     0.00000000    0.00000000    0.00000000
     atom   11 type  3   force =     0.00000000    0.00000000    0.00000000
     atom   12 type  3   force =     0.00000000    0.00000000    0.00000000
     atom   13 type  3   force =     0.00000000    0.00000000    0.00000000
     atom   14 type  3   force =     0.00000000    0.00000000    0.00000000
     atom   15 type  3   force =     0.00000000    0.00000000    0.00000000
     The SCF correction term to forces
     atom    1 type  1   force =    -0.00067741    0.00000299   -0.00000048
     atom    2 type  1   force =    -0.00040567    0.00000183   -0.00000009
     atom    3 type  2   force =     0.00014580    0.00000569    0.00000090
     atom    4 type  2   force =     0.00077105    0.00025503    0.00000168
     atom    5 type  2   force =     0.00076789   -0.00025086    0.00000074
     atom    6 type  2   force =     0.00022500    0.00000790    0.00000132
     atom    7 type  2   force =     0.00071799   -0.00040598    0.00000212
     atom    8 type  2   force =     0.00071881    0.00041010    0.00000080
     atom    9 type  2   force =    -0.00003273    0.00000430    0.00000156
     atom   10 type  3   force =     0.00002450    0.00010665    0.00000018
     atom   11 type  3   force =     0.00002350   -0.00010776    0.00000004
     atom   12 type  3   force =     0.00003536   -0.00011754    0.00000017
     atom   13 type  3   force =     0.00003659    0.00011596    0.00000005
     atom   14 type  3   force =    -0.00007912   -0.00003597    0.00000002
     atom   15 type  3   force =    -0.00007892    0.00003629   -0.00000002

     Total force =     0.016257     Total SCF correction =     0.001856
     SCF correction compared to forces is large: reduce conv_thr to get better values


     Computing stress (Cartesian axis) and pressure


     negative rho (up, down):  2.945E-01 0.000E+00
          total   stress  (Ry/bohr**3)                   (kbar)     P=       -0.35
  -0.00000238   0.00000000  -0.00000000           -0.35        0.00       -0.00
   0.00000000  -0.00000231   0.00000000            0.00       -0.34        0.00
  -0.00000000   0.00000000  -0.00000245           -0.00        0.00       -0.36

     kinetic stress (kbar)     68.77     -0.00      0.00
                               -0.00     71.68      0.00
                                0.00      0.00     81.52

     local   stress (kbar)   -649.50      0.01     -0.01
                                0.01   -353.65      0.01
                               -0.01      0.01    -79.55

     nonloc. stress (kbar)     19.26     -0.00      0.00
                               -0.00     18.64     -0.00
                                0.00     -0.00     18.04

     hartree stress (kbar)    285.83     -0.00      0.01
                               -0.00    157.25     -0.00
                                0.01     -0.00     52.95

     exc-cor stress (kbar)     -6.04     -0.00     -0.00
                               -0.00     -6.23      0.00
                               -0.00      0.00     -6.69

     corecor stress (kbar)    -11.85      0.00     -0.00
                                0.00    -11.80      0.00
                               -0.00      0.00    -11.58

     ewald   stress (kbar)    293.17     -0.00      0.00
                               -0.00    123.76     -0.00
                                0.00     -0.00    -55.05

     hubbard stress (kbar)      0.00      0.00      0.00
                                0.00      0.00      0.00
                                0.00      0.00      0.00

     DFT-D   stress (kbar)      0.00      0.00      0.00
                                0.00      0.00      0.00
                                0.00      0.00      0.00

     XDM     stress (kbar)      0.00      0.00      0.00
                                0.00      0.00      0.00
                                0.00      0.00      0.00

     dft-nl  stress (kbar)      0.00      0.00      0.00
                                0.00      0.00      0.00
                                0.00      0.00      0.00

     TS-vdW  stress (kbar)      0.00      0.00      0.00
                                0.00      0.00      0.00
                                0.00      0.00      0.00

     MDB     stress (kbar)      0.00      0.00      0.00
                                0.00      0.00      0.00
                                0.00      0.00      0.00

     3D-RISM stress (kbar)      0.00      0.00      0.00
                                0.00      0.00      0.00
                                0.00      0.00      0.00

     Energy error            =      6.7E-04 Ry
     Gradient error          =      7.4E-03 Ry/Bohr

     number of scf cycles    =   3
     number of bfgs steps    =   1

     energy             old  =    -176.3842163535 Ry
     energy             new  =    -176.3848845679 Ry

     CASE: energy            _new < energy            _old

     new trust radius        =       0.0074248505 bohr
     new conv_thr            =       0.0000001486 Ry


ATOMIC_POSITIONS (angstrom)
N                7.7051579694        4.5700001823        4.5705704948
N                0.9082847649        4.5701837333        4.5699978170
C                6.3364589102        4.5701160705        4.5710784072
C                5.6135197209        3.3577496816        4.5709077857
C                5.6137903083        5.7824342321        4.5704568500
C                3.5066807813        4.5702761791        4.5706036975
C                4.2285043907        3.3588237162        4.5709583589
C                4.2283299617        5.7814771037        4.5704590112
C                2.0825472088        4.5710608075        4.5709748016
H                6.1555355707        2.4057805337        4.5702752377
H                6.1556412032        6.7342887566        4.5702138978
H                3.6833235735        2.4111834066        4.5701566955
H                3.6834161410        6.7290251338        4.5701137043
H                8.2292210331        5.4396373634        4.5691670262
H                8.2291584623        3.7003170995        4.5691722145



     Writing config-only to output data dir ./tmp/ABN.save/ :
     XML data file
     NEW-OLD atomic charge density approx. for the potential

     Check: negative core charge=   -0.000015

     negative rho (up, down):  2.944E-01 0.000E+00

     total cpu time spent up to now is       32.4 secs

     Self-consistent Calculation

     iteration #  1     ecut=    30.00 Ry     beta= 0.70
     Davidson diagonalization with overlap

---- Real-time Memory Report at c_bands before calling an iterative solver
            96 MiB given to the printing process from OS
             0 MiB allocation reported by mallinfo(arena+hblkhd)
        114792 MiB available memory on the node where the printing process lives
------------------
     ethr =  1.00E-06,  avg # of iterations =  3.0

     negative rho (up, down):  2.943E-01 0.000E+00

     total cpu time spent up to now is       33.6 secs

     total energy              =    -176.38495269 Ry
     estimated scf accuracy    <       0.00005104 Ry

     iteration #  2     ecut=    30.00 Ry     beta= 0.70
     Davidson diagonalization with overlap

---- Real-time Memory Report at c_bands before calling an iterative solver
            96 MiB given to the printing process from OS
             0 MiB allocation reported by mallinfo(arena+hblkhd)
        114792 MiB available memory on the node where the printing process lives
------------------
     ethr =  1.16E-07,  avg # of iterations =  3.0

     negative rho (up, down):  2.943E-01 0.000E+00

     total cpu time spent up to now is       34.7 secs

     total energy              =    -176.38495981 Ry
     estimated scf accuracy    <       0.00003891 Ry

     iteration #  3     ecut=    30.00 Ry     beta= 0.70
     Davidson diagonalization with overlap

---- Real-time Memory Report at c_bands before calling an iterative solver
            96 MiB given to the printing process from OS
             0 MiB allocation reported by mallinfo(arena+hblkhd)
        114792 MiB available memory on the node where the printing process lives
------------------
     ethr =  8.84E-08,  avg # of iterations =  3.0

     negative rho (up, down):  2.943E-01 0.000E+00

     total cpu time spent up to now is       35.8 secs

     total energy              =    -176.38496876 Ry
     estimated scf accuracy    <       0.00000348 Ry

     iteration #  4     ecut=    30.00 Ry     beta= 0.70
     Davidson diagonalization with overlap

---- Real-time Memory Report at c_bands before calling an iterative solver
            96 MiB given to the printing process from OS
             0 MiB allocation reported by mallinfo(arena+hblkhd)
        114792 MiB available memory on the node where the printing process lives
------------------
     ethr =  7.91E-09,  avg # of iterations =  4.0

     negative rho (up, down):  2.943E-01 0.000E+00

     total cpu time spent up to now is       36.9 secs

     total energy              =    -176.38496939 Ry
     estimated scf accuracy    <       0.00000116 Ry

     iteration #  5     ecut=    30.00 Ry     beta= 0.70
     Davidson diagonalization with overlap

---- Real-time Memory Report at c_bands before calling an iterative solver
            96 MiB given to the printing process from OS
             0 MiB allocation reported by mallinfo(arena+hblkhd)
        114792 MiB available memory on the node where the printing process lives
------------------
     ethr =  2.63E-09,  avg # of iterations =  2.0

     negative rho (up, down):  2.943E-01 0.000E+00

     total cpu time spent up to now is       37.9 secs

     End of self-consistent calculation

          k = 0.0000 0.0000 0.0000 (146250 PWs)   bands (ev):

   -23.7408 -22.1863 -21.4086 -19.0331 -18.9619 -16.0685 -15.7703 -13.8347
   -13.4590 -13.3318 -11.2680 -11.1030 -10.6858 -10.1896  -9.9352  -9.0034
    -8.8168  -8.1158  -7.7219  -7.5305  -6.8197  -5.4342  -1.8680  -1.6860
    -1.6265  -1.2138

     occupation numbers 
     1.0000   1.0000   1.0000   1.0000   1.0000   1.0000   1.0000   1.0000
     1.0000   1.0000   1.0000   1.0000   1.0000   1.0000   1.0000   1.0000
     1.0000   1.0000   1.0000   1.0000   1.0000   1.0000   0.0000   0.0000
     0.0000   0.0000

     the Fermi energy is    -3.7369 ev

!    total energy              =    -176.38496960 Ry
     estimated scf accuracy    <       0.00000003 Ry
     smearing contrib. (-TS)   =       0.00000000 Ry
     internal energy E=F+TS    =    -176.38496960 Ry

     The total energy is F=E-TS. E is the sum of the following terms:
     one-electron contribution =    -700.88147794 Ry
     hartree contribution      =     355.53484137 Ry
     xc contribution           =     -47.22270670 Ry
     ewald contribution        =     259.36769108 Ry
     one-center paw contrib.   =     -43.18331740 Ry
      -> PAW hartree energy AE =       0.00000000 Ry
      -> PAW hartree energy PS =       0.00000000 Ry
      -> PAW xc energy AE      =       0.00000000 Ry
      -> PAW xc energy PS      =       0.00000000 Ry
      -> total E_H with PAW    =     355.53484137 Ry
      -> total E_XC with PAW   =     -47.22270670 Ry

     convergence has been achieved in   5 iterations

     negative rho (up, down):  2.943E-01 0.000E+00

     Forces acting on atoms (cartesian axes, Ry/au):

     atom    1 type  1   force =     0.00375276   -0.00012483   -0.00029163
     atom    2 type  1   force =    -0.00012373   -0.00005370   -0.00034299
     atom    3 type  2   force =     0.00046885   -0.00007974    0.00060155
     atom    4 type  2   force =     0.00046899   -0.00326224    0.00062788
     atom    5 type  2   force =     0.00019974    0.00309290    0.00003107
     atom    6 type  2   force =     0.00064551    0.00013145    0.00044228
     atom    7 type  2   force =    -0.00256343   -0.00135863    0.00061998
     atom    8 type  2   force =    -0.00210539    0.00120790    0.00003908
     atom    9 type  2   force =     0.00045704    0.00088603    0.00073273
     atom   10 type  3   force =     0.00002215   -0.00000769   -0.00037560
     atom   11 type  3   force =     0.00011496   -0.00011292   -0.00045015
     atom   12 type  3   force =    -0.00014494   -0.00064380   -0.00035065
     atom   13 type  3   force =    -0.00026152    0.00060169   -0.00041308
     atom   14 type  3   force =    -0.00044733   -0.00129602   -0.00043558
     atom   15 type  3   force =    -0.00048367    0.00101959   -0.00043488
     The non-local contrib.  to forces
     atom    1 type  1   force =    -0.03907352    0.00005619   -0.00314146
     atom    2 type  1   force =     1.88566430    0.00184078    0.00195650
     atom    3 type  2   force =     0.33715796   -0.00032020    0.00016939
     atom    4 type  2   force =     0.05849813    0.03376692    0.00040030
     atom    5 type  2   force =     0.05765567   -0.03383424    0.00029012
     atom    6 type  2   force =    -0.25810377   -0.00020914    0.00071332
     atom    7 type  2   force =    -0.02024300    0.03412877    0.00017474
     atom    8 type  2   force =    -0.01909453   -0.03385327    0.00000122
     atom    9 type  2   force =     0.24135459    0.00024433    0.00035607
     atom   10 type  3   force =    -0.03722651    0.06783708    0.00007550
     atom   11 type  3   force =    -0.03722695   -0.06784304    0.00001514
     atom   12 type  3   force =     0.03974459    0.06877352    0.00008014
     atom   13 type  3   force =     0.03972804   -0.06877511    0.00004712
     atom   14 type  3   force =    -0.05263768   -0.08640113    0.00014281
     atom   15 type  3   force =    -0.05264913    0.08640421    0.00013279
     The ionic contribution  to forces
     atom    1 type  1   force =     9.93140999   -0.00088463    0.00515408
     atom    2 type  1   force =   -13.54994714   -0.00609603   -0.00773907
     atom    3 type  2   force =     2.64107048   -0.00089665    0.00688354
     atom    4 type  2   force =     2.71436978   -7.05104694    0.00191231
     atom    5 type  2   force =     2.71171020    7.05119962   -0.00195461
     atom    6 type  2   force =    -3.45288181   -0.00383682   -0.00141254
     atom    7 type  2   force =    -2.67033477   -6.96260743    0.00377085
     atom    8 type  2   force =    -2.66443945    6.96374535   -0.00080817
     atom    9 type  2   force =    -1.52700986    0.00894146    0.00859365
     atom   10 type  3   force =     1.50365140   -3.27283119   -0.00143671
     atom   11 type  3   force =     1.50396241    3.27342504   -0.00075724
     atom   12 type  3   force =    -1.47490880   -3.25737607   -0.00181188
     atom   13 type  3   force =    -1.47457042    3.25849972   -0.00100890
     atom   14 type  3   force =     2.90411434    2.86404600   -0.00468432
     atom   15 type  3   force =     2.90380363   -2.86428142   -0.00470099
     The local contribution  to forces
     atom    1 type  1   force =    -9.88879417    0.00085372   -0.00189671
     atom    2 type  1   force =    11.67561517    0.00437074    0.00592217
     atom    3 type  2   force =    -2.97377530    0.00120439   -0.00745976
     atom    4 type  2   force =    -2.76970325    7.01551141   -0.00240590
     atom    5 type  2   force =    -2.76713939   -7.01568731    0.00174276
     atom    6 type  2   force =     3.71015955    0.00405810    0.00083674
     atom    7 type  2   force =     2.68586914    6.92799817   -0.00420418
     atom    8 type  2   force =     2.68017827   -6.92951872    0.00076911
     atom    9 type  2   force =     1.29796445   -0.00973919   -0.00926602
     atom   10 type  3   force =    -1.46649923    3.20513153    0.00142741
     atom   11 type  3   force =    -1.46671480   -3.20555090    0.00073335
     atom   12 type  3   force =     1.43491188    3.18809278    0.00182314
     atom   13 type  3   force =     1.43447066   -3.18896740    0.00099026
     atom   14 type  3   force =    -2.85203979   -2.77880255    0.00454695
     atom   15 type  3   force =    -2.85175386    2.77904623    0.00457452
     The core correction contribution to forces
     atom    1 type  1   force =     0.00005183   -0.00000319    0.00003639
     atom    2 type  1   force =    -0.01158451    0.00000072   -0.00001566
     atom    3 type  2   force =    -0.00402185    0.00007338    0.00145524
     atom    4 type  2   force =    -0.00270394   -0.00130600    0.00116998
     atom    5 type  2   force =    -0.00202564    0.00151027    0.00039876
     atom    6 type  2   force =     0.00137105    0.00026084    0.00075709
     atom    7 type  2   force =     0.00209154   -0.00082223    0.00132916
[...]

     iteration #  2     ecut=    30.00 Ry     beta= 0.70
     Davidson diagonalization with overlap

---- Real-time Memory Report at c_bands before calling an iterative solver
            96 MiB given to the printing process from OS
             0 MiB allocation reported by mallinfo(arena+hblkhd)
        114796 MiB available memory on the node where the printing process lives
------------------
     ethr =  2.07E-09,  avg # of iterations =  2.0

     negative rho (up, down):  2.940E-01 0.000E+00

     total cpu time spent up to now is      107.3 secs

     total energy              =    -176.38502966 Ry
     estimated scf accuracy    <       0.00000047 Ry

     iteration #  3     ecut=    30.00 Ry     beta= 0.70
     Davidson diagonalization with overlap

---- Real-time Memory Report at c_bands before calling an iterative solver
            96 MiB given to the printing process from OS
             0 MiB allocation reported by mallinfo(arena+hblkhd)
        114795 MiB available memory on the node where the printing process lives
------------------
     ethr =  1.06E-09,  avg # of iterations =  2.0

     negative rho (up, down):  2.940E-01 0.000E+00

     total cpu time spent up to now is      108.4 secs

     total energy              =    -176.38502979 Ry
     estimated scf accuracy    <       0.00000015 Ry

     iteration #  4     ecut=    30.00 Ry     beta= 0.70
     Davidson diagonalization with overlap

---- Real-time Memory Report at c_bands before calling an iterative solver
            96 MiB given to the printing process from OS
             0 MiB allocation reported by mallinfo(arena+hblkhd)
        114796 MiB available memory on the node where the printing process lives
------------------
     ethr =  3.34E-10,  avg # of iterations =  2.0

     negative rho (up, down):  2.940E-01 0.000E+00

     total cpu time spent up to now is      109.4 secs

     End of self-consistent calculation

          k = 0.0000 0.0000 0.0000 (146250 PWs)   bands (ev):

   -23.7281 -22.1850 -21.4009 -19.0305 -18.9569 -16.0653 -15.7678 -13.8294
   -13.4591 -13.3255 -11.2666 -11.1061 -10.6928 -10.1790  -9.9300  -9.0000
    -8.8235  -8.1138  -7.7214  -7.5271  -6.8196  -5.4326  -1.8718  -1.6947
    -1.6256  -1.2139

     occupation numbers 
     1.0000   1.0000   1.0000   1.0000   1.0000   1.0000   1.0000   1.0000
     1.0000   1.0000   1.0000   1.0000   1.0000   1.0000   1.0000   1.0000
     1.0000   1.0000   1.0000   1.0000   1.0000   1.0000   0.0000   0.0000
     0.0000   0.0000

     the Fermi energy is    -3.7346 ev

!    total energy              =    -176.38502982 Ry
     estimated scf accuracy    <          6.9E-09 Ry
     smearing contrib. (-TS)   =       0.00000000 Ry
     internal energy E=F+TS    =    -176.38502982 Ry

     The total energy is F=E-TS. E is the sum of the following terms:
     one-electron contribution =    -700.55815194 Ry
     hartree contribution      =     355.37248741 Ry
     xc contribution           =     -47.21484267 Ry
     ewald contribution        =     259.19844933 Ry
     one-center paw contrib.   =     -43.18297196 Ry
      -> PAW hartree energy AE =       0.00000000 Ry
      -> PAW hartree energy PS =       0.00000000 Ry
      -> PAW xc energy AE      =       0.00000000 Ry
      -> PAW xc energy PS      =       0.00000000 Ry
      -> total E_H with PAW    =     355.37248741 Ry
      -> total E_XC with PAW   =     -47.21484267 Ry

     convergence has been achieved in   4 iterations

     negative rho (up, down):  2.940E-01 0.000E+00

     Forces acting on atoms (cartesian axes, Ry/au):

     atom    1 type  1   force =    -0.00002638    0.00025744    0.00022632
     atom    2 type  1   force =    -0.00017813    0.00013537    0.00005409
     atom    3 type  2   force =    -0.00005799   -0.00018599   -0.00012648
     atom    4 type  2   force =     0.00007662    0.00023263   -0.00015321
     atom    5 type  2   force =     0.00026495   -0.00012130   -0.00003423
     atom    6 type  2   force =    -0.00018309    0.00011762   -0.00011027
     atom    7 type  2   force =     0.00026366   -0.00032661   -0.00011377
     atom    8 type  2   force =     0.00017587    0.00028688   -0.00004708
     atom    9 type  2   force =    -0.00017827    0.00010827    0.00008045
     atom   10 type  3   force =     0.00000784   -0.00022595    0.00018556
     atom   11 type  3   force =     0.00002924    0.00002221   -0.00000354
     atom   12 type  3   force =    -0.00014718   -0.00017672    0.00036215
     atom   13 type  3   force =     0.00007269    0.00033598    0.00020264
     atom   14 type  3   force =    -0.00004670   -0.00003877   -0.00028631
     atom   15 type  3   force =    -0.00007314   -0.00042107   -0.00023632
     The non-local contrib.  to forces
     atom    1 type  1   force =    -0.04191542    0.00051826   -0.00906547
     atom    2 type  1   force =     1.88543992    0.00440012    0.01310777
     atom    3 type  2   force =     0.33689672   -0.00068366    0.00013177
     atom    4 type  2   force =     0.05859410    0.03788621    0.00056269
     atom    5 type  2   force =     0.05788506   -0.03794342    0.00126627
     atom    6 type  2   force =    -0.25828883    0.00009975    0.00127741
     atom    7 type  2   force =    -0.01748217    0.03534267    0.00145041
     atom    8 type  2   force =    -0.01689519   -0.03484696    0.00128373
     atom    9 type  2   force =     0.24026022    0.00008590    0.00150367
     atom   10 type  3   force =    -0.03730128    0.06787543    0.00065796
     atom   11 type  3   force =    -0.03739634   -0.06780566    0.00065382
     atom   12 type  3   force =     0.03980427    0.06871501    0.00065660
     atom   13 type  3   force =     0.03982319   -0.06867236    0.00067219
     atom   14 type  3   force =    -0.05286571   -0.08653051    0.00063834
     atom   15 type  3   force =    -0.05282423    0.08663322    0.00057081
     The ionic contribution  to forces
     atom    1 type  1   force =     9.89737983   -0.00973212   -0.00798562
     atom    2 type  1   force =   -13.55190918   -0.01036117   -0.06138889
     atom    3 type  2   force =     2.63101683   -0.00221937    0.04249324
     atom    4 type  2   force =     2.70992274   -7.03646190    0.03114923
     atom    5 type  2   force =     2.71999307    7.03428879    0.00271255
     atom    6 type  2   force =    -3.43009850   -0.00340139    0.04205913
     atom    7 type  2   force =    -2.66776468   -6.95868736    0.02824967
     atom    8 type  2   force =    -2.64843929    6.96430800    0.00736001
     atom    9 type  2   force =    -1.53040062    0.02689882    0.04401046
     atom   10 type  3   force =     1.50289805   -3.27113471   -0.01962865
     atom   11 type  3   force =     1.50804550    3.26903219   -0.02243350
     atom   12 type  3   force =    -1.47759448   -3.25343416   -0.01878592
     atom   13 type  3   force =    -1.47462019    3.25564929   -0.02179114
     atom   14 type  3   force =     2.90761169    2.86365253   -0.02397986
     atom   15 type  3   force =     2.90395923   -2.86839743   -0.02204070
     The local contribution  to forces
     atom    1 type  1   force =    -9.85574758    0.00959846    0.01751300
     atom    2 type  1   force =    11.67777861    0.00623401    0.04873651
     atom    3 type  2   force =    -2.96419685    0.00272976   -0.04348963
     atom    4 type  2   force =    -2.76574860    7.00054202   -0.03224153
     atom    5 type  2   force =    -2.77568181   -6.99822883   -0.00400716
     atom    6 type  2   force =     3.68681336    0.00341965   -0.04323114
     atom    7 type  2   force =     2.68337692    6.92396984   -0.03014931
     atom    8 type  2   force =     2.66428050   -6.93018395   -0.00884690
     atom    9 type  2   force =     1.30184309   -0.02798991   -0.04609686
     atom   10 type  3   force =    -1.46567655    3.20316773    0.01945090
     atom   11 type  3   force =    -1.47070315   -3.20108577    0.02207030
     atom   12 type  3   force =     1.43755804    3.18467047    0.01878657
     atom   13 type  3   force =     1.43478016   -3.18650839    0.02161592
     atom   14 type  3   force =    -2.85488612   -2.77703606    0.02334729
     atom   15 type  3   force =    -2.85130311    2.78146889    0.02152566
     The core correction contribution to forces
     atom    1 type  1   force =     0.00009198   -0.00000947    0.00007867
     atom    2 type  1   force =    -0.01157572   -0.00002017   -0.00008928
     atom    3 type  2   force =    -0.00386733    0.00010346    0.00106097
     atom    4 type  2   force =    -0.00274446   -0.00155574    0.00069909
     atom    5 type  2   force =    -0.00195715    0.00182731    0.00031686
     atom    6 type  2   force =     0.00132744    0.00009633    0.00011092
     atom    7 type  2   force =     0.00207601   -0.00081263    0.00066098
     atom    8 type  2   force =     0.00117278    0.00111224    0.00048043
     atom    9 type  2   force =    -0.01194697    0.00123343    0.00097654
     atom   10 type  3   force =     0.00000000    0.00000000    0.00000000
     atom   11 type  3   force =     0.00000000    0.00000000    0.00000000
     atom   12 type  3   force =     0.00000000    0.00000000    0.00000000
     atom   13 type  3   force =     0.00000000    0.00000000    0.00000000
     atom   14 type  3   force =     0.00000000    0.00000000    0.00000000
     atom   15 type  3   force =     0.00000000    0.00000000    0.00000000
     The Hubbard contrib.    to forces
     atom    1 type  1   force =     0.00000000    0.00000000    0.00000000
     atom    2 type  1   force =     0.00000000    0.00000000    0.00000000
     atom    3 type  2   force =     0.00000000    0.00000000    0.00000000
     atom    4 type  2   force =     0.00000000    0.00000000    0.00000000
     atom    5 type  2   force =     0.00000000    0.00000000    0.00000000
     atom    6 type  2   force =     0.00000000    0.00000000    0.00000000
     atom    7 type  2   force =     0.00000000    0.00000000    0.00000000
     atom    8 type  2   force =     0.00000000    0.00000000    0.00000000
     atom    9 type  2   force =     0.00000000    0.00000000    0.00000000
     atom   10 type  3   force =     0.00000000    0.00000000    0.00000000
     atom   11 type  3   force =     0.00000000    0.00000000    0.00000000
     atom   12 type  3   force =     0.00000000    0.00000000    0.00000000
     atom   13 type  3   force =     0.00000000    0.00000000    0.00000000
     atom   14 type  3   force =     0.00000000    0.00000000    0.00000000
     atom   15 type  3   force =     0.00000000    0.00000000    0.00000000
     The SCF correction term to forces
     atom    1 type  1   force =     0.00007630    0.00000834   -0.00002397
     atom    2 type  1   force =    -0.00000026    0.00000861   -0.00002173
     atom    3 type  2   force =     0.00000414    0.00000984   -0.00003254
     atom    4 type  2   force =    -0.00003566   -0.00005193   -0.00003241
     atom    5 type  2   force =    -0.00006272    0.00006089   -0.00003246
     atom    6 type  2   force =    -0.00002507    0.00002930   -0.00003630
     atom    7 type  2   force =    -0.00003092   -0.00001310   -0.00003524
     atom    8 type  2   force =    -0.00003142    0.00002357   -0.00003406
     atom    9 type  2   force =    -0.00002249    0.00000606   -0.00002305
     atom   10 type  3   force =    -0.00000089   -0.00000838   -0.00000437
     atom   11 type  3   force =    -0.00000527    0.00000749   -0.00000387
     atom   12 type  3   force =    -0.00000351   -0.00000201   -0.00000480
     atom   13 type  3   force =     0.00000103   -0.00000653   -0.00000404
     atom   14 type  3   force =     0.00000494    0.00000129   -0.00000179
     atom   15 type  3   force =     0.00000647    0.00000027   -0.00000180

     Total force =     0.001250     Total SCF correction =     0.000177
     SCF correction compared to forces is large: reduce conv_thr to get better values


     Computing stress (Cartesian axis) and pressure


     negative rho (up, down):  2.940E-01 0.000E+00
          total   stress  (Ry/bohr**3)                   (kbar)     P=       -0.38
  -0.00000248   0.00000001  -0.00000000           -0.36        0.00       -0.00
   0.00000001  -0.00000277   0.00000000            0.00       -0.41        0.00
  -0.00000000   0.00000000  -0.00000245           -0.00        0.00       -0.36

     kinetic stress (kbar)     68.74      0.00      0.01
                                0.00     71.62      0.01
                                0.01      0.01     81.48

     local   stress (kbar)   -648.98      0.18      0.23
                                0.18   -353.70      0.31
                                0.23      0.31    -79.47

     nonloc. stress (kbar)     19.26     -0.00      0.00
                               -0.00     18.64     -0.00
                                0.00     -0.00     18.04

     hartree stress (kbar)    285.62     -0.09     -0.10
                               -0.09    157.28     -0.12
                               -0.10     -0.12     52.89

     exc-cor stress (kbar)     -6.03      0.00     -0.00
                                0.00     -6.22     -0.00
                               -0.00     -0.00     -6.69

     corecor stress (kbar)    -11.85      0.00     -0.00
                                0.00    -11.80      0.00
                               -0.00      0.00    -11.57

     ewald   stress (kbar)    292.88     -0.09     -0.15
                               -0.09    123.77     -0.19
                               -0.15     -0.19    -55.04

     hubbard stress (kbar)      0.00      0.00      0.00
                                0.00      0.00      0.00
                                0.00      0.00      0.00

     DFT-D   stress (kbar)      0.00      0.00      0.00
                                0.00      0.00      0.00
                                0.00      0.00      0.00

     XDM     stress (kbar)      0.00      0.00      0.00
                                0.00      0.00      0.00
                                0.00      0.00      0.00

     dft-nl  stress (kbar)      0.00      0.00      0.00
                                0.00      0.00      0.00
                                0.00      0.00      0.00

     TS-vdW  stress (kbar)      0.00      0.00      0.00
                                0.00      0.00      0.00
                                0.00      0.00      0.00

     MDB     stress (kbar)      0.00      0.00      0.00
                                0.00      0.00      0.00
                                0.00      0.00      0.00

     3D-RISM stress (kbar)      0.00      0.00      0.00
                                0.00      0.00      0.00
                                0.00      0.00      0.00

     Energy error            =      1.5E-06 Ry
     Gradient error          =      4.2E-04 Ry/Bohr

     bfgs converged in  13 scf cycles and  11 bfgs steps
     (criteria: energy <  1.0E-05 Ry, force <  5.0E-04 Ry/Bohr)

     End of BFGS Geometry Optimization

     Final energy             =    -176.3850298238 Ry

     File ./tmp/ABN.bfgs deleted, as requested
Begin final coordinates

ATOMIC_POSITIONS (angstrom)
N                7.7066943237        4.5678759929        4.5687069219
N                0.9094956727        4.5724760031        4.5678226049
C                6.3364702769        4.5692841738        4.5751387182
C                5.6121718859        3.3551116384        4.5763376916
C                5.6143971315        5.7845575866        4.5726251466
C                3.5076348132        4.5715841784        4.5776839987
C                4.2259333937        3.3577737945        4.5769951343
C                4.2279295625        5.7838235324        4.5737905262
C                2.0837502696        4.5743942362        4.5750150164
H                6.1544363685        2.4035978079        4.5676733626
H                6.1580311429        6.7352026903        4.5639349268
H                3.6793967622        2.4107053961        4.5688669699
H                3.6814769100        6.7307432695        4.5653278778
H                8.2314336228        5.4362266527        4.5622606521
H                8.2303178638        3.6989970471        4.5629264519
End final coordinates



     Writing all to output data dir ./tmp/ABN.save/ :
     XML data file, charge density, pseudopotentials, collected wavefunctions

     init_run     :      0.94s CPU      1.02s WALL (       1 calls)
     electrons    :     82.58s CPU     85.76s WALL (      13 calls)
     update_pot   :      2.44s CPU      2.52s WALL (      12 calls)
     forces       :      7.74s CPU      7.85s WALL (      13 calls)
     stress       :     11.62s CPU     11.75s WALL (      13 calls)

     Called by init_run:
     wfcinit      :      0.33s CPU      0.35s WALL (       1 calls)
     wfcinit:atom :      0.00s CPU      0.00s WALL (       1 calls)
     wfcinit:wfcr :      0.31s CPU      0.33s WALL (       1 calls)
     potinit      :      0.17s CPU      0.20s WALL (       1 calls)
     hinit0       :      0.04s CPU      0.05s WALL (       1 calls)

     Called by electrons:
     c_bands      :     47.54s CPU     49.01s WALL (      80 calls)
     sum_band     :     15.19s CPU     15.61s WALL (      80 calls)
     v_of_rho     :     12.39s CPU     12.77s WALL (      84 calls)
     v_h          :      0.97s CPU      1.03s WALL (      84 calls)
     v_xc         :     14.95s CPU     15.37s WALL (     110 calls)
     newd         :      7.12s CPU      7.21s WALL (      84 calls)
     PAW_pot      :      1.89s CPU      1.90s WALL (      96 calls)
     mix_rho      :      1.14s CPU      1.18s WALL (      80 calls)

     Called by c_bands:
     init_us_2    :      0.93s CPU      0.94s WALL (     173 calls)
     regterg      :     46.71s CPU     48.17s WALL (      80 calls)

     Called by sum_band:
     sum_band:wei :      0.00s CPU      0.00s WALL (      80 calls)
     sum_band:loo :      7.04s CPU      7.33s WALL (      80 calls)
     sum_band:buf :      0.00s CPU      0.00s WALL (      80 calls)
     sum_band:ini :      0.44s CPU      0.44s WALL (      80 calls)
     sum_band:cal :      2.50s CPU      2.51s WALL (      92 calls)
     sum_band:bec :      0.00s CPU      0.00s WALL (      92 calls)
     addusdens    :      6.67s CPU      6.70s WALL (      80 calls)
                                        0.00s GPU  (      80 calls)
     addusd:skk   :      0.19s CPU      0.19s WALL (     240 calls)
                                        0.00s GPU  (     240 calls)

     Called by *egterg:
     rdiaghg      :      0.18s CPU      0.18s WALL (     317 calls)
     regterg:over :      4.38s CPU      4.40s WALL (     258 calls)
     regterg:upda :      0.97s CPU      0.98s WALL (     258 calls)
     regterg:last :      2.90s CPU      2.90s WALL (     170 calls)
     h_psi        :     32.05s CPU     33.47s WALL (     339 calls)
     s_psi        :      4.08s CPU      4.09s WALL (     339 calls)
     g_psi        :      0.06s CPU      0.06s WALL (     258 calls)

     Called by h_psi:
     h_psi:calbec :      5.96s CPU      5.98s WALL (     339 calls)
     vloc_psi     :     21.60s CPU     22.99s WALL (     339 calls)
     add_vuspsi   :      4.35s CPU      4.36s WALL (     339 calls)

     General routines
     calbec       :     10.20s CPU     10.24s WALL (     496 calls)
     fft          :      7.78s CPU      8.48s WALL (    1037 calls)
     ffts         :      0.61s CPU      0.66s WALL (      80 calls)
     fftw         :     20.72s CPU     22.34s WALL (    6832 calls)

     Parallel routines

     PAW routines
     PAW_pot      :      1.89s CPU      1.90s WALL (      96 calls)

     PWSCF        :   1m47.35s CPU   1m51.23s WALL


   This run was terminated on:  20:31:24  15Mar2025            

=------------------------------------------------------------------------------=
   JOB DONE.
=------------------------------------------------------------------------------=
