
     Program PWSCF v.7.3.1 starts on 11Apr2025 at  0:44:56 

     This program is part of the open-source Quantum ESPRESSO suite
     for quantum simulation of materials; please cite
         "P. Giannozzi et al., J. Phys.:Condens. Matter 21 395502 (2009);
         "P. Giannozzi et al., J. Phys.:Condens. Matter 29 465901 (2017);
         "P. Giannozzi et al., J. Chem. Phys. 152 154105 (2020);
          URL http://www.quantum-espresso.org", 
     in publications or presentations arising from this work. More details at
     http://www.quantum-espresso.org/quote

     Parallel version (MPI), running on    33 processors

     MPI processes distributed on     1 nodes
     25092 MiB available memory on the printing compute node when the environment starts

     Waiting for input...
     Reading input from standard input
Warning: card &CELL ignored
Warning: card   CELL_DOFREE = 'ALL' ignored
Warning: card / ignored

     Current dimensions of program PWSCF are:
     Max number of different atomic species (ntypx) = 10
     Max number of k-points (npk) =  40000
     Max angular momentum in pseudopotentials (lmaxx) =  4
     file C.pbe-n-kjpaw_psl.1.0.0.UPF: wavefunction(s)  2S 2P renormalized

     R & G space division:  proc/nbgrp/npool/nimage =      33
     Subspace diagonalization in iterative solution of the eigenvalue problem:
     one sub-group per band group will be used
     custom distributed-memory algorithm (size of sub-group:  5*  5 procs)


     Parallelization info
     --------------------
     sticks:   dense  smooth     PW     G-vecs:    dense   smooth      PW
     Min         245     140     37                38015    16424    2301
     Max         246     141     38                38023    16429    2310
     Sum        8103    4637   1251              1254623   542067   76155

     Using Slab Decomposition



     bravais-lattice index     =            0
     lattice parameter (alat)  =      18.4179  a.u.
     unit-cell volume          =   15858.2170 (a.u.)^3
     number of atoms/cell      =           65
     number of atomic types    =            4
     number of electrons       =      1002.00
     number of Kohn-Sham states=          601
     kinetic-energy cutoff     =      40.0000  Ry
     charge density cutoff     =     280.0000  Ry
     scf convergence threshold =      1.0E-06
     mixing beta               =       0.4000
     number of iterations used =            8  plain     mixing
     energy convergence thresh.=      5.0E-05
     force convergence thresh. =      1.0E-03
     Exchange-correlation= PBE
                           (   1   4   3   4   0   0   0)
     nstep                     =          300


     celldm(1)=  18.417879  celldm(2)=   0.000000  celldm(3)=   0.000000
     celldm(4)=   0.000000  celldm(5)=   0.000000  celldm(6)=   0.000000

     crystal axes: (cart. coord. in units of alat)
               a(1) = (   1.000000   0.000000   0.000000 )  
               a(2) = (   0.000000   1.072963   0.000000 )  
               a(3) = (   0.000000  -1.365810   2.365652 )  

     reciprocal axes: (cart. coord. in units 2 pi/alat)
               b(1) = (  1.000000  0.000000 -0.000000 )  
               b(2) = ( -0.000000  0.931999  0.538090 )  
               b(3) = (  0.000000  0.000000  0.422716 )  


     PseudoPot. # 1 for Zn read from file:
     /home/ys/qepseudo/SSSP_1.3.0_PBE_efficiency/Zn_pbe_v1.uspp.F.UPF
     MD5 check sum: df62231357ef9e81f77b2b3087fa5675
     Pseudo is Ultrasoft, Zval = 20.0
     Generated by new atomic code, or converted to UPF format
     Using radial grid of  943 points,  6 beta functions with: 
                l(1) =   0
                l(2) =   0
                l(3) =   1
                l(4) =   1
                l(5) =   2
                l(6) =   2
     Q(r) pseudized with  8 coefficients,  rinner =    1.100   1.100   1.100
                                                       1.100   1.100

     PseudoPot. # 2 for N  read from file:
     /home/ys/qepseudo/SSSP_1.3.0_PBE_efficiency/N.pbe-n-radius_5.UPF
     MD5 check sum: 16739722b17309cd8fe442a2ace49922
     Pseudo is Ultrasoft + core correction, Zval =  5.0
     Generated using "atomic" code by A. Dal Corso  v.5.1
     Using radial grid of 1085 points,  4 beta functions with: 
                l(1) =   0
                l(2) =   0
                l(3) =   1
                l(4) =   1
     Q(r) pseudized with 0 coefficients 


     PseudoPot. # 3 for C  read from file:
     /home/ys/qepseudo/SSSP_1.3.0_PBE_efficiency/C.pbe-n-kjpaw_psl.1.0.0.UPF
     MD5 check sum: 5d2aebdfa2cae82b50a7e79e9516da0f
     Pseudo is Projector augmented-wave + core cor, Zval =  4.0
     Generated using "atomic" code by A. Dal Corso  v.5.1
     Shape of augmentation charge: PSQ
     Using radial grid of 1073 points,  4 beta functions with: 
                l(1) =   0
                l(2) =   0
                l(3) =   1
                l(4) =   1
     Q(r) pseudized with 0 coefficients 


     PseudoPot. # 4 for H  read from file:
     /home/ys/qepseudo/SSSP_1.3.0_PBE_efficiency/H.pbe-rrkjus_psl.1.0.0.UPF
     MD5 check sum: f52b6d4d1c606e5624b1dc7b2218f220
     Pseudo is Ultrasoft, Zval =  1.0
     Generated using "atomic" code by A. Dal Corso  v.5.1
     Using radial grid of  929 points,  2 beta functions with: 
                l(1) =   0
                l(2) =   0
     Q(r) pseudized with 0 coefficients 


     atomic species   valence    mass     pseudopotential
     Zn               20.00    65.38000     Zn( 1.00)
     N                 5.00    14.00674     N ( 1.00)
     C                 4.00    12.01070     C ( 1.00)
     H                 1.00     1.00794     H ( 1.00)

     No symmetry found


                                    s                        frac. trans.

      isym =  1     identity                                     

 cryst.   s( 1) = (     1          0          0      )
                  (     0          1          0      )
                  (     0          0          1      )

 cart.    s( 1) = (  1.0000000  0.0000000  0.0000000 )
                  (  0.0000000  1.0000000 -0.0000000 )
                  (  0.0000000  0.0000000  1.0000000 )


   Cartesian axes

     site n.     atom                  positions (alat units)
         1        Zn     tau(   1) = (   0.1250000   0.1341203   0.0774344  )
         2        Zn     tau(   2) = (   0.1250000   0.6706017   0.0774344  )
         3        Zn     tau(   3) = (   0.1254355  -0.0000659   0.3663588  )
         4        Zn     tau(   4) = (   0.1254363   0.5365404   0.3662887  )
         5        Zn     tau(   5) = (   0.1252702  -0.1341656   0.6251262  )
         6        Zn     tau(   6) = (   0.1252777   0.4024072   0.6251464  )
         7        Zn     tau(   7) = (   0.1250000   0.4023610   0.0774344  )
         8        Zn     tau(   8) = (   0.1250000   0.9388424   0.0774344  )
         9        Zn     tau(   9) = (   0.1254456   0.2682606   0.3663796  )
        10        Zn     tau(  10) = (   0.1254350   0.8047243   0.3662418  )
        11        Zn     tau(  11) = (   0.1252783   0.1341187   0.6251453  )
        12        Zn     tau(  12) = (   0.1252697   0.6706189   0.6251228  )
        13        Zn     tau(  13) = (   0.6250000   0.1341203   0.0774344  )
        14        Zn     tau(  14) = (   0.6250000   0.6706017   0.0774344  )
        15        Zn     tau(  15) = (   0.6245281  -0.0000638   0.3665247  )
        16        Zn     tau(  16) = (   0.6245270   0.5365419   0.3664904  )
        17        Zn     tau(  17) = (   0.6247150  -0.1341737   0.6252632  )
        18        Zn     tau(  18) = (   0.6247105   0.4024094   0.6252948  )
        19        Zn     tau(  19) = (   0.6250000   0.4023610   0.0774344  )
        20        Zn     tau(  20) = (   0.6250000   0.9388424   0.0774344  )
        21        Zn     tau(  21) = (   0.6245216   0.2682681   0.3665651  )
        22        Zn     tau(  22) = (   0.6245321   0.8047117   0.3664232  )
        23        Zn     tau(  23) = (   0.6247131   0.1341157   0.6252902  )
        24        Zn     tau(  24) = (   0.6247175   0.6706215   0.6252710  )
        25        Zn     tau(  25) = (   0.3750000   0.0000000   0.1548688  )
        26        Zn     tau(  26) = (   0.3750000   0.5364814   0.1548688  )
        27        Zn     tau(  27) = (   0.3745046  -0.1341714   0.3889500  )
        28        Zn     tau(  28) = (   0.3745046   0.4024249   0.3889898  )
        29        Zn     tau(  29) = (   0.3746919  -0.2682568   0.6329084  )
        30        Zn     tau(  30) = (   0.3746970   0.2682757   0.6328984  )
        31        Zn     tau(  31) = (   0.3750000   0.2682407   0.1548688  )
        32        Zn     tau(  32) = (   0.3750000   0.8047221   0.1548688  )
        33        Zn     tau(  33) = (   0.3745120   0.1340709   0.3890099  )
        34        Zn     tau(  34) = (   0.3744965   0.6706470   0.3889242  )
        35        Zn     tau(  35) = (   0.3746988  -0.0000299   0.6328957  )
        36        Zn     tau(  36) = (   0.3746947   0.5365025   0.6329113  )
        37        Zn     tau(  37) = (   0.8750000   0.0000000   0.1548688  )
        38        Zn     tau(  38) = (   0.8750000   0.5364814   0.1548688  )
        39        Zn     tau(  39) = (   0.8755371  -0.1341797   0.3891205  )
        40        Zn     tau(  40) = (   0.8755441   0.4024177   0.3891626  )
        41        Zn     tau(  41) = (   0.8753258  -0.2682562   0.6328998  )
        42        Zn     tau(  42) = (   0.8753266   0.2682699   0.6328854  )
        43        Zn     tau(  43) = (   0.8750000   0.2682407   0.1548688  )
        44        Zn     tau(  44) = (   0.8750000   0.8047221   0.1548688  )
        45        Zn     tau(  45) = (   0.8755369   0.1340755   0.3891857  )
        46        Zn     tau(  46) = (   0.8755419   0.6706575   0.3890923  )
        47        Zn     tau(  47) = (   0.8753223  -0.0000330   0.6328793  )
        48        Zn     tau(  48) = (   0.8753273   0.5365108   0.6329031  )
        49        C      tau(  49) = (   0.3117059   0.3759677   1.3624751  )
        50        C      tau(  50) = (   0.3699376   0.2647968   1.4341498  )
        51        C      tau(  51) = (   0.3147221   0.3801398   1.2198241  )
        52        C      tau(  52) = (   0.4306532   0.1590365   1.3570205  )
        53        C      tau(  53) = (   0.3749777   0.2751278   1.1419085  )
        54        C      tau(  54) = (   0.4325697   0.1649729   1.2140376  )
        55        C      tau(  55) = (   0.3769202   0.2821036   0.9874064  )
        56        N      tau(  56) = (   0.3674459   0.2601200   1.5755786  )
        57        H      tau(  57) = (   0.3238599   0.3360052   1.6306879  )
        58        H      tau(  58) = (   0.4315324   0.3739217   0.9506674  )
        59        H      tau(  59) = (   0.2639388   0.4596350   1.4198391  )
        60        H      tau(  60) = (   0.4089931   0.1806200   1.6271277  )
        61        H      tau(  61) = (   0.2687200   0.4679330   1.1673528  )
        62        H      tau(  62) = (   0.4766582   0.0716078   1.4100010  )
        63        H      tau(  63) = (   0.4806321   0.0810888   1.1572381  )
        64        H      tau(  64) = (   0.4278390   0.1920486   0.9427782  )
        65        H      tau(  65) = (   0.2723984   0.2868410   0.9447874  )

     --------------------------------------------
     DFT-D3 Dispersion Correction (3-body terms):
     --------------------------------------------
       Reference C6 values for interpolation: 

         atom   Coordination number   C6
         H          0.912             6.05
         H          0.000            15.18
         C          0.000            98.23
         C          0.987            86.49
         C          1.998            58.72
         C          2.999            51.56
         C          3.984            36.41
         N          0.000            50.54
         N          0.994            44.25
         N          2.014            39.35
         N          2.990            31.16
         Zn         0.000           681.04
         Zn         1.942           306.91

       Values used:

         atom   Coordination number  R0_AB[au]  C6      C8
         Zn         4.540            3.053    306.91  23930.67
         Zn         4.543            3.053    306.91  23930.67
         Zn         6.756            3.053    306.91  23930.67
         Zn         6.757            3.053    306.91  23930.67
         Zn         5.959            3.053    306.91  23930.67
         Zn         5.959            3.053    306.91  23930.67
         Zn         4.541            3.053    306.91  23930.67
         Zn         4.542            3.053    306.91  23930.67
         Zn         6.753            3.053    306.91  23930.67
         Zn         6.759            3.053    306.91  23930.67
         Zn         5.958            3.053    306.91  23930.67
         Zn         5.959            3.053    306.91  23930.67
         Zn         4.537            3.053    306.91  23930.67
         Zn         4.539            3.053    306.91  23930.67
         Zn         6.705            3.053    306.91  23930.67
         Zn         6.706            3.053    306.91  23930.67
         Zn         5.925            3.053    306.91  23930.67
         Zn         5.925            3.053    306.91  23930.67
         Zn         4.537            3.053    306.91  23930.67
         Zn         4.539            3.053    306.91  23930.67
         Zn         6.703            3.053    306.91  23930.67
         Zn         6.708            3.053    306.91  23930.67
         Zn         5.924            3.053    306.91  23930.67
         Zn         5.925            3.053    306.91  23930.67
         Zn         6.090            3.053    306.91  23930.67
         Zn         6.091            3.053    306.91  23930.67
         Zn         7.993            3.053    306.91  23930.67
         Zn         7.991            3.053    306.91  23930.67
         Zn         6.168            3.053    306.91  23930.67
         Zn         6.181            3.053    306.91  23930.67
         Zn         6.089            3.053    306.91  23930.67
         Zn         6.092            3.053    306.91  23930.67
         Zn         7.990            3.053    306.91  23930.67
         Zn         7.993            3.053    306.91  23930.67
         Zn         6.169            3.053    306.91  23930.67
         Zn         6.170            3.053    306.91  23930.67
         Zn         6.077            3.053    306.91  23930.67
         Zn         6.078            3.053    306.91  23930.67
         Zn         7.950            3.053    306.91  23930.67
         Zn         7.947            3.053    306.91  23930.67
         Zn         6.145            3.053    306.91  23930.67
         Zn         6.143            3.053    306.91  23930.67
         Zn         6.076            3.053    306.91  23930.67
         Zn         6.079            3.053    306.91  23930.67
         Zn         7.946            3.053    306.91  23930.67
         Zn         7.950            3.053    306.91  23930.67
         Zn         6.144            3.053    306.91  23930.67
         Zn         6.144            3.053    306.91  23930.67
         C          3.164            2.750     50.42   1458.20
         C          3.137            2.750     50.63   1464.37
         C          3.166            2.750     50.39   1457.50
         C          3.163            2.750     50.42   1458.29
         C          3.130            2.750     50.69   1466.00
         C          3.164            2.750     50.41   1458.07
         C          4.054            2.750     36.57   1057.68
         N          3.077            2.478     31.25    689.36
         H          1.005            2.062      6.18     74.66
         H          1.000            2.062      6.18     74.72
         H          1.003            2.062      6.18     74.69
         H          1.005            2.062      6.18     74.66
         H          1.003            2.062      6.18     74.68
         H          1.003            2.062      6.18     74.69
         H          1.003            2.062      6.18     74.68
         H          1.001            2.062      6.18     74.70
         H          1.000            2.062      6.18     74.72

         Molecular C6 ( Ry / a.u.^6 ) =    839478.49


   Crystallographic axes

     site n.     atom                  positions (cryst. coord.)
         1        Zn     tau(   1) = (  0.1250000  0.1666667  0.0327328  )
         2        Zn     tau(   2) = (  0.1250000  0.6666667  0.0327328  )
         3        Zn     tau(   3) = (  0.1254355  0.1970725  0.1548659  )
         4        Zn     tau(   4) = (  0.1254363  0.6971513  0.1548362  )
         5        Zn     tau(   5) = (  0.1252702  0.2113319  0.2642511  )
         6        Zn     tau(   6) = (  0.1252777  0.7114279  0.2642596  )
         7        Zn     tau(   7) = (  0.1250000  0.4166667  0.0327328  )
         8        Zn     tau(   8) = (  0.1250000  0.9166667  0.0327328  )
         9        Zn     tau(   9) = (  0.1254456  0.4471637  0.1548747  )
        10        Zn     tau(  10) = (  0.1254350  0.9470731  0.1548164  )
        11        Zn     tau(  11) = (  0.1252783  0.4613828  0.2642592  )
        12        Zn     tau(  12) = (  0.1252697  0.9613882  0.2642496  )
        13        Zn     tau(  13) = (  0.6250000  0.1666667  0.0327328  )
        14        Zn     tau(  14) = (  0.6250000  0.6666667  0.0327328  )
        15        Zn     tau(  15) = (  0.6245281  0.1971637  0.1549360  )
        16        Zn     tau(  16) = (  0.6245270  0.6972612  0.1549215  )
        17        Zn     tau(  17) = (  0.6247150  0.2113980  0.2643090  )
        18        Zn     tau(  18) = (  0.6247105  0.7115098  0.2643223  )
        19        Zn     tau(  19) = (  0.6250000  0.4166667  0.0327328  )
        20        Zn     tau(  20) = (  0.6250000  0.9166667  0.0327328  )
        21        Zn     tau(  21) = (  0.6245216  0.4472705  0.1549531  )
        22        Zn     tau(  22) = (  0.6245321  0.9471590  0.1548931  )
        23        Zn     tau(  23) = (  0.6247131  0.4614579  0.2643204  )
        24        Zn     tau(  24) = (  0.6247175  0.9614704  0.2643123  )
        25        Zn     tau(  25) = (  0.3750000  0.0833333  0.0654656  )
        26        Zn     tau(  26) = (  0.3750000  0.5833333  0.0654656  )
        27        Zn     tau(  27) = (  0.3745046  0.0842425  0.1644155  )
        28        Zn     tau(  28) = (  0.3745046  0.5843710  0.1644324  )
        29        Zn     tau(  29) = (  0.3746919  0.0905466  0.2675408  )
        30        Zn     tau(  30) = (  0.3746970  0.5905888  0.2675365  )
        31        Zn     tau(  31) = (  0.3750000  0.3333333  0.0654656  )
        32        Zn     tau(  32) = (  0.3750000  0.8333334  0.0654656  )
        33        Zn     tau(  33) = (  0.3745120  0.3342762  0.1644409  )
        34        Zn     tau(  34) = (  0.3744965  0.8343184  0.1644046  )
        35        Zn     tau(  35) = (  0.3746988  0.3405268  0.2675354  )
        36        Zn     tau(  36) = (  0.3746947  0.8405829  0.2675420  )
        37        Zn     tau(  37) = (  0.8750000  0.0833333  0.0654656  )
        38        Zn     tau(  38) = (  0.8750000  0.5833333  0.0654656  )
        39        Zn     tau(  39) = (  0.8755371  0.0843264  0.1644876  )
        40        Zn     tau(  40) = (  0.8755441  0.5844573  0.1645054  )
        41        Zn     tau(  41) = (  0.8753258  0.0905424  0.2675371  )
        42        Zn     tau(  42) = (  0.8753266  0.5905764  0.2675310  )
        43        Zn     tau(  43) = (  0.8750000  0.3333333  0.0654656  )
        44        Zn     tau(  44) = (  0.8750000  0.8333334  0.0654656  )
        45        Zn     tau(  45) = (  0.8755369  0.3343750  0.1645152  )
        46        Zn     tau(  46) = (  0.8755419  0.8344186  0.1644757  )
        47        Zn     tau(  47) = (  0.8753223  0.3405151  0.2675284  )
        48        Zn     tau(  48) = (  0.8753273  0.8405862  0.2675385  )
        49        C      tau(  49) = (  0.3117059  1.0835354  0.5759405  )
        50        C      tau(  50) = (  0.3699376  1.0184917  0.6062386  )
        51        C      tau(  51) = (  0.3147221  1.0106648  0.5156397  )
        52        C      tau(  52) = (  0.4306532  0.8784207  0.5736348  )
        53        C      tau(  53) = (  0.3749777  0.8708682  0.4827035  )
        54        C      tau(  54) = (  0.4325697  0.8070159  0.5131936  )
        55        C      tau(  55) = (  0.3769202  0.7942335  0.4173929  )
        56        N      tau(  56) = (  0.3674459  1.0902343  0.6660229  )
        57        H      tau(  57) = (  0.3238599  1.1906130  0.6893185  )
        58        H      tau(  58) = (  0.4315324  0.8600390  0.4018627  )
        59        H      tau(  59) = (  0.2639388  1.1923803  0.6001893  )
        60        H      tau(  60) = (  0.4089931  1.0438784  0.6878135  )
        61        H      tau(  61) = (  0.2687200  1.0642537  0.4934592  )
        62        H      tau(  62) = (  0.4766582  0.8254455  0.5960305  )
        63        H      tau(  63) = (  0.4806321  0.6982727  0.4891835  )
        64        H      tau(  64) = (  0.4278390  0.6862884  0.3985278  )
        65        H      tau(  65) = (  0.2723984  0.7757159  0.3993771  )

     number of k points=     4  Marzari-Vanderbilt smearing, width (Ry)=  0.0200
                       cart. coord. in units 2pi/alat
        k(    1) = (   0.0000000   0.0000000   0.0000000), wk =   0.5000000
        k(    2) = (   0.0000000  -0.4659994  -0.2690449), wk =   0.5000000
        k(    3) = (  -0.5000000   0.0000000   0.0000000), wk =   0.5000000
        k(    4) = (  -0.5000000  -0.4659994  -0.2690449), wk =   0.5000000

                       cryst. coord.
        k(    1) = (   0.0000000   0.0000000   0.0000000), wk =   0.5000000
        k(    2) = (   0.0000000  -0.5000000   0.0000000), wk =   0.5000000
        k(    3) = (  -0.5000000   0.0000000   0.0000000), wk =   0.5000000
        k(    4) = (  -0.5000000  -0.5000000   0.0000000), wk =   0.5000000

     Dense  grid:  1254623 G-vectors     FFT dimensions: ( 100, 108, 270)

     Smooth grid:   542067 G-vectors     FFT dimensions: (  75,  80, 216)

     Dynamical RAM for                 wfc:      18.82 MB

     Dynamical RAM for     wfc (w. buffer):      94.09 MB

     Dynamical RAM for           str. fact:       2.32 MB

     Dynamical RAM for           local pot:       0.00 MB

     Dynamical RAM for          nlocal pot:      29.62 MB

     Dynamical RAM for                qrad:       5.37 MB

     Dynamical RAM for          rho,v,vnew:       3.97 MB

     Dynamical RAM for               rhoin:       1.32 MB

     Dynamical RAM for            rho*nmix:       9.28 MB

     Dynamical RAM for           G-vectors:       2.30 MB

     Dynamical RAM for          h,s,v(r/c):       2.64 MB

     Dynamical RAM for          <psi|beta>:       8.68 MB

     Dynamical RAM for                 psi:      37.64 MB

     Dynamical RAM for                hpsi:      37.64 MB

     Dynamical RAM for                spsi:      37.64 MB

     Dynamical RAM for      wfcinit/wfcrot:      51.77 MB

     Dynamical RAM for           addusdens:     135.76 MB

     Dynamical RAM for          addusforce:     190.77 MB

     Dynamical RAM for         addusstress:     116.61 MB

     Estimated static dynamical RAM per process >     145.60 MB

     Estimated max dynamical RAM per process >     345.65 MB

     Estimated total dynamical RAM >      11.14 GB

     Initial potential from superposition of free atoms

     starting charge    1001.9928, renormalised to    1002.0000

     negative rho (up, down):  1.330E-03 0.000E+00
     Starting wfcs are  665 randomized atomic wfcs
     Checking if some PAW data can be deallocated... 
       PAW data deallocated on   29 nodes for type:  3

     total cpu time spent up to now is       59.8 secs

     Self-consistent Calculation

     iteration #  1     ecut=    40.00 Ry     beta= 0.40
     Davidson diagonalization with overlap

---- Real-time Memory Report at c_bands before calling an iterative solver
           223 MiB given to the printing process from OS
             0 MiB allocation reported by mallinfo(arena+hblkhd)
         19650 MiB available memory on the node where the printing process lives
------------------
     ethr =  1.00E-02,  avg # of iterations =  8.5

     negative rho (up, down):  1.766E-03 0.000E+00

     total cpu time spent up to now is      291.8 secs

     total energy              =  -22308.86164596 Ry
     estimated scf accuracy    <      12.10149813 Ry

     iteration #  2     ecut=    40.00 Ry     beta= 0.40
     Davidson diagonalization with overlap

---- Real-time Memory Report at c_bands before calling an iterative solver
           321 MiB given to the printing process from OS
             0 MiB allocation reported by mallinfo(arena+hblkhd)
         18316 MiB available memory on the node where the printing process lives
------------------
     ethr =  1.21E-03,  avg # of iterations = 11.0

     negative rho (up, down):  2.744E-03 0.000E+00

     total cpu time spent up to now is      524.9 secs

     total energy              =  -22292.53288747 Ry
     estimated scf accuracy    <     342.17429613 Ry

     iteration #  3     ecut=    40.00 Ry     beta= 0.40
     Davidson diagonalization with overlap

---- Real-time Memory Report at c_bands before calling an iterative solver
           338 MiB given to the printing process from OS
             0 MiB allocation reported by mallinfo(arena+hblkhd)
         18289 MiB available memory on the node where the printing process lives
------------------
     ethr =  1.21E-03,  avg # of iterations =  8.2

     negative rho (up, down):  2.624E-03 0.000E+00

     total cpu time spent up to now is      812.1 secs

     total energy              =  -22313.80494051 Ry
     estimated scf accuracy    <       8.32787264 Ry

     iteration #  4     ecut=    40.00 Ry     beta= 0.40
     Davidson diagonalization with overlap

---- Real-time Memory Report at c_bands before calling an iterative solver
           339 MiB given to the printing process from OS
             0 MiB allocation reported by mallinfo(arena+hblkhd)
         18266 MiB available memory on the node where the printing process lives
------------------
     ethr =  8.31E-04,  avg # of iterations =  4.2

     negative rho (up, down):  2.562E-03 0.000E+00

     total cpu time spent up to now is     1002.7 secs

     total energy              =  -22314.33650799 Ry
     estimated scf accuracy    <       5.53579000 Ry

     iteration #  5     ecut=    40.00 Ry     beta= 0.40
     Davidson diagonalization with overlap

---- Real-time Memory Report at c_bands before calling an iterative solver
           340 MiB given to the printing process from OS
             0 MiB allocation reported by mallinfo(arena+hblkhd)
         18243 MiB available memory on the node where the printing process lives
------------------
     ethr =  5.52E-04,  avg # of iterations =  2.0

     negative rho (up, down):  2.627E-03 0.000E+00

     total cpu time spent up to now is     1184.8 secs

     total energy              =  -22314.66503193 Ry
     estimated scf accuracy    <       0.38655147 Ry

     iteration #  6     ecut=    40.00 Ry     beta= 0.40
     Davidson diagonalization with overlap

---- Real-time Memory Report at c_bands before calling an iterative solver
           340 MiB given to the printing process from OS
             0 MiB allocation reported by mallinfo(arena+hblkhd)
         18222 MiB available memory on the node where the printing process lives
------------------
     ethr =  3.86E-05,  avg # of iterations = 10.8

     negative rho (up, down):  2.790E-03 0.000E+00

     total cpu time spent up to now is     1395.3 secs

     total energy              =  -22314.67171509 Ry
     estimated scf accuracy    <       0.19218413 Ry

     iteration #  7     ecut=    40.00 Ry     beta= 0.40
     Davidson diagonalization with overlap

---- Real-time Memory Report at c_bands before calling an iterative solver
           341 MiB given to the printing process from OS
             0 MiB allocation reported by mallinfo(arena+hblkhd)
         18200 MiB available memory on the node where the printing process lives
------------------
     ethr =  1.92E-05,  avg # of iterations =  3.8

     negative rho (up, down):  2.871E-03 0.000E+00

     total cpu time spent up to now is     1583.2 secs

     total energy              =  -22314.67073770 Ry
     estimated scf accuracy    <       0.08410897 Ry

     iteration #  8     ecut=    40.00 Ry     beta= 0.40
     Davidson diagonalization with overlap

---- Real-time Memory Report at c_bands before calling an iterative solver
           342 MiB given to the printing process from OS
             0 MiB allocation reported by mallinfo(arena+hblkhd)
         18178 MiB available memory on the node where the printing process lives
------------------
     ethr =  8.39E-06,  avg # of iterations = 11.0

     negative rho (up, down):  2.937E-03 0.000E+00

     total cpu time spent up to now is     1786.4 secs

     total energy              =  -22314.66994677 Ry
     estimated scf accuracy    <       0.07057936 Ry

     iteration #  9     ecut=    40.00 Ry     beta= 0.40
     Davidson diagonalization with overlap

---- Real-time Memory Report at c_bands before calling an iterative solver
           343 MiB given to the printing process from OS
             0 MiB allocation reported by mallinfo(arena+hblkhd)
         18157 MiB available memory on the node where the printing process lives
------------------
     c_bands:  1 eigenvalues not converged
     ethr =  7.04E-06,  avg # of iterations = 12.8

     negative rho (up, down):  2.969E-03 0.000E+00

     total cpu time spent up to now is     1985.4 secs

     total energy              =  -22314.66951875 Ry
     estimated scf accuracy    <       0.03691090 Ry

     iteration # 10     ecut=    40.00 Ry     beta= 0.40
     Davidson diagonalization with overlap

---- Real-time Memory Report at c_bands before calling an iterative solver
           343 MiB given to the printing process from OS
             0 MiB allocation reported by mallinfo(arena+hblkhd)
         18137 MiB available memory on the node where the printing process lives
------------------
     c_bands:  1 eigenvalues not converged
     ethr =  3.68E-06,  avg # of iterations = 13.8

     negative rho (up, down):  2.997E-03 0.000E+00

     total cpu time spent up to now is     2186.1 secs

     total energy              =  -22314.66632817 Ry
     estimated scf accuracy    <       0.03095201 Ry

     iteration # 11     ecut=    40.00 Ry     beta= 0.40
     Davidson diagonalization with overlap

---- Real-time Memory Report at c_bands before calling an iterative solver
           344 MiB given to the printing process from OS
             0 MiB allocation reported by mallinfo(arena+hblkhd)
         18134 MiB available memory on the node where the printing process lives
------------------
     ethr =  3.09E-06,  avg # of iterations = 10.5

     negative rho (up, down):  3.125E-03 0.000E+00

     total cpu time spent up to now is     2382.7 secs

     total energy              =  -22314.64827854 Ry
     estimated scf accuracy    <       0.02470833 Ry

     iteration # 12     ecut=    40.00 Ry     beta= 0.40
     Davidson diagonalization with overlap

---- Real-time Memory Report at c_bands before calling an iterative solver
           344 MiB given to the printing process from OS
             0 MiB allocation reported by mallinfo(arena+hblkhd)
         18136 MiB available memory on the node where the printing process lives
------------------
     c_bands:  2 eigenvalues not converged
     c_bands:  3 eigenvalues not converged
     ethr =  2.47E-06,  avg # of iterations = 17.2

     negative rho (up, down):  3.126E-03 0.000E+00

     total cpu time spent up to now is     2640.4 secs

     total energy              =  -22314.64756745 Ry
     estimated scf accuracy    <       0.00752752 Ry

     iteration # 13     ecut=    40.00 Ry     beta= 0.40
     Davidson diagonalization with overlap

---- Real-time Memory Report at c_bands before calling an iterative solver
           344 MiB given to the printing process from OS
             0 MiB allocation reported by mallinfo(arena+hblkhd)
         18138 MiB available memory on the node where the printing process lives
------------------
     c_bands:  1 eigenvalues not converged
     c_bands:  1 eigenvalues not converged
     c_bands:  2 eigenvalues not converged
     ethr =  7.51E-07,  avg # of iterations = 19.0

     negative rho (up, down):  3.056E-03 0.000E+00

     total cpu time spent up to now is     2871.0 secs

     total energy              =  -22314.61508890 Ry
     estimated scf accuracy    <       0.25904193 Ry

     iteration # 14     ecut=    40.00 Ry     beta= 0.40
     Davidson diagonalization with overlap

---- Real-time Memory Report at c_bands before calling an iterative solver
           344 MiB given to the printing process from OS
             0 MiB allocation reported by mallinfo(arena+hblkhd)
         18135 MiB available memory on the node where the printing process lives
------------------
     ethr =  7.51E-07,  avg # of iterations = 16.0

     negative rho (up, down):  3.042E-03 0.000E+00

     total cpu time spent up to now is     3110.5 secs

     total energy              =  -22314.65256831 Ry
     estimated scf accuracy    <       0.00181992 Ry

     iteration # 15     ecut=    40.00 Ry     beta= 0.40
     Davidson diagonalization with overlap

---- Real-time Memory Report at c_bands before calling an iterative solver
           344 MiB given to the printing process from OS
             0 MiB allocation reported by mallinfo(arena+hblkhd)
         18134 MiB available memory on the node where the printing process lives
------------------
     ethr =  1.82E-07,  avg # of iterations =  2.0

     negative rho (up, down):  3.035E-03 0.000E+00

     total cpu time spent up to now is     3289.4 secs

     total energy              =  -22314.65248031 Ry
     estimated scf accuracy    <       0.00176880 Ry

     iteration # 16     ecut=    40.00 Ry     beta= 0.40
     Davidson diagonalization with overlap

---- Real-time Memory Report at c_bands before calling an iterative solver
           344 MiB given to the printing process from OS
             0 MiB allocation reported by mallinfo(arena+hblkhd)
         18138 MiB available memory on the node where the printing process lives
------------------
     ethr =  1.77E-07,  avg # of iterations =  1.2

     negative rho (up, down):  3.035E-03 0.000E+00

     total cpu time spent up to now is     3445.4 secs

     total energy              =  -22314.65231030 Ry
     estimated scf accuracy    <       0.00178508 Ry

     iteration # 17     ecut=    40.00 Ry     beta= 0.40
     Davidson diagonalization with overlap

---- Real-time Memory Report at c_bands before calling an iterative solver
           344 MiB given to the printing process from OS
             0 MiB allocation reported by mallinfo(arena+hblkhd)
         18136 MiB available memory on the node where the printing process lives
------------------
     ethr =  1.77E-07,  avg # of iterations =  4.5

     negative rho (up, down):  3.037E-03 0.000E+00

     total cpu time spent up to now is     3627.0 secs

     total energy              =  -22314.65208541 Ry
     estimated scf accuracy    <       0.00225428 Ry

     iteration # 18     ecut=    40.00 Ry     beta= 0.40
     Davidson diagonalization with overlap

---- Real-time Memory Report at c_bands before calling an iterative solver
           344 MiB given to the printing process from OS
             0 MiB allocation reported by mallinfo(arena+hblkhd)
         18132 MiB available memory on the node where the printing process lives
------------------
     ethr =  1.77E-07,  avg # of iterations =  2.8

     negative rho (up, down):  3.038E-03 0.000E+00

     total cpu time spent up to now is     3807.2 secs

     total energy              =  -22314.65189585 Ry
     estimated scf accuracy    <       0.00297423 Ry

     iteration # 19     ecut=    40.00 Ry     beta= 0.40
     Davidson diagonalization with overlap

---- Real-time Memory Report at c_bands before calling an iterative solver
           344 MiB given to the printing process from OS
             0 MiB allocation reported by mallinfo(arena+hblkhd)
         18134 MiB available memory on the node where the printing process lives
------------------
     ethr =  1.77E-07,  avg # of iterations =  4.5

     negative rho (up, down):  3.038E-03 0.000E+00

     total cpu time spent up to now is     3989.2 secs

     total energy              =  -22314.65171559 Ry
     estimated scf accuracy    <       0.00366021 Ry

     iteration # 20     ecut=    40.00 Ry     beta= 0.40
     Davidson diagonalization with overlap

---- Real-time Memory Report at c_bands before calling an iterative solver
           344 MiB given to the printing process from OS
             0 MiB allocation reported by mallinfo(arena+hblkhd)
         18132 MiB available memory on the node where the printing process lives
------------------
     ethr =  1.77E-07,  avg # of iterations =  2.5

     negative rho (up, down):  3.039E-03 0.000E+00

     total cpu time spent up to now is     4169.2 secs

     total energy              =  -22314.65166652 Ry
     estimated scf accuracy    <       0.00446574 Ry

     iteration # 21     ecut=    40.00 Ry     beta= 0.40
     Davidson diagonalization with overlap

---- Real-time Memory Report at c_bands before calling an iterative solver
           344 MiB given to the printing process from OS
             0 MiB allocation reported by mallinfo(arena+hblkhd)
         18130 MiB available memory on the node where the printing process lives
------------------
     ethr =  1.77E-07,  avg # of iterations =  1.5

     negative rho (up, down):  3.040E-03 0.000E+00

     total cpu time spent up to now is     4333.0 secs

     total energy              =  -22314.65167710 Ry
     estimated scf accuracy    <       0.00464074 Ry

     iteration # 22     ecut=    40.00 Ry     beta= 0.40
     Davidson diagonalization with overlap

---- Real-time Memory Report at c_bands before calling an iterative solver
           344 MiB given to the printing process from OS
             0 MiB allocation reported by mallinfo(arena+hblkhd)
         18133 MiB available memory on the node where the printing process lives
------------------
     ethr =  1.77E-07,  avg # of iterations =  2.5

     negative rho (up, down):  3.037E-03 0.000E+00

     total cpu time spent up to now is     4512.6 secs

     total energy              =  -22314.65429542 Ry
     estimated scf accuracy    <       0.00457527 Ry

     iteration # 23     ecut=    40.00 Ry     beta= 0.40
     Davidson diagonalization with overlap

---- Real-time Memory Report at c_bands before calling an iterative solver
           344 MiB given to the printing process from OS
             0 MiB allocation reported by mallinfo(arena+hblkhd)
         18132 MiB available memory on the node where the printing process lives
------------------
     ethr =  1.77E-07,  avg # of iterations = 10.5

     negative rho (up, down):  3.039E-03 0.000E+00

     total cpu time spent up to now is     4714.2 secs

     total energy              =  -22314.65373513 Ry
     estimated scf accuracy    <       0.00184898 Ry

     iteration # 24     ecut=    40.00 Ry     beta= 0.40
     Davidson diagonalization with overlap

---- Real-time Memory Report at c_bands before calling an iterative solver
           344 MiB given to the printing process from OS
             0 MiB allocation reported by mallinfo(arena+hblkhd)
         18132 MiB available memory on the node where the printing process lives
------------------
     ethr =  1.77E-07,  avg # of iterations =  4.8

     negative rho (up, down):  3.042E-03 0.000E+00

     total cpu time spent up to now is     4899.4 secs

     total energy              =  -22314.65453488 Ry
     estimated scf accuracy    <       0.00259194 Ry

     iteration # 25     ecut=    40.00 Ry     beta= 0.40
     Davidson diagonalization with overlap

---- Real-time Memory Report at c_bands before calling an iterative solver
           344 MiB given to the printing process from OS
             0 MiB allocation reported by mallinfo(arena+hblkhd)
         18135 MiB available memory on the node where the printing process lives
------------------
     ethr =  1.77E-07,  avg # of iterations = 10.5

     negative rho (up, down):  3.038E-03 0.000E+00

     total cpu time spent up to now is     5097.2 secs

     total energy              =  -22314.65280126 Ry
     estimated scf accuracy    <       0.00402909 Ry

     iteration # 26     ecut=    40.00 Ry     beta= 0.40
     Davidson diagonalization with overlap

---- Real-time Memory Report at c_bands before calling an iterative solver
           344 MiB given to the printing process from OS
             0 MiB allocation reported by mallinfo(arena+hblkhd)
         18132 MiB available memory on the node where the printing process lives
------------------
     ethr =  1.77E-07,  avg # of iterations = 11.2

     negative rho (up, down):  3.038E-03 0.000E+00

     total cpu time spent up to now is     5300.1 secs

     total energy              =  -22314.65166197 Ry
     estimated scf accuracy    <       0.00161864 Ry

     iteration # 27     ecut=    40.00 Ry     beta= 0.40
     Davidson diagonalization with overlap

---- Real-time Memory Report at c_bands before calling an iterative solver
           344 MiB given to the printing process from OS
             0 MiB allocation reported by mallinfo(arena+hblkhd)
         18131 MiB available memory on the node where the printing process lives
------------------
     c_bands:  3 eigenvalues not converged
     c_bands:  1 eigenvalues not converged
     c_bands:  2 eigenvalues not converged
     ethr =  1.62E-07,  avg # of iterations = 17.8

     negative rho (up, down):  3.037E-03 0.000E+00

     total cpu time spent up to now is     5536.0 secs

     total energy              =  -22314.64917224 Ry
     estimated scf accuracy    <       0.00146001 Ry

     iteration # 28     ecut=    40.00 Ry     beta= 0.40
     Davidson diagonalization with overlap

---- Real-time Memory Report at c_bands before calling an iterative solver
           344 MiB given to the printing process from OS
             0 MiB allocation reported by mallinfo(arena+hblkhd)
         18131 MiB available memory on the node where the printing process lives
------------------
     c_bands:  1 eigenvalues not converged
     ethr =  1.46E-07,  avg # of iterations =  8.8

     negative rho (up, down):  3.033E-03 0.000E+00

     total cpu time spent up to now is     5726.1 secs

     total energy              =  -22314.64772725 Ry
     estimated scf accuracy    <       0.01189852 Ry

     iteration # 29     ecut=    40.00 Ry     beta= 0.40
     Davidson diagonalization with overlap

---- Real-time Memory Report at c_bands before calling an iterative solver
           344 MiB given to the printing process from OS
             0 MiB allocation reported by mallinfo(arena+hblkhd)
         18130 MiB available memory on the node where the printing process lives
------------------
     c_bands:  1 eigenvalues not converged
     ethr =  1.46E-07,  avg # of iterations =  9.0

     negative rho (up, down):  3.035E-03 0.000E+00

     total cpu time spent up to now is     5917.7 secs

     total energy              =  -22314.64989381 Ry
     estimated scf accuracy    <       0.00697903 Ry

     iteration # 30     ecut=    40.00 Ry     beta= 0.40
     Davidson diagonalization with overlap

---- Real-time Memory Report at c_bands before calling an iterative solver
           344 MiB given to the printing process from OS
             0 MiB allocation reported by mallinfo(arena+hblkhd)
         18131 MiB available memory on the node where the printing process lives
------------------
     ethr =  1.46E-07,  avg # of iterations =  1.2

     negative rho (up, down):  3.036E-03 0.000E+00

     total cpu time spent up to now is     6073.7 secs

     total energy              =  -22314.64977592 Ry
     estimated scf accuracy    <       0.00516038 Ry

     iteration # 31     ecut=    40.00 Ry     beta= 0.40
     Davidson diagonalization with overlap

---- Real-time Memory Report at c_bands before calling an iterative solver
           344 MiB given to the printing process from OS
             0 MiB allocation reported by mallinfo(arena+hblkhd)
         18130 MiB available memory on the node where the printing process lives
------------------
     ethr =  1.46E-07,  avg # of iterations =  1.0

     negative rho (up, down):  3.035E-03 0.000E+00

     total cpu time spent up to now is     6222.6 secs

     total energy              =  -22314.64968173 Ry
     estimated scf accuracy    <       0.00390455 Ry

     iteration # 32     ecut=    40.00 Ry     beta= 0.40
     Davidson diagonalization with overlap

---- Real-time Memory Report at c_bands before calling an iterative solver
           344 MiB given to the printing process from OS
             0 MiB allocation reported by mallinfo(arena+hblkhd)
         18133 MiB available memory on the node where the printing process lives
------------------
     ethr =  1.46E-07,  avg # of iterations =  1.0

     negative rho (up, down):  3.033E-03 0.000E+00

     total cpu time spent up to now is     6370.7 secs

     total energy              =  -22314.64958018 Ry
     estimated scf accuracy    <       0.00275651 Ry

     iteration # 33     ecut=    40.00 Ry     beta= 0.40
     Davidson diagonalization with overlap

---- Real-time Memory Report at c_bands before calling an iterative solver
           344 MiB given to the printing process from OS
             0 MiB allocation reported by mallinfo(arena+hblkhd)
         18132 MiB available memory on the node where the printing process lives
------------------
     ethr =  1.46E-07,  avg # of iterations =  1.2

     negative rho (up, down):  3.032E-03 0.000E+00

     total cpu time spent up to now is     6527.4 secs

     total energy              =  -22314.64947884 Ry
     estimated scf accuracy    <       0.00137890 Ry

     iteration # 34     ecut=    40.00 Ry     beta= 0.40
     Davidson diagonalization with overlap

---- Real-time Memory Report at c_bands before calling an iterative solver
           344 MiB given to the printing process from OS
             0 MiB allocation reported by mallinfo(arena+hblkhd)
         18134 MiB available memory on the node where the printing process lives
------------------
     ethr =  1.38E-07,  avg # of iterations =  1.2

     negative rho (up, down):  3.031E-03 0.000E+00

     total cpu time spent up to now is     6683.7 secs

     total energy              =  -22314.64951149 Ry
     estimated scf accuracy    <       0.00006881 Ry

     iteration # 35     ecut=    40.00 Ry     beta= 0.40
     Davidson diagonalization with overlap

---- Real-time Memory Report at c_bands before calling an iterative solver
           344 MiB given to the printing process from OS
             0 MiB allocation reported by mallinfo(arena+hblkhd)
         18131 MiB available memory on the node where the printing process lives
------------------
     ethr =  6.87E-09,  avg # of iterations =  2.0

     negative rho (up, down):  3.030E-03 0.000E+00

     total cpu time spent up to now is     6862.4 secs

     total energy              =  -22314.64951828 Ry
     estimated scf accuracy    <       0.00000803 Ry

     iteration # 36     ecut=    40.00 Ry     beta= 0.40
     Davidson diagonalization with overlap

---- Real-time Memory Report at c_bands before calling an iterative solver
           344 MiB given to the printing process from OS
             0 MiB allocation reported by mallinfo(arena+hblkhd)
         18136 MiB available memory on the node where the printing process lives
------------------
     ethr =  8.02E-10,  avg # of iterations =  2.0

     negative rho (up, down):  3.030E-03 0.000E+00

     total cpu time spent up to now is     7041.0 secs

     total energy              =  -22314.64951441 Ry
     estimated scf accuracy    <       0.00005295 Ry

     iteration # 37     ecut=    40.00 Ry     beta= 0.40
     Davidson diagonalization with overlap

---- Real-time Memory Report at c_bands before calling an iterative solver
           344 MiB given to the printing process from OS
             0 MiB allocation reported by mallinfo(arena+hblkhd)
         18132 MiB available memory on the node where the printing process lives
------------------
     ethr =  8.02E-10,  avg # of iterations =  2.0

     negative rho (up, down):  3.029E-03 0.000E+00

     total cpu time spent up to now is     7219.5 secs

     End of self-consistent calculation

          k = 0.0000 0.0000 0.0000 ( 67685 PWs)   bands (ev):

  -124.9260-124.9251-124.9246-124.9237-124.9178-124.9168-124.9167-124.9158
  -124.7953-124.7945-124.7943-124.7935-124.7868-124.7860-124.7856-124.7849
  -124.5834-124.5783-124.5779-124.5775-124.5775-124.5770-124.5762-124.5751
  -124.5736-124.5728-124.5727-124.5719-124.5717-124.5708-124.5707-124.5699
  -124.5257-124.5243-124.5240-124.5229-124.5175-124.5166-124.5163-124.5155
  -124.4148-124.4139-124.4137-124.4128-124.4122-124.4112-124.4110-124.4101
   -79.0888 -79.0812 -79.0808 -79.0802 -79.0799 -79.0788 -79.0763 -79.0762
   -79.0732 -79.0721 -79.0720 -79.0709 -79.0703 -79.0692 -79.0687 -79.0684
   -79.0683 -79.0676 -79.0638 -79.0619 -79.0608 -79.0606 -79.0596 -79.0559
   -78.9636 -78.9552 -78.9514 -78.9512 -78.9461 -78.9452 -78.9452 -78.9449
   -78.9443 -78.9442 -78.9441 -78.9434 -78.9431 -78.9427 -78.9390 -78.9378
   -78.9370 -78.9365 -78.9365 -78.9357 -78.9357 -78.9354 -78.9346 -78.9306
   -78.7514 -78.7448 -78.7442 -78.7435 -78.7434 -78.7430 -78.7427 -78.7415
   -78.7403 -78.7401 -78.7389 -78.7381 -78.7380 -78.7379 -78.7372 -78.7371
   -78.7370 -78.7362 -78.7361 -78.7342 -78.7314 -78.7286 -78.7284 -78.7270
   -78.7238 -78.7237 -78.7225 -78.7219 -78.7218 -78.7177 -78.7176 -78.7173
   -78.7171 -78.7162 -78.7158 -78.7157 -78.7154 -78.7148 -78.7136 -78.7126
   -78.7125 -78.7116 -78.7115 -78.7112 -78.7101 -78.7100 -78.7094 -78.7089
   -78.6959 -78.6943 -78.6938 -78.6927 -78.6881 -78.6869 -78.6866 -78.6857
   -78.6792 -78.6713 -78.6685 -78.6673 -78.6672 -78.6670 -78.6669 -78.6661
   -78.6602 -78.6595 -78.6593 -78.6593 -78.6591 -78.6587 -78.6549 -78.6470
   -78.5918 -78.5907 -78.5906 -78.5896 -78.5892 -78.5882 -78.5879 -78.5869
   -78.5674 -78.5645 -78.5610 -78.5600 -78.5599 -78.5589 -78.5585 -78.5575
   -78.5572 -78.5563 -78.5551 -78.5550 -78.5523 -78.5520 -78.5428 -78.5398
   -16.9115 -14.7394 -12.6052 -12.1877 -10.5840  -9.0112  -8.3115  -7.8697
    -6.9012  -6.8586  -6.7917  -6.6567  -6.5988  -6.5919  -6.5917  -6.5241
    -6.4974  -6.4796  -6.4535  -6.4500  -6.4190  -6.4125  -6.2756  -6.2585
    -6.2576  -6.2566  -6.2522  -6.2490  -6.2490  -6.2462  -6.2214  -6.2213
    -6.2141  -6.2141  -6.2110  -6.2082  -6.2080  -6.2068  -6.1545  -6.1543
    -6.1471  -6.1470  -6.1379  -6.1222  -6.1220  -6.1145  -6.1122  -6.1098
    -6.1096  -6.1033  -6.1023  -6.0764  -6.0760  -6.0682  -6.0266  -5.9948
    -5.9725  -5.9725  -5.9703  -5.9559  -5.9557  -5.9435  -5.9196  -5.9190
    -5.9177  -5.9172  -5.9142  -5.8744  -5.8693  -5.8690  -5.8645  -5.8581
    -5.8572  -5.8555  -5.8448  -5.8440  -5.8355  -5.8352  -5.8280  -5.8233
    -5.8210  -5.8209  -5.8160  -5.8154  -5.8028  -5.7852  -5.7787  -5.7771
    -5.7708  -5.7706  -5.7699  -5.7687  -5.7684  -5.7507  -5.7343  -5.7116
    -5.7115  -5.7033  -5.6969  -5.6944  -5.6939  -5.6909  -5.6884  -5.6840
    -5.6793  -5.6792  -5.6706  -5.6544  -5.6542  -5.6435  -5.6434  -5.6378
    -5.6372  -5.6362  -5.6266  -5.6257  -5.6104  -5.5994  -5.5975  -5.5961
    -5.5960  -5.5883  -5.5715  -5.5669  -5.5668  -5.5474  -5.5468  -5.5463
    -5.5342  -5.5293  -5.5288  -5.5197  -5.5197  -5.5120  -5.5065  -5.4954
    -5.4938  -5.4935  -5.4929  -5.4923  -5.4848  -5.4840  -5.4527  -5.4515
    -5.4484  -5.4483  -5.4440  -5.4400  -5.4324  -5.4300  -5.4298  -5.4294
    -5.4274  -5.4270  -5.4238  -5.4231  -5.4197  -5.4188  -5.4103  -5.3961
    -5.3855  -5.3853  -5.3761  -5.3719  -5.3717  -5.3578  -5.3501  -5.3477
    -5.3471  -5.3444  -5.3406  -5.3399  -5.3384  -5.3305  -5.3275  -5.3224
    -5.3139  -5.3135  -5.3131  -5.3126  -5.3094  -5.3048  -5.3004  -5.2801
    -5.2784  -5.2725  -5.2719  -5.2715  -5.2715  -5.2688  -5.2499  -5.2495
    -5.2446  -5.2437  -5.2399  -5.2393  -5.2393  -5.2381  -5.2380  -5.2325
    -5.2288  -5.2276  -5.2268  -5.2265  -5.2140  -5.2136  -5.2129  -5.2073
    -5.2070  -5.2027  -5.1972  -5.1965  -5.1933  -5.1907  -5.1852  -5.1745
    -5.1647  -5.1587  -5.1558  -5.1508  -5.1496  -5.1460  -5.1426  -5.1383
    -5.1382  -5.1331  -5.1292  -5.1230  -5.1226  -5.1124  -5.1087  -5.1086
    -5.1055  -5.1054  -5.1052  -5.1017  -5.0995  -5.0942  -5.0893  -5.0842
    -5.0826  -5.0702  -5.0671  -5.0607  -5.0190  -5.0152  -5.0008  -4.9999
    -4.9852  -4.9248  -4.9208  -4.9024  -4.8916  -4.8698  -4.8373  -4.8097
    -4.7207  -4.2596  -4.2476  -4.2383  -4.1774  -4.1597  -4.1107  -4.0633
    -3.9845  -3.9815  -3.9443  -3.9362  -3.1663  -3.1362  -3.1121  -2.7238
    -2.7084  -2.5737  -2.5718  -2.4236  -2.0033  -1.9858  -1.8842  -1.8543
    -1.6577  -1.5509  -1.4938  -1.2322  -0.8710  -0.6547  -0.6400  -0.6367
    -0.5572  -0.3008  -0.2961  -0.2168  -0.0576  -0.0557  -0.0417   0.0193
     0.1257   0.2950   0.4928   0.4940   0.6988   0.8831   0.9592   1.0463
     1.0467   1.1050   1.1982   1.2027   1.3359   1.4857   1.4908   1.8301
     2.1464   2.3483   2.3542   2.6077   2.6095   2.6502   2.6633   2.6636
     2.8468   3.0474   3.0527   3.1467   3.1594   3.6090   3.7531   3.7742
     4.0747   4.1396   4.1409   4.2530   4.3317   4.3685   4.3687   4.3994
     4.6614   4.8175   4.8246   4.9392   4.9474   5.0121   5.1779   5.4406
     5.4511   5.5052   5.5195   5.6004   5.7143   5.7210   5.7215   5.7238
     5.7739   5.9811   6.0668   6.2483   6.3753   6.4052   6.4208   6.4266
     6.4630   6.5977   6.6359   6.6434   6.6704   6.7684   6.7968   6.9867
     7.0315   7.0585   7.0974   7.1656   7.1739   7.1746   7.2014   7.2312
     7.2765   7.3172   7.3768   7.4316   7.4381   7.4850   7.5053   7.5107
     7.5496   7.6425   7.6622   7.7292   7.8160   7.8369   7.8773   7.9060
     7.9646   8.0410   8.0654   8.1070   8.1229   8.2061   8.2258   8.2712
     8.3008   8.3778   8.4253   8.4793   8.5663   8.6327   8.7260   8.7305
     8.7671

     occupation numbers 
     1.0000   1.0000   1.0000   1.0000   1.0000   1.0000   1.0000   1.0000
     1.0000   1.0000   1.0000   1.0000   1.0000   1.0000   1.0000   1.0000
     1.0000   1.0000   1.0000   1.0000   1.0000   1.0000   1.0000   1.0000
     1.0000   1.0000   1.0000   1.0000   1.0000   1.0000   1.0000   1.0000
     1.0000   1.0000   1.0000   1.0000   1.0000   1.0000   1.0000   1.0000
     1.0000   1.0000   1.0000   1.0000   1.0000   1.0000   1.0000   1.0000
     1.0000   1.0000   1.0000   1.0000   1.0000   1.0000   1.0000   1.0000
     1.0000   1.0000   1.0000   1.0000   1.0000   1.0000   1.0000   1.0000
     1.0000   1.0000   1.0000   1.0000   1.0000   1.0000   1.0000   1.0000
     1.0000   1.0000   1.0000   1.0000   1.0000   1.0000   1.0000   1.0000
     1.0000   1.0000   1.0000   1.0000   1.0000   1.0000   1.0000   1.0000
     1.0000   1.0000   1.0000   1.0000   1.0000   1.0000   1.0000   1.0000
     1.0000   1.0000   1.0000   1.0000   1.0000   1.0000   1.0000   1.0000
     1.0000   1.0000   1.0000   1.0000   1.0000   1.0000   1.0000   1.0000
     1.0000   1.0000   1.0000   1.0000   1.0000   1.0000   1.0000   1.0000
     1.0000   1.0000   1.0000   1.0000   1.0000   1.0000   1.0000   1.0000
     1.0000   1.0000   1.0000   1.0000   1.0000   1.0000   1.0000   1.0000
     1.0000   1.0000   1.0000   1.0000   1.0000   1.0000   1.0000   1.0000
     1.0000   1.0000   1.0000   1.0000   1.0000   1.0000   1.0000   1.0000
     1.0000   1.0000   1.0000   1.0000   1.0000   1.0000   1.0000   1.0000
     1.0000   1.0000   1.0000   1.0000   1.0000   1.0000   1.0000   1.0000
     1.0000   1.0000   1.0000   1.0000   1.0000   1.0000   1.0000   1.0000
     1.0000   1.0000   1.0000   1.0000   1.0000   1.0000   1.0000   1.0000
     1.0000   1.0000   1.0000   1.0000   1.0000   1.0000   1.0000   1.0000
     1.0000   1.0000   1.0000   1.0000   1.0000   1.0000   1.0000   1.0000
     1.0000   1.0000   1.0000   1.0000   1.0000   1.0000   1.0000   1.0000
     1.0000   1.0000   1.0000   1.0000   1.0000   1.0000   1.0000   1.0000
     1.0000   1.0000   1.0000   1.0000   1.0000   1.0000   1.0000   1.0000
     1.0000   1.0000   1.0000   1.0000   1.0000   1.0000   1.0000   1.0000
     1.0000   1.0000   1.0000   1.0000   1.0000   1.0000   1.0000   1.0000
     1.0000   1.0000   1.0000   1.0000   1.0000   1.0000   1.0000   1.0000
     1.0000   1.0000   1.0000   1.0000   1.0000   1.0000   1.0000   1.0000
     1.0000   1.0000   1.0000   1.0000   1.0000   1.0000   1.0000   1.0000
     1.0000   1.0000   1.0000   1.0000   1.0000   1.0000   1.0000   1.0000
     1.0000   1.0000   1.0000   1.0000   1.0000   1.0000   1.0000   1.0000
     1.0000   1.0000   1.0000   1.0000   1.0000   1.0000   1.0000   1.0000
     1.0000   1.0000   1.0000   1.0000   1.0000   1.0000   1.0000   1.0000
     1.0000   1.0000   1.0000   1.0000   1.0000   1.0000   1.0000   1.0000
     1.0000   1.0000   1.0000   1.0000   1.0000   1.0000   1.0000   1.0000
     1.0000   1.0000   1.0000   1.0000   1.0000   1.0000   1.0000   1.0000
     1.0000   1.0000   1.0000   1.0000   1.0000   1.0000   1.0000   1.0000
     1.0000   1.0000   1.0000   1.0000   1.0000   1.0000   1.0000   1.0000
     1.0000   1.0000   1.0000   1.0000   1.0000   1.0000   1.0000   1.0000
     1.0000   1.0000   1.0000   1.0000   1.0000   1.0000   1.0000   1.0000
     1.0000   1.0000   1.0000   1.0000   1.0000   1.0000   1.0000   1.0000
     1.0000   1.0000   1.0000   1.0000   1.0000   1.0000   1.0000   1.0000
     1.0000   1.0000   1.0000   1.0000   1.0000   1.0000   1.0000   1.0000
     1.0000   1.0000   1.0000   1.0000   1.0000   1.0000   1.0000   1.0000
     1.0000   1.0000   1.0000   1.0000   1.0000   1.0000   1.0000   1.0000
     1.0000   1.0000   1.0000   1.0000   1.0000   1.0000   1.0000   1.0000
     1.0000   1.0000   1.0000   1.0000   1.0000   1.0000   1.0000   1.0000
     1.0000   1.0000   1.0000   1.0000   1.0000   1.0000   1.0000   1.0000
     1.0000   1.0000   1.0000   1.0000   1.0000   1.0000   1.0000   1.0000
     1.0000   1.0000   1.0000   1.0000   1.0000   1.0000   1.0000   1.0000
     1.0000   1.0000   1.0000   1.0000   1.0000   1.0000   1.0000   1.0000
     1.0000   1.0000   1.0000   1.0000   1.0000   1.0000   1.0000   1.0000
     1.0000   1.0000   1.0000   1.0000   1.0000   1.0000   1.0000   1.0000
     1.0000   1.0000   1.0000   1.0000   1.0000   1.0000   1.0000   1.0000
     1.0000   1.0000   1.0000   1.0000   1.0000   1.0000   1.0000   1.0000
     1.0000   1.0000   1.0000   1.0000   1.0000   1.0000   1.0000   1.0000
     1.0000   1.0000   1.0000   1.0000   1.0000   1.0000   1.0000   1.0000
     1.0000   1.0000   1.0000   1.0000   1.0003   1.0058   1.0150   1.0355
     1.0357   1.0549   1.0813   1.0819   1.0277   0.7334   0.7196   0.0553
     0.0004   0.0000   0.0000   0.0000   0.0000   0.0000   0.0000   0.0000
     0.0000   0.0000   0.0000   0.0000   0.0000   0.0000   0.0000   0.0000
     0.0000   0.0000   0.0000   0.0000   0.0000   0.0000   0.0000   0.0000
     0.0000   0.0000   0.0000   0.0000   0.0000   0.0000   0.0000   0.0000
     0.0000   0.0000   0.0000   0.0000   0.0000   0.0000   0.0000   0.0000
     0.0000   0.0000   0.0000   0.0000   0.0000   0.0000   0.0000   0.0000
     0.0000   0.0000   0.0000   0.0000   0.0000   0.0000   0.0000   0.0000
     0.0000   0.0000   0.0000   0.0000   0.0000   0.0000   0.0000   0.0000
     0.0000   0.0000   0.0000   0.0000   0.0000   0.0000   0.0000   0.0000
     0.0000   0.0000   0.0000   0.0000   0.0000   0.0000   0.0000   0.0000
     0.0000   0.0000   0.0000   0.0000   0.0000   0.0000   0.0000   0.0000
     0.0000   0.0000   0.0000   0.0000   0.0000   0.0000   0.0000   0.0000
     0.0000

          k = 0.0000-0.4660-0.2690 ( 67864 PWs)   bands (ev):

  -124.9260-124.9253-124.9244-124.9237-124.9177-124.9172-124.9163-124.9159
  -124.7952-124.7949-124.7939-124.7937-124.7866-124.7864-124.7853-124.7851
  -124.5834-124.5784-124.5779-124.5776-124.5774-124.5770-124.5761-124.5751
  -124.5734-124.5733-124.5722-124.5721-124.5715-124.5713-124.5703-124.5700
  -124.5257-124.5244-124.5238-124.5229-124.5174-124.5169-124.5160-124.5156
  -124.4147-124.4142-124.4134-124.4129-124.4121-124.4115-124.4107-124.4102
   -79.0856 -79.0846 -79.0811 -79.0806 -79.0795 -79.0789 -79.0774 -79.0769
   -79.0731 -79.0726 -79.0714 -79.0710 -79.0702 -79.0695 -79.0684 -79.0679
   -79.0676 -79.0671 -79.0618 -79.0613 -79.0602 -79.0598 -79.0597 -79.0593
   -78.9602 -78.9598 -78.9517 -78.9514 -78.9459 -78.9457 -78.9451 -78.9448
   -78.9444 -78.9443 -78.9438 -78.9435 -78.9427 -78.9425 -78.9376 -78.9374
   -78.9364 -78.9361 -78.9361 -78.9359 -78.9350 -78.9348 -78.9343 -78.9341
   -78.7514 -78.7449 -78.7441 -78.7435 -78.7434 -78.7431 -78.7415 -78.7404
   -78.7403 -78.7387 -78.7386 -78.7380 -78.7377 -78.7375 -78.7374 -78.7372
   -78.7368 -78.7366 -78.7364 -78.7363 -78.7326 -78.7324 -78.7307 -78.7304
   -78.7225 -78.7220 -78.7199 -78.7193 -78.7187 -78.7177 -78.7175 -78.7173
   -78.7162 -78.7157 -78.7157 -78.7152 -78.7150 -78.7148 -78.7133 -78.7132
   -78.7132 -78.7129 -78.7119 -78.7118 -78.7110 -78.7108 -78.7093 -78.7091
   -78.6959 -78.6944 -78.6937 -78.6927 -78.6880 -78.6872 -78.6863 -78.6858
   -78.6761 -78.6751 -78.6685 -78.6680 -78.6676 -78.6674 -78.6669 -78.6661
   -78.6602 -78.6597 -78.6590 -78.6589 -78.6588 -78.6580 -78.6508 -78.6504
   -78.5917 -78.5911 -78.5902 -78.5897 -78.5892 -78.5885 -78.5875 -78.5870
   -78.5640 -78.5635 -78.5612 -78.5609 -78.5605 -78.5604 -78.5595 -78.5591
   -78.5584 -78.5578 -78.5568 -78.5564 -78.5466 -78.5461 -78.5437 -78.5431
   -16.9115 -14.7394 -12.6052 -12.1877 -10.5840  -9.0112  -8.3114  -7.5140
    -7.5125  -6.8587  -6.7918  -6.6212  -6.6196  -6.4879  -6.4867  -6.4306
    -6.4294  -6.4116  -6.4110  -6.3792  -6.3785  -6.3478  -6.3478  -6.3448
    -6.3444  -6.3255  -6.3248  -6.2747  -6.2736  -6.2718  -6.2713  -6.2351
    -6.2347  -6.2185  -6.2183  -6.2132  -6.2128  -6.2082  -6.2080  -6.1517
    -6.1511  -6.1469  -6.1460  -6.1318  -6.1314  -6.0684  -6.0680  -6.0574
    -6.0571  -6.0535  -6.0529  -6.0473  -6.0468  -6.0352  -6.0345  -6.0324
    -6.0318  -5.9974  -5.9971  -5.9756  -5.9752  -5.9548  -5.9543  -5.9242
    -5.9241  -5.9131  -5.9125  -5.9121  -5.9119  -5.8998  -5.8994  -5.8941
    -5.8940  -5.8516  -5.8515  -5.8481  -5.8479  -5.8437  -5.8435  -5.8212
    -5.8208  -5.8063  -5.8060  -5.8053  -5.8049  -5.8033  -5.8030  -5.7893
    -5.7891  -5.7740  -5.7737  -5.7704  -5.7702  -5.7616  -5.7604  -5.7600
    -5.7597  -5.7547  -5.7540  -5.7258  -5.7250  -5.7200  -5.7197  -5.7110
    -5.7101  -5.7031  -5.7029  -5.6486  -5.6485  -5.6463  -5.6462  -5.6413
    -5.6411  -5.6202  -5.6200  -5.6045  -5.6035  -5.5989  -5.5987  -5.5857
    -5.5853  -5.5850  -5.5849  -5.5733  -5.5732  -5.5657  -5.5656  -5.5652
    -5.5647  -5.5542  -5.5541  -5.5483  -5.5482  -5.5407  -5.5405  -5.5289
    -5.5286  -5.5148  -5.5148  -5.5016  -5.5010  -5.4958  -5.4950  -5.4672
    -5.4665  -5.4444  -5.4428  -5.4291  -5.4290  -5.4267  -5.4262  -5.4086
    -5.4075  -5.3904  -5.3902  -5.3788  -5.3786  -5.3621  -5.3581  -5.3567
    -5.3559  -5.3530  -5.3526  -5.3468  -5.3461  -5.3364  -5.3350  -5.3300
    -5.3299  -5.3296  -5.3282  -5.3252  -5.3237  -5.3163  -5.3158  -5.3077
    -5.3076  -5.2903  -5.2895  -5.2893  -5.2889  -5.2644  -5.2636  -5.2622
    -5.2611  -5.2610  -5.2566  -5.2557  -5.2554  -5.2543  -5.2541  -5.2525
    -5.2524  -5.2389  -5.2367  -5.2263  -5.2229  -5.2218  -5.2214  -5.2165
    -5.2122  -5.2121  -5.2113  -5.2095  -5.2089  -5.1933  -5.1932  -5.1853
    -5.1760  -5.1748  -5.1733  -5.1720  -5.1703  -5.1683  -5.1681  -5.1665
    -5.1651  -5.1632  -5.1441  -5.1438  -5.1394  -5.1389  -5.1357  -5.1355
    -5.1303  -5.1303  -5.1210  -5.1197  -5.1116  -5.1113  -5.1044  -5.1034
    -5.1007  -5.1004  -5.0889  -5.0878  -5.0749  -5.0744  -5.0443  -5.0435
    -5.0364  -5.0362  -5.0161  -5.0160  -4.9911  -4.9909  -4.9734  -4.9723
    -4.9519  -4.9509  -4.9368  -4.9364  -4.8784  -4.8724  -4.8487  -4.8475
    -4.7992  -4.7981  -4.7190  -4.2404  -4.1116  -4.0063  -4.0055  -3.9395
    -3.7065  -3.7033  -3.5862  -3.5848  -3.1653  -3.1160  -2.8716  -2.8541
    -2.7089  -2.7072  -2.5089  -2.4916  -2.3942  -2.3191  -2.3190  -1.8733
    -1.5698  -1.5675  -1.3145  -1.3004  -1.2289  -1.0411  -1.0402  -0.8653
    -0.8640  -0.3973  -0.3967  -0.3464  -0.3441  -0.3427  -0.3383  -0.0552
     0.1166   0.1244   0.9048   0.9054   1.1918   1.1945   1.3238   1.3579
     1.3731   1.4076   1.4149   1.6485   1.6487   1.8880   1.8951   1.9122
     1.9328   2.0283   2.0283   2.7319   2.7319   3.0681   3.0686   3.0702
     3.0708   3.1809   3.1841   3.4495   3.4514   3.5041   3.5044   3.7442
     3.7442   3.9052   3.9299   4.2540   4.2568   4.6185   4.6199   4.6850
     4.6904   4.8108   4.8232   4.9094   4.9262   4.9641   5.1107   5.1686
     5.1731   5.2294   5.2574   5.2586   5.3966   5.4170   5.4288   5.4462
     5.5279   5.5499   5.6269   5.8613   5.8729   5.9257   5.9469   6.0893
     6.1858   6.3412   6.3446   6.4685   6.4965   6.5658   6.7439   6.7940
     6.8028   6.8170   6.9476   7.0540   7.1094   7.1481   7.2059   7.2191
     7.3064   7.3563   7.4254   7.4433   7.4919   7.5215   7.5603   7.5966
     7.6562   7.6755   7.6777   7.7930   7.8000   7.8181   7.8480   7.9810
     8.0064   8.0144   8.0583   8.1503   8.1553   8.2281   8.3726   8.4909
     8.5564   8.5779   8.6172   8.6434   8.6651   8.6838   8.7547   8.7564
     8.7871

     occupation numbers 
     1.0000   1.0000   1.0000   1.0000   1.0000   1.0000   1.0000   1.0000
     1.0000   1.0000   1.0000   1.0000   1.0000   1.0000   1.0000   1.0000
     1.0000   1.0000   1.0000   1.0000   1.0000   1.0000   1.0000   1.0000
     1.0000   1.0000   1.0000   1.0000   1.0000   1.0000   1.0000   1.0000
     1.0000   1.0000   1.0000   1.0000   1.0000   1.0000   1.0000   1.0000
     1.0000   1.0000   1.0000   1.0000   1.0000   1.0000   1.0000   1.0000
     1.0000   1.0000   1.0000   1.0000   1.0000   1.0000   1.0000   1.0000
     1.0000   1.0000   1.0000   1.0000   1.0000   1.0000   1.0000   1.0000
     1.0000   1.0000   1.0000   1.0000   1.0000   1.0000   1.0000   1.0000
     1.0000   1.0000   1.0000   1.0000   1.0000   1.0000   1.0000   1.0000
     1.0000   1.0000   1.0000   1.0000   1.0000   1.0000   1.0000   1.0000
     1.0000   1.0000   1.0000   1.0000   1.0000   1.0000   1.0000   1.0000
     1.0000   1.0000   1.0000   1.0000   1.0000   1.0000   1.0000   1.0000
     1.0000   1.0000   1.0000   1.0000   1.0000   1.0000   1.0000   1.0000
     1.0000   1.0000   1.0000   1.0000   1.0000   1.0000   1.0000   1.0000
     1.0000   1.0000   1.0000   1.0000   1.0000   1.0000   1.0000   1.0000
     1.0000   1.0000   1.0000   1.0000   1.0000   1.0000   1.0000   1.0000
     1.0000   1.0000   1.0000   1.0000   1.0000   1.0000   1.0000   1.0000
     1.0000   1.0000   1.0000   1.0000   1.0000   1.0000   1.0000   1.0000
     1.0000   1.0000   1.0000   1.0000   1.0000   1.0000   1.0000   1.0000
     1.0000   1.0000   1.0000   1.0000   1.0000   1.0000   1.0000   1.0000
     1.0000   1.0000   1.0000   1.0000   1.0000   1.0000   1.0000   1.0000
     1.0000   1.0000   1.0000   1.0000   1.0000   1.0000   1.0000   1.0000
     1.0000   1.0000   1.0000   1.0000   1.0000   1.0000   1.0000   1.0000
     1.0000   1.0000   1.0000   1.0000   1.0000   1.0000   1.0000   1.0000
     1.0000   1.0000   1.0000   1.0000   1.0000   1.0000   1.0000   1.0000
     1.0000   1.0000   1.0000   1.0000   1.0000   1.0000   1.0000   1.0000
     1.0000   1.0000   1.0000   1.0000   1.0000   1.0000   1.0000   1.0000
     1.0000   1.0000   1.0000   1.0000   1.0000   1.0000   1.0000   1.0000
     1.0000   1.0000   1.0000   1.0000   1.0000   1.0000   1.0000   1.0000
     1.0000   1.0000   1.0000   1.0000   1.0000   1.0000   1.0000   1.0000
     1.0000   1.0000   1.0000   1.0000   1.0000   1.0000   1.0000   1.0000
     1.0000   1.0000   1.0000   1.0000   1.0000   1.0000   1.0000   1.0000
     1.0000   1.0000   1.0000   1.0000   1.0000   1.0000   1.0000   1.0000
     1.0000   1.0000   1.0000   1.0000   1.0000   1.0000   1.0000   1.0000
     1.0000   1.0000   1.0000   1.0000   1.0000   1.0000   1.0000   1.0000
     1.0000   1.0000   1.0000   1.0000   1.0000   1.0000   1.0000   1.0000
     1.0000   1.0000   1.0000   1.0000   1.0000   1.0000   1.0000   1.0000
     1.0000   1.0000   1.0000   1.0000   1.0000   1.0000   1.0000   1.0000
     1.0000   1.0000   1.0000   1.0000   1.0000   1.0000   1.0000   1.0000
     1.0000   1.0000   1.0000   1.0000   1.0000   1.0000   1.0000   1.0000
     1.0000   1.0000   1.0000   1.0000   1.0000   1.0000   1.0000   1.0000
     1.0000   1.0000   1.0000   1.0000   1.0000   1.0000   1.0000   1.0000
     1.0000   1.0000   1.0000   1.0000   1.0000   1.0000   1.0000   1.0000
     1.0000   1.0000   1.0000   1.0000   1.0000   1.0000   1.0000   1.0000
     1.0000   1.0000   1.0000   1.0000   1.0000   1.0000   1.0000   1.0000
     1.0000   1.0000   1.0000   1.0000   1.0000   1.0000   1.0000   1.0000
     1.0000   1.0000   1.0000   1.0000   1.0000   1.0000   1.0000   1.0000
     1.0000   1.0000   1.0000   1.0000   1.0000   1.0000   1.0000   1.0000
     1.0000   1.0000   1.0000   1.0000   1.0000   1.0000   1.0000   1.0000
     1.0000   1.0000   1.0000   1.0000   1.0000   1.0000   1.0000   1.0000
     1.0000   1.0000   1.0000   1.0000   1.0000   1.0000   1.0000   1.0000
     1.0000   1.0000   1.0000   1.0000   1.0000   1.0000   1.0000   1.0000
     1.0000   1.0000   1.0000   1.0000   1.0000   1.0000   1.0000   1.0000
     1.0000   1.0000   1.0000   1.0000   1.0000   1.0000   1.0000   1.0000
     1.0000   1.0000   1.0000   1.0000   1.0000   1.0000   1.0000   1.0000
     1.0000   1.0000   1.0000   1.0000   1.0000   1.0000   1.0000   1.0000
     1.0000   1.0000   1.0000   1.0000   1.0000   1.0000   1.0000   1.0000
     1.0000   1.0000   1.0000   1.0000   1.0000   1.0000   1.0000   1.0000
     1.0000   1.0000   1.0000   1.0000   1.0000   1.0000   1.0000   1.0000
     1.0000   1.0000   1.0000   1.0000   1.0000   1.0000   1.0000   1.0000
     1.0000   1.0000   1.0077   1.0078   1.0803   1.0808   1.0401   1.0004
     0.9781   0.9167   0.9021   0.3065   0.3061   0.0269   0.0245   0.0194
     0.0145   0.0033   0.0033   0.0000   0.0000   0.0000   0.0000   0.0000
     0.0000   0.0000   0.0000   0.0000   0.0000   0.0000   0.0000   0.0000
     0.0000   0.0000   0.0000   0.0000   0.0000   0.0000   0.0000   0.0000
     0.0000   0.0000   0.0000   0.0000   0.0000   0.0000   0.0000   0.0000
     0.0000   0.0000   0.0000   0.0000   0.0000   0.0000   0.0000   0.0000
     0.0000   0.0000   0.0000   0.0000   0.0000   0.0000   0.0000   0.0000
     0.0000   0.0000   0.0000   0.0000   0.0000   0.0000   0.0000   0.0000
     0.0000   0.0000   0.0000   0.0000   0.0000   0.0000   0.0000   0.0000
     0.0000   0.0000   0.0000   0.0000   0.0000   0.0000   0.0000   0.0000
     0.0000   0.0000   0.0000   0.0000   0.0000   0.0000   0.0000   0.0000
     0.0000   0.0000   0.0000   0.0000   0.0000   0.0000   0.0000   0.0000
     0.0000   0.0000   0.0000   0.0000   0.0000   0.0000   0.0000   0.0000
     0.0000

          k =-0.5000 0.0000 0.0000 ( 67714 PWs)   bands (ev):

  -124.9260-124.9251-124.9246-124.9237-124.9178-124.9168-124.9167-124.9158
  -124.7953-124.7945-124.7943-124.7935-124.7868-124.7860-124.7856-124.7849
  -124.5834-124.5783-124.5779-124.5775-124.5775-124.5770-124.5762-124.5751
  -124.5736-124.5728-124.5727-124.5719-124.5717-124.5708-124.5707-124.5699
  -124.5257-124.5243-124.5240-124.5229-124.5175-124.5166-124.5163-124.5155
  -124.4148-124.4139-124.4137-124.4128-124.4122-124.4112-124.4110-124.4101
   -79.0888 -79.0812 -79.0808 -79.0802 -79.0799 -79.0788 -79.0763 -79.0762
   -79.0732 -79.0721 -79.0720 -79.0709 -79.0702 -79.0692 -79.0687 -79.0684
   -79.0683 -79.0676 -79.0638 -79.0619 -79.0608 -79.0606 -79.0596 -79.0559
   -78.9636 -78.9552 -78.9514 -78.9512 -78.9461 -78.9452 -78.9452 -78.9449
   -78.9444 -78.9442 -78.9441 -78.9434 -78.9431 -78.9427 -78.9390 -78.9378
   -78.9370 -78.9365 -78.9365 -78.9358 -78.9357 -78.9354 -78.9346 -78.9306
   -78.7514 -78.7448 -78.7442 -78.7435 -78.7434 -78.7430 -78.7427 -78.7415
   -78.7403 -78.7401 -78.7389 -78.7381 -78.7380 -78.7379 -78.7372 -78.7371
   -78.7370 -78.7362 -78.7361 -78.7342 -78.7314 -78.7286 -78.7284 -78.7270
   -78.7238 -78.7237 -78.7225 -78.7218 -78.7218 -78.7177 -78.7176 -78.7173
   -78.7171 -78.7162 -78.7158 -78.7157 -78.7154 -78.7148 -78.7136 -78.7126
   -78.7125 -78.7116 -78.7115 -78.7113 -78.7101 -78.7100 -78.7094 -78.7089
   -78.6959 -78.6943 -78.6938 -78.6927 -78.6881 -78.6869 -78.6866 -78.6857
   -78.6792 -78.6713 -78.6684 -78.6673 -78.6672 -78.6670 -78.6669 -78.6661
   -78.6603 -78.6595 -78.6593 -78.6593 -78.6590 -78.6587 -78.6549 -78.6470
   -78.5918 -78.5907 -78.5906 -78.5896 -78.5892 -78.5882 -78.5879 -78.5869
   -78.5674 -78.5645 -78.5610 -78.5600 -78.5599 -78.5589 -78.5585 -78.5575
   -78.5572 -78.5563 -78.5551 -78.5550 -78.5523 -78.5520 -78.5428 -78.5398
   -16.9115 -14.7394 -12.6052 -12.1877 -10.5839  -9.0112  -8.3113  -7.5143
    -7.4933  -6.8587  -6.7917  -6.5995  -6.5899  -6.4845  -6.4745  -6.4523
    -6.4506  -6.4504  -6.4474  -6.4378  -6.4377  -6.3853  -6.3767  -6.3703
    -6.3606  -6.3158  -6.3045  -6.2666  -6.2646  -6.2570  -6.2498  -6.2138
    -6.2136  -6.2074  -6.2074  -6.1874  -6.1870  -6.1773  -6.1773  -6.1720
    -6.1677  -6.1642  -6.1587  -6.1305  -6.1303  -6.1275  -6.1273  -6.0898
    -6.0861  -6.0693  -6.0690  -6.0660  -6.0657  -6.0114  -6.0104  -6.0068
    -6.0020  -5.9886  -5.9774  -5.9640  -5.9638  -5.9610  -5.9608  -5.9387
    -5.9321  -5.9258  -5.9243  -5.9162  -5.9152  -5.9122  -5.9121  -5.8783
    -5.8782  -5.8735  -5.8735  -5.8575  -5.8525  -5.8240  -5.8237  -5.8211
    -5.8209  -5.8040  -5.8036  -5.7998  -5.7958  -5.7952  -5.7896  -5.7619
    -5.7617  -5.7588  -5.7587  -5.7487  -5.7466  -5.7034  -5.7026  -5.7002
    -5.6989  -5.6987  -5.6977  -5.6972  -5.6950  -5.6669  -5.6666  -5.6659
    -5.6652  -5.6651  -5.6564  -5.6537  -5.6513  -5.6511  -5.6505  -5.6503
    -5.6503  -5.6294  -5.6237  -5.6234  -5.6232  -5.6094  -5.6063  -5.5635
    -5.5628  -5.5601  -5.5598  -5.5375  -5.5366  -5.5365  -5.5362  -5.5351
    -5.5350  -5.5155  -5.5154  -5.5140  -5.5138  -5.4880  -5.4873  -5.4870
    -5.4865  -5.4779  -5.4775  -5.4767  -5.4759  -5.4758  -5.4753  -5.4740
    -5.4683  -5.4445  -5.4443  -5.4440  -5.4417  -5.4416  -5.4366  -5.4302
    -5.4263  -5.4123  -5.4113  -5.4112  -5.4101  -5.4059  -5.4056  -5.4055
    -5.4052  -5.3669  -5.3659  -5.3561  -5.3558  -5.3540  -5.3538  -5.3438
    -5.3337  -5.3293  -5.3284  -5.3259  -5.3232  -5.3225  -5.3223  -5.3115
    -5.3076  -5.3047  -5.3035  -5.2905  -5.2904  -5.2904  -5.2893  -5.2892
    -5.2884  -5.2870  -5.2828  -5.2812  -5.2806  -5.2645  -5.2618  -5.2523
    -5.2498  -5.2493  -5.2489  -5.2463  -5.2457  -5.2444  -5.2371  -5.2222
    -5.2177  -5.2177  -5.2163  -5.2161  -5.2141  -5.2127  -5.2096  -5.2085
    -5.2061  -5.2055  -5.2034  -5.2014  -5.1997  -5.1996  -5.1990  -5.1862
    -5.1617  -5.1610  -5.1586  -5.1581  -5.1577  -5.1558  -5.1481  -5.1477
    -5.1467  -5.1466  -5.1443  -5.1436  -5.1319  -5.1304  -5.1053  -5.0993
    -5.0820  -5.0819  -5.0800  -5.0799  -5.0687  -5.0635  -5.0560  -5.0537
    -5.0528  -5.0517  -5.0201  -5.0175  -4.9938  -4.9899  -4.9894  -4.9824
    -4.9709  -4.9688  -4.9640  -4.9595  -4.9509  -4.9451  -4.9356  -4.9337
    -4.8631  -4.8605  -4.7201  -4.2414  -4.1132  -3.9402  -3.8408  -3.8347
    -3.8309  -3.8277  -3.5603  -3.5469  -3.1657  -3.1077  -2.8570  -2.8332
    -2.4125  -2.1132  -2.1129  -2.0994  -2.0991  -1.9754  -1.9657  -1.8748
    -1.6513  -1.6485  -1.6416  -1.6325  -1.2583  -1.2413  -1.2300  -1.1514
    -1.1349  -0.5440  -0.5417  -0.5352  -0.5350  -0.0553   0.0313   0.0453
     0.2285   0.2387   0.2894   0.2954   0.4081   0.4179   1.3321   1.4243
     1.4267   1.4352   1.4388   1.5135   1.5210   1.7184   1.7285   1.9921
     1.9968   1.9988   2.0055   2.9097   2.9280   3.0566   3.0608   3.1010
     3.1044   3.1938   3.2116   3.6980   3.7016   3.9073   3.9154   3.9660
     3.9722   4.3754   4.3766   4.3840   4.3947   4.6669   4.6695   4.6716
     4.6873   4.9404   5.0118   5.0289   5.1393   5.1505   5.1613   5.1725
     5.1813   5.3925   5.4624   5.5111   5.6498   5.6576   5.7410   5.7879
     5.7950   6.0825   6.0829   6.1003   6.1012   6.1077   6.1743   6.2665
     6.3306   6.3464   6.3557   6.3612   6.4161   6.4234   6.4413   6.4821
     6.4861   6.5622   6.6579   6.7300   6.8048   6.8165   6.9451   7.0032
     7.1038   7.1071   7.1815   7.3875   7.3954   7.4674   7.5080   7.5462
     7.6193   7.6869   7.7132   7.7323   7.7375   7.7407   7.7439   7.7646
     7.8275   7.9802   8.2170   8.2602   8.3748   8.3935   8.4085   8.4403
     8.4502   8.4834   8.5162   8.5329   8.5592   8.5704   8.5879   8.5965
     8.6029

     occupation numbers 
     1.0000   1.0000   1.0000   1.0000   1.0000   1.0000   1.0000   1.0000
     1.0000   1.0000   1.0000   1.0000   1.0000   1.0000   1.0000   1.0000
     1.0000   1.0000   1.0000   1.0000   1.0000   1.0000   1.0000   1.0000
     1.0000   1.0000   1.0000   1.0000   1.0000   1.0000   1.0000   1.0000
     1.0000   1.0000   1.0000   1.0000   1.0000   1.0000   1.0000   1.0000
     1.0000   1.0000   1.0000   1.0000   1.0000   1.0000   1.0000   1.0000
     1.0000   1.0000   1.0000   1.0000   1.0000   1.0000   1.0000   1.0000
     1.0000   1.0000   1.0000   1.0000   1.0000   1.0000   1.0000   1.0000
     1.0000   1.0000   1.0000   1.0000   1.0000   1.0000   1.0000   1.0000
     1.0000   1.0000   1.0000   1.0000   1.0000   1.0000   1.0000   1.0000
     1.0000   1.0000   1.0000   1.0000   1.0000   1.0000   1.0000   1.0000
     1.0000   1.0000   1.0000   1.0000   1.0000   1.0000   1.0000   1.0000
     1.0000   1.0000   1.0000   1.0000   1.0000   1.0000   1.0000   1.0000
     1.0000   1.0000   1.0000   1.0000   1.0000   1.0000   1.0000   1.0000
     1.0000   1.0000   1.0000   1.0000   1.0000   1.0000   1.0000   1.0000
     1.0000   1.0000   1.0000   1.0000   1.0000   1.0000   1.0000   1.0000
     1.0000   1.0000   1.0000   1.0000   1.0000   1.0000   1.0000   1.0000
     1.0000   1.0000   1.0000   1.0000   1.0000   1.0000   1.0000   1.0000
     1.0000   1.0000   1.0000   1.0000   1.0000   1.0000   1.0000   1.0000
     1.0000   1.0000   1.0000   1.0000   1.0000   1.0000   1.0000   1.0000
     1.0000   1.0000   1.0000   1.0000   1.0000   1.0000   1.0000   1.0000
     1.0000   1.0000   1.0000   1.0000   1.0000   1.0000   1.0000   1.0000
     1.0000   1.0000   1.0000   1.0000   1.0000   1.0000   1.0000   1.0000
     1.0000   1.0000   1.0000   1.0000   1.0000   1.0000   1.0000   1.0000
     1.0000   1.0000   1.0000   1.0000   1.0000   1.0000   1.0000   1.0000
     1.0000   1.0000   1.0000   1.0000   1.0000   1.0000   1.0000   1.0000
     1.0000   1.0000   1.0000   1.0000   1.0000   1.0000   1.0000   1.0000
     1.0000   1.0000   1.0000   1.0000   1.0000   1.0000   1.0000   1.0000
     1.0000   1.0000   1.0000   1.0000   1.0000   1.0000   1.0000   1.0000
     1.0000   1.0000   1.0000   1.0000   1.0000   1.0000   1.0000   1.0000
     1.0000   1.0000   1.0000   1.0000   1.0000   1.0000   1.0000   1.0000
     1.0000   1.0000   1.0000   1.0000   1.0000   1.0000   1.0000   1.0000
     1.0000   1.0000   1.0000   1.0000   1.0000   1.0000   1.0000   1.0000
[...]
     atom   21 type  1   force =    -0.00011046   -0.00000775   -0.00001427
     atom   22 type  1   force =    -0.00010764    0.00000848    0.00001389
     atom   23 type  1   force =    -0.00008077   -0.00002285    0.00017185
     atom   24 type  1   force =    -0.00007802    0.00002839    0.00015668
     atom   25 type  1   force =    -0.00000000   -0.00000000   -0.00000000
     atom   26 type  1   force =    -0.00000000    0.00000000   -0.00000000
     atom   27 type  1   force =    -0.00021407   -0.00001615    0.00003456
     atom   28 type  1   force =    -0.00020682    0.00000258    0.00001225
     atom   29 type  1   force =    -0.00014222    0.00000747    0.00005266
     atom   30 type  1   force =    -0.00014059   -0.00000733    0.00008694
     atom   31 type  1   force =    -0.00000000   -0.00000000   -0.00000000
     atom   32 type  1   force =    -0.00000000    0.00000000    0.00000000
     atom   33 type  1   force =    -0.00020560   -0.00001960    0.00001243
     atom   34 type  1   force =    -0.00021103    0.00003495    0.00003008
     atom   35 type  1   force =    -0.00014302   -0.00003303    0.00005252
     atom   36 type  1   force =    -0.00014321    0.00002848    0.00005912
     atom   37 type  1   force =     0.00000000    0.00000000   -0.00000000
     atom   38 type  1   force =     0.00000000   -0.00000000   -0.00000000
     atom   39 type  1   force =     0.00021208   -0.00001381    0.00002838
     atom   40 type  1   force =     0.00020732    0.00000638    0.00000187
     atom   41 type  1   force =     0.00014558    0.00000632    0.00011645
     atom   42 type  1   force =     0.00014239   -0.00000966    0.00011926
     atom   43 type  1   force =     0.00000000   -0.00000000   -0.00000000
     atom   44 type  1   force =     0.00000000    0.00000000   -0.00000000
     atom   45 type  1   force =     0.00020539   -0.00002448    0.00000295
     atom   46 type  1   force =     0.00021030    0.00003341    0.00002316
     atom   47 type  1   force =     0.00014489   -0.00002988    0.00011382
     atom   48 type  1   force =     0.00014039    0.00003482    0.00012034
     atom   49 type  3   force =     0.00000019   -0.00000260   -0.00001402
     atom   50 type  3   force =    -0.00000196   -0.00000586   -0.00000247
     atom   51 type  3   force =    -0.00000544   -0.00000230   -0.00002490
     atom   52 type  3   force =     0.00000018    0.00000000   -0.00001330
     atom   53 type  3   force =    -0.00000551   -0.00000506   -0.00000479
     atom   54 type  3   force =    -0.00000624   -0.00000577   -0.00002288
     atom   55 type  3   force =    -0.00000556    0.00000061    0.00001179
     atom   56 type  2   force =    -0.00002911   -0.00001555    0.00000661
     atom   57 type  4   force =    -0.00000446    0.00000061    0.00000197
     atom   58 type  4   force =    -0.00000154    0.00000077    0.00000147
     atom   59 type  4   force =    -0.00000296    0.00000514    0.00000340
     atom   60 type  4   force =    -0.00000185   -0.00000418    0.00000152
     atom   61 type  4   force =     0.00000029   -0.00000264   -0.00000121
     atom   62 type  4   force =     0.00000248   -0.00000417    0.00000198
     atom   63 type  4   force =    -0.00000314    0.00000187    0.00000005
     atom   64 type  4   force =    -0.00000164   -0.00000137    0.00000116
     atom   65 type  4   force =    -0.00000206   -0.00000019    0.00000045

     DFT-D3 dispersion contribution to forces:
     atom    1 type  1   force =     0.00000369    0.00000465    0.00144667
     atom    2 type  1   force =     0.00000472   -0.00000183    0.00144177
     atom    3 type  1   force =    -0.00008222    0.00001472    0.00157232
     atom    4 type  1   force =    -0.00008104   -0.00000635    0.00158256
     atom    5 type  1   force =     0.00005740    0.00008339   -0.00053270
     atom    6 type  1   force =     0.00049270   -0.00023393    0.00014257
     atom    7 type  1   force =     0.00000464   -0.00000259    0.00144664
     atom    8 type  1   force =     0.00000457    0.00000182    0.00144237
     atom    9 type  1   force =    -0.00018605   -0.00000154    0.00151421
     atom   10 type  1   force =    -0.00005976   -0.00000960    0.00154697
     atom   11 type  1   force =     0.00046674    0.00028609    0.00007343
     atom   12 type  1   force =     0.00008193   -0.00012074   -0.00048335
     atom   13 type  1   force =    -0.00000529    0.00000348    0.00144747
     atom   14 type  1   force =    -0.00000611   -0.00000064    0.00143729
     atom   15 type  1   force =     0.00008585    0.00001063    0.00156456
     atom   16 type  1   force =     0.00007961   -0.00001088    0.00156726
     atom   17 type  1   force =    -0.00006701    0.00010917   -0.00049095
     atom   18 type  1   force =    -0.00051427   -0.00024217    0.00014916
     atom   19 type  1   force =    -0.00000541   -0.00000427    0.00144126
     atom   20 type  1   force =    -0.00000600    0.00000354    0.00144316
     atom   21 type  1   force =     0.00018033    0.00000258    0.00150222
     atom   22 type  1   force =     0.00006436   -0.00000410    0.00153210
     atom   23 type  1   force =    -0.00047595    0.00024968    0.00011675
     atom   24 type  1   force =    -0.00008408   -0.00012888   -0.00048714
     atom   25 type  1   force =    -0.00000182    0.00001371    0.00236290
     atom   26 type  1   force =    -0.00000191   -0.00001128    0.00236053
     atom   27 type  1   force =     0.00001392   -0.00000159   -0.00221391
     atom   28 type  1   force =     0.00001897    0.00001633   -0.00211725
     atom   29 type  1   force =     0.00001942   -0.00002442   -0.00227390
     atom   30 type  1   force =     0.00001732    0.00002408   -0.00099708
     atom   31 type  1   force =    -0.00000312    0.00000058    0.00238028
     atom   32 type  1   force =    -0.00000258    0.00000169    0.00234818
     atom   33 type  1   force =     0.00000599   -0.00001893   -0.00212372
     atom   34 type  1   force =     0.00001402    0.00000857   -0.00221638
     atom   35 type  1   force =     0.00004654    0.00051919   -0.00158771
     atom   36 type  1   force =     0.00000235   -0.00055555   -0.00147079
     atom   37 type  1   force =    -0.00000527    0.00000682    0.00231260
     atom   38 type  1   force =    -0.00000587   -0.00000507    0.00231125
     atom   39 type  1   force =    -0.00001200    0.00000029   -0.00228812
     atom   40 type  1   force =    -0.00002071    0.00000171   -0.00227662
     atom   41 type  1   force =    -0.00001322   -0.00000316   -0.00240304
     atom   42 type  1   force =    -0.00000399    0.00000400   -0.00227774
     atom   43 type  1   force =    -0.00000532    0.00000068    0.00232100
     atom   44 type  1   force =    -0.00000469    0.00000150    0.00231558
     atom   45 type  1   force =    -0.00000760   -0.00000745   -0.00228157
     atom   46 type  1   force =    -0.00001167    0.00000963   -0.00228633
     atom   47 type  1   force =    -0.00002311    0.00003837   -0.00232300
     atom   48 type  1   force =     0.00000206   -0.00003899   -0.00231215
     atom   49 type  3   force =    -0.00009390    0.00017568   -0.00037648
     atom   50 type  3   force =     0.00003263    0.00000678    0.00011951
     atom   51 type  3   force =    -0.00005501    0.00010094   -0.00036851
     atom   52 type  3   force =     0.00008585   -0.00015497   -0.00038739
     atom   53 type  3   force =    -0.00000523   -0.00000804   -0.00053878
     atom   54 type  3   force =     0.00005869   -0.00011873   -0.00022793
     atom   55 type  3   force =     0.00000311    0.00000853   -0.00095271
     atom   56 type  2   force =     0.00000270    0.00000897   -0.00008388
     atom   57 type  4   force =     0.00002664   -0.00006901    0.00010663
     atom   58 type  4   force =     0.00005727    0.00006531   -0.00137943
     atom   59 type  4   force =     0.00000794   -0.00001153   -0.00000435
     atom   60 type  4   force =    -0.00004052    0.00005082    0.00011204
     atom   61 type  4   force =     0.00003346   -0.00004948   -0.00024412
     atom   62 type  4   force =    -0.00000988    0.00000648   -0.00000593
     atom   63 type  4   force =    -0.00002604    0.00004088   -0.00019293
     atom   64 type  4   force =     0.00003810   -0.00002900   -0.00175656
     atom   65 type  4   force =    -0.00008686   -0.00000658   -0.00149879

     Total force =     0.009097     Total SCF correction =     0.000933

     DFT-D3 dispersion Force =     0.012808
     SCF correction compared to forces is large: reduce conv_thr to get better values


     Computing stress (Cartesian axis) and pressure


     negative rho (up, down):  3.056E-03 0.000E+00
          total   stress  (Ry/bohr**3)                   (kbar)     P=      -19.47
  -0.00013805   0.00000007   0.00000012          -20.31        0.01        0.02
   0.00000007  -0.00023965   0.00000015            0.01      -35.25        0.02
   0.00000012   0.00000015  -0.00001935            0.02        0.02       -2.85

     kinetic stress (kbar)  12420.89     26.50      3.49
                               26.50  12331.12      1.82
                                3.49      1.82  12404.32

     local   stress (kbar)-928482.51    668.19     24.03
                              668.19-941112.26     41.66
                               24.03     41.66 937846.54

     nonloc. stress (kbar)  -1190.58     -1.92      0.03
                               -1.92  -1173.91     -0.02
                                0.03     -0.02  -1220.72

     hartree stress (kbar) 490951.06   -246.96     -7.13
                             -246.96 496317.26    -16.58
                               -7.13    -16.58-435695.95

     exc-cor stress (kbar)  -6048.74     -1.32     -0.07
                               -1.32  -6044.29     -0.05
                               -0.07     -0.05  -6051.79

     corecor stress (kbar)    -75.93      0.40      0.01
                                0.40    -76.43      0.00
                                0.01      0.00    -76.56

     ewald   stress (kbar) 432411.59   -444.88    -20.35
                             -444.88 439731.70    -26.82
                              -20.35    -26.82-507205.61

     hubbard stress (kbar)      0.00      0.00      0.00
                                0.00      0.00      0.00
                                0.00      0.00      0.00

     DFT-D   stress (kbar)     -6.08     -0.00      0.01
                               -0.00     -8.44     -0.00
                                0.01     -0.00     -3.09

     XDM     stress (kbar)      0.00      0.00      0.00
                                0.00      0.00      0.00
                                0.00      0.00      0.00

     dft-nl  stress (kbar)      0.00      0.00      0.00
                                0.00      0.00      0.00
                                0.00      0.00      0.00

     TS-vdW  stress (kbar)      0.00      0.00      0.00
                                0.00      0.00      0.00
                                0.00      0.00      0.00

     MDB     stress (kbar)      0.00      0.00      0.00
                                0.00      0.00      0.00
                                0.00      0.00      0.00

     3D-RISM stress (kbar)      0.00      0.00      0.00
                                0.00      0.00      0.00
                                0.00      0.00      0.00

     Energy error            =      1.8E-04 Ry
     Gradient error          =      3.3E-03 Ry/Bohr

     number of scf cycles    =  38
     number of bfgs steps    =  37

     energy             old  =  -22314.6614040787 Ry
     energy             new  =  -22314.6615804081 Ry

     CASE: energy            _new < energy            _old

     new trust radius        =       0.0096338384 bohr
     new conv_thr            =       0.0000000327 Ry


ATOMIC_POSITIONS (angstrom)
Zn               1.2182900000        1.3071800000        0.7547010000    0   0   0
Zn               1.2182900000        6.5359000000        0.7547010000    0   0   0
Zn               1.2148464933       -0.0006650635        3.5874954904
Zn               1.2150610357        5.2292681176        3.5846079769
Zn               1.2182286010       -1.3074676832        6.2700117796
Zn               1.2178020609        3.9201163524        6.2708315794
Zn               1.2182900000        3.9215400000        0.7547010000    0   0   0
Zn               1.2182900000        9.1502600000        0.7547010000    0   0   0
Zn               1.2126662223        2.6136349453        3.5749285226
Zn               1.2171041645        7.8424636378        3.5822553991
Zn               1.2183225163        1.3075931015        6.2725643588
Zn               1.2185361325        6.5349913270        6.2694621234
Zn               6.0914510000        1.3071800000        0.7547010000    0   0   0
Zn               6.0914510000        6.5359000000        0.7547010000    0   0   0
Zn               6.0982225044       -0.0009807402        3.5873486404
Zn               6.0982749384        5.2289178615        3.5905218552
Zn               6.0944273005       -1.3073429879        6.2675858863
Zn               6.0917439929        3.9193446318        6.2723386886
Zn               6.0914510000        3.9215400000        0.7547010000    0   0   0
Zn               6.0914510000        9.1502600000        0.7547010000    0   0   0
Zn               6.1008681711        2.6141565907        3.5760499982
Zn               6.0958833256        7.8425230831        3.5841249193
Zn               6.0933366580        1.3074119325        6.2679219552
Zn               6.0939408891        6.5347900418        6.2688265801
Zn               3.6548710000       -0.0000000000        1.5094010000    0   0   0
Zn               3.6548710000        5.2287200000        1.5094010000    0   0   0
Zn               3.6583251452       -1.3084825824        3.8411874489
Zn               3.6588077411        3.9240258663        3.8324262843
Zn               3.6588764759       -2.6155414057        6.2437487500
Zn               3.6568297890        2.6122137531        6.2159498269
Zn               3.6548710000        2.6143600000        1.5094010000    0   0   0
Zn               3.6548710000        7.8430800000        1.5094010000    0   0   0
Zn               3.6583134766        1.3032208330        3.8320249521
Zn               3.6579522824        6.5371659689        3.8408871232
Zn               3.6584834033       -0.0002117711        6.2430555773
Zn               3.6581595937        5.2273936877        6.2453233552
Zn               8.5280310000       -0.0000000000        1.5094010000    0   0   0
Zn               8.5280310000        5.2287200000        1.5094010000    0   0   0
Zn               8.5282334292       -1.3077200915        3.8533587457
Zn               8.5290238742        3.9213642611        3.8535989311
Zn               8.5271584431       -2.6149386447        6.2650546072
Zn               8.5258826928        2.6136875365        6.2746354520
Zn               8.5280310000        2.6143600000        1.5094010000    0   0   0
Zn               8.5280310000        7.8430800000        1.5094010000    0   0   0
Zn               8.5283068637        1.3059506823        3.8539416608
Zn               8.5287843489        6.5368395893        3.8532155279
Zn               8.5270346647       -0.0002112006        6.2689485511
Zn               8.5263470269        5.2281305208        6.2699564530
C                3.0388618508        3.6703916176       13.2703798441
C                3.6389641224        2.6056663351       13.9669273781
C                3.0492532630        3.7008357398       11.8775095007
C                4.1997084080        1.5592942013       13.2164963634
C                3.6387075729        2.6815900619       11.1160059838
C                4.1983023958        1.6090582795       11.8207994394
C                3.6744522393        2.7472661649        9.6084459927
N                3.7450576457        2.6298494390       15.3603112117
H                3.0606572003        3.2015149449       15.8442985877
H                4.2106574733        3.6411783032        9.2446480214
H                2.5726660692        4.4893459266       13.8271021323
H                3.8843309429        1.7298193597       15.8056369020
H                2.5908694626        4.5508234509       11.3682335530
H                4.6549788187        0.7053192620       13.7269969827
H                4.6606704336        0.7914897684       11.2655540695
H                4.1805194829        1.8690482206        9.1792504050
H                2.6618775263        2.7882438232        9.1706048160



     Writing config-only to output data dir ./tmp/Zn100_3layer_ptoluidine_relax.save/ :
     XML data file
     NEW-OLD atomic charge density approx. for the potential

     negative rho (up, down):  3.061E-03 0.000E+00

     total cpu time spent up to now is    89637.8 secs

     Self-consistent Calculation

     iteration #  1     ecut=    40.00 Ry     beta= 0.40
     Davidson diagonalization with overlap

---- Real-time Memory Report at c_bands before calling an iterative solver
           434 MiB given to the printing process from OS
             0 MiB allocation reported by mallinfo(arena+hblkhd)
         18321 MiB available memory on the node where the printing process lives
------------------
     ethr =  1.00E-06,  avg # of iterations =  4.2

     Threshold (ethr) on eigenvalues was too large:
     Diagonalizing with lowered threshold

     Davidson diagonalization with overlap

---- Real-time Memory Report at c_bands before calling an iterative solver
           434 MiB given to the printing process from OS
             0 MiB allocation reported by mallinfo(arena+hblkhd)
         18326 MiB available memory on the node where the printing process lives
------------------
     ethr =  3.65E-09,  avg # of iterations =  3.2

     negative rho (up, down):  3.060E-03 0.000E+00

     total cpu time spent up to now is    90162.5 secs

     total energy              =  -22314.66166714 Ry
     estimated scf accuracy    <       0.00003729 Ry

     iteration #  2     ecut=    40.00 Ry     beta= 0.40
     Davidson diagonalization with overlap

---- Real-time Memory Report at c_bands before calling an iterative solver
           434 MiB given to the printing process from OS
             0 MiB allocation reported by mallinfo(arena+hblkhd)
         18165 MiB available memory on the node where the printing process lives
------------------
     ethr =  3.72E-09,  avg # of iterations =  3.0

     negative rho (up, down):  3.061E-03 0.000E+00

     total cpu time spent up to now is    90346.8 secs

     total energy              =  -22314.66164326 Ry
     estimated scf accuracy    <       0.00048831 Ry

     iteration #  3     ecut=    40.00 Ry     beta= 0.40
     Davidson diagonalization with overlap

---- Real-time Memory Report at c_bands before calling an iterative solver
           434 MiB given to the printing process from OS
             0 MiB allocation reported by mallinfo(arena+hblkhd)
         18139 MiB available memory on the node where the printing process lives
------------------
     ethr =  3.72E-09,  avg # of iterations =  2.0

     negative rho (up, down):  3.060E-03 0.000E+00

     total cpu time spent up to now is    90528.4 secs

     total energy              =  -22314.66167464 Ry
     estimated scf accuracy    <       0.00001990 Ry

     iteration #  4     ecut=    40.00 Ry     beta= 0.40
     Davidson diagonalization with overlap

---- Real-time Memory Report at c_bands before calling an iterative solver
           434 MiB given to the printing process from OS
             0 MiB allocation reported by mallinfo(arena+hblkhd)
         18123 MiB available memory on the node where the printing process lives
------------------
     ethr =  1.99E-09,  avg # of iterations =  2.0
