--------------------------------------------------------------------------
By default, for Open MPI 4.0 and later, infiniband ports on a device
are not used by default.  The intent is to use UCX for these devices.
You can override this policy by setting the btl_openib_allow_ib MCA parameter
to true.

  Local host:              psid04
  Local adapter:           mlx5_0
  Local port:              1

--------------------------------------------------------------------------
--------------------------------------------------------------------------
WARNING: There was an error initializing an OpenFabrics device.

  Local host:   psid04
  Local device: mlx5_0
--------------------------------------------------------------------------

     Program PWSCF v.7.3.1 starts on 17Mar2025 at  8:20:27 

     This program is part of the open-source Quantum ESPRESSO suite
     for quantum simulation of materials; please cite
         "P. Giannozzi et al., J. Phys.:Condens. Matter 21 395502 (2009);
         "P. Giannozzi et al., J. Phys.:Condens. Matter 29 465901 (2017);
         "P. Giannozzi et al., J. Chem. Phys. 152 154105 (2020);
          URL http://www.quantum-espresso.org", 
     in publications or presentations arising from this work. More details at
     http://www.quantum-espresso.org/quote

     Parallel version (MPI), running on    30 processors

     MPI processes distributed on     1 nodes
     114023 MiB available memory on the printing compute node when the environment starts

     Waiting for input...
     Reading input from standard input

     Current dimensions of program PWSCF are:
     Max number of different atomic species (ntypx) = 10
     Max number of k-points (npk) =  40000
     Max angular momentum in pseudopotentials (lmaxx) =  4
     file C.pbe-n-kjpaw_psl.1.0.0.UPF: wavefunction(s)  2S 2P renormalized

     R & G space division:  proc/nbgrp/npool/nimage =      30
     Subspace diagonalization in iterative solution of the eigenvalue problem:
     one sub-group per band group will be used
     custom distributed-memory algorithm (size of sub-group:  4*  4 procs)


     Parallelization info
     --------------------
     sticks:   dense  smooth     PW     G-vecs:    dense   smooth      PW
     Min          96      96     26                12619    12619    1765
     Max          97      97     27                12634    12634    1778
     Sum        2903    2903    785               378759   378759   53071

     Using Slab Decomposition



     bravais-lattice index     =            0
     lattice parameter (alat)  =      18.4179  a.u.
     unit-cell volume          =    7929.1084 (a.u.)^3
     number of atoms/cell      =           47
     number of atomic types    =            4
     number of electrons       =       684.00
     number of Kohn-Sham states=          410
     kinetic-energy cutoff     =      50.0000  Ry
     charge density cutoff     =     200.0000  Ry
     scf convergence threshold =      7.3E-07
     mixing beta               =       0.7000
     number of iterations used =            8  plain     mixing
     Exchange-correlation= PBE
                           (   1   4   3   4   0   0   0)

     celldm(1)=  18.417879  celldm(2)=   0.000000  celldm(3)=   0.000000
     celldm(4)=   0.000000  celldm(5)=   0.000000  celldm(6)=   0.000000

     crystal axes: (cart. coord. in units of alat)
               a(1) = (   1.000000   0.000000   0.000000 )  
               a(2) = (   0.000000   0.536481   0.000000 )  
               a(3) = (   0.000000  -1.365810   2.365652 )  

     reciprocal axes: (cart. coord. in units 2 pi/alat)
               b(1) = (  1.000000  0.000000 -0.000000 )  
               b(2) = ( -0.000000  1.863998  1.076180 )  
               b(3) = (  0.000000  0.000000  0.422716 )  


     PseudoPot. # 1 for Zn read from file:
     /home/ys/qepseudo/SSSP_1.3.0_PBE_efficiency/Zn_pbe_v1.uspp.F.UPF
     MD5 check sum: df62231357ef9e81f77b2b3087fa5675
     Pseudo is Ultrasoft, Zval = 20.0
     Generated by new atomic code, or converted to UPF format
     Using radial grid of  943 points,  6 beta functions with: 
                l(1) =   0
                l(2) =   0
                l(3) =   1
                l(4) =   1
                l(5) =   2
                l(6) =   2
     Q(r) pseudized with  8 coefficients,  rinner =    1.100   1.100   1.100
                                                       1.100   1.100

     PseudoPot. # 2 for C  read from file:
     /home/ys/qepseudo/SSSP_1.3.0_PBE_efficiency/C.pbe-n-kjpaw_psl.1.0.0.UPF
     MD5 check sum: 5d2aebdfa2cae82b50a7e79e9516da0f
     Pseudo is Projector augmented-wave + core cor, Zval =  4.0
     Generated using "atomic" code by A. Dal Corso  v.5.1
     Shape of augmentation charge: PSQ
     Using radial grid of 1073 points,  4 beta functions with: 
                l(1) =   0
                l(2) =   0
                l(3) =   1
                l(4) =   1
     Q(r) pseudized with 0 coefficients 


     PseudoPot. # 3 for N  read from file:
     /home/ys/qepseudo/SSSP_1.3.0_PBE_efficiency/N.pbe-n-radius_5.UPF
     MD5 check sum: 16739722b17309cd8fe442a2ace49922
     Pseudo is Ultrasoft + core correction, Zval =  5.0
     Generated using "atomic" code by A. Dal Corso  v.5.1
     Using radial grid of 1085 points,  4 beta functions with: 
                l(1) =   0
                l(2) =   0
                l(3) =   1
                l(4) =   1
     Q(r) pseudized with 0 coefficients 


     PseudoPot. # 4 for H  read from file:
     /home/ys/qepseudo/SSSP_1.3.0_PBE_efficiency/H.pbe-rrkjus_psl.1.0.0.UPF
     MD5 check sum: f52b6d4d1c606e5624b1dc7b2218f220
     Pseudo is Ultrasoft, Zval =  1.0
     Generated using "atomic" code by A. Dal Corso  v.5.1
     Using radial grid of  929 points,  2 beta functions with: 
                l(1) =   0
                l(2) =   0
     Q(r) pseudized with 0 coefficients 


     atomic species   valence    mass     pseudopotential
     Zn               20.00    65.38000     Zn( 1.00)
     C                 4.00    12.01070     C ( 1.00)
     N                 5.00    14.00670     N ( 1.00)
     H                 1.00     1.00800     H ( 1.00)

     No symmetry found


                                    s                        frac. trans.

      isym =  1     identity                                     

 cryst.   s( 1) = (     1          0          0      )
                  (     0          1          0      )
                  (     0          0          1      )

 cart.    s( 1) = (  1.0000000  0.0000000  0.0000000 )
                  (  0.0000000  1.0000000 -0.0000000 )
                  (  0.0000000  0.0000000  1.0000000 )


   Cartesian axes

     site n.     atom                  positions (alat units)
         1        Zn     tau(   1) = (   0.1250000   0.1341203   0.0774344  )
         2        Zn     tau(   2) = (   0.1250000   0.0000000   0.3097376  )
         3        Zn     tau(   3) = (   0.1244866  -0.1345919   0.5819407  )
         4        Zn     tau(   4) = (   0.1249839  -0.2690541   0.8543996  )
         5        Zn     tau(   5) = (   0.1250000   0.4023610   0.0774344  )
         6        Zn     tau(   6) = (   0.1250000   0.2682407   0.3097376  )
         7        Zn     tau(   7) = (   0.1245579   0.1335617   0.5820378  )
         8        Zn     tau(   8) = (   0.1250503  -0.0007660   0.8562048  )
         9        Zn     tau(   9) = (   0.6250000   0.1341203   0.0774344  )
        10        Zn     tau(  10) = (   0.6250000   0.0000000   0.3097376  )
        11        Zn     tau(  11) = (   0.6249199  -0.1346806   0.5820563  )
        12        Zn     tau(  12) = (   0.6254558  -0.2690971   0.8553277  )
        13        Zn     tau(  13) = (   0.6250000   0.4023610   0.0774344  )
        14        Zn     tau(  14) = (   0.6250000   0.2682407   0.3097376  )
        15        Zn     tau(  15) = (   0.6249064   0.1336029   0.5819359  )
        16        Zn     tau(  16) = (   0.6254362  -0.0006932   0.8545443  )
        17        Zn     tau(  17) = (   0.3750000  -0.0000000   0.1548688  )
        18        Zn     tau(  18) = (   0.3750000  -0.1341203   0.3871721  )
        19        Zn     tau(  19) = (   0.3745119  -0.2690064   0.6225663  )
        20        Zn     tau(  20) = (   0.3750149  -0.4031316   0.8696004  )
        21        Zn     tau(  21) = (   0.3750000   0.2682407   0.1548688  )
        22        Zn     tau(  22) = (   0.3750000   0.1341203   0.3871721  )
        23        Zn     tau(  23) = (   0.3745072  -0.0001873   0.6227095  )
        24        Zn     tau(  24) = (   0.3753923  -0.1349622   0.8643211  )
        25        Zn     tau(  25) = (   0.8750000  -0.0000000   0.1548688  )
        26        Zn     tau(  26) = (   0.8750000  -0.1341203   0.3871721  )
        27        Zn     tau(  27) = (   0.8748758  -0.2686777   0.6239247  )
        28        Zn     tau(  28) = (   0.8753102  -0.4031240   0.8705349  )
        29        Zn     tau(  29) = (   0.8750000   0.2682407   0.1548688  )
        30        Zn     tau(  30) = (   0.8750000   0.1341203   0.3871721  )
        31        Zn     tau(  31) = (   0.8747709  -0.0004567   0.6238560  )
        32        Zn     tau(  32) = (   0.8754110  -0.1348219   0.8707545  )
        33        C      tau(  33) = (   0.3767653  -0.1607026   1.8035037  )
        34        C      tau(  34) = (   0.3734012  -0.1509147   1.6575738  )
        35        C      tau(  35) = (   0.4581057  -0.0565300   1.5877348  )
        36        C      tau(  36) = (   0.2844127  -0.2353791   1.5807487  )
        37        C      tau(  37) = (   0.2793969  -0.2253882   1.4389576  )
        38        C      tau(  38) = (   0.4535513  -0.0471241   1.4457474  )
        39        C      tau(  39) = (   0.3638874  -0.1311708   1.3684691  )
        40        N      tau(  40) = (   0.3794585  -0.1690665   1.9236581  )
        41        N      tau(  41) = (   0.3551945  -0.1173825   1.2280180  )
        42        H      tau(  42) = (   0.3090338  -0.1938781   1.1734683  )
        43        H      tau(  43) = (   0.4345070  -0.0713952   1.1775837  )
        44        H      tau(  44) = (   0.5273586   0.0095704   1.6463281  )
        45        H      tau(  45) = (   0.2193122  -0.3095765   1.6341920  )
        46        H      tau(  46) = (   0.2101083  -0.2919367   1.3806347  )
        47        H      tau(  47) = (   0.5191866   0.0269831   1.3925372  )

   Crystallographic axes

     site n.     atom                  positions (cryst. coord.)
         1        Zn     tau(   1) = (  0.1250000  0.3333333  0.0327328  )
         2        Zn     tau(   2) = (  0.1250000  0.3333333  0.1309312  )
         3        Zn     tau(   3) = (  0.1244866  0.3753937  0.2459959  )
         4        Zn     tau(   4) = (  0.1249839  0.4179712  0.3611687  )
         5        Zn     tau(   5) = (  0.1250000  0.8333333  0.0327328  )
         6        Zn     tau(   6) = (  0.1250000  0.8333333  0.1309312  )
         7        Zn     tau(   7) = (  0.1245579  0.8753359  0.2460369  )
         8        Zn     tau(   8) = (  0.1250503  0.9200023  0.3619318  )
         9        Zn     tau(   9) = (  0.6250000  0.3333333  0.0327328  )
        10        Zn     tau(  10) = (  0.6250000  0.3333333  0.1309312  )
        11        Zn     tau(  11) = (  0.6249199  0.3753527  0.2460447  )
        12        Zn     tau(  12) = (  0.6254558  0.4188898  0.3615611  )
        13        Zn     tau(  13) = (  0.6250000  0.8333333  0.0327328  )
        14        Zn     tau(  14) = (  0.6250000  0.8333333  0.1309312  )
        15        Zn     tau(  15) = (  0.6249064  0.8753030  0.2459939  )
        16        Zn     tau(  16) = (  0.6254362  0.9183509  0.3612299  )
        17        Zn     tau(  17) = (  0.3750000  0.1666667  0.0654656  )
        18        Zn     tau(  18) = (  0.3750000  0.1666667  0.1636640  )
        19        Zn     tau(  19) = (  0.3745119  0.1685658  0.2631690  )
        20        Zn     tau(  20) = (  0.3750149  0.1844099  0.3675944  )
        21        Zn     tau(  21) = (  0.3750000  0.6666667  0.0654656  )
        22        Zn     tau(  22) = (  0.3750000  0.6666667  0.1636640  )
        23        Zn     tau(  23) = (  0.3745072  0.6697982  0.2632295  )
        24        Zn     tau(  24) = (  0.3753923  0.6785956  0.3653627  )
        25        Zn     tau(  25) = (  0.8750000  0.1666667  0.0654656  )
        26        Zn     tau(  26) = (  0.8750000  0.1666667  0.1636640  )
        27        Zn     tau(  27) = (  0.8748758  0.1706403  0.2637432  )
        28        Zn     tau(  28) = (  0.8753102  0.1854297  0.3679894  )
        29        Zn     tau(  29) = (  0.8750000  0.6666667  0.0654656  )
        30        Zn     tau(  30) = (  0.8750000  0.6666667  0.1636640  )
        31        Zn     tau(  31) = (  0.8747709  0.6705298  0.2637142  )
        32        Zn     tau(  32) = (  0.8754110  0.6857805  0.3680822  )
        33        C      tau(  33) = (  0.3767653  1.6413446  0.7623706  )
        34        C      tau(  34) = (  0.3734012  1.5025425  0.7006836  )
        35        C      tau(  35) = (  0.4581057  1.6033159  0.6711615  )
        36        C      tau(  36) = (  0.2844127  1.2624235  0.6682084  )
        37        C      tau(  37) = (  0.2793969  1.1284538  0.6082710  )
        38        C      tau(  38) = (  0.4535513  1.4680446  0.6111411  )
        39        C      tau(  39) = (  0.3638874  1.2282165  0.5784743  )
        40        N      tau(  40) = (  0.3794585  1.7550620  0.8131618  )
        41        N      tau(  41) = (  0.3551945  1.1027672  0.5191033  )
        42        H      tau(  42) = (  0.3090338  0.9014744  0.4960443  )
        43        H      tau(  43) = (  0.4345070  1.1342111  0.4977839  )
        44        H      tau(  44) = (  0.5273586  1.7895839  0.6959299  )
        45        H      tau(  45) = (  0.2193122  1.1816341  0.6907997  )
        46        H      tau(  46) = (  0.2101083  0.9416415  0.5836169  )
        47        H      tau(  47) = (  0.5191866  1.5489165  0.5886483  )

     number of k points=     5  Marzari-Vanderbilt smearing, width (Ry)=  0.0200
                       cart. coord. in units 2pi/alat
        k(    1) = (   0.0000000   0.0000000   0.0000000), wk =   0.2222222
        k(    2) = (   0.0000000   0.6213326   0.3587265), wk =   0.4444444
        k(    3) = (   0.3333333   0.0000000   0.0000000), wk =   0.4444444
        k(    4) = (   0.3333333   0.6213326   0.3587265), wk =   0.4444444
        k(    5) = (   0.3333333  -0.6213326  -0.3587265), wk =   0.4444444

                       cryst. coord.
        k(    1) = (   0.0000000   0.0000000   0.0000000), wk =   0.2222222
        k(    2) = (   0.0000000   0.3333333   0.0000000), wk =   0.4444444
        k(    3) = (   0.3333333   0.0000000   0.0000000), wk =   0.4444444
        k(    4) = (   0.3333333   0.3333333   0.0000000), wk =   0.4444444
        k(    5) = (   0.3333333  -0.3333333   0.0000000), wk =   0.4444444

     Dense  grid:   378759 G-vectors     FFT dimensions: (  90,  45, 240)

     Dynamical RAM for                 wfc:       9.87 MB

     Dynamical RAM for     wfc (w. buffer):      59.23 MB

     Dynamical RAM for           str. fact:       0.77 MB

     Dynamical RAM for           local pot:       0.00 MB

     Dynamical RAM for          nlocal pot:      15.89 MB

     Dynamical RAM for                qrad:       4.54 MB

     Dynamical RAM for          rho,v,vnew:       1.32 MB

     Dynamical RAM for               rhoin:       0.44 MB

     Dynamical RAM for            rho*nmix:       3.08 MB

     Dynamical RAM for           G-vectors:       0.82 MB

     Dynamical RAM for          h,s,v(r/c):       1.92 MB

     Dynamical RAM for          <psi|beta>:       4.13 MB

     Dynamical RAM for                 psi:      19.74 MB

     Dynamical RAM for                hpsi:      19.74 MB

     Dynamical RAM for                spsi:      19.74 MB

     Dynamical RAM for      wfcinit/wfcrot:      26.86 MB

     Dynamical RAM for           addusdens:      42.00 MB

     Dynamical RAM for          addusforce:      54.16 MB

     Dynamical RAM for         addusstress:      38.72 MB

     Estimated static dynamical RAM per process >      85.22 MB

     Estimated max dynamical RAM per process >     153.58 MB

     Estimated total dynamical RAM >       4.50 GB

     Check: negative core charge=   -0.000011

     Initial potential from superposition of free atoms

     starting charge     683.9951, renormalised to     684.0000

     negative rho (up, down):  3.957E-04 0.000E+00
     Starting wfcs are  458 randomized atomic wfcs
[psid04:122360] 29 more processes have sent help message help-mpi-btl-openib.txt / ib port not selected
[psid04:122360] Set MCA parameter "orte_base_help_aggregate" to 0 to see all help / error messages
[psid04:122360] 29 more processes have sent help message help-mpi-btl-openib.txt / error in device init
     Checking if some PAW data can be deallocated... 
       PAW data deallocated on   24 nodes for type:  2

     total cpu time spent up to now is       24.2 secs

     Self-consistent Calculation

     iteration #  1     ecut=    50.00 Ry     beta= 0.70
     Davidson diagonalization with overlap

---- Real-time Memory Report at c_bands before calling an iterative solver
           137 MiB given to the printing process from OS
             0 MiB allocation reported by mallinfo(arena+hblkhd)
        111116 MiB available memory on the node where the printing process lives
------------------
     ethr =  1.00E-02,  avg # of iterations =  6.8

     negative rho (up, down):  6.397E-04 0.000E+00

     total cpu time spent up to now is      119.8 secs

     total energy              =  -14935.92723978 Ry
     estimated scf accuracy    <      13.13073719 Ry

     iteration #  2     ecut=    50.00 Ry     beta= 0.70
     Davidson diagonalization with overlap

---- Real-time Memory Report at c_bands before calling an iterative solver
           186 MiB given to the printing process from OS
             0 MiB allocation reported by mallinfo(arena+hblkhd)
        109955 MiB available memory on the node where the printing process lives
------------------
     ethr =  1.92E-03,  avg # of iterations = 11.8

     negative rho (up, down):  6.575E-04 0.000E+00

     total cpu time spent up to now is      267.7 secs

     total energy              =  -14895.93367793 Ry
     estimated scf accuracy    <    1349.94837093 Ry

     iteration #  3     ecut=    50.00 Ry     beta= 0.70
     Davidson diagonalization with overlap

---- Real-time Memory Report at c_bands before calling an iterative solver
           189 MiB given to the printing process from OS
             0 MiB allocation reported by mallinfo(arena+hblkhd)
        109774 MiB available memory on the node where the printing process lives
------------------
     ethr =  1.92E-03,  avg # of iterations =  9.8

     negative rho (up, down):  6.083E-04 0.000E+00

     total cpu time spent up to now is      495.5 secs

     total energy              =  -14937.66743645 Ry
     estimated scf accuracy    <     103.04458009 Ry

     iteration #  4     ecut=    50.00 Ry     beta= 0.70
     Davidson diagonalization with overlap

---- Real-time Memory Report at c_bands before calling an iterative solver
           191 MiB given to the printing process from OS
             0 MiB allocation reported by mallinfo(arena+hblkhd)
        109761 MiB available memory on the node where the printing process lives
------------------
     ethr =  1.92E-03,  avg # of iterations =  7.4

     negative rho (up, down):  2.467E-04 0.000E+00

     total cpu time spent up to now is      592.1 secs

     total energy              =  -14941.82203783 Ry
     estimated scf accuracy    <      82.48608973 Ry

     iteration #  5     ecut=    50.00 Ry     beta= 0.70
     Davidson diagonalization with overlap

---- Real-time Memory Report at c_bands before calling an iterative solver
           191 MiB given to the printing process from OS
             0 MiB allocation reported by mallinfo(arena+hblkhd)
        109748 MiB available memory on the node where the printing process lives
------------------
     ethr =  1.92E-03,  avg # of iterations =  4.0

     negative rho (up, down):  2.593E-04 0.000E+00

     total cpu time spent up to now is      675.7 secs

     total energy              =  -14945.59268387 Ry
     estimated scf accuracy    <       2.88886616 Ry

     iteration #  6     ecut=    50.00 Ry     beta= 0.70
     Davidson diagonalization with overlap

---- Real-time Memory Report at c_bands before calling an iterative solver
           192 MiB given to the printing process from OS
             0 MiB allocation reported by mallinfo(arena+hblkhd)
        109737 MiB available memory on the node where the printing process lives
------------------
     ethr =  4.22E-04,  avg # of iterations =  7.2

     negative rho (up, down):  4.944E-04 0.000E+00

     total cpu time spent up to now is      761.9 secs

     total energy              =  -14945.89744878 Ry
     estimated scf accuracy    <       0.13928437 Ry

     iteration #  7     ecut=    50.00 Ry     beta= 0.70
     Davidson diagonalization with overlap

---- Real-time Memory Report at c_bands before calling an iterative solver
           192 MiB given to the printing process from OS
             0 MiB allocation reported by mallinfo(arena+hblkhd)
        109725 MiB available memory on the node where the printing process lives
------------------
     ethr =  2.04E-05,  avg # of iterations =  9.0

     negative rho (up, down):  6.921E-04 0.000E+00

     total cpu time spent up to now is      864.2 secs

     total energy              =  -14945.90572898 Ry
     estimated scf accuracy    <       0.04806739 Ry

     iteration #  8     ecut=    50.00 Ry     beta= 0.70
     Davidson diagonalization with overlap

---- Real-time Memory Report at c_bands before calling an iterative solver
           193 MiB given to the printing process from OS
             0 MiB allocation reported by mallinfo(arena+hblkhd)
        109714 MiB available memory on the node where the printing process lives
------------------
     ethr =  7.03E-06,  avg # of iterations =  8.6

     negative rho (up, down):  7.980E-04 0.000E+00

     total cpu time spent up to now is      969.1 secs

     total energy              =  -14945.90472256 Ry
     estimated scf accuracy    <       0.07396842 Ry

     iteration #  9     ecut=    50.00 Ry     beta= 0.70
     Davidson diagonalization with overlap

---- Real-time Memory Report at c_bands before calling an iterative solver
           193 MiB given to the printing process from OS
             0 MiB allocation reported by mallinfo(arena+hblkhd)
        109702 MiB available memory on the node where the printing process lives
------------------
     ethr =  7.03E-06,  avg # of iterations =  5.2

     negative rho (up, down):  8.402E-04 0.000E+00

     total cpu time spent up to now is     1052.2 secs

     total energy              =  -14945.91292871 Ry
     estimated scf accuracy    <       0.02459479 Ry

     iteration # 10     ecut=    50.00 Ry     beta= 0.70
     Davidson diagonalization with overlap

---- Real-time Memory Report at c_bands before calling an iterative solver
           194 MiB given to the printing process from OS
             0 MiB allocation reported by mallinfo(arena+hblkhd)
        109693 MiB available memory on the node where the printing process lives
------------------
     ethr =  3.60E-06,  avg # of iterations = 10.8

     negative rho (up, down):  8.497E-04 0.000E+00

     total cpu time spent up to now is     1138.1 secs

     total energy              =  -14945.91449106 Ry
     estimated scf accuracy    <       0.01055610 Ry

     iteration # 11     ecut=    50.00 Ry     beta= 0.70
     Davidson diagonalization with overlap

---- Real-time Memory Report at c_bands before calling an iterative solver
           194 MiB given to the printing process from OS
             0 MiB allocation reported by mallinfo(arena+hblkhd)
        109681 MiB available memory on the node where the printing process lives
------------------
     c_bands:  1 eigenvalues not converged
     ethr =  1.54E-06,  avg # of iterations =  8.8

     negative rho (up, down):  9.426E-04 0.000E+00

     total cpu time spent up to now is     1221.6 secs

     total energy              =  -14945.90915775 Ry
     estimated scf accuracy    <       0.00811822 Ry

     iteration # 12     ecut=    50.00 Ry     beta= 0.70
     Davidson diagonalization with overlap

---- Real-time Memory Report at c_bands before calling an iterative solver
           194 MiB given to the printing process from OS
             0 MiB allocation reported by mallinfo(arena+hblkhd)
        109679 MiB available memory on the node where the printing process lives
------------------
     c_bands:  2 eigenvalues not converged
     ethr =  1.19E-06,  avg # of iterations = 18.0

     negative rho (up, down):  9.577E-04 0.000E+00

     total cpu time spent up to now is     1337.4 secs

     total energy              =  -14945.90879491 Ry
     estimated scf accuracy    <       0.01436066 Ry

     iteration # 13     ecut=    50.00 Ry     beta= 0.70
     Davidson diagonalization with overlap

---- Real-time Memory Report at c_bands before calling an iterative solver
           194 MiB given to the printing process from OS
             0 MiB allocation reported by mallinfo(arena+hblkhd)
        109675 MiB available memory on the node where the printing process lives
------------------
     ethr =  1.19E-06,  avg # of iterations =  5.4

     negative rho (up, down):  8.920E-04 0.000E+00

     total cpu time spent up to now is     1424.4 secs

     total energy              =  -14945.91046631 Ry
     estimated scf accuracy    <       0.00665340 Ry

     iteration # 14     ecut=    50.00 Ry     beta= 0.70
     Davidson diagonalization with overlap

---- Real-time Memory Report at c_bands before calling an iterative solver
           194 MiB given to the printing process from OS
             0 MiB allocation reported by mallinfo(arena+hblkhd)
        109678 MiB available memory on the node where the printing process lives
------------------
     ethr =  9.73E-07,  avg # of iterations =  2.0

     negative rho (up, down):  8.954E-04 0.000E+00

     total cpu time spent up to now is     1502.9 secs

     total energy              =  -14945.91077764 Ry
     estimated scf accuracy    <       0.00232269 Ry

     iteration # 15     ecut=    50.00 Ry     beta= 0.70
     Davidson diagonalization with overlap

---- Real-time Memory Report at c_bands before calling an iterative solver
           194 MiB given to the printing process from OS
             0 MiB allocation reported by mallinfo(arena+hblkhd)
        109679 MiB available memory on the node where the printing process lives
------------------
     ethr =  3.40E-07,  avg # of iterations =  2.2

     negative rho (up, down):  8.806E-04 0.000E+00

     total cpu time spent up to now is     1580.4 secs

     total energy              =  -14945.91095400 Ry
     estimated scf accuracy    <       0.00277199 Ry

     iteration # 16     ecut=    50.00 Ry     beta= 0.70
     Davidson diagonalization with overlap

---- Real-time Memory Report at c_bands before calling an iterative solver
           194 MiB given to the printing process from OS
             0 MiB allocation reported by mallinfo(arena+hblkhd)
        109677 MiB available memory on the node where the printing process lives
------------------
     ethr =  3.40E-07,  avg # of iterations =  2.0

     negative rho (up, down):  8.813E-04 0.000E+00

     total cpu time spent up to now is     1657.2 secs

     total energy              =  -14945.91108539 Ry
     estimated scf accuracy    <       0.00011934 Ry

     iteration # 17     ecut=    50.00 Ry     beta= 0.70
     Davidson diagonalization with overlap

---- Real-time Memory Report at c_bands before calling an iterative solver
           194 MiB given to the printing process from OS
             0 MiB allocation reported by mallinfo(arena+hblkhd)
        109677 MiB available memory on the node where the printing process lives
------------------
     ethr =  1.74E-08,  avg # of iterations =  3.2

     negative rho (up, down):  8.771E-04 0.000E+00

     total cpu time spent up to now is     1736.8 secs

     total energy              =  -14945.91110225 Ry
     estimated scf accuracy    <       0.00002089 Ry

     iteration # 18     ecut=    50.00 Ry     beta= 0.70
     Davidson diagonalization with overlap

---- Real-time Memory Report at c_bands before calling an iterative solver
           194 MiB given to the printing process from OS
             0 MiB allocation reported by mallinfo(arena+hblkhd)
        109678 MiB available memory on the node where the printing process lives
------------------
     ethr =  3.05E-09,  avg # of iterations =  3.0

     negative rho (up, down):  8.760E-04 0.000E+00

     total cpu time spent up to now is     1816.6 secs

     total energy              =  -14945.91110485 Ry
     estimated scf accuracy    <       0.00000466 Ry

     iteration # 19     ecut=    50.00 Ry     beta= 0.70
     Davidson diagonalization with overlap

---- Real-time Memory Report at c_bands before calling an iterative solver
           194 MiB given to the printing process from OS
             0 MiB allocation reported by mallinfo(arena+hblkhd)
        109675 MiB available memory on the node where the printing process lives
------------------
     ethr =  6.82E-10,  avg # of iterations =  2.2

     negative rho (up, down):  8.749E-04 0.000E+00

     total cpu time spent up to now is     1895.1 secs

     total energy              =  -14945.91110556 Ry
     estimated scf accuracy    <       0.00000235 Ry

     iteration # 20     ecut=    50.00 Ry     beta= 0.70
     Davidson diagonalization with overlap

---- Real-time Memory Report at c_bands before calling an iterative solver
           194 MiB given to the printing process from OS
             0 MiB allocation reported by mallinfo(arena+hblkhd)
        109674 MiB available memory on the node where the printing process lives
------------------
     ethr =  3.44E-10,  avg # of iterations =  2.0

     negative rho (up, down):  8.742E-04 0.000E+00

     total cpu time spent up to now is     1974.4 secs

     End of self-consistent calculation

          k = 0.0000 0.0000 0.0000 ( 47357 PWs)   bands (ev):

  -122.8043-122.8018-122.8018-122.7997-122.7564-122.7546-122.7434-122.7416
  -122.7399-122.7389-122.7382-122.7370-122.5658-122.5656-122.5640-122.5638
  -122.5563-122.5546-122.5487-122.5469-122.5426-122.5410-122.5406-122.5391
  -122.4774-122.4455-122.4377-122.4356-122.3444-122.3422-122.3375-122.3302
   -76.9697 -76.9676 -76.9590 -76.9562 -76.9559 -76.9534 -76.9478 -76.9455
   -76.9451 -76.9448 -76.9431 -76.9428 -76.9227 -76.9101 -76.9059 -76.9046
   -76.9043 -76.9032 -76.9008 -76.8989 -76.8988 -76.8938 -76.8930 -76.8927
   -76.8916 -76.8915 -76.8903 -76.8903 -76.8891 -76.8886 -76.8885 -76.8873
   -76.8864 -76.8861 -76.8799 -76.8787 -76.7281 -76.7279 -76.7240 -76.7237
   -76.7221 -76.7219 -76.7201 -76.7185 -76.7183 -76.7171 -76.7162 -76.7125
   -76.7123 -76.7106 -76.7104 -76.7097 -76.7093 -76.7085 -76.7079 -76.7067
   -76.7038 -76.7036 -76.7023 -76.7010 -76.7009 -76.6993 -76.6974 -76.6957
   -76.6926 -76.6851 -76.6810 -76.6794 -76.6791 -76.6778 -76.6740 -76.6725
   -76.6467 -76.6277 -76.6153 -76.6139 -76.6058 -76.6036 -76.5960 -76.5885
   -76.5852 -76.5785 -76.5759 -76.5716 -76.5077 -76.5054 -76.5007 -76.4967
   -76.4951 -76.4946 -76.4935 -76.4912 -76.4901 -76.4831 -76.4701 -76.4645
   -15.4082 -13.9593 -13.1662 -10.7650 -10.7031  -7.7757  -7.4890  -6.1209
    -5.6195  -5.1872  -5.0501  -5.0319  -4.9986  -4.7559  -4.5895  -4.5210
    -4.4907  -4.4445  -4.4119  -4.4112  -4.4106  -4.3890  -4.3868  -4.3835
    -4.3832  -4.3397  -4.3336  -4.2508  -4.2406  -4.2390  -4.2356  -4.2311
    -4.2062  -4.1962  -4.1902  -4.1809  -4.1459  -4.1376  -4.1280  -4.0974
    -4.0858  -4.0542  -4.0539  -4.0419  -4.0248  -4.0131  -3.9601  -3.9584
    -3.9405  -3.9373  -3.9158  -3.9113  -3.9095  -3.8908  -3.8749  -3.8610
    -3.8543  -3.8385  -3.8267  -3.8265  -3.8262  -3.8161  -3.7851  -3.7794
    -3.7681  -3.7125  -3.7020  -3.6881  -3.6838  -3.6831  -3.6809  -3.6721
    -3.6649  -3.6559  -3.6318  -3.6315  -3.6247  -3.6173  -3.5934  -3.5862
    -3.5732  -3.5653  -3.5495  -3.5465  -3.5410  -3.5337  -3.5164  -3.5159
    -3.5122  -3.5047  -3.5014  -3.4961  -3.4870  -3.4849  -3.4736  -3.4591
    -3.4465  -3.4205  -3.4106  -3.4039  -3.4037  -3.3707  -3.3677  -3.3616
    -3.3585  -3.3444  -3.3369  -3.3299  -3.3244  -3.3195  -3.3112  -3.3108
    -3.2947  -3.2875  -3.2845  -3.2811  -3.2805  -3.2712  -3.2689  -3.2649
    -3.2568  -3.2289  -3.2227  -3.2218  -3.2204  -3.2127  -3.1965  -3.1911
    -3.1886  -3.1883  -3.1831  -3.1799  -3.1745  -3.1715  -3.1550  -3.1472
    -3.1392  -3.1377  -3.1303  -3.1230  -3.1187  -3.1100  -3.0992  -3.0944
    -3.0651  -3.0627  -3.0624  -3.0562  -3.0546  -3.0425  -3.0362  -3.0331
    -3.0251  -3.0238  -3.0149  -3.0103  -3.0020  -2.9851  -2.9844  -2.9815
    -2.9806  -2.9718  -2.9707  -2.9564  -2.9502  -2.9295  -2.9171  -2.9128
    -2.9081  -2.9049  -2.9029  -2.8940  -2.8373  -2.7371  -2.7297  -2.7207
    -2.6769  -2.6693  -2.6133  -2.4760  -1.9297  -1.6699  -1.3224  -1.2260
    -0.7771  -0.5949  -0.5421   0.0304   0.2680   0.2696   0.4728   0.6935
     0.8457   0.8943   0.9916   1.0830   1.1658   1.3227   1.4280   1.4472
     1.5470   1.6286   1.7888   1.8990   2.0413   2.2163   2.3684   2.4252
     2.5086   2.5193   2.7378   2.8030   2.9345   3.3115   3.4137   3.6313
     3.6364   4.4265   4.4474   4.7707   4.8009   4.8546   4.9207   5.0115
     5.4819   5.7795   5.9092   6.1692   6.2482   6.3632   6.3907   6.4291
     6.4864   6.5519   6.6852   6.7104   6.7373   7.0888   7.1066   7.2291
     7.3676   7.5740   7.6941   7.7088   7.7455   7.8714   7.9982   8.0568
     8.2168   8.4397   8.8227   8.8519   8.9021   9.0176   9.0529   9.1117
     9.1794   9.2232   9.2857   9.3435   9.3580   9.3852   9.4416   9.4804
     9.5024   9.5685   9.6286   9.9447  10.0318  10.1995  10.2286  10.2443
    10.3300  10.4693  10.6786  10.6970  10.8585  10.9266  10.9361  11.1717
    11.2577  11.3172

     occupation numbers 
     1.0000   1.0000   1.0000   1.0000   1.0000   1.0000   1.0000   1.0000
     1.0000   1.0000   1.0000   1.0000   1.0000   1.0000   1.0000   1.0000
     1.0000   1.0000   1.0000   1.0000   1.0000   1.0000   1.0000   1.0000
     1.0000   1.0000   1.0000   1.0000   1.0000   1.0000   1.0000   1.0000
     1.0000   1.0000   1.0000   1.0000   1.0000   1.0000   1.0000   1.0000
     1.0000   1.0000   1.0000   1.0000   1.0000   1.0000   1.0000   1.0000
     1.0000   1.0000   1.0000   1.0000   1.0000   1.0000   1.0000   1.0000
     1.0000   1.0000   1.0000   1.0000   1.0000   1.0000   1.0000   1.0000
     1.0000   1.0000   1.0000   1.0000   1.0000   1.0000   1.0000   1.0000
     1.0000   1.0000   1.0000   1.0000   1.0000   1.0000   1.0000   1.0000
     1.0000   1.0000   1.0000   1.0000   1.0000   1.0000   1.0000   1.0000
     1.0000   1.0000   1.0000   1.0000   1.0000   1.0000   1.0000   1.0000
     1.0000   1.0000   1.0000   1.0000   1.0000   1.0000   1.0000   1.0000
     1.0000   1.0000   1.0000   1.0000   1.0000   1.0000   1.0000   1.0000
     1.0000   1.0000   1.0000   1.0000   1.0000   1.0000   1.0000   1.0000
     1.0000   1.0000   1.0000   1.0000   1.0000   1.0000   1.0000   1.0000
     1.0000   1.0000   1.0000   1.0000   1.0000   1.0000   1.0000   1.0000
     1.0000   1.0000   1.0000   1.0000   1.0000   1.0000   1.0000   1.0000
     1.0000   1.0000   1.0000   1.0000   1.0000   1.0000   1.0000   1.0000
     1.0000   1.0000   1.0000   1.0000   1.0000   1.0000   1.0000   1.0000
     1.0000   1.0000   1.0000   1.0000   1.0000   1.0000   1.0000   1.0000
     1.0000   1.0000   1.0000   1.0000   1.0000   1.0000   1.0000   1.0000
     1.0000   1.0000   1.0000   1.0000   1.0000   1.0000   1.0000   1.0000
     1.0000   1.0000   1.0000   1.0000   1.0000   1.0000   1.0000   1.0000
     1.0000   1.0000   1.0000   1.0000   1.0000   1.0000   1.0000   1.0000
     1.0000   1.0000   1.0000   1.0000   1.0000   1.0000   1.0000   1.0000
     1.0000   1.0000   1.0000   1.0000   1.0000   1.0000   1.0000   1.0000
     1.0000   1.0000   1.0000   1.0000   1.0000   1.0000   1.0000   1.0000
     1.0000   1.0000   1.0000   1.0000   1.0000   1.0000   1.0000   1.0000
     1.0000   1.0000   1.0000   1.0000   1.0000   1.0000   1.0000   1.0000
     1.0000   1.0000   1.0000   1.0000   1.0000   1.0000   1.0000   1.0000
     1.0000   1.0000   1.0000   1.0000   1.0000   1.0000   1.0000   1.0000
     1.0000   1.0000   1.0000   1.0000   1.0000   1.0000   1.0000   1.0000
     1.0000   1.0000   1.0000   1.0000   1.0000   1.0000   1.0000   1.0000
     1.0000   1.0000   1.0000   1.0000   1.0000   1.0000   1.0000   1.0000
     1.0000   1.0000   1.0000   1.0000   1.0000   1.0000   1.0000   1.0000
     1.0000   1.0000   1.0000   1.0000   1.0000   1.0000   1.0000   1.0000
     1.0000   1.0000   1.0000   1.0000   1.0000   1.0000   1.0000   1.0000
     1.0000   1.0000   1.0000   1.0000   1.0000   1.0000   1.0000   1.0000
     1.0000   1.0000   1.0000   1.0000   1.0000   1.0000   1.0000   1.0000
     1.0000   1.0000   1.0000   1.0000   1.0000   1.0000   1.0000   1.0000
     1.0000   1.0000   1.0000   1.0000   1.0000   1.0000   1.0000   1.0000
     1.0000   1.0000   1.0000   1.0000   1.0000   1.0053   1.0187   1.0811
     1.0819   0.0059   0.0042   0.0000   0.0000   0.0000   0.0000   0.0000
     0.0000   0.0000   0.0000   0.0000   0.0000   0.0000   0.0000   0.0000
     0.0000   0.0000   0.0000   0.0000   0.0000   0.0000   0.0000   0.0000
     0.0000   0.0000   0.0000   0.0000   0.0000   0.0000   0.0000   0.0000
     0.0000   0.0000   0.0000   0.0000   0.0000   0.0000   0.0000   0.0000
     0.0000   0.0000   0.0000   0.0000   0.0000   0.0000   0.0000   0.0000
     0.0000   0.0000   0.0000   0.0000   0.0000   0.0000   0.0000   0.0000
     0.0000   0.0000   0.0000   0.0000   0.0000   0.0000   0.0000   0.0000
     0.0000   0.0000

          k = 0.0000 0.6213 0.3587 ( 47360 PWs)   bands (ev):

  -122.8040-122.8020-122.8015-122.8001-122.7560-122.7550-122.7430-122.7420
  -122.7395-122.7386-122.7384-122.7374-122.5654-122.5652-122.5644-122.5643
  -122.5559-122.5550-122.5482-122.5473-122.5422-122.5410-122.5406-122.5396
  -122.4774-122.4455-122.4374-122.4359-122.3443-122.3422-122.3376-122.3302
   -76.9636 -76.9615 -76.9585 -76.9563 -76.9556 -76.9538 -76.9511 -76.9490
   -76.9474 -76.9454 -76.9450 -76.9436 -76.9169 -76.9056 -76.9052 -76.9045
   -76.9042 -76.9003 -76.8993 -76.8982 -76.8971 -76.8932 -76.8927 -76.8922
   -76.8921 -76.8921 -76.8918 -76.8908 -76.8898 -76.8889 -76.8887 -76.8881
   -76.8877 -76.8869 -76.8860 -76.8849 -76.7235 -76.7233 -76.7225 -76.7224
   -76.7221 -76.7219 -76.7197 -76.7185 -76.7180 -76.7170 -76.7120 -76.7118
   -76.7111 -76.7109 -76.7108 -76.7099 -76.7097 -76.7092 -76.7082 -76.7080
   -76.7072 -76.7033 -76.7018 -76.7008 -76.7004 -76.6995 -76.6988 -76.6920
   -76.6912 -76.6904 -76.6806 -76.6800 -76.6795 -76.6790 -76.6785 -76.6781
   -76.6467 -76.6247 -76.6152 -76.6139 -76.6054 -76.6039 -76.5916 -76.5899
   -76.5852 -76.5780 -76.5777 -76.5763 -76.5076 -76.5053 -76.5008 -76.4966
   -76.4946 -76.4936 -76.4902 -76.4895 -76.4862 -76.4831 -76.4758 -76.4695
   -15.4044 -13.9556 -13.1537 -10.8011 -10.6950  -7.7669  -7.5163  -5.6002
    -5.5026  -5.0440  -4.9952  -4.6255  -4.5863  -4.4047  -4.3522  -4.3362
    -4.3243  -4.3225  -4.2896  -4.2689  -4.2650  -4.2588  -4.2383  -4.2043
    -4.1823  -4.1632  -4.1619  -4.1495  -4.1313  -4.1228  -4.1116  -4.1072
    -4.1019  -4.0679  -4.0595  -4.0533  -4.0399  -4.0252  -4.0120  -4.0064
    -3.9926  -3.9856  -3.9744  -3.9503  -3.9376  -3.9177  -3.9014  -3.8923
    -3.8847  -3.8795  -3.8577  -3.8561  -3.8546  -3.8434  -3.8360  -3.8309
    -3.8210  -3.8126  -3.8002  -3.7783  -3.7616  -3.7615  -3.7576  -3.7510
    -3.7481  -3.7423  -3.7217  -3.6985  -3.6872  -3.6807  -3.6721  -3.6662
    -3.6642  -3.6566  -3.6491  -3.6419  -3.6404  -3.6355  -3.6287  -3.6246
    -3.5980  -3.5943  -3.5927  -3.5881  -3.5875  -3.5841  -3.5681  -3.5656
    -3.5596  -3.5482  -3.5474  -3.5443  -3.5268  -3.5096  -3.5059  -3.4990
    -3.4947  -3.4880  -3.4854  -3.4637  -3.4629  -3.4364  -3.4243  -3.4232
    -3.4205  -3.4020  -3.3933  -3.3869  -3.3864  -3.3814  -3.3803  -3.3793
    -3.3748  -3.3708  -3.3583  -3.3516  -3.3475  -3.3471  -3.3295  -3.3053
    -3.2968  -3.2953  -3.2923  -3.2876  -3.2831  -3.2760  -3.2593  -3.2538
    -3.2423  -3.2374  -3.2331  -3.2297  -3.2232  -3.2216  -3.1933  -3.1869
    -3.1837  -3.1763  -3.1704  -3.1613  -3.1601  -3.1500  -3.1467  -3.1358
    -3.1341  -3.1328  -3.1299  -3.1242  -3.1196  -3.1063  -3.0978  -3.0964
    -3.0876  -3.0813  -3.0808  -3.0748  -3.0729  -3.0699  -3.0647  -3.0632
    -3.0500  -3.0464  -3.0390  -3.0321  -3.0143  -3.0054  -2.9971  -2.9916
    -2.9840  -2.9775  -2.9628  -2.8941  -2.8749  -2.8606  -2.7823  -2.7211
    -2.7089  -2.4879  -2.1522  -2.0752  -2.0549  -2.0322  -1.9619  -1.6700
    -1.4972  -1.2476  -0.8114  -0.6593  -0.6202  -0.5829  -0.4937  -0.3930
    -0.3491  -0.0124   0.0411   0.4511   0.6173   1.1415   1.2027   1.4094
     1.4767   1.6175   1.6474   1.8037   1.8291   2.3784   2.6694   2.6835
     2.8884   3.0720   3.2362   3.3247   4.0752   4.0896   4.1185   4.1429
     4.1792   4.4172   4.4330   4.7845   5.0769   5.0875   5.4171   6.1289
     6.1520   6.2291   6.2434   6.2714   6.3562   6.4239   6.5514   6.5731
     6.6100   6.6277   6.9930   7.1755   7.2630   7.4100   7.4229   7.5373
     7.8582   8.0819   8.1296   8.1741   8.3066   8.3309   8.3894   8.5647
     8.7200   8.8118   8.8907   9.0952   9.1260   9.1754   9.2231   9.3156
     9.5637   9.6310   9.6934   9.8177   9.9147   9.9567  10.1046  10.1781
    10.2561  10.2940  10.3939  10.4080  10.5849  10.6160  10.7306  10.7961
    10.8422  10.8664  10.8891  10.9577  11.0013  11.2385  11.2832  11.2975
    11.3230  11.3511

     occupation numbers 
     1.0000   1.0000   1.0000   1.0000   1.0000   1.0000   1.0000   1.0000
     1.0000   1.0000   1.0000   1.0000   1.0000   1.0000   1.0000   1.0000
     1.0000   1.0000   1.0000   1.0000   1.0000   1.0000   1.0000   1.0000
     1.0000   1.0000   1.0000   1.0000   1.0000   1.0000   1.0000   1.0000
     1.0000   1.0000   1.0000   1.0000   1.0000   1.0000   1.0000   1.0000
     1.0000   1.0000   1.0000   1.0000   1.0000   1.0000   1.0000   1.0000
     1.0000   1.0000   1.0000   1.0000   1.0000   1.0000   1.0000   1.0000
     1.0000   1.0000   1.0000   1.0000   1.0000   1.0000   1.0000   1.0000
     1.0000   1.0000   1.0000   1.0000   1.0000   1.0000   1.0000   1.0000
     1.0000   1.0000   1.0000   1.0000   1.0000   1.0000   1.0000   1.0000
     1.0000   1.0000   1.0000   1.0000   1.0000   1.0000   1.0000   1.0000
     1.0000   1.0000   1.0000   1.0000   1.0000   1.0000   1.0000   1.0000
     1.0000   1.0000   1.0000   1.0000   1.0000   1.0000   1.0000   1.0000
     1.0000   1.0000   1.0000   1.0000   1.0000   1.0000   1.0000   1.0000
     1.0000   1.0000   1.0000   1.0000   1.0000   1.0000   1.0000   1.0000
     1.0000   1.0000   1.0000   1.0000   1.0000   1.0000   1.0000   1.0000
     1.0000   1.0000   1.0000   1.0000   1.0000   1.0000   1.0000   1.0000
     1.0000   1.0000   1.0000   1.0000   1.0000   1.0000   1.0000   1.0000
     1.0000   1.0000   1.0000   1.0000   1.0000   1.0000   1.0000   1.0000
     1.0000   1.0000   1.0000   1.0000   1.0000   1.0000   1.0000   1.0000
     1.0000   1.0000   1.0000   1.0000   1.0000   1.0000   1.0000   1.0000
     1.0000   1.0000   1.0000   1.0000   1.0000   1.0000   1.0000   1.0000
     1.0000   1.0000   1.0000   1.0000   1.0000   1.0000   1.0000   1.0000
     1.0000   1.0000   1.0000   1.0000   1.0000   1.0000   1.0000   1.0000
     1.0000   1.0000   1.0000   1.0000   1.0000   1.0000   1.0000   1.0000
     1.0000   1.0000   1.0000   1.0000   1.0000   1.0000   1.0000   1.0000
     1.0000   1.0000   1.0000   1.0000   1.0000   1.0000   1.0000   1.0000
     1.0000   1.0000   1.0000   1.0000   1.0000   1.0000   1.0000   1.0000
     1.0000   1.0000   1.0000   1.0000   1.0000   1.0000   1.0000   1.0000
     1.0000   1.0000   1.0000   1.0000   1.0000   1.0000   1.0000   1.0000
     1.0000   1.0000   1.0000   1.0000   1.0000   1.0000   1.0000   1.0000
     1.0000   1.0000   1.0000   1.0000   1.0000   1.0000   1.0000   1.0000
     1.0000   1.0000   1.0000   1.0000   1.0000   1.0000   1.0000   1.0000
     1.0000   1.0000   1.0000   1.0000   1.0000   1.0000   1.0000   1.0000
     1.0000   1.0000   1.0000   1.0000   1.0000   1.0000   1.0000   1.0000
     1.0000   1.0000   1.0000   1.0000   1.0000   1.0000   1.0000   1.0000
     1.0000   1.0000   1.0000   1.0000   1.0000   1.0000   1.0000   1.0000
     1.0000   1.0000   1.0000   1.0000   1.0000   1.0000   1.0000   1.0000
     1.0000   1.0000   1.0000   1.0000   1.0000   1.0000   1.0000   1.0000
     1.0000   1.0000   1.0000   1.0000   1.0000   1.0000   1.0000   1.0000
     1.0000   1.0000   1.0000   1.0000   1.0000   1.0000   1.0000   1.0000
     1.0000   1.0000   1.0000   1.0000   1.0000   1.0000   1.0000   1.0000
     1.0000   1.0001   1.0017   1.0064   0.3239   0.2919   0.2335   0.1904
     0.1369   0.0069   0.0053   0.0000   0.0000   0.0000   0.0000   0.0000
     0.0000   0.0000   0.0000   0.0000   0.0000   0.0000   0.0000   0.0000
     0.0000   0.0000   0.0000   0.0000   0.0000   0.0000   0.0000   0.0000
     0.0000   0.0000   0.0000   0.0000   0.0000   0.0000   0.0000   0.0000
     0.0000   0.0000   0.0000   0.0000   0.0000   0.0000   0.0000   0.0000
     0.0000   0.0000   0.0000   0.0000   0.0000   0.0000   0.0000   0.0000
     0.0000   0.0000   0.0000   0.0000   0.0000   0.0000   0.0000   0.0000
     0.0000   0.0000   0.0000   0.0000   0.0000   0.0000   0.0000   0.0000
     0.0000   0.0000

          k = 0.3333 0.0000 0.0000 ( 47282 PWs)   bands (ev):

  -122.8043-122.8018-122.8018-122.7997-122.7564-122.7546-122.7434-122.7416
  -122.7399-122.7388-122.7382-122.7370-122.5658-122.5656-122.5640-122.5638
  -122.5563-122.5546-122.5487-122.5469-122.5426-122.5410-122.5406-122.5391
  -122.4774-122.4455-122.4377-122.4356-122.3444-122.3422-122.3375-122.3302
   -76.9697 -76.9676 -76.9590 -76.9562 -76.9559 -76.9534 -76.9477 -76.9455
   -76.9451 -76.9448 -76.9431 -76.9428 -76.9227 -76.9101 -76.9059 -76.9046
   -76.9043 -76.9032 -76.9008 -76.8989 -76.8988 -76.8938 -76.8930 -76.8927
   -76.8916 -76.8915 -76.8903 -76.8902 -76.8891 -76.8885 -76.8885 -76.8873
   -76.8864 -76.8860 -76.8798 -76.8787 -76.7281 -76.7279 -76.7239 -76.7237
   -76.7221 -76.7219 -76.7201 -76.7185 -76.7183 -76.7171 -76.7162 -76.7125
   -76.7123 -76.7106 -76.7104 -76.7097 -76.7093 -76.7085 -76.7079 -76.7067
   -76.7038 -76.7036 -76.7023 -76.7011 -76.7009 -76.6992 -76.6973 -76.6958
   -76.6926 -76.6851 -76.6809 -76.6794 -76.6792 -76.6778 -76.6740 -76.6724
   -76.6467 -76.6277 -76.6153 -76.6139 -76.6058 -76.6036 -76.5960 -76.5885
   -76.5851 -76.5784 -76.5759 -76.5715 -76.5077 -76.5054 -76.5007 -76.4966
   -76.4951 -76.4946 -76.4935 -76.4912 -76.4901 -76.4831 -76.4701 -76.4644
   -15.4082 -13.9593 -13.1662 -10.7650 -10.7031  -7.7756  -7.4890  -5.9537
    -5.6195  -5.4926  -5.0547  -5.0316  -4.9913  -4.7294  -4.5815  -4.5662
    -4.4694  -4.4432  -4.4422  -4.4304  -4.4144  -4.4057  -4.3932  -4.3906
    -4.3446  -4.3230  -4.3098  -4.3015  -4.2601  -4.2566  -4.2563  -4.2206
    -4.2160  -4.1765  -4.1642  -4.1615  -4.1388  -4.1362  -4.1168  -4.1082
    -4.0972  -4.0674  -4.0340  -4.0022  -3.9910  -3.9629  -3.9597  -3.9578
    -3.9457  -3.9351  -3.9180  -3.9061  -3.9044  -3.8983  -3.8782  -3.8675
    -3.8599  -3.8492  -3.8381  -3.8300  -3.8205  -3.8163  -3.8119  -3.8044
    -3.8009  -3.7946  -3.7799  -3.7389  -3.7334  -3.7200  -3.6876  -3.6750
    -3.6553  -3.6512  -3.6501  -3.6415  -3.6274  -3.6026  -3.5911  -3.5829
    -3.5795  -3.5739  -3.5632  -3.5429  -3.5379  -3.5338  -3.5314  -3.5206
    -3.5203  -3.4987  -3.4919  -3.4878  -3.4850  -3.4824  -3.4776  -3.4560
    -3.4292  -3.4227  -3.4154  -3.4129  -3.3722  -3.3588  -3.3548  -3.3542
    -3.3436  -3.3303  -3.3298  -3.3292  -3.3173  -3.3077  -3.3054  -3.3048
    -3.2961  -3.2887  -3.2825  -3.2790  -3.2701  -3.2658  -3.2490  -3.2357
    -3.2322  -3.2256  -3.2227  -3.2157  -3.2113  -3.2012  -3.1998  -3.1985
    -3.1814  -3.1789  -3.1786  -3.1758  -3.1655  -3.1639  -3.1565  -3.1394
    -3.1355  -3.1298  -3.1238  -3.1229  -3.1137  -3.1057  -3.0961  -3.0929
    -3.0851  -3.0794  -3.0708  -3.0666  -3.0508  -3.0472  -3.0452  -3.0351
    -3.0344  -3.0322  -3.0191  -3.0148  -2.9973  -2.9939  -2.9937  -2.9829
    -2.9744  -2.9703  -2.9701  -2.9547  -2.9407  -2.9278  -2.9175  -2.9129
    -2.9055  -2.8970  -2.8812  -2.8628  -2.8114  -2.7914  -2.7712  -2.7246
    -2.5123  -2.4762  -2.4450  -2.0688  -1.9291  -1.6646  -1.5447  -0.8775
    -0.7780  -0.5953  -0.4262  -0.1847   0.0300   0.1584   0.2626   0.4126
     0.4237   0.4729   0.6971   0.8574   0.8996   1.1665   1.2300   1.4418
     1.4956   1.6547   1.8100   2.0110   2.0800   2.4816   2.5687   2.5939
     2.7435   3.0309   3.0450   3.0541   3.2232   3.4999   3.6713   4.1156
     4.3120   4.4202   4.4606   4.6185   4.6688   4.8565   5.3821   5.5434
     5.6298   5.6630   5.6771   5.7135   5.9063   5.9579   5.9917   5.9993
     6.2581   6.2784   6.3606   6.6176   6.9736   7.0435   7.2511   7.2985
     7.3057   7.4626   7.5022   7.6882   7.7585   7.7687   7.8561   8.0662
     8.1136   8.1542   8.3254   8.4900   8.6200   8.7544   8.8059   9.1305
     9.1765   9.1850   9.2276   9.2681   9.4062   9.4209   9.6489   9.7800
     9.9257   9.9926  10.0506  10.1034  10.1622  10.2716  10.3343  10.3920
    10.4621  10.4830  10.5185  10.7427  10.9059  10.9516  11.2009  11.2579
    11.4517  11.4846

     occupation numbers 
     1.0000   1.0000   1.0000   1.0000   1.0000   1.0000   1.0000   1.0000
     1.0000   1.0000   1.0000   1.0000   1.0000   1.0000   1.0000   1.0000
     1.0000   1.0000   1.0000   1.0000   1.0000   1.0000   1.0000   1.0000
     1.0000   1.0000   1.0000   1.0000   1.0000   1.0000   1.0000   1.0000
     1.0000   1.0000   1.0000   1.0000   1.0000   1.0000   1.0000   1.0000
     1.0000   1.0000   1.0000   1.0000   1.0000   1.0000   1.0000   1.0000
     1.0000   1.0000   1.0000   1.0000   1.0000   1.0000   1.0000   1.0000
     1.0000   1.0000   1.0000   1.0000   1.0000   1.0000   1.0000   1.0000
     1.0000   1.0000   1.0000   1.0000   1.0000   1.0000   1.0000   1.0000
     1.0000   1.0000   1.0000   1.0000   1.0000   1.0000   1.0000   1.0000
     1.0000   1.0000   1.0000   1.0000   1.0000   1.0000   1.0000   1.0000
     1.0000   1.0000   1.0000   1.0000   1.0000   1.0000   1.0000   1.0000
     1.0000   1.0000   1.0000   1.0000   1.0000   1.0000   1.0000   1.0000
     1.0000   1.0000   1.0000   1.0000   1.0000   1.0000   1.0000   1.0000
     1.0000   1.0000   1.0000   1.0000   1.0000   1.0000   1.0000   1.0000
     1.0000   1.0000   1.0000   1.0000   1.0000   1.0000   1.0000   1.0000
     1.0000   1.0000   1.0000   1.0000   1.0000   1.0000   1.0000   1.0000
     1.0000   1.0000   1.0000   1.0000   1.0000   1.0000   1.0000   1.0000
     1.0000   1.0000   1.0000   1.0000   1.0000   1.0000   1.0000   1.0000
     1.0000   1.0000   1.0000   1.0000   1.0000   1.0000   1.0000   1.0000
     1.0000   1.0000   1.0000   1.0000   1.0000   1.0000   1.0000   1.0000
     1.0000   1.0000   1.0000   1.0000   1.0000   1.0000   1.0000   1.0000
     1.0000   1.0000   1.0000   1.0000   1.0000   1.0000   1.0000   1.0000
     1.0000   1.0000   1.0000   1.0000   1.0000   1.0000   1.0000   1.0000
     1.0000   1.0000   1.0000   1.0000   1.0000   1.0000   1.0000   1.0000
     1.0000   1.0000   1.0000   1.0000   1.0000   1.0000   1.0000   1.0000
     1.0000   1.0000   1.0000   1.0000   1.0000   1.0000   1.0000   1.0000
     1.0000   1.0000   1.0000   1.0000   1.0000   1.0000   1.0000   1.0000
     1.0000   1.0000   1.0000   1.0000   1.0000   1.0000   1.0000   1.0000
     1.0000   1.0000   1.0000   1.0000   1.0000   1.0000   1.0000   1.0000
     1.0000   1.0000   1.0000   1.0000   1.0000   1.0000   1.0000   1.0000
     1.0000   1.0000   1.0000   1.0000   1.0000   1.0000   1.0000   1.0000
     1.0000   1.0000   1.0000   1.0000   1.0000   1.0000   1.0000   1.0000
     1.0000   1.0000   1.0000   1.0000   1.0000   1.0000   1.0000   1.0000
     1.0000   1.0000   1.0000   1.0000   1.0000   1.0000   1.0000   1.0000
     1.0000   1.0000   1.0000   1.0000   1.0000   1.0000   1.0000   1.0000
     1.0000   1.0000   1.0000   1.0000   1.0000   1.0000   1.0000   1.0000
     1.0000   1.0000   1.0000   1.0000   1.0000   1.0000   1.0000   1.0000
     1.0000   1.0000   1.0000   1.0000   1.0000   1.0000   1.0000   1.0000
     1.0000   1.0000   1.0000   1.0000   1.0000   1.0000   1.0000   1.0000
     1.0000   1.0000   1.0000   1.0000   1.0000   1.0000   1.0000   1.0000
     1.0000   1.0000   1.0000   1.0000   1.0000   1.0000   1.0000   1.0000
     1.0000   1.0000   1.0000   1.0001   1.0014   1.0415   1.0827   0.2390
     0.0308   0.0065   0.0034   0.0002   0.0001   0.0000   0.0000   0.0000
     0.0000   0.0000   0.0000   0.0000   0.0000   0.0000   0.0000   0.0000
     0.0000   0.0000   0.0000   0.0000   0.0000   0.0000   0.0000   0.0000
     0.0000   0.0000   0.0000   0.0000   0.0000   0.0000   0.0000   0.0000
     0.0000   0.0000   0.0000   0.0000   0.0000   0.0000   0.0000   0.0000
     0.0000   0.0000   0.0000   0.0000   0.0000   0.0000   0.0000   0.0000
     0.0000   0.0000   0.0000   0.0000   0.0000   0.0000   0.0000   0.0000
     0.0000   0.0000   0.0000   0.0000   0.0000   0.0000   0.0000   0.0000
     0.0000   0.0000

          k = 0.3333 0.6213 0.3587 ( 47356 PWs)   bands (ev):

  -122.8040-122.8020-122.8015-122.8001-122.7560-122.7550-122.7430-122.7420
  -122.7395-122.7386-122.7384-122.7374-122.5654-122.5652-122.5644-122.5643
  -122.5559-122.5550-122.5482-122.5473-122.5422-122.5410-122.5406-122.5396
  -122.4774-122.4455-122.4374-122.4359-122.3443-122.3422-122.3376-122.3302
   -76.9636 -76.9615 -76.9585 -76.9563 -76.9556 -76.9538 -76.9511 -76.9490
   -76.9474 -76.9454 -76.9450 -76.9436 -76.9169 -76.9056 -76.9052 -76.9045
   -76.9042 -76.9003 -76.8993 -76.8982 -76.8971 -76.8932 -76.8927 -76.8922
   -76.8921 -76.8921 -76.8918 -76.8908 -76.8898 -76.8889 -76.8887 -76.8881
   -76.8877 -76.8869 -76.8860 -76.8849 -76.7235 -76.7233 -76.7225 -76.7224
   -76.7221 -76.7219 -76.7197 -76.7185 -76.7180 -76.7170 -76.7120 -76.7118
   -76.7111 -76.7109 -76.7108 -76.7099 -76.7097 -76.7092 -76.7082 -76.7080
   -76.7071 -76.7033 -76.7018 -76.7008 -76.7004 -76.6995 -76.6988 -76.6919
   -76.6912 -76.6904 -76.6805 -76.6801 -76.6795 -76.6790 -76.6785 -76.6781
   -76.6467 -76.6247 -76.6152 -76.6139 -76.6054 -76.6039 -76.5916 -76.5899
   -76.5852 -76.5780 -76.5777 -76.5763 -76.5076 -76.5053 -76.5008 -76.4966
   -76.4946 -76.4936 -76.4902 -76.4895 -76.4862 -76.4831 -76.4758 -76.4695
   -15.4044 -13.9556 -13.1537 -10.8011 -10.6950  -7.7669  -7.5163  -5.6002
    -5.3474  -5.0440  -4.9956  -4.9335  -4.5205  -4.4011  -4.3732  -4.3427
    -4.3235  -4.3138  -4.3136  -4.2865  -4.2446  -4.2292  -4.2087  -4.2068
    -4.2056  -4.2033  -4.1938  -4.1823  -4.1070  -4.0949  -4.0787  -4.0774
    -4.0738  -4.0637  -4.0594  -4.0564  -4.0285  -4.0178  -4.0073  -4.0060
    -3.9880  -3.9849  -3.9610  -3.9487  -3.9466  -3.9244  -3.9206  -3.9076
    -3.8961  -3.8854  -3.8808  -3.8733  -3.8593  -3.8408  -3.8305  -3.8251
    -3.8239  -3.8179  -3.8138  -3.7954  -3.7815  -3.7810  -3.7594  -3.7454
    -3.7449  -3.7416  -3.7380  -3.7298  -3.7114  -3.7069  -3.7026  -3.6826
    -3.6749  -3.6631  -3.6513  -3.6487  -3.6350  -3.6320  -3.6316  -3.6219
    -3.6190  -3.6179  -3.6075  -3.5980  -3.5804  -3.5729  -3.5536  -3.5455
    -3.5418  -3.5352  -3.5260  -3.5253  -3.5178  -3.5108  -3.4865  -3.4855
    -3.4691  -3.4585  -3.4432  -3.4422  -3.4411  -3.4294  -3.4183  -3.4105
    -3.3993  -3.3921  -3.3875  -3.3720  -3.3715  -3.3703  -3.3596  -3.3552
    -3.3496  -3.3427  -3.3405  -3.3316  -3.3283  -3.3213  -3.3102  -3.3036
    -3.2933  -3.2911  -3.2883  -3.2795  -3.2620  -3.2506  -3.2489  -3.2470
    -3.2421  -3.2366  -3.2306  -3.2220  -3.2213  -3.2179  -3.2141  -3.2063
    -3.1919  -3.1877  -3.1868  -3.1819  -3.1703  -3.1630  -3.1592  -3.1490
    -3.1436  -3.1413  -3.1407  -3.1282  -3.1253  -3.1188  -3.1137  -3.1090
    -3.1077  -3.1021  -3.0946  -3.0883  -3.0816  -3.0767  -3.0742  -3.0664
    -3.0635  -3.0549  -3.0517  -3.0494  -3.0298  -3.0161  -3.0010  -2.9888
    -2.9796  -2.9652  -2.9431  -2.9303  -2.9244  -2.8958  -2.8750  -2.7955
    -2.6367  -2.4880  -2.2441  -2.0381  -1.9301  -1.8330  -1.8144  -1.6708
    -1.4346  -1.3582  -0.8868  -0.8080  -0.6136  -0.2471  -0.2132  -0.1204
     0.0371   0.1447   0.3219   0.4509   0.4568   0.6156   0.8087   0.8536
     0.9049   1.4775   1.5483   1.8462   2.1790   2.2168   2.5797   2.6000
     2.6634   2.6912   2.7657   3.2734   3.9645   4.1422   4.2531   4.3155
     4.7004   4.8949   5.0584   5.0974   5.2878   5.3400   5.8137   6.0107
     6.1085   6.1613   6.3165   6.3612   6.3884   6.5914   6.6153   6.8834
     6.9282   7.0838   7.1746   7.2244   7.5872   7.6089   7.6246   7.6449
     7.8103   8.0330   8.0741   8.1196   8.1239   8.2038   8.3054   8.4608
     8.4994   8.6048   8.7308   8.8107   8.8236   9.0040   9.1200   9.3248
     9.3934   9.4558   9.5074   9.5456   9.5897   9.6658   9.8000   9.8699
     9.9771  10.0317  10.0983  10.1429  10.2308  10.3024  10.3514  10.4736
    10.5060  10.5735  10.6743  10.7727  10.8905  11.0196  11.0602  11.1653
    11.2138  11.2629

     occupation numbers 
     1.0000   1.0000   1.0000   1.0000   1.0000   1.0000   1.0000   1.0000
     1.0000   1.0000   1.0000   1.0000   1.0000   1.0000   1.0000   1.0000
     1.0000   1.0000   1.0000   1.0000   1.0000   1.0000   1.0000   1.0000
     1.0000   1.0000   1.0000   1.0000   1.0000   1.0000   1.0000   1.0000
     1.0000   1.0000   1.0000   1.0000   1.0000   1.0000   1.0000   1.0000
     1.0000   1.0000   1.0000   1.0000   1.0000   1.0000   1.0000   1.0000
     1.0000   1.0000   1.0000   1.0000   1.0000   1.0000   1.0000   1.0000
     1.0000   1.0000   1.0000   1.0000   1.0000   1.0000   1.0000   1.0000
     1.0000   1.0000   1.0000   1.0000   1.0000   1.0000   1.0000   1.0000
     1.0000   1.0000   1.0000   1.0000   1.0000   1.0000   1.0000   1.0000
     1.0000   1.0000   1.0000   1.0000   1.0000   1.0000   1.0000   1.0000
     1.0000   1.0000   1.0000   1.0000   1.0000   1.0000   1.0000   1.0000
     1.0000   1.0000   1.0000   1.0000   1.0000   1.0000   1.0000   1.0000
     1.0000   1.0000   1.0000   1.0000   1.0000   1.0000   1.0000   1.0000
     1.0000   1.0000   1.0000   1.0000   1.0000   1.0000   1.0000   1.0000
     1.0000   1.0000   1.0000   1.0000   1.0000   1.0000   1.0000   1.0000
     1.0000   1.0000   1.0000   1.0000   1.0000   1.0000   1.0000   1.0000
     1.0000   1.0000   1.0000   1.0000   1.0000   1.0000   1.0000   1.0000
     1.0000   1.0000   1.0000   1.0000   1.0000   1.0000   1.0000   1.0000
     1.0000   1.0000   1.0000   1.0000   1.0000   1.0000   1.0000   1.0000
     1.0000   1.0000   1.0000   1.0000   1.0000   1.0000   1.0000   1.0000
     1.0000   1.0000   1.0000   1.0000   1.0000   1.0000   1.0000   1.0000
     1.0000   1.0000   1.0000   1.0000   1.0000   1.0000   1.0000   1.0000
     1.0000   1.0000   1.0000   1.0000   1.0000   1.0000   1.0000   1.0000
     1.0000   1.0000   1.0000   1.0000   1.0000   1.0000   1.0000   1.0000
     1.0000   1.0000   1.0000   1.0000   1.0000   1.0000   1.0000   1.0000
     1.0000   1.0000   1.0000   1.0000   1.0000   1.0000   1.0000   1.0000
     1.0000   1.0000   1.0000   1.0000   1.0000   1.0000   1.0000   1.0000
     1.0000   1.0000   1.0000   1.0000   1.0000   1.0000   1.0000   1.0000
     1.0000   1.0000   1.0000   1.0000   1.0000   1.0000   1.0000   1.0000
     1.0000   1.0000   1.0000   1.0000   1.0000   1.0000   1.0000   1.0000
     1.0000   1.0000   1.0000   1.0000   1.0000   1.0000   1.0000   1.0000
     1.0000   1.0000   1.0000   1.0000   1.0000   1.0000   1.0000   1.0000
     1.0000   1.0000   1.0000   1.0000   1.0000   1.0000   1.0000   1.0000
     1.0000   1.0000   1.0000   1.0000   1.0000   1.0000   1.0000   1.0000
     1.0000   1.0000   1.0000   1.0000   1.0000   1.0000   1.0000   1.0000
     1.0000   1.0000   1.0000   1.0000   1.0000   1.0000   1.0000   1.0000
     1.0000   1.0000   1.0000   1.0000   1.0000   1.0000   1.0000   1.0000
     1.0000   1.0000   1.0000   1.0000   1.0000   1.0000   1.0000   1.0000
     1.0000   1.0000   1.0000   1.0000   1.0000   1.0000   1.0000   1.0000
     1.0000   1.0000   1.0000   1.0000   1.0000   1.0000   1.0000   1.0000
     1.0000   1.0000   1.0000   1.0000   1.0000   1.0000   1.0000   1.0000
     1.0000   1.0000   1.0000   1.0031   0.6123   0.1915   0.0630   0.0294
     0.0000   0.0000   0.0000   0.0000   0.0000   0.0000   0.0000   0.0000
     0.0000   0.0000   0.0000   0.0000   0.0000   0.0000   0.0000   0.0000
     0.0000   0.0000   0.0000   0.0000   0.0000   0.0000   0.0000   0.0000
     0.0000   0.0000   0.0000   0.0000   0.0000   0.0000   0.0000   0.0000
     0.0000   0.0000   0.0000   0.0000   0.0000   0.0000   0.0000   0.0000
     0.0000   0.0000   0.0000   0.0000   0.0000   0.0000   0.0000   0.0000
     0.0000   0.0000   0.0000   0.0000   0.0000   0.0000   0.0000   0.0000
     0.0000   0.0000   0.0000   0.0000   0.0000   0.0000   0.0000   0.0000
     0.0000   0.0000

          k = 0.3333-0.6213-0.3587 ( 47356 PWs)   bands (ev):

  -122.8040-122.8020-122.8015-122.8001-122.7560-122.7550-122.7430-122.7420
  -122.7395-122.7386-122.7384-122.7374-122.5654-122.5652-122.5644-122.5643
  -122.5559-122.5550-122.5482-122.5473-122.5422-122.5410-122.5406-122.5396
  -122.4774-122.4455-122.4374-122.4359-122.3443-122.3422-122.3376-122.3302
   -76.9636 -76.9615 -76.9585 -76.9563 -76.9556 -76.9538 -76.9511 -76.9490
   -76.9474 -76.9454 -76.9450 -76.9436 -76.9169 -76.9056 -76.9052 -76.9045
   -76.9042 -76.9003 -76.8993 -76.8982 -76.8971 -76.8932 -76.8927 -76.8922
   -76.8921 -76.8921 -76.8918 -76.8908 -76.8898 -76.8889 -76.8887 -76.8881
   -76.8877 -76.8869 -76.8860 -76.8849 -76.7235 -76.7233 -76.7225 -76.7224
   -76.7221 -76.7219 -76.7197 -76.7185 -76.7180 -76.7170 -76.7120 -76.7118
   -76.7111 -76.7109 -76.7108 -76.7099 -76.7097 -76.7091 -76.7082 -76.7080
   -76.7071 -76.7033 -76.7018 -76.7008 -76.7004 -76.6995 -76.6988 -76.6919
   -76.6912 -76.6904 -76.6806 -76.6801 -76.6795 -76.6790 -76.6785 -76.6781
   -76.6467 -76.6247 -76.6152 -76.6139 -76.6054 -76.6039 -76.5916 -76.5899
   -76.5852 -76.5780 -76.5777 -76.5763 -76.5076 -76.5053 -76.5008 -76.4966
   -76.4946 -76.4936 -76.4902 -76.4895 -76.4862 -76.4831 -76.4758 -76.4695
   -15.4044 -13.9556 -13.1537 -10.8011 -10.6950  -7.7669  -7.5163  -5.6002
    -5.3474  -5.0441  -4.9956  -4.9335  -4.5206  -4.4011  -4.3732  -4.3427
    -4.3235  -4.3137  -4.3137  -4.2865  -4.2446  -4.2292  -4.2087  -4.2068
    -4.2056  -4.2033  -4.1938  -4.1822  -4.1070  -4.0950  -4.0787  -4.0775
    -4.0738  -4.0636  -4.0594  -4.0564  -4.0284  -4.0179  -4.0075  -4.0058
    -3.9878  -3.9850  -3.9611  -3.9487  -3.9466  -3.9243  -3.9206  -3.9075
    -3.8961  -3.8854  -3.8808  -3.8733  -3.8593  -3.8409  -3.8303  -3.8252
    -3.8241  -3.8179  -3.8138  -3.7955  -3.7814  -3.7810  -3.7593  -3.7453
    -3.7448  -3.7415  -3.7380  -3.7298  -3.7115  -3.7071  -3.7025  -3.6823
    -3.6750  -3.6631  -3.6514  -3.6487  -3.6349  -3.6318  -3.6316  -3.6221
    -3.6194  -3.6171  -3.6076  -3.5983  -3.5802  -3.5728  -3.5536  -3.5454
    -3.5418  -3.5359  -3.5259  -3.5248  -3.5178  -3.5110  -3.4864  -3.4855
    -3.4690  -3.4585  -3.4432  -3.4420  -3.4412  -3.4292  -3.4185  -3.4105
    -3.3992  -3.3920  -3.3877  -3.3721  -3.3715  -3.3704  -3.3593  -3.3553
    -3.3496  -3.3428  -3.3404  -3.3318  -3.3279  -3.3213  -3.3102  -3.3034
    -3.2928  -3.2912  -3.2889  -3.2794  -3.2619  -3.2506  -3.2487  -3.2472
    -3.2420  -3.2366  -3.2306  -3.2222  -3.2209  -3.2182  -3.2145  -3.2063
    -3.1921  -3.1881  -3.1874  -3.1808  -3.1701  -3.1633  -3.1591  -3.1492
    -3.1444  -3.1415  -3.1395  -3.1283  -3.1253  -3.1187  -3.1137  -3.1090
    -3.1077  -3.1024  -3.0949  -3.0878  -3.0820  -3.0767  -3.0740  -3.0665
    -3.0624  -3.0555  -3.0522  -3.0488  -3.0290  -3.0163  -3.0001  -2.9905
    -2.9771  -2.9677  -2.9444  -2.9311  -2.9230  -2.8957  -2.8752  -2.7943
    -2.6366  -2.4879  -2.2442  -2.0387  -1.9300  -1.8325  -1.8143  -1.6708
    -1.4345  -1.3584  -0.8869  -0.8081  -0.6134  -0.2466  -0.2132  -0.1206
     0.0370   0.1436   0.3209   0.4502   0.4557   0.6205   0.8083   0.8527
     0.9048   1.4774   1.5483   1.8467   2.1774   2.2175   2.5770   2.5944
     2.6499   2.7138   2.7686   3.2697   3.9647   4.1422   4.2525   4.3153
     4.7006   4.8949   5.0581   5.0975   5.2882   5.3381   5.8134   6.0108
     6.1083   6.2066   6.2684   6.3705   6.3856   6.5916   6.6162   6.8834
     6.9280   7.0864   7.1686   7.2143   7.5875   7.6050   7.6327   7.6539
     7.7890   8.0305   8.0491   8.1248   8.1304   8.2408   8.3088   8.4424
     8.4611   8.6452   8.7276   8.8209   8.8592   8.9862   9.1439   9.2621
     9.3693   9.4203   9.4791   9.5381   9.5516   9.6798   9.7988   9.9052
    10.0055  10.0740  10.1384  10.2504  10.2958  10.3304  10.4190  10.4477
    10.4986  10.5700  10.6461  10.7315  10.9104  10.9346  11.0269  11.0593
    11.2372  11.2656

     occupation numbers 
     1.0000   1.0000   1.0000   1.0000   1.0000   1.0000   1.0000   1.0000
     1.0000   1.0000   1.0000   1.0000   1.0000   1.0000   1.0000   1.0000
     1.0000   1.0000   1.0000   1.0000   1.0000   1.0000   1.0000   1.0000
     1.0000   1.0000   1.0000   1.0000   1.0000   1.0000   1.0000   1.0000
     1.0000   1.0000   1.0000   1.0000   1.0000   1.0000   1.0000   1.0000
     1.0000   1.0000   1.0000   1.0000   1.0000   1.0000   1.0000   1.0000
     1.0000   1.0000   1.0000   1.0000   1.0000   1.0000   1.0000   1.0000
     1.0000   1.0000   1.0000   1.0000   1.0000   1.0000   1.0000   1.0000
     1.0000   1.0000   1.0000   1.0000   1.0000   1.0000   1.0000   1.0000
     1.0000   1.0000   1.0000   1.0000   1.0000   1.0000   1.0000   1.0000
     1.0000   1.0000   1.0000   1.0000   1.0000   1.0000   1.0000   1.0000
     1.0000   1.0000   1.0000   1.0000   1.0000   1.0000   1.0000   1.0000
     1.0000   1.0000   1.0000   1.0000   1.0000   1.0000   1.0000   1.0000
     1.0000   1.0000   1.0000   1.0000   1.0000   1.0000   1.0000   1.0000
     1.0000   1.0000   1.0000   1.0000   1.0000   1.0000   1.0000   1.0000
     1.0000   1.0000   1.0000   1.0000   1.0000   1.0000   1.0000   1.0000
     1.0000   1.0000   1.0000   1.0000   1.0000   1.0000   1.0000   1.0000
     1.0000   1.0000   1.0000   1.0000   1.0000   1.0000   1.0000   1.0000
     1.0000   1.0000   1.0000   1.0000   1.0000   1.0000   1.0000   1.0000
     1.0000   1.0000   1.0000   1.0000   1.0000   1.0000   1.0000   1.0000
     1.0000   1.0000   1.0000   1.0000   1.0000   1.0000   1.0000   1.0000
     1.0000   1.0000   1.0000   1.0000   1.0000   1.0000   1.0000   1.0000
     1.0000   1.0000   1.0000   1.0000   1.0000   1.0000   1.0000   1.0000
     1.0000   1.0000   1.0000   1.0000   1.0000   1.0000   1.0000   1.0000
     1.0000   1.0000   1.0000   1.0000   1.0000   1.0000   1.0000   1.0000
     1.0000   1.0000   1.0000   1.0000   1.0000   1.0000   1.0000   1.0000
     1.0000   1.0000   1.0000   1.0000   1.0000   1.0000   1.0000   1.0000
     1.0000   1.0000   1.0000   1.0000   1.0000   1.0000   1.0000   1.0000
     1.0000   1.0000   1.0000   1.0000   1.0000   1.0000   1.0000   1.0000
     1.0000   1.0000   1.0000   1.0000   1.0000   1.0000   1.0000   1.0000
     1.0000   1.0000   1.0000   1.0000   1.0000   1.0000   1.0000   1.0000
     1.0000   1.0000   1.0000   1.0000   1.0000   1.0000   1.0000   1.0000
     1.0000   1.0000   1.0000   1.0000   1.0000   1.0000   1.0000   1.0000
     1.0000   1.0000   1.0000   1.0000   1.0000   1.0000   1.0000   1.0000
     1.0000   1.0000   1.0000   1.0000   1.0000   1.0000   1.0000   1.0000
     1.0000   1.0000   1.0000   1.0000   1.0000   1.0000   1.0000   1.0000
     1.0000   1.0000   1.0000   1.0000   1.0000   1.0000   1.0000   1.0000
     1.0000   1.0000   1.0000   1.0000   1.0000   1.0000   1.0000   1.0000
     1.0000   1.0000   1.0000   1.0000   1.0000   1.0000   1.0000   1.0000
     1.0000   1.0000   1.0000   1.0000   1.0000   1.0000   1.0000   1.0000
     1.0000   1.0000   1.0000   1.0000   1.0000   1.0000   1.0000   1.0000
     1.0000   1.0000   1.0000   1.0000   1.0000   1.0000   1.0000   1.0000
     1.0000   1.0000   1.0000   1.0029   0.6115   0.1917   0.0635   0.0295
     0.0000   0.0000   0.0000   0.0000   0.0000   0.0000   0.0000   0.0000
     0.0000   0.0000   0.0000   0.0000   0.0000   0.0000   0.0000   0.0000
     0.0000   0.0000   0.0000   0.0000   0.0000   0.0000   0.0000   0.0000
     0.0000   0.0000   0.0000   0.0000   0.0000   0.0000   0.0000   0.0000
     0.0000   0.0000   0.0000   0.0000   0.0000   0.0000   0.0000   0.0000
     0.0000   0.0000   0.0000   0.0000   0.0000   0.0000   0.0000   0.0000
     0.0000   0.0000   0.0000   0.0000   0.0000   0.0000   0.0000   0.0000
     0.0000   0.0000   0.0000   0.0000   0.0000   0.0000   0.0000   0.0000
     0.0000   0.0000

     the Fermi energy is     4.0432 ev

!    total energy              =  -14945.91110538 Ry
     estimated scf accuracy    <       0.00000073 Ry
     smearing contrib. (-TS)   =      -0.01067980 Ry
     internal energy E=F+TS    =  -14945.90042558 Ry

     The total energy is F=E-TS. E is the sum of the following terms:
     one-electron contribution =  -73639.15886387 Ry
     hartree contribution      =   36848.36834872 Ry
     xc contribution           =   -1396.15329267 Ry
     ewald contribution        =   23284.22089465 Ry
     one-center paw contrib.   =     -43.17751242 Ry
      -> PAW hartree energy AE =       0.00000000 Ry
      -> PAW hartree energy PS =       0.00000000 Ry
      -> PAW xc energy AE      =       0.00000000 Ry
      -> PAW xc energy PS      =       0.00000000 Ry
      -> total E_H with PAW    =   36848.36834872 Ry
      -> total E_XC with PAW   =   -1396.15329267 Ry

     convergence has been achieved in  20 iterations

     negative rho (up, down):  8.742E-04 0.000E+00

     Forces acting on atoms (cartesian axes, Ry/au):

     atom    1 type  1   force =     0.00126446    0.00007909   -0.00804221
     atom    2 type  1   force =     0.00125699   -0.00004554    0.03244121
     atom    3 type  1   force =     0.00026584    0.00002433   -0.00067338
     atom    4 type  1   force =    -0.00035224    0.00003328   -0.00005725
     atom    5 type  1   force =     0.00123192   -0.00009398   -0.00780402
     atom    6 type  1   force =     0.00130537   -0.00004283    0.03253108
     atom    7 type  1   force =     0.00023253    0.00008388   -0.00069064
     atom    8 type  1   force =    -0.00032159    0.00004031   -0.00005604
     atom    9 type  1   force =    -0.00128669   -0.00005258   -0.00827226
     atom   10 type  1   force =    -0.00127669   -0.00007611    0.03243976
     atom   11 type  1   force =    -0.00023532    0.00009293   -0.00039551
     atom   12 type  1   force =     0.00044756    0.00011204    0.00022296
     atom   13 type  1   force =    -0.00123892    0.00003612   -0.00803949
     atom   14 type  1   force =    -0.00121188   -0.00001312    0.03242448
     atom   15 type  1   force =    -0.00020710    0.00003181   -0.00038254
     atom   16 type  1   force =     0.00043119    0.00003547    0.00015971
     atom   17 type  1   force =    -0.00035670   -0.00002795   -0.02988587
     atom   18 type  1   force =    -0.00039512   -0.00015777    0.00544150
     atom   19 type  1   force =    -0.00029853    0.00014613   -0.00129384
     atom   20 type  1   force =    -0.00007984    0.00007260   -0.00064891
     atom   21 type  1   force =    -0.00033162    0.00001979   -0.02993100
     atom   22 type  1   force =    -0.00040438   -0.00016094    0.00540590
     atom   23 type  1   force =    -0.00029474   -0.00004408   -0.00130891
     atom   24 type  1   force =    -0.00013678    0.00008938   -0.00001241
     atom   25 type  1   force =     0.00033897   -0.00001359   -0.03048297
     atom   26 type  1   force =     0.00048427   -0.00014693    0.00711550
     atom   27 type  1   force =     0.00036691    0.00004844   -0.00006806
     atom   28 type  1   force =     0.00021780    0.00010533   -0.00002094
     atom   29 type  1   force =     0.00041349   -0.00000007   -0.03044078
     atom   30 type  1   force =     0.00050803   -0.00015933    0.00718661
     atom   31 type  1   force =     0.00037006    0.00003147   -0.00006174
     atom   32 type  1   force =     0.00017430    0.00000853   -0.00015489
     atom   33 type  2   force =     0.00151232   -0.00187645    0.02575313
     atom   34 type  2   force =    -0.00120044    0.00005807    0.00147181
     atom   35 type  2   force =     0.00119874   -0.00015482   -0.00013681
     atom   36 type  2   force =    -0.00221197   -0.00104457    0.00320448
     atom   37 type  2   force =    -0.00057027   -0.00188341   -0.00204821
     atom   38 type  2   force =    -0.00019950   -0.00024782   -0.00233644
     atom   39 type  2   force =     0.00157065    0.00236397    0.00337993
     atom   40 type  3   force =    -0.00061719    0.00200701   -0.02741298
     atom   41 type  3   force =     0.00306927   -0.00277199   -0.00769846
     atom   42 type  4   force =     0.00465541    0.00753135    0.00487913
     atom   43 type  4   force =    -0.00773229   -0.00431533    0.00453030
     atom   44 type  4   force =    -0.00352826   -0.00316002   -0.00280079
     atom   45 type  4   force =     0.00306972    0.00369838   -0.00276742
     atom   46 type  4   force =     0.00286892    0.00283288    0.00268731
     atom   47 type  4   force =    -0.00276666   -0.00309333    0.00264995
     The non-local contrib.  to forces
     atom    1 type  1   force =     0.00146067   -0.00096203   -0.18251424
     atom    2 type  1   force =     0.00121640   -0.00029679    0.06344882
     atom    3 type  1   force =     0.00230543   -0.00258775   -0.05447142
     atom    4 type  1   force =     0.00211922    0.00087646   -0.08058715
     atom    5 type  1   force =     0.00164087    0.00061044   -0.17963578
     atom    6 type  1   force =     0.00128013   -0.00145048    0.06340550
     atom    7 type  1   force =    -0.00070982    0.00261221   -0.05791489
     atom    8 type  1   force =     0.00241230    0.00067738   -0.06560590
     atom    9 type  1   force =    -0.00065032    0.00032893   -0.18410122
     atom   10 type  1   force =    -0.00093410   -0.00017716    0.06319864
     atom   11 type  1   force =    -0.00464256    0.00141942   -0.05433750
     atom   12 type  1   force =    -0.00223741    0.00359573   -0.06966617
     atom   13 type  1   force =    -0.00117892   -0.00065621   -0.18095894
     atom   14 type  1   force =    -0.00115267   -0.00155600    0.06340555
     atom   15 type  1   force =    -0.00114246   -0.00086559   -0.05715224
     atom   16 type  1   force =    -0.00101346   -0.00084324   -0.07931752
     atom   17 type  1   force =    -0.00032916    0.00013865    0.02020981
     atom   18 type  1   force =     0.00004204   -0.00062345   -0.00755820
     atom   19 type  1   force =     0.00061618    0.00209456   -0.00985734
     atom   20 type  1   force =     0.00194956    0.00088852    0.06825720
     atom   21 type  1   force =     0.00008013   -0.00075310    0.01936982
     atom   22 type  1   force =     0.00032684   -0.00082174   -0.00507558
     atom   23 type  1   force =     0.00016230   -0.00050315   -0.00848878
     atom   24 type  1   force =    -0.00019889    0.00093057    0.06444538
     atom   25 type  1   force =     0.00017533   -0.00011099    0.02088776
     atom   26 type  1   force =     0.00024237   -0.00100958   -0.00428760
     atom   27 type  1   force =    -0.00008536    0.00078197   -0.00256345
     atom   28 type  1   force =    -0.00100745    0.00100216    0.07733281
     atom   29 type  1   force =    -0.00013505   -0.00051384    0.02077605
     atom   30 type  1   force =     0.00035928   -0.00029873   -0.00195322
     atom   31 type  1   force =    -0.00223156    0.00061269   -0.00223945
     atom   32 type  1   force =    -0.00110666   -0.00023312    0.07658026
     atom   33 type  2   force =    -0.00479669    0.01611704   -0.24076985
     atom   34 type  2   force =     0.00604577   -0.01743087    0.26682832
     atom   35 type  2   force =    -0.02404361   -0.03475156    0.01606127
     atom   36 type  2   force =     0.02683524    0.02823398    0.02203229
     atom   37 type  2   force =     0.02211309    0.02786348   -0.04940622
     atom   38 type  2   force =    -0.02049154   -0.02718120   -0.05368047
     atom   39 type  2   force =    -0.03174066    0.04996517   -0.31684671
     atom   40 type  3   force =    -0.04027848    0.12506064   -1.80837785
     atom   41 type  3   force =     0.54361720   -0.55441311    0.14148185
     atom   42 type  4   force =     0.04390237    0.06976507    0.05165448
     atom   43 type  4   force =    -0.07257429   -0.04372080    0.04793005
     atom   44 type  4   force =    -0.04796753   -0.04597569   -0.04075307
     atom   45 type  4   force =     0.04506937    0.05159515   -0.03713159
     atom   46 type  4   force =     0.04728447    0.04560982    0.03855512
     atom   47 type  4   force =    -0.04465905   -0.05069904    0.03498170
     The ionic contribution  to forces
     atom    1 type  1   force =    -1.04250724    0.00369189 -401.76310907
     atom    2 type  1   force =    -0.45218865   -0.00526943 -158.20311089
     atom    3 type  1   force =    -0.87126035    0.10091838   95.01211370
     atom    4 type  1   force =    -3.00547623   -0.22704563  343.77086071
     atom    5 type  1   force =    -1.01183518   -0.00362581 -401.83179791
     atom    6 type  1   force =    -0.45491265   -0.00991661 -158.20151034
     atom    7 type  1   force =    -0.88294047   -0.09728531   95.17245933
     atom    8 type  1   force =    -3.04944866    0.23494426  345.06642313
     atom    9 type  1   force =     1.04605455    0.00300216 -401.72043153
     atom   10 type  1   force =     0.46947977   -0.02200568 -158.12833205
     atom   11 type  1   force =     0.88301911   -0.04105259   95.17490119
     atom   12 type  1   force =     2.92148406   -0.18760998  345.11391788
     atom   13 type  1   force =     1.01482216   -0.00293149 -401.79042234
     atom   14 type  1   force =     0.47404430    0.00605896 -158.13131948
     atom   15 type  1   force =     0.85708059    0.04840772   95.17653152
     atom   16 type  1   force =     2.96223568    0.19476354  344.42509422
     atom   17 type  1   force =     0.00392762   -0.02872315 -341.07224468
     atom   18 type  1   force =     0.05786631    0.00489344  -88.98577719
     atom   19 type  1   force =     0.19769425   -0.27646100  136.50719782
     atom   20 type  1   force =     0.49819599    0.09402896  358.70052538
     atom   21 type  1   force =     0.00368861    0.02869403 -341.07961354
     atom   22 type  1   force =     0.04886619   -0.03215850  -89.07555470
     atom   23 type  1   force =     0.11258049    0.29142440  136.62094837
     atom   24 type  1   force =     0.47787134   -0.07146686  353.91063511
     atom   25 type  1   force =    -0.00680674   -0.00603759 -342.08261882
     atom   26 type  1   force =    -0.07881477   -0.01976736  -88.46330889
     atom   27 type  1   force =    -0.22602924    0.00347459  139.33446575
     atom   28 type  1   force =    -0.35099918    0.03548264  364.76828129
     atom   29 type  1   force =    -0.00671032    0.00601070 -342.08268636
     atom   30 type  1   force =    -0.06298063   -0.00391301  -88.45354673
[...]
     atom   25 type  1   force =     0.00631172    0.00612883  342.03113418
     atom   26 type  1   force =     0.07820868    0.02062548   88.47417522
     atom   27 type  1   force =     0.22570160   -0.00421144 -139.33222237
     atom   28 type  1   force =     0.35184663   -0.03638759 -364.84645992
     atom   29 type  1   force =     0.00659737   -0.00550034  342.03135524
     atom   30 type  1   force =     0.06228039    0.00404710   88.46215163
     atom   31 type  1   force =     0.11737424   -0.00910298 -139.30830345
     atom   32 type  1   force =     0.41051598    0.02507658 -364.90545498
     atom   33 type  2   force =    -0.03585093   -0.13600364   16.54965451
     atom   34 type  2   force =    -0.14312417    0.12524552   -6.34183318
     atom   35 type  2   force =    -5.36179772   -3.03257408  -15.10157432
     atom   36 type  2   force =     5.17286113    3.28977806  -15.80685503
     atom   37 type  2   force =     5.40759579    3.10682951  -29.74287000
     atom   38 type  2   force =    -5.28806158   -3.28679370  -29.05226547
     atom   39 type  2   force =    -0.01018165    0.00077558  -39.36335892
     atom   40 type  3   force =    -0.25201870    0.54225389   32.17961826
     atom   41 type  3   force =     0.98379253   -0.99017740  -68.01611772
     atom   42 type  4   force =     1.55729738    2.06349202  -14.61397111
     atom   43 type  4   force =    -2.45974268   -1.33974994  -14.59093403
     atom   44 type  4   force =    -2.45622302   -1.53491281   -2.57338674
     atom   45 type  4   force =     2.37575372    1.69322117   -2.87468588
     atom   46 type  4   force =     2.46250032    1.56384043   -8.60732925
     atom   47 type  4   force =    -2.39697692   -1.70295271   -8.31370262
     The core correction contribution to forces
     atom    1 type  1   force =     0.00000000    0.00000000    0.00000000
     atom    2 type  1   force =     0.00000000    0.00000000    0.00000000
     atom    3 type  1   force =     0.00000000    0.00000000    0.00000000
     atom    4 type  1   force =     0.00000000    0.00000000    0.00000000
     atom    5 type  1   force =     0.00000000    0.00000000    0.00000000
     atom    6 type  1   force =     0.00000000    0.00000000    0.00000000
     atom    7 type  1   force =     0.00000000    0.00000000    0.00000000
     atom    8 type  1   force =     0.00000000    0.00000000    0.00000000
     atom    9 type  1   force =     0.00000000    0.00000000    0.00000000
     atom   10 type  1   force =     0.00000000    0.00000000    0.00000000
     atom   11 type  1   force =     0.00000000    0.00000000    0.00000000
     atom   12 type  1   force =     0.00000000    0.00000000    0.00000000
     atom   13 type  1   force =     0.00000000    0.00000000    0.00000000
     atom   14 type  1   force =     0.00000000    0.00000000    0.00000000
     atom   15 type  1   force =     0.00000000    0.00000000    0.00000000
     atom   16 type  1   force =     0.00000000    0.00000000    0.00000000
     atom   17 type  1   force =     0.00000000    0.00000000    0.00000000
     atom   18 type  1   force =     0.00000000    0.00000000    0.00000000
     atom   19 type  1   force =     0.00000000    0.00000000    0.00000000
     atom   20 type  1   force =     0.00000000    0.00000000    0.00000000
     atom   21 type  1   force =     0.00000000    0.00000000    0.00000000
     atom   22 type  1   force =     0.00000000    0.00000000    0.00000000
     atom   23 type  1   force =     0.00000000    0.00000000    0.00000000
     atom   24 type  1   force =     0.00000000    0.00000000    0.00000000
     atom   25 type  1   force =     0.00000000    0.00000000    0.00000000
     atom   26 type  1   force =     0.00000000    0.00000000    0.00000000
     atom   27 type  1   force =     0.00000000    0.00000000    0.00000000
     atom   28 type  1   force =     0.00000000    0.00000000    0.00000000
     atom   29 type  1   force =     0.00000000    0.00000000    0.00000000
     atom   30 type  1   force =     0.00000000    0.00000000    0.00000000
     atom   31 type  1   force =     0.00000000    0.00000000    0.00000000
     atom   32 type  1   force =     0.00000000    0.00000000    0.00000000
     atom   33 type  2   force =     0.00016796   -0.00110673    0.01711098
     atom   34 type  2   force =    -0.00058772    0.00025608   -0.00568079
     atom   35 type  2   force =    -0.00014810   -0.00033549   -0.00185165
     atom   36 type  2   force =     0.00012422    0.00040717   -0.00154950
     atom   37 type  2   force =     0.00115168    0.00058436    0.00237599
     atom   38 type  2   force =    -0.00114425   -0.00063571    0.00226884
     atom   39 type  2   force =    -0.00003180   -0.00103594    0.00639658
     atom   40 type  3   force =     0.00021098   -0.00064985    0.00938317
     atom   41 type  3   force =    -0.00416027    0.00424317   -0.00115651
     atom   42 type  4   force =     0.00000000    0.00000000    0.00000000
     atom   43 type  4   force =     0.00000000    0.00000000    0.00000000
     atom   44 type  4   force =     0.00000000    0.00000000    0.00000000
     atom   45 type  4   force =     0.00000000    0.00000000    0.00000000
     atom   46 type  4   force =     0.00000000    0.00000000    0.00000000
     atom   47 type  4   force =     0.00000000    0.00000000    0.00000000
     The Hubbard contrib.    to forces
     atom    1 type  1   force =     0.00000000    0.00000000    0.00000000
     atom    2 type  1   force =     0.00000000    0.00000000    0.00000000
     atom    3 type  1   force =     0.00000000    0.00000000    0.00000000
     atom    4 type  1   force =     0.00000000    0.00000000    0.00000000
     atom    5 type  1   force =     0.00000000    0.00000000    0.00000000
     atom    6 type  1   force =     0.00000000    0.00000000    0.00000000
     atom    7 type  1   force =     0.00000000    0.00000000    0.00000000
     atom    8 type  1   force =     0.00000000    0.00000000    0.00000000
     atom    9 type  1   force =     0.00000000    0.00000000    0.00000000
     atom   10 type  1   force =     0.00000000    0.00000000    0.00000000
     atom   11 type  1   force =     0.00000000    0.00000000    0.00000000
     atom   12 type  1   force =     0.00000000    0.00000000    0.00000000
     atom   13 type  1   force =     0.00000000    0.00000000    0.00000000
     atom   14 type  1   force =     0.00000000    0.00000000    0.00000000
     atom   15 type  1   force =     0.00000000    0.00000000    0.00000000
     atom   16 type  1   force =     0.00000000    0.00000000    0.00000000
     atom   17 type  1   force =     0.00000000    0.00000000    0.00000000
     atom   18 type  1   force =     0.00000000    0.00000000    0.00000000
     atom   19 type  1   force =     0.00000000    0.00000000    0.00000000
     atom   20 type  1   force =     0.00000000    0.00000000    0.00000000
     atom   21 type  1   force =     0.00000000    0.00000000    0.00000000
     atom   22 type  1   force =     0.00000000    0.00000000    0.00000000
     atom   23 type  1   force =     0.00000000    0.00000000    0.00000000
     atom   24 type  1   force =     0.00000000    0.00000000    0.00000000
     atom   25 type  1   force =     0.00000000    0.00000000    0.00000000
     atom   26 type  1   force =     0.00000000    0.00000000    0.00000000
     atom   27 type  1   force =     0.00000000    0.00000000    0.00000000
     atom   28 type  1   force =     0.00000000    0.00000000    0.00000000
     atom   29 type  1   force =     0.00000000    0.00000000    0.00000000
     atom   30 type  1   force =     0.00000000    0.00000000    0.00000000
     atom   31 type  1   force =     0.00000000    0.00000000    0.00000000
     atom   32 type  1   force =     0.00000000    0.00000000    0.00000000
     atom   33 type  2   force =     0.00000000    0.00000000    0.00000000
     atom   34 type  2   force =     0.00000000    0.00000000    0.00000000
     atom   35 type  2   force =     0.00000000    0.00000000    0.00000000
     atom   36 type  2   force =     0.00000000    0.00000000    0.00000000
     atom   37 type  2   force =     0.00000000    0.00000000    0.00000000
     atom   38 type  2   force =     0.00000000    0.00000000    0.00000000
     atom   39 type  2   force =     0.00000000    0.00000000    0.00000000
     atom   40 type  3   force =     0.00000000    0.00000000    0.00000000
     atom   41 type  3   force =     0.00000000    0.00000000    0.00000000
     atom   42 type  4   force =     0.00000000    0.00000000    0.00000000
     atom   43 type  4   force =     0.00000000    0.00000000    0.00000000
     atom   44 type  4   force =     0.00000000    0.00000000    0.00000000
     atom   45 type  4   force =     0.00000000    0.00000000    0.00000000
     atom   46 type  4   force =     0.00000000    0.00000000    0.00000000
     atom   47 type  4   force =     0.00000000    0.00000000    0.00000000
     The SCF correction term to forces
     atom    1 type  1   force =     0.00000000    0.00000000    0.00000000
     atom    2 type  1   force =     0.00000000    0.00000000    0.00000000
     atom    3 type  1   force =     0.00089972   -0.00000466   -0.00128967
     atom    4 type  1   force =    -0.00057381    0.00000318    0.00018160
     atom    5 type  1   force =     0.00000000   -0.00000000    0.00000000
     atom    6 type  1   force =     0.00000000   -0.00000000    0.00000000
     atom    7 type  1   force =     0.00090656    0.00000442   -0.00128638
     atom    8 type  1   force =    -0.00056977   -0.00000390    0.00018760
     atom    9 type  1   force =    -0.00000000   -0.00000000    0.00000000
     atom   10 type  1   force =    -0.00000000   -0.00000000    0.00000000
     atom   11 type  1   force =    -0.00085574    0.00000088   -0.00088387
     atom   12 type  1   force =     0.00058881   -0.00000033    0.00073328
     atom   13 type  1   force =    -0.00000000    0.00000000    0.00000000
     atom   14 type  1   force =    -0.00000000    0.00000000    0.00000000
     atom   15 type  1   force =    -0.00086477   -0.00000092   -0.00087815
     atom   16 type  1   force =     0.00057861    0.00000090    0.00073511
     atom   17 type  1   force =    -0.00000000    0.00000000    0.00000000
     atom   18 type  1   force =    -0.00000000    0.00000000   -0.00000000
     atom   19 type  1   force =    -0.00076843   -0.00002071   -0.00214543
     atom   20 type  1   force =    -0.00037881   -0.00001219    0.00019251
     atom   21 type  1   force =    -0.00000000   -0.00000000    0.00000000
     atom   22 type  1   force =    -0.00000000    0.00000000   -0.00000000
     atom   23 type  1   force =    -0.00076496    0.00001991   -0.00213149
     atom   24 type  1   force =    -0.00039205    0.00001277    0.00018406
     atom   25 type  1   force =     0.00000000    0.00000000    0.00000000
     atom   26 type  1   force =     0.00000000   -0.00000000    0.00000000
     atom   27 type  1   force =     0.00075765   -0.00000178    0.00025155
     atom   28 type  1   force =     0.00035554    0.00000301    0.00082442
     atom   29 type  1   force =     0.00000000   -0.00000000    0.00000000
     atom   30 type  1   force =     0.00000000    0.00000000    0.00000000
     atom   31 type  1   force =     0.00075629    0.00000231    0.00024897
     atom   32 type  1   force =     0.00035332   -0.00000252    0.00081929
     atom   33 type  2   force =     0.00000639   -0.00002211    0.00040337
     atom   34 type  2   force =     0.00000403   -0.00000394    0.00013291
     atom   35 type  2   force =     0.00007888    0.00006579   -0.00001257
     atom   36 type  2   force =    -0.00008383   -0.00006247   -0.00002732
     atom   37 type  2   force =    -0.00007237   -0.00003712   -0.00019574
     atom   38 type  2   force =     0.00005131    0.00005931   -0.00018392
     atom   39 type  2   force =    -0.00002264    0.00001553   -0.00020394
     atom   40 type  3   force =    -0.00000258   -0.00001320    0.00028059
     atom   41 type  3   force =    -0.00003630    0.00001994   -0.00003106
     atom   42 type  4   force =     0.00000608    0.00002398    0.00002089
     atom   43 type  4   force =    -0.00002540   -0.00001248    0.00002125
     atom   44 type  4   force =     0.00003023    0.00002323    0.00002098
     atom   45 type  4   force =    -0.00003067   -0.00002584    0.00001789
     atom   46 type  4   force =    -0.00000429    0.00000223   -0.00001914
     atom   47 type  4   force =     0.00000270   -0.00000013   -0.00001836

     Total force =     0.043270     Total SCF correction =     0.004944
     SCF correction compared to forces is large: reduce conv_thr to get better values


     Computing stress (Cartesian axis) and pressure


     negative rho (up, down):  8.742E-04 0.000E+00
          total   stress  (Ry/bohr**3)                   (kbar)     P=      -11.75
  -0.00010605  -0.00000585  -0.00000057          -15.60       -0.86       -0.08
  -0.00000585  -0.00015809   0.00000031           -0.86      -23.26        0.05
  -0.00000057   0.00000031   0.00002459           -0.08        0.05        3.62

     kinetic stress (kbar)  16965.91    -62.91     -3.09
                              -62.91  16900.60      4.74
                               -3.09      4.74  16881.37

     local   stress (kbar)**********  -1103.30   -261.21
                            -1103.30**********    194.64
                             -261.21    194.641142367.97

     nonloc. stress (kbar)  -1467.14      4.48      0.77
                                4.48  -1437.57     -1.11
                                0.77     -1.11  -1469.11

     hartree stress (kbar) 600906.04    361.57    106.75
                              361.57 610751.39    -67.67
                              106.75    -67.67-528026.71

     exc-cor stress (kbar)  -8104.81      3.11      0.31
                                3.11  -8100.29     -0.42
                                0.31     -0.42  -8102.49

     corecor stress (kbar)   -159.06     -0.95     -0.12
                               -0.95   -159.13      0.15
                               -0.12      0.15   -160.86

     ewald   stress (kbar) 520493.63    797.13    156.50
                              797.13 532974.29   -130.28
                              156.50   -130.28-621486.55

     hubbard stress (kbar)      0.00      0.00      0.00
                                0.00      0.00      0.00
                                0.00      0.00      0.00

     DFT-D   stress (kbar)      0.00      0.00      0.00
                                0.00      0.00      0.00
                                0.00      0.00      0.00

     XDM     stress (kbar)      0.00      0.00      0.00
                                0.00      0.00      0.00
                                0.00      0.00      0.00

     dft-nl  stress (kbar)      0.00      0.00      0.00
                                0.00      0.00      0.00
                                0.00      0.00      0.00

     TS-vdW  stress (kbar)      0.00      0.00      0.00
                                0.00      0.00      0.00
                                0.00      0.00      0.00

     MDB     stress (kbar)      0.00      0.00      0.00
                                0.00      0.00      0.00
                                0.00      0.00      0.00

     3D-RISM stress (kbar)      0.00      0.00      0.00
                                0.00      0.00      0.00
                                0.00      0.00      0.00


     Writing all to output data dir ./tmp/Zn100_2x2x4_scf_ABN.save/ :
     XML data file, charge density, pseudopotentials, collected wavefunctions

     init_run     :     23.78s CPU     24.00s WALL (       1 calls)
     electrons    :   1937.30s CPU   1950.22s WALL (       1 calls)
     forces       :     22.09s CPU     22.22s WALL (       1 calls)
     stress       :     60.94s CPU     61.23s WALL (       1 calls)

     Called by init_run:
     wfcinit      :     23.33s CPU     23.52s WALL (       1 calls)
     wfcinit:atom :      0.02s CPU      0.04s WALL (       5 calls)
     wfcinit:wfcr :     23.00s CPU     23.13s WALL (       5 calls)
     potinit      :      0.09s CPU      0.10s WALL (       1 calls)
     hinit0       :      0.05s CPU      0.06s WALL (       1 calls)

     Called by electrons:
     c_bands      :   1801.96s CPU   1813.73s WALL (      20 calls)
     sum_band     :    128.46s CPU    129.37s WALL (      20 calls)
     v_of_rho     :      0.47s CPU      0.50s WALL (      21 calls)
     v_h          :      0.02s CPU      0.03s WALL (      21 calls)
     v_xc         :      0.49s CPU      0.52s WALL (      23 calls)
     newd         :      5.09s CPU      5.29s WALL (      21 calls)
     PAW_pot      :      1.48s CPU      1.48s WALL (      21 calls)
     mix_rho      :      0.11s CPU      0.12s WALL (      20 calls)

     Called by c_bands:
     init_us_2    :      2.86s CPU      2.87s WALL (     215 calls)
     cegterg      :   1796.83s CPU   1808.53s WALL (     100 calls)

     Called by sum_band:
     sum_band:wei :      0.04s CPU      0.04s WALL (      20 calls)
     sum_band:loo :    124.63s CPU    125.36s WALL (      20 calls)
     sum_band:buf :      0.46s CPU      0.47s WALL (     100 calls)
     sum_band:ini :      1.31s CPU      1.32s WALL (     100 calls)
     sum_band:cal :    103.21s CPU    103.75s WALL (     100 calls)
     sum_band:bec :      1.02s CPU      1.02s WALL (     100 calls)
     addusdens    :      3.63s CPU      3.79s WALL (      20 calls)
                                        0.00s GPU  (      20 calls)
     addusd:skk   :      0.05s CPU      0.05s WALL (      80 calls)
                                        0.00s GPU  (      80 calls)

     Called by *egterg:
     cdiaghg      :    183.76s CPU    187.64s WALL (     747 calls)
     cegterg:over :    278.16s CPU    279.21s WALL (     647 calls)
     cegterg:upda :    105.58s CPU    105.99s WALL (     647 calls)
     cegterg:last :    400.35s CPU    402.08s WALL (     224 calls)
     cdiaghg:chol :     10.56s CPU     10.59s WALL (     747 calls)
     cdiaghg:inve :      2.45s CPU      2.46s WALL (     747 calls)
     cdiaghg:para :     48.64s CPU     49.95s WALL (    1494 calls)
     h_psi        :    563.45s CPU    566.75s WALL (     752 calls)
     s_psi        :    214.86s CPU    215.38s WALL (     752 calls)
     g_psi        :      0.41s CPU      0.41s WALL (     647 calls)

     Called by h_psi:
     h_psi:calbec :    254.52s CPU    255.93s WALL (     752 calls)
     vloc_psi     :     90.74s CPU     91.43s WALL (     752 calls)
     add_vuspsi   :    217.43s CPU    218.09s WALL (     752 calls)

     General routines
     calbec       :    384.10s CPU    386.20s WALL (     877 calls)
     fft          :      0.35s CPU      0.40s WALL (     256 calls)
     ffts         :      0.02s CPU      0.02s WALL (      20 calls)
     fftw         :    101.98s CPU    102.80s WALL (  243566 calls)

     Parallel routines

     PAW routines
     PAW_pot      :      1.48s CPU      1.48s WALL (      21 calls)

     PWSCF        :  34m 4.93s CPU  34m20.62s WALL


   This run was terminated on:   8:54:48  17Mar2025            

=------------------------------------------------------------------------------=
   JOB DONE.
=------------------------------------------------------------------------------=
Note: The following floating-point exceptions are signalling: IEEE_DENORMAL
Note: The following floating-point exceptions are signalling: IEEE_DENORMAL
Note: The following floating-point exceptions are signalling: IEEE_DENORMAL
Note: The following floating-point exceptions are signalling: IEEE_DENORMAL
Note: The following floating-point exceptions are signalling: IEEE_DENORMAL
Note: The following floating-point exceptions are signalling: IEEE_DENORMAL
Note: The following floating-point exceptions are signalling: IEEE_DENORMAL
