
     Program PWSCF v.7.3.1 starts on 27Mar2025 at  2:14:19 

     This program is part of the open-source Quantum ESPRESSO suite
     for quantum simulation of materials; please cite
         "P. Giannozzi et al., J. Phys.:Condens. Matter 21 395502 (2009);
         "P. Giannozzi et al., J. Phys.:Condens. Matter 29 465901 (2017);
         "P. Giannozzi et al., J. Chem. Phys. 152 154105 (2020);
          URL http://www.quantum-espresso.org", 
     in publications or presentations arising from this work. More details at
     http://www.quantum-espresso.org/quote

     Parallel version (MPI), running on    33 processors

     MPI processes distributed on     1 nodes
     108935 MiB available memory on the printing compute node when the environment starts

     Waiting for input...
     Reading input from standard input

     Current dimensions of program PWSCF are:
     Max number of different atomic species (ntypx) = 10
     Max number of k-points (npk) =  40000
     Max angular momentum in pseudopotentials (lmaxx) =  4
     Found identity + ( -0.5000  0.0000  0.0000) symmetry
     This is a supercell, fractional translations are disabled

     R & G space division:  proc/nbgrp/npool/nimage =      33
     Subspace diagonalization in iterative solution of the eigenvalue problem:
     one sub-group per band group will be used
     custom distributed-memory algorithm (size of sub-group:  5*  5 procs)


     Parallelization info
     --------------------
     sticks:   dense  smooth     PW     G-vecs:    dense   smooth      PW
     Min         228     130     36                36393    15714    2270
     Max         230     131     37                36401    15723    2280
     Sum        7555    4303   1189              1201061   518755   75035

     Using Slab Decomposition



     bravais-lattice index     =            0
     lattice parameter (alat)  =      19.7617  a.u.
     unit-cell volume          =   15176.5939 (a.u.)^3
     number of atoms/cell      =           48
     number of atomic types    =            1
     number of electrons       =       960.00
     number of Kohn-Sham states=          576
     kinetic-energy cutoff     =      40.0000  Ry
     charge density cutoff     =     280.0000  Ry
     scf convergence threshold =      1.0E-05
     mixing beta               =       0.4000
     number of iterations used =            8  plain     mixing
     Exchange-correlation= SLA  PW   PBE  PBE
                           (   1   4   3   4   0   0   0)

     celldm(1)=  19.761696  celldm(2)=   0.000000  celldm(3)=   0.000000
     celldm(4)=   0.000000  celldm(5)=   0.000000  celldm(6)=   0.000000

     crystal axes: (cart. coord. in units of alat)
               a(1) = (   1.000000   0.000000   0.000000 )  
               a(2) = (  -0.500000   0.866025   0.000000 )  
               a(3) = (   0.000000   0.000000   2.270759 )  

     reciprocal axes: (cart. coord. in units 2 pi/alat)
               b(1) = (  1.000000  0.577350 -0.000000 )  
               b(2) = (  0.000000  1.154701  0.000000 )  
               b(3) = (  0.000000 -0.000000  0.440381 )  


     PseudoPot. # 1 for Zn read from file:
     /home/ys/qepseudo/SSSP_1.3.0_PBE_efficiency/Zn_pbe_v1.uspp.F.UPF
     MD5 check sum: df62231357ef9e81f77b2b3087fa5675
     Pseudo is Ultrasoft, Zval = 20.0
     Generated by new atomic code, or converted to UPF format
     Using radial grid of  943 points,  6 beta functions with: 
                l(1) =   0
                l(2) =   0
                l(3) =   1
                l(4) =   1
                l(5) =   2
                l(6) =   2
     Q(r) pseudized with  8 coefficients,  rinner =    1.100   1.100   1.100
                                                       1.100   1.100

     atomic species   valence    mass     pseudopotential
     Zn               20.00    65.38000     Zn( 1.00)

     No symmetry found


                                    s                        frac. trans.

      isym =  1     identity                                     

 cryst.   s( 1) = (     1          0          0      )
                  (     0          1          0      )
                  (     0          0          1      )

 cart.    s( 1) = (  1.0000000  0.0000000  0.0000000 )
                  (  0.0000000  1.0000000  0.0000000 )
                  (  0.0000000  0.0000000  1.0000000 )


   Cartesian axes

     site n.     atom                  positions (alat units)
         1        Zn     tau(   1) = (   0.0000000   0.1443375   0.1164998  )
         2        Zn     tau(   2) = (   0.5000000   0.1443375   0.1164998  )
         3        Zn     tau(   3) = (   0.0000000   0.1443375   0.5824993  )
         4        Zn     tau(   4) = (   0.5000000   0.1443375   0.5824993  )
         5        Zn     tau(   5) = (  -0.1250000   0.3608439   0.1164998  )
         6        Zn     tau(   6) = (   0.3750000   0.3608439   0.1164998  )
         7        Zn     tau(   7) = (  -0.1250000   0.3608439   0.5824993  )
         8        Zn     tau(   8) = (   0.3750000   0.3608439   0.5824993  )
         9        Zn     tau(   9) = (  -0.2500000   0.5773502   0.1164998  )
        10        Zn     tau(  10) = (   0.2500000   0.5773502   0.1164998  )
        11        Zn     tau(  11) = (  -0.2500000   0.5773502   0.5824993  )
        12        Zn     tau(  12) = (   0.2500000   0.5773502   0.5824993  )
        13        Zn     tau(  13) = (  -0.3750000   0.7938567   0.1164998  )
        14        Zn     tau(  14) = (   0.1250000   0.7938567   0.1164998  )
        15        Zn     tau(  15) = (  -0.3750000   0.7938567   0.5824993  )
        16        Zn     tau(  16) = (   0.1250000   0.7938567   0.5824993  )
        17        Zn     tau(  17) = (   0.2500000   0.1443375   0.1164998  )
        18        Zn     tau(  18) = (   0.7500000   0.1443375   0.1164998  )
        19        Zn     tau(  19) = (   0.2500000   0.1443375   0.5824993  )
        20        Zn     tau(  20) = (   0.7500000   0.1443375   0.5824993  )
        21        Zn     tau(  21) = (   0.1250000   0.3608439   0.1164998  )
        22        Zn     tau(  22) = (   0.6250000   0.3608439   0.1164998  )
        23        Zn     tau(  23) = (   0.1250000   0.3608439   0.5824993  )
        24        Zn     tau(  24) = (   0.6250000   0.3608439   0.5824993  )
        25        Zn     tau(  25) = (   0.0000000   0.5773502   0.1164998  )
        26        Zn     tau(  26) = (   0.5000000   0.5773502   0.1164998  )
        27        Zn     tau(  27) = (   0.0000000   0.5773502   0.5824993  )
        28        Zn     tau(  28) = (   0.5000000   0.5773502   0.5824993  )
        29        Zn     tau(  29) = (  -0.1250000   0.7938567   0.1164998  )
        30        Zn     tau(  30) = (   0.3750000   0.7938567   0.1164998  )
        31        Zn     tau(  31) = (  -0.1250000   0.7938567   0.5824993  )
        32        Zn     tau(  32) = (   0.3750000   0.7938567   0.5824993  )
        33        Zn     tau(  33) = (   0.1250000   0.0721688   0.3494996  )
        34        Zn     tau(  34) = (   0.6250000   0.0721688   0.3494996  )
        35        Zn     tau(  35) = (   0.0000000   0.2886752   0.3494996  )
        36        Zn     tau(  36) = (   0.5000000   0.2886752   0.3494996  )
        37        Zn     tau(  37) = (  -0.1250000   0.5051815   0.3494996  )
        38        Zn     tau(  38) = (   0.3750000   0.5051815   0.3494996  )
        39        Zn     tau(  39) = (  -0.2500000   0.7216879   0.3494996  )
        40        Zn     tau(  40) = (   0.2500000   0.7216879   0.3494996  )
        41        Zn     tau(  41) = (   0.3750000   0.0721688   0.3494996  )
        42        Zn     tau(  42) = (   0.8750000   0.0721688   0.3494996  )
        43        Zn     tau(  43) = (   0.2500000   0.2886752   0.3494996  )
        44        Zn     tau(  44) = (   0.7500000   0.2886752   0.3494996  )
        45        Zn     tau(  45) = (   0.1250000   0.5051815   0.3494996  )
        46        Zn     tau(  46) = (   0.6250000   0.5051815   0.3494996  )
        47        Zn     tau(  47) = (   0.0000000   0.7216879   0.3494996  )
        48        Zn     tau(  48) = (   0.5000000   0.7216879   0.3494996  )

   Crystallographic axes

     site n.     atom                  positions (cryst. coord.)
         1        Zn     tau(   1) = (  0.0833333  0.1666666  0.0513044  )
         2        Zn     tau(   2) = (  0.5833333  0.1666666  0.0513044  )
         3        Zn     tau(   3) = (  0.0833333  0.1666666  0.2565219  )
         4        Zn     tau(   4) = (  0.5833333  0.1666666  0.2565219  )
         5        Zn     tau(   5) = (  0.0833333  0.4166666  0.0513044  )
         6        Zn     tau(   6) = (  0.5833333  0.4166666  0.0513044  )
         7        Zn     tau(   7) = (  0.0833333  0.4166666  0.2565219  )
         8        Zn     tau(   8) = (  0.5833333  0.4166666  0.2565219  )
         9        Zn     tau(   9) = (  0.0833333  0.6666666  0.0513044  )
        10        Zn     tau(  10) = (  0.5833333  0.6666666  0.0513044  )
        11        Zn     tau(  11) = (  0.0833333  0.6666666  0.2565219  )
        12        Zn     tau(  12) = (  0.5833333  0.6666666  0.2565219  )
        13        Zn     tau(  13) = (  0.0833333  0.9166667  0.0513044  )
        14        Zn     tau(  14) = (  0.5833334  0.9166667  0.0513044  )
        15        Zn     tau(  15) = (  0.0833333  0.9166667  0.2565219  )
        16        Zn     tau(  16) = (  0.5833334  0.9166667  0.2565219  )
        17        Zn     tau(  17) = (  0.3333333  0.1666666  0.0513044  )
        18        Zn     tau(  18) = (  0.8333334  0.1666666  0.0513044  )
        19        Zn     tau(  19) = (  0.3333333  0.1666666  0.2565219  )
        20        Zn     tau(  20) = (  0.8333334  0.1666666  0.2565219  )
        21        Zn     tau(  21) = (  0.3333333  0.4166666  0.0513044  )
        22        Zn     tau(  22) = (  0.8333333  0.4166666  0.0513044  )
        23        Zn     tau(  23) = (  0.3333333  0.4166666  0.2565219  )
        24        Zn     tau(  24) = (  0.8333333  0.4166666  0.2565219  )
        25        Zn     tau(  25) = (  0.3333333  0.6666666  0.0513044  )
        26        Zn     tau(  26) = (  0.8333333  0.6666666  0.0513044  )
        27        Zn     tau(  27) = (  0.3333333  0.6666666  0.2565219  )
        28        Zn     tau(  28) = (  0.8333333  0.6666666  0.2565219  )
        29        Zn     tau(  29) = (  0.3333334  0.9166667  0.0513044  )
        30        Zn     tau(  30) = (  0.8333334  0.9166667  0.0513044  )
        31        Zn     tau(  31) = (  0.3333334  0.9166667  0.2565219  )
        32        Zn     tau(  32) = (  0.8333334  0.9166667  0.2565219  )
        33        Zn     tau(  33) = (  0.1666667  0.0833334  0.1539131  )
        34        Zn     tau(  34) = (  0.6666667  0.0833334  0.1539131  )
        35        Zn     tau(  35) = (  0.1666667  0.3333334  0.1539131  )
        36        Zn     tau(  36) = (  0.6666667  0.3333334  0.1539131  )
        37        Zn     tau(  37) = (  0.1666667  0.5833334  0.1539131  )
        38        Zn     tau(  38) = (  0.6666667  0.5833334  0.1539131  )
        39        Zn     tau(  39) = (  0.1666667  0.8333334  0.1539131  )
        40        Zn     tau(  40) = (  0.6666667  0.8333334  0.1539131  )
        41        Zn     tau(  41) = (  0.4166667  0.0833334  0.1539131  )
        42        Zn     tau(  42) = (  0.9166667  0.0833334  0.1539131  )
        43        Zn     tau(  43) = (  0.4166667  0.3333334  0.1539131  )
        44        Zn     tau(  44) = (  0.9166667  0.3333334  0.1539131  )
        45        Zn     tau(  45) = (  0.4166667  0.5833334  0.1539131  )
        46        Zn     tau(  46) = (  0.9166667  0.5833334  0.1539131  )
        47        Zn     tau(  47) = (  0.4166667  0.8333334  0.1539131  )
        48        Zn     tau(  48) = (  0.9166667  0.8333334  0.1539131  )

     number of k points=    20  Marzari-Vanderbilt smearing, width (Ry)=  0.0200
                       cart. coord. in units 2pi/alat
        k(    1) = (   0.0000000   0.0000000   0.0000000), wk =   0.0555556
        k(    2) = (   0.0000000   0.1924501   0.0000000), wk =   0.1111111
        k(    3) = (   0.0000000   0.3849002   0.0000000), wk =   0.1111111
        k(    4) = (   0.0000000  -0.5773503   0.0000000), wk =   0.0555556
        k(    5) = (   0.1666667   0.0962250   0.0000000), wk =   0.1111111
        k(    6) = (   0.1666667   0.2886751   0.0000000), wk =   0.1111111
        k(    7) = (   0.1666667   0.4811252   0.0000000), wk =   0.1111111
        k(    8) = (   0.1666667  -0.4811252   0.0000000), wk =   0.1111111
        k(    9) = (   0.1666667  -0.2886751   0.0000000), wk =   0.1111111
        k(   10) = (   0.1666667  -0.0962250   0.0000000), wk =   0.1111111
        k(   11) = (   0.3333333   0.1924501   0.0000000), wk =   0.1111111
        k(   12) = (   0.3333333   0.3849002   0.0000000), wk =   0.1111111
        k(   13) = (   0.3333333   0.5773503   0.0000000), wk =   0.1111111
        k(   14) = (   0.3333333  -0.3849002   0.0000000), wk =   0.1111111
        k(   15) = (   0.3333333  -0.1924501   0.0000000), wk =   0.1111111
        k(   16) = (   0.3333333   0.0000000   0.0000000), wk =   0.1111111
        k(   17) = (  -0.5000000  -0.2886751   0.0000000), wk =   0.0555556
        k(   18) = (  -0.5000000  -0.0962250   0.0000000), wk =   0.1111111
        k(   19) = (  -0.5000000   0.0962250   0.0000000), wk =   0.1111111
        k(   20) = (  -0.5000000  -0.8660254   0.0000000), wk =   0.0555556

                       cryst. coord.
        k(    1) = (   0.0000000   0.0000000   0.0000000), wk =   0.0555556
        k(    2) = (   0.0000000   0.1666667   0.0000000), wk =   0.1111111
        k(    3) = (   0.0000000   0.3333333   0.0000000), wk =   0.1111111
        k(    4) = (   0.0000000  -0.5000000   0.0000000), wk =   0.0555556
        k(    5) = (   0.1666667   0.0000000   0.0000000), wk =   0.1111111
        k(    6) = (   0.1666667   0.1666667   0.0000000), wk =   0.1111111
        k(    7) = (   0.1666667   0.3333333   0.0000000), wk =   0.1111111
        k(    8) = (   0.1666667  -0.5000000   0.0000000), wk =   0.1111111
        k(    9) = (   0.1666667  -0.3333333   0.0000000), wk =   0.1111111
        k(   10) = (   0.1666667  -0.1666667   0.0000000), wk =   0.1111111
        k(   11) = (   0.3333333   0.0000000   0.0000000), wk =   0.1111111
        k(   12) = (   0.3333333   0.1666667   0.0000000), wk =   0.1111111
        k(   13) = (   0.3333333   0.3333333   0.0000000), wk =   0.1111111
        k(   14) = (   0.3333333  -0.5000000   0.0000000), wk =   0.1111111
        k(   15) = (   0.3333333  -0.3333333   0.0000000), wk =   0.1111111
        k(   16) = (   0.3333333  -0.1666667   0.0000000), wk =   0.1111111
        k(   17) = (  -0.5000000   0.0000000   0.0000000), wk =   0.0555556
        k(   18) = (  -0.5000000   0.1666667   0.0000000), wk =   0.1111111
        k(   19) = (  -0.5000000   0.3333333   0.0000000), wk =   0.1111111
        k(   20) = (  -0.5000000  -0.5000000   0.0000000), wk =   0.0555556

     Dense  grid:  1201061 G-vectors     FFT dimensions: ( 108, 108, 240)

     Smooth grid:   518755 G-vectors     FFT dimensions: (  80,  80, 192)

     Dynamical RAM for                 wfc:      17.26 MB

     Dynamical RAM for     wfc (w. buffer):     362.50 MB

     Dynamical RAM for           str. fact:       0.56 MB

     Dynamical RAM for           local pot:       0.00 MB

     Dynamical RAM for          nlocal pot:      25.89 MB

     Dynamical RAM for                qrad:       1.34 MB

     Dynamical RAM for          rho,v,vnew:       3.80 MB

     Dynamical RAM for               rhoin:       1.27 MB

     Dynamical RAM for            rho*nmix:       8.89 MB

     Dynamical RAM for           G-vectors:       2.20 MB

     Dynamical RAM for          h,s,v(r/c):       2.42 MB

     Dynamical RAM for          <psi|beta>:       7.59 MB

     Dynamical RAM for                 psi:      34.52 MB

     Dynamical RAM for                hpsi:      34.52 MB

     Dynamical RAM for                spsi:      34.52 MB

     Dynamical RAM for      wfcinit/wfcrot:      46.32 MB

     Dynamical RAM for           addusdens:     129.95 MB

     Estimated static dynamical RAM per process >     402.23 MB

     Estimated max dynamical RAM per process >     541.07 MB

     Estimated total dynamical RAM >      17.44 GB

     Initial potential from superposition of free atoms

     starting charge     959.9932, renormalised to     960.0000

     negative rho (up, down):  4.194E-03 0.000E+00
     Starting wfcs are  624 randomized atomic wfcs

     total cpu time spent up to now is      225.6 secs

     Self-consistent Calculation

     iteration #  1     ecut=    40.00 Ry     beta= 0.40
     Davidson diagonalization with overlap

---- Real-time Memory Report at c_bands before calling an iterative solver
           477 MiB given to the printing process from OS
             0 MiB allocation reported by mallinfo(arena+hblkhd)
         95087 MiB available memory on the node where the printing process lives
------------------
     ethr =  1.00E-02,  avg # of iterations =  9.0

     Threshold (ethr) on eigenvalues was too large:
     Diagonalizing with lowered threshold

     Davidson diagonalization with overlap

---- Real-time Memory Report at c_bands before calling an iterative solver
           568 MiB given to the printing process from OS
             0 MiB allocation reported by mallinfo(arena+hblkhd)
         93941 MiB available memory on the node where the printing process lives
------------------
     ethr =  1.61E-04,  avg # of iterations = 10.2

     negative rho (up, down):  4.978E-03 0.000E+00

     total cpu time spent up to now is     1984.5 secs

     total energy              =  -22153.86194827 Ry
     estimated scf accuracy    <       1.57695783 Ry

     iteration #  2     ecut=    40.00 Ry     beta= 0.40
     Davidson diagonalization with overlap

---- Real-time Memory Report at c_bands before calling an iterative solver
           579 MiB given to the printing process from OS
             0 MiB allocation reported by mallinfo(arena+hblkhd)
         93840 MiB available memory on the node where the printing process lives
------------------
     ethr =  1.64E-04,  avg # of iterations =  2.4

     negative rho (up, down):  5.511E-03 0.000E+00

     total cpu time spent up to now is     2840.9 secs

     total energy              =  -22154.24163528 Ry
     estimated scf accuracy    <       0.27906915 Ry

     iteration #  3     ecut=    40.00 Ry     beta= 0.40
     Davidson diagonalization with overlap

---- Real-time Memory Report at c_bands before calling an iterative solver
           582 MiB given to the printing process from OS
             0 MiB allocation reported by mallinfo(arena+hblkhd)
         93812 MiB available memory on the node where the printing process lives
------------------
     c_bands:  3 eigenvalues not converged
     ethr =  2.91E-05,  avg # of iterations =  8.7

     negative rho (up, down):  5.970E-03 0.000E+00

     total cpu time spent up to now is     3621.9 secs

     total energy              =  -22154.25923012 Ry
     estimated scf accuracy    <       0.04699082 Ry

     iteration #  4     ecut=    40.00 Ry     beta= 0.40
     Davidson diagonalization with overlap

---- Real-time Memory Report at c_bands before calling an iterative solver
           583 MiB given to the printing process from OS
             0 MiB allocation reported by mallinfo(arena+hblkhd)
         93794 MiB available memory on the node where the printing process lives
------------------
     ethr =  4.89E-06,  avg # of iterations =  9.4

     negative rho (up, down):  5.979E-03 0.000E+00

     total cpu time spent up to now is     4468.4 secs

     total energy              =  -22154.26087119 Ry
     estimated scf accuracy    <       0.00660563 Ry

     iteration #  5     ecut=    40.00 Ry     beta= 0.40
     Davidson diagonalization with overlap

---- Real-time Memory Report at c_bands before calling an iterative solver
           583 MiB given to the printing process from OS
             0 MiB allocation reported by mallinfo(arena+hblkhd)
         93773 MiB available memory on the node where the printing process lives
------------------
     ethr =  6.88E-07,  avg # of iterations =  2.1

     negative rho (up, down):  6.012E-03 0.000E+00

     total cpu time spent up to now is     5282.1 secs

     total energy              =  -22154.26147730 Ry
     estimated scf accuracy    <       0.00149053 Ry

     iteration #  6     ecut=    40.00 Ry     beta= 0.40
     Davidson diagonalization with overlap

---- Real-time Memory Report at c_bands before calling an iterative solver
           584 MiB given to the printing process from OS
             0 MiB allocation reported by mallinfo(arena+hblkhd)
         93755 MiB available memory on the node where the printing process lives
------------------
     ethr =  1.55E-07,  avg # of iterations =  2.0

     negative rho (up, down):  6.042E-03 0.000E+00

     total cpu time spent up to now is     6048.6 secs

     total energy              =  -22154.26174182 Ry
     estimated scf accuracy    <       0.00006510 Ry

     iteration #  7     ecut=    40.00 Ry     beta= 0.40
     Davidson diagonalization with overlap

---- Real-time Memory Report at c_bands before calling an iterative solver
           584 MiB given to the printing process from OS
             0 MiB allocation reported by mallinfo(arena+hblkhd)
         93737 MiB available memory on the node where the printing process lives
------------------
     ethr =  6.78E-09,  avg # of iterations =  2.0

     negative rho (up, down):  6.065E-03 0.000E+00

     total cpu time spent up to now is     6905.7 secs

     total energy              =  -22154.26173758 Ry
     estimated scf accuracy    <       0.00004025 Ry

     iteration #  8     ecut=    40.00 Ry     beta= 0.40
     Davidson diagonalization with overlap

---- Real-time Memory Report at c_bands before calling an iterative solver
           585 MiB given to the printing process from OS
             0 MiB allocation reported by mallinfo(arena+hblkhd)
         93717 MiB available memory on the node where the printing process lives
------------------
     ethr =  4.19E-09,  avg # of iterations =  2.0

     negative rho (up, down):  6.082E-03 0.000E+00

     total cpu time spent up to now is     7764.4 secs

     total energy              =  -22154.26173986 Ry
     estimated scf accuracy    <       0.00013768 Ry

     iteration #  9     ecut=    40.00 Ry     beta= 0.40
     Davidson diagonalization with overlap

---- Real-time Memory Report at c_bands before calling an iterative solver
           585 MiB given to the printing process from OS
             0 MiB allocation reported by mallinfo(arena+hblkhd)
         93699 MiB available memory on the node where the printing process lives
------------------
     ethr =  4.19E-09,  avg # of iterations =  1.0

     negative rho (up, down):  6.112E-03 0.000E+00

     total cpu time spent up to now is     8356.0 secs

     End of self-consistent calculation

          k = 0.0000 0.0000 0.0000 ( 64855 PWs)   bands (ev):

  -125.0416-125.0399-125.0399-125.0399-125.0399-125.0399-125.0399-125.0382
  -125.0382-125.0382-125.0382-125.0382-125.0382-125.0381-125.0381-125.0381
  -124.8720-124.8716-124.8703-124.8703-124.8703-124.8703-124.8703-124.8703
  -124.8699-124.8699-124.8699-124.8698-124.8698-124.8698-124.8686-124.8686
  -124.8686-124.8686-124.8686-124.8686-124.8686-124.8685-124.8685-124.8681
  -124.8681-124.8681-124.8681-124.8681-124.8681-124.8681-124.8681-124.8681
   -79.2065 -79.2065 -79.2065 -79.1998 -79.1998 -79.1998 -79.1998 -79.1998
   -79.1998 -79.1933 -79.1913 -79.1913 -79.1913 -79.1913 -79.1913 -79.1913
   -79.1893 -79.1893 -79.1893 -79.1893 -79.1893 -79.1893 -79.1893 -79.1893
   -79.1892 -79.1885 -79.1885 -79.1885 -79.1885 -79.1884 -79.1884 -79.1864
   -79.1864 -79.1864 -79.1864 -79.1864 -79.1864 -79.1798 -79.1798 -79.1798
   -79.1751 -79.1751 -79.1751 -79.1751 -79.1751 -79.1751 -79.1704 -79.1704
   -79.0355 -79.0355 -79.0355 -79.0350 -79.0350 -79.0350 -79.0289 -79.0289
   -79.0289 -79.0289 -79.0289 -79.0289 -79.0284 -79.0284 -79.0284 -79.0284
   -79.0284 -79.0284 -79.0283 -79.0278 -79.0264 -79.0264 -79.0264 -79.0264
   -79.0264 -79.0264 -79.0260 -79.0260 -79.0260 -79.0259 -79.0259 -79.0259
   -79.0245 -79.0245 -79.0245 -79.0245 -79.0245 -79.0245 -79.0245 -79.0245
   -79.0245 -79.0241 -79.0241 -79.0241 -79.0241 -79.0241 -79.0240 -79.0240
   -79.0240 -79.0240 -79.0176 -79.0175 -79.0175 -79.0175 -79.0175 -79.0175
   -79.0171 -79.0171 -79.0171 -79.0171 -79.0170 -79.0170 -79.0155 -79.0155
   -79.0155 -79.0155 -79.0155 -79.0155 -79.0151 -79.0151 -79.0150 -79.0150
   -79.0150 -79.0150 -79.0089 -79.0089 -79.0089 -79.0085 -79.0085 -79.0085
   -79.0042 -79.0042 -79.0042 -79.0042 -79.0042 -79.0042 -79.0037 -79.0037
   -79.0037 -79.0037 -79.0037 -79.0037 -78.9995 -78.9995 -78.9990 -78.9990
    -8.6159  -7.4084  -7.0841  -7.0595  -7.0595  -7.0595  -7.0595  -7.0595
    -7.0595  -6.8893  -6.8893  -6.8893  -6.7236  -6.7236  -6.7236  -6.6852
    -6.6852  -6.6852  -6.5801  -6.5801  -6.5801  -6.5801  -6.5801  -6.5801
    -6.5426  -6.5426  -6.5426  -6.5426  -6.5426  -6.5426  -6.5324  -6.5324
    -6.5324  -6.4646  -6.4646  -6.4646  -6.4646  -6.4645  -6.4645  -6.4095
    -6.4095  -6.4095  -6.4095  -6.4095  -6.4095  -6.3348  -6.3348  -6.3348
    -6.3341  -6.3341  -6.3341  -6.3341  -6.3341  -6.3341  -6.2654  -6.2654
    -6.2654  -6.2653  -6.2653  -6.2653  -6.2642  -6.2095  -6.2095  -6.2095
    -6.2095  -6.2095  -6.2095  -6.1687  -6.1687  -6.1687  -6.1687  -6.1687
    -6.1687  -6.1509  -6.1509  -6.1509  -6.1509  -6.1509  -6.1509  -6.1185
    -6.1185  -6.1185  -6.1185  -6.1185  -6.1185  -6.1021  -6.1021  -6.1021
    -6.0946  -6.0946  -6.0808  -6.0808  -6.0808  -6.0808  -6.0808  -6.0808
    -5.9826  -5.9826  -5.9826  -5.9826  -5.9826  -5.9826  -5.9240  -5.9240
    -5.9065  -5.9065  -5.8741  -5.8741  -5.8741  -5.8741  -5.8741  -5.8741
    -5.8634  -5.8634  -5.8634  -5.8634  -5.8634  -5.8634  -5.8165  -5.8165
    -5.8165  -5.7870  -5.7870  -5.7870  -5.7870  -5.7870  -5.7870  -5.7827
    -5.7827  -5.7827  -5.7827  -5.7827  -5.7827  -5.7769  -5.7769  -5.7769
    -5.7769  -5.7769  -5.7769  -5.7582  -5.7582  -5.7582  -5.7582  -5.7582
    -5.7582  -5.7290  -5.7290  -5.7290  -5.7290  -5.7290  -5.7290  -5.7225
    -5.7135  -5.7135  -5.7135  -5.7135  -5.7135  -5.7135  -5.7018  -5.7018
    -5.7018  -5.7018  -5.7018  -5.7018  -5.6937  -5.6937  -5.6937  -5.5925
    -5.5925  -5.5752  -5.5752  -5.5752  -5.5752  -5.5752  -5.5752  -5.5691
    -5.5691  -5.5691  -5.5691  -5.5690  -5.5690  -5.5499  -5.5499  -5.5499
    -5.5499  -5.5499  -5.5499  -5.5378  -5.5378  -5.5378  -5.5115  -5.5115
    -5.5115  -5.5115  -5.5115  -5.5115  -5.5025  -5.5025  -5.5025  -5.5025
    -5.5025  -5.5025  -5.4524  -5.4524  -5.4524  -5.4524  -5.4524  -5.4524
    -5.4339  -5.4339  -5.4339  -5.4299  -5.4299  -5.4299  -5.4019  -5.4019
    -5.4019  -5.3925  -5.3925  -5.3925  -5.3925  -5.3925  -5.3925  -5.3916
    -5.3916  -5.3667  -5.3667  -5.3244  -5.3244  -5.3244  -5.3244  -5.3244
    -5.3244  -5.2850  -5.2850  -5.2850  -5.2850  -5.2850  -5.2850  -5.2529
    -5.2529  -5.2529  -5.0806  -5.0806  -5.0806  -5.0801  -5.0801  -5.0801
    -4.3998  -4.3998  -4.3998  -4.3998  -4.3998  -4.3998  -3.4474  -2.0974
    -2.0974  -2.0974  -2.0974  -2.0974  -2.0974  -2.0165  -2.0165  -2.0165
    -2.0165  -2.0164  -2.0164  -0.8345  -0.8345  -0.8345  -0.7117  -0.6466
    -0.6466  -0.6465  -0.6465  -0.6465  -0.6465  -0.0814  -0.0814  -0.0814
     0.2379   0.2379   0.2379   1.5406   1.5406   1.5406   1.5406   1.5406
     1.5406   1.5814   1.5814   1.5814   1.5814   1.5814   1.5814   2.3029
     2.3029   2.3029   3.1086   3.3063   3.3063   3.3063   4.1453   4.1453
     4.1453   4.8840   4.8840   4.8840   4.8840   4.8840   4.8840   5.0758
     5.2661   5.4274   5.4274   5.4274   5.4274   5.4274   5.4274   5.4397
     5.4397   5.4397   5.4397   5.4397   5.4397   5.6111   5.6111   5.6111
     5.6111   5.6112   5.6112   6.2003   6.3988   6.5625   6.5625   6.5625
     6.8745   6.8745   6.8745   6.8745   6.8745   6.8745   7.0040   7.0040
     7.0040   7.0040   7.0040   7.0040   7.1021   7.1021   7.1021   7.1021
     7.1021   7.1021   7.1824   7.1824   7.1824   7.1824   7.1824   7.1824
     8.0393   8.0393   8.0393   8.0393   8.0393   8.0394   8.1458   8.1458
     8.1458   8.1458   8.1458   8.1458   8.1862   8.1862   8.1862   8.1862
     8.1862   8.1862   8.2072   8.3668   8.3769   8.3769   8.3769   9.2881

     occupation numbers 
     1.0000   1.0000   1.0000   1.0000   1.0000   1.0000   1.0000   1.0000
     1.0000   1.0000   1.0000   1.0000   1.0000   1.0000   1.0000   1.0000
     1.0000   1.0000   1.0000   1.0000   1.0000   1.0000   1.0000   1.0000
     1.0000   1.0000   1.0000   1.0000   1.0000   1.0000   1.0000   1.0000
     1.0000   1.0000   1.0000   1.0000   1.0000   1.0000   1.0000   1.0000
     1.0000   1.0000   1.0000   1.0000   1.0000   1.0000   1.0000   1.0000
     1.0000   1.0000   1.0000   1.0000   1.0000   1.0000   1.0000   1.0000
     1.0000   1.0000   1.0000   1.0000   1.0000   1.0000   1.0000   1.0000
     1.0000   1.0000   1.0000   1.0000   1.0000   1.0000   1.0000   1.0000
     1.0000   1.0000   1.0000   1.0000   1.0000   1.0000   1.0000   1.0000
     1.0000   1.0000   1.0000   1.0000   1.0000   1.0000   1.0000   1.0000
     1.0000   1.0000   1.0000   1.0000   1.0000   1.0000   1.0000   1.0000
     1.0000   1.0000   1.0000   1.0000   1.0000   1.0000   1.0000   1.0000
     1.0000   1.0000   1.0000   1.0000   1.0000   1.0000   1.0000   1.0000
     1.0000   1.0000   1.0000   1.0000   1.0000   1.0000   1.0000   1.0000
     1.0000   1.0000   1.0000   1.0000   1.0000   1.0000   1.0000   1.0000
     1.0000   1.0000   1.0000   1.0000   1.0000   1.0000   1.0000   1.0000
     1.0000   1.0000   1.0000   1.0000   1.0000   1.0000   1.0000   1.0000
     1.0000   1.0000   1.0000   1.0000   1.0000   1.0000   1.0000   1.0000
     1.0000   1.0000   1.0000   1.0000   1.0000   1.0000   1.0000   1.0000
     1.0000   1.0000   1.0000   1.0000   1.0000   1.0000   1.0000   1.0000
     1.0000   1.0000   1.0000   1.0000   1.0000   1.0000   1.0000   1.0000
     1.0000   1.0000   1.0000   1.0000   1.0000   1.0000   1.0000   1.0000
     1.0000   1.0000   1.0000   1.0000   1.0000   1.0000   1.0000   1.0000
     1.0000   1.0000   1.0000   1.0000   1.0000   1.0000   1.0000   1.0000
     1.0000   1.0000   1.0000   1.0000   1.0000   1.0000   1.0000   1.0000
     1.0000   1.0000   1.0000   1.0000   1.0000   1.0000   1.0000   1.0000
     1.0000   1.0000   1.0000   1.0000   1.0000   1.0000   1.0000   1.0000
     1.0000   1.0000   1.0000   1.0000   1.0000   1.0000   1.0000   1.0000
     1.0000   1.0000   1.0000   1.0000   1.0000   1.0000   1.0000   1.0000
     1.0000   1.0000   1.0000   1.0000   1.0000   1.0000   1.0000   1.0000
     1.0000   1.0000   1.0000   1.0000   1.0000   1.0000   1.0000   1.0000
     1.0000   1.0000   1.0000   1.0000   1.0000   1.0000   1.0000   1.0000
     1.0000   1.0000   1.0000   1.0000   1.0000   1.0000   1.0000   1.0000
     1.0000   1.0000   1.0000   1.0000   1.0000   1.0000   1.0000   1.0000
     1.0000   1.0000   1.0000   1.0000   1.0000   1.0000   1.0000   1.0000
     1.0000   1.0000   1.0000   1.0000   1.0000   1.0000   1.0000   1.0000
     1.0000   1.0000   1.0000   1.0000   1.0000   1.0000   1.0000   1.0000
     1.0000   1.0000   1.0000   1.0000   1.0000   1.0000   1.0000   1.0000
     1.0000   1.0000   1.0000   1.0000   1.0000   1.0000   1.0000   1.0000
     1.0000   1.0000   1.0000   1.0000   1.0000   1.0000   1.0000   1.0000
     1.0000   1.0000   1.0000   1.0000   1.0000   1.0000   1.0000   1.0000
     1.0000   1.0000   1.0000   1.0000   1.0000   1.0000   1.0000   1.0000
     1.0000   1.0000   1.0000   1.0000   1.0000   1.0000   1.0000   1.0000
     1.0000   1.0000   1.0000   1.0000   1.0000   1.0000   1.0000   1.0000
     1.0000   1.0000   1.0000   1.0000   1.0000   1.0000   1.0000   1.0000
     1.0000   1.0000   1.0000   1.0000   1.0000   1.0000   1.0000   1.0000
     1.0000   1.0000   1.0000   1.0000   1.0000   1.0000   1.0000   1.0000
     1.0000   1.0000   1.0000   1.0000   1.0000   1.0000   1.0000   1.0000
     1.0000   1.0000   1.0000   1.0000   1.0000   1.0000   1.0000   1.0000
     1.0000   1.0000   1.0000   1.0000   1.0000   1.0000   1.0000   1.0000
     1.0000   1.0000   1.0000   1.0000   1.0000   1.0000   1.0000   1.0000
     1.0000   1.0000   1.0000   1.0000   1.0000   1.0000   1.0000   1.0000
     1.0000   1.0000   1.0000   1.0000   1.0000   1.0000   1.0000   1.0000
     1.0000   1.0000   1.0000   1.0000   1.0000   1.0000   1.0000   1.0000
     1.0000   1.0000   1.0000   1.0000   1.0000   1.0000   1.0000   1.0000
     1.0000   1.0000   1.0000   1.0000   1.0000   1.0000   1.0000   1.0000
     1.0000   1.0000   1.0000   1.0000   1.0000   1.0000   1.0000   1.0000
     1.0000   1.0000   1.0000   1.0000   1.0000   1.0000   1.0000   1.0000
     1.0000   1.0000   1.0000   0.2742   0.2742   0.2742   0.2742   0.2742
     0.2742   0.1974   0.1974   0.1974   0.1974   0.1973   0.1973   0.0000
     0.0000   0.0000   0.0000   0.0000   0.0000   0.0000   0.0000   0.0000
     0.0000   0.0000   0.0000   0.0000   0.0000   0.0000   0.0000   0.0000
     0.0000   0.0000   0.0000   0.0000   0.0000   0.0000   0.0000   0.0000
     0.0000   0.0000   0.0000   0.0000   0.0000   0.0000   0.0000   0.0000
     0.0000   0.0000   0.0000   0.0000   0.0000   0.0000   0.0000   0.0000
     0.0000   0.0000   0.0000   0.0000   0.0000   0.0000   0.0000   0.0000
     0.0000   0.0000   0.0000   0.0000   0.0000   0.0000   0.0000   0.0000
     0.0000   0.0000   0.0000   0.0000   0.0000   0.0000   0.0000   0.0000
     0.0000   0.0000   0.0000   0.0000   0.0000   0.0000   0.0000   0.0000
     0.0000   0.0000   0.0000   0.0000   0.0000   0.0000   0.0000   0.0000
     0.0000   0.0000   0.0000   0.0000   0.0000   0.0000   0.0000   0.0000

          k = 0.0000 0.1925 0.0000 ( 64809 PWs)   bands (ev):

  -125.0416-125.0404-125.0401-125.0401-125.0397-125.0396-125.0394-125.0384
  -125.0384-125.0382-125.0382-125.0382-125.0382-125.0382-125.0380-125.0380
  -124.8720-124.8715-124.8708-124.8705-124.8705-124.8703-124.8701-124.8701
  -124.8700-124.8700-124.8699-124.8696-124.8696-124.8694-124.8688-124.8688
  -124.8686-124.8686-124.8686-124.8686-124.8686-124.8684-124.8684-124.8684
  -124.8684-124.8682-124.8681-124.8681-124.8681-124.8681-124.8679-124.8679
   -79.2061 -79.2061 -79.2059 -79.2005 -79.2004 -79.2002 -79.2002 -79.1989
   -79.1989 -79.1932 -79.1931 -79.1918 -79.1915 -79.1915 -79.1910 -79.1910
   -79.1909 -79.1909 -79.1908 -79.1896 -79.1896 -79.1894 -79.1893 -79.1893
   -79.1893 -79.1893 -79.1891 -79.1891 -79.1886 -79.1886 -79.1863 -79.1863
   -79.1858 -79.1858 -79.1840 -79.1840 -79.1838 -79.1802 -79.1802 -79.1797
   -79.1763 -79.1760 -79.1760 -79.1747 -79.1747 -79.1739 -79.1710 -79.1706
   -79.0352 -79.0352 -79.0349 -79.0347 -79.0347 -79.0344 -79.0295 -79.0295
   -79.0292 -79.0292 -79.0290 -79.0290 -79.0287 -79.0287 -79.0282 -79.0280
   -79.0280 -79.0277 -79.0275 -79.0275 -79.0269 -79.0266 -79.0266 -79.0264
   -79.0262 -79.0262 -79.0261 -79.0261 -79.0259 -79.0257 -79.0257 -79.0255
   -79.0248 -79.0248 -79.0246 -79.0245 -79.0245 -79.0245 -79.0245 -79.0243
   -79.0243 -79.0243 -79.0243 -79.0241 -79.0241 -79.0241 -79.0241 -79.0241
   -79.0238 -79.0238 -79.0222 -79.0217 -79.0200 -79.0200 -79.0195 -79.0195
   -79.0177 -79.0177 -79.0172 -79.0172 -79.0154 -79.0154 -79.0149 -79.0149
   -79.0149 -79.0149 -79.0144 -79.0144 -79.0131 -79.0131 -79.0129 -79.0126
   -79.0126 -79.0124 -79.0093 -79.0093 -79.0088 -79.0088 -79.0088 -79.0083
   -79.0054 -79.0051 -79.0051 -79.0050 -79.0046 -79.0046 -79.0038 -79.0038
   -79.0033 -79.0033 -79.0030 -79.0025 -79.0001 -78.9997 -78.9996 -78.9992
    -8.5630  -7.4147  -7.3635  -7.1905  -7.1905  -7.0558  -6.9085  -6.9085
    -6.8821  -6.8705  -6.8705  -6.8651  -6.7152  -6.7076  -6.7076  -6.6782
    -6.6673  -6.6673  -6.6205  -6.6144  -6.5823  -6.5753  -6.5753  -6.5614
    -6.5614  -6.5585  -6.5400  -6.5400  -6.5247  -6.5247  -6.5237  -6.5212
    -6.5212  -6.4835  -6.4835  -6.4817  -6.4817  -6.4713  -6.4713  -6.4530
    -6.4530  -6.4470  -6.4470  -6.4002  -6.4002  -6.3637  -6.3637  -6.3606
    -6.3606  -6.3372  -6.3296  -6.3276  -6.3276  -6.3198  -6.3198  -6.2994
    -6.2994  -6.2593  -6.2368  -6.2288  -6.2288  -6.2196  -6.2196  -6.2194
    -6.2194  -6.1959  -6.1946  -6.1946  -6.1937  -6.1937  -6.1885  -6.1885
    -6.1869  -6.1744  -6.1744  -6.1667  -6.1618  -6.1618  -6.1604  -6.1604
    -6.1360  -6.1360  -6.1235  -6.1235  -6.1051  -6.1051  -6.1020  -6.0985
    -6.0985  -6.0935  -6.0819  -6.0819  -6.0816  -6.0394  -6.0394  -6.0200
    -6.0200  -5.9573  -5.9573  -5.9569  -5.9569  -5.9412  -5.9340  -5.9321
    -5.9225  -5.9225  -5.9134  -5.9122  -5.9116  -5.9082  -5.8944  -5.8944
    -5.8935  -5.8860  -5.8860  -5.8836  -5.8836  -5.8669  -5.8669  -5.8475
    -5.8475  -5.8234  -5.8234  -5.8133  -5.8049  -5.8018  -5.8018  -5.7933
    -5.7933  -5.7836  -5.7836  -5.7698  -5.7682  -5.7682  -5.7642  -5.7642
    -5.7488  -5.7453  -5.7453  -5.7377  -5.7377  -5.7274  -5.7274  -5.7236
    -5.7236  -5.7223  -5.7219  -5.7204  -5.7204  -5.7192  -5.7192  -5.7081
    -5.7081  -5.7041  -5.7041  -5.7015  -5.7005  -5.7005  -5.6827  -5.6827
    -5.6816  -5.6816  -5.6727  -5.6685  -5.6403  -5.6403  -5.6163  -5.6108
    -5.6108  -5.6023  -5.5991  -5.5991  -5.5958  -5.5859  -5.5838  -5.5694
    -5.5694  -5.5642  -5.5642  -5.5625  -5.5625  -5.5567  -5.5560  -5.5560
    -5.5447  -5.5447  -5.5412  -5.5412  -5.5361  -5.5307  -5.5307  -5.5301
    -5.5301  -5.5067  -5.5067  -5.4627  -5.4613  -5.4613  -5.4473  -5.4473
    -5.4464  -5.4464  -5.4426  -5.4426  -5.4426  -5.4387  -5.4387  -5.4386
    -5.4327  -5.4234  -5.4117  -5.4057  -5.4032  -5.4032  -5.4021  -5.3978
    -5.3978  -5.3961  -5.3961  -5.3938  -5.3862  -5.3794  -5.3675  -5.3671
    -5.3544  -5.3544  -5.3213  -5.3213  -5.3170  -5.3170  -5.3121  -5.3121
    -5.3083  -5.3083  -5.2823  -5.2823  -5.2790  -5.2790  -5.2729  -5.2729
    -5.2677  -5.2274  -5.1070  -5.1070  -5.1041  -5.1041  -5.0959  -5.0953
    -4.8010  -4.5841  -4.5841  -4.0911  -4.0911  -3.8302  -3.4096  -2.9858
    -2.9858  -2.4784  -2.2270  -2.2270  -2.0611  -2.0611  -1.7065  -1.7065
    -1.6765  -1.5593  -1.5593  -1.4425  -1.1020  -1.1020  -1.0961  -1.0961
    -0.6400  -0.6114  -0.6114  -0.3274   0.1273   0.1273   0.2703   0.2703
     0.3600   0.3600   0.6585   0.6712   0.6712   0.9267   1.2880   1.2880
     1.5531   1.5531   1.9854   1.9854   2.3221   2.4433   2.4433   2.5261
     2.5261   2.7266   2.9596   3.0967   3.0967   3.1584   4.1282   4.1282
     4.3467   4.4095   4.4095   4.4897   4.4897   4.5874   4.5874   4.6417
     4.6417   5.0213   5.1260   5.2224   5.2224   5.2570   5.2570   5.3172
     5.3783   5.3783   5.4907   5.4907   5.5006   5.8835   5.8835   6.0134
     6.0496   6.0496   6.2519   6.3279   6.4095   6.4095   6.4369   6.4369
     6.4488   6.5422   6.6272   6.6272   6.7555   6.7555   6.8479   6.8479
     6.9170   6.9170   7.0544   7.0544   7.2185   7.2185   7.4389   7.4389
     7.4569   7.4569   7.4837   7.4992   7.5138   7.5881   7.5881   7.6454
     7.6510   7.6510   7.7758   7.7788   7.7788   7.7890   7.7890   7.9425
     7.9425   8.2586   8.3134   8.3134   8.3182   8.3182   8.4165   8.5195
     8.5195   8.5244   8.5245   8.5968   8.5968   8.6148   8.6148   8.7097

     occupation numbers 
     1.0000   1.0000   1.0000   1.0000   1.0000   1.0000   1.0000   1.0000
     1.0000   1.0000   1.0000   1.0000   1.0000   1.0000   1.0000   1.0000
     1.0000   1.0000   1.0000   1.0000   1.0000   1.0000   1.0000   1.0000
     1.0000   1.0000   1.0000   1.0000   1.0000   1.0000   1.0000   1.0000
     1.0000   1.0000   1.0000   1.0000   1.0000   1.0000   1.0000   1.0000
     1.0000   1.0000   1.0000   1.0000   1.0000   1.0000   1.0000   1.0000
     1.0000   1.0000   1.0000   1.0000   1.0000   1.0000   1.0000   1.0000
     1.0000   1.0000   1.0000   1.0000   1.0000   1.0000   1.0000   1.0000
     1.0000   1.0000   1.0000   1.0000   1.0000   1.0000   1.0000   1.0000
     1.0000   1.0000   1.0000   1.0000   1.0000   1.0000   1.0000   1.0000
     1.0000   1.0000   1.0000   1.0000   1.0000   1.0000   1.0000   1.0000
     1.0000   1.0000   1.0000   1.0000   1.0000   1.0000   1.0000   1.0000
     1.0000   1.0000   1.0000   1.0000   1.0000   1.0000   1.0000   1.0000
     1.0000   1.0000   1.0000   1.0000   1.0000   1.0000   1.0000   1.0000
     1.0000   1.0000   1.0000   1.0000   1.0000   1.0000   1.0000   1.0000
     1.0000   1.0000   1.0000   1.0000   1.0000   1.0000   1.0000   1.0000
     1.0000   1.0000   1.0000   1.0000   1.0000   1.0000   1.0000   1.0000
     1.0000   1.0000   1.0000   1.0000   1.0000   1.0000   1.0000   1.0000
     1.0000   1.0000   1.0000   1.0000   1.0000   1.0000   1.0000   1.0000
     1.0000   1.0000   1.0000   1.0000   1.0000   1.0000   1.0000   1.0000
     1.0000   1.0000   1.0000   1.0000   1.0000   1.0000   1.0000   1.0000
     1.0000   1.0000   1.0000   1.0000   1.0000   1.0000   1.0000   1.0000
     1.0000   1.0000   1.0000   1.0000   1.0000   1.0000   1.0000   1.0000
     1.0000   1.0000   1.0000   1.0000   1.0000   1.0000   1.0000   1.0000
     1.0000   1.0000   1.0000   1.0000   1.0000   1.0000   1.0000   1.0000
     1.0000   1.0000   1.0000   1.0000   1.0000   1.0000   1.0000   1.0000
     1.0000   1.0000   1.0000   1.0000   1.0000   1.0000   1.0000   1.0000
     1.0000   1.0000   1.0000   1.0000   1.0000   1.0000   1.0000   1.0000
     1.0000   1.0000   1.0000   1.0000   1.0000   1.0000   1.0000   1.0000
     1.0000   1.0000   1.0000   1.0000   1.0000   1.0000   1.0000   1.0000
     1.0000   1.0000   1.0000   1.0000   1.0000   1.0000   1.0000   1.0000
     1.0000   1.0000   1.0000   1.0000   1.0000   1.0000   1.0000   1.0000
     1.0000   1.0000   1.0000   1.0000   1.0000   1.0000   1.0000   1.0000
     1.0000   1.0000   1.0000   1.0000   1.0000   1.0000   1.0000   1.0000
     1.0000   1.0000   1.0000   1.0000   1.0000   1.0000   1.0000   1.0000
     1.0000   1.0000   1.0000   1.0000   1.0000   1.0000   1.0000   1.0000
     1.0000   1.0000   1.0000   1.0000   1.0000   1.0000   1.0000   1.0000
     1.0000   1.0000   1.0000   1.0000   1.0000   1.0000   1.0000   1.0000
     1.0000   1.0000   1.0000   1.0000   1.0000   1.0000   1.0000   1.0000
     1.0000   1.0000   1.0000   1.0000   1.0000   1.0000   1.0000   1.0000
     1.0000   1.0000   1.0000   1.0000   1.0000   1.0000   1.0000   1.0000
     1.0000   1.0000   1.0000   1.0000   1.0000   1.0000   1.0000   1.0000
     1.0000   1.0000   1.0000   1.0000   1.0000   1.0000   1.0000   1.0000
     1.0000   1.0000   1.0000   1.0000   1.0000   1.0000   1.0000   1.0000
     1.0000   1.0000   1.0000   1.0000   1.0000   1.0000   1.0000   1.0000
     1.0000   1.0000   1.0000   1.0000   1.0000   1.0000   1.0000   1.0000
     1.0000   1.0000   1.0000   1.0000   1.0000   1.0000   1.0000   1.0000
     1.0000   1.0000   1.0000   1.0000   1.0000   1.0000   1.0000   1.0000
     1.0000   1.0000   1.0000   1.0000   1.0000   1.0000   1.0000   1.0000
     1.0000   1.0000   1.0000   1.0000   1.0000   1.0000   1.0000   1.0000
     1.0000   1.0000   1.0000   1.0000   1.0000   1.0000   1.0000   1.0000
     1.0000   1.0000   1.0000   1.0000   1.0000   1.0000   1.0000   1.0000
     1.0000   1.0000   1.0000   1.0000   1.0000   1.0000   1.0000   1.0000
     1.0000   1.0000   1.0000   1.0000   1.0000   1.0000   1.0000   1.0000
     1.0000   1.0000   1.0000   1.0000   1.0000   1.0000   1.0000   1.0000
     1.0000   1.0000   1.0000   1.0000   1.0000   1.0000   1.0000   1.0000
     1.0000   1.0000   1.0000   1.0000   1.0000   1.0000   1.0000   1.0000
     1.0000   1.0000   1.0000   1.0000   1.0000   1.0000   1.0000   1.0000
     1.0000   1.0000   1.0000   1.0000   1.0000   1.0000   1.0000   1.0000
     1.0000   1.0000   1.0012   1.0015   1.0015   1.0365   0.9100   0.9100
     0.2490   0.2490   0.0008   0.0008   0.0000   0.0000   0.0000   0.0000
     0.0000   0.0000   0.0000   0.0000   0.0000   0.0000   0.0000   0.0000
     0.0000   0.0000   0.0000   0.0000   0.0000   0.0000   0.0000   0.0000
     0.0000   0.0000   0.0000   0.0000   0.0000   0.0000   0.0000   0.0000
     0.0000   0.0000   0.0000   0.0000   0.0000   0.0000   0.0000   0.0000
     0.0000   0.0000   0.0000   0.0000   0.0000   0.0000   0.0000   0.0000
     0.0000   0.0000   0.0000   0.0000   0.0000   0.0000   0.0000   0.0000
     0.0000   0.0000   0.0000   0.0000   0.0000   0.0000   0.0000   0.0000
     0.0000   0.0000   0.0000   0.0000   0.0000   0.0000   0.0000   0.0000
     0.0000   0.0000   0.0000   0.0000   0.0000   0.0000   0.0000   0.0000
     0.0000   0.0000   0.0000   0.0000   0.0000   0.0000   0.0000   0.0000
     0.0000   0.0000   0.0000   0.0000   0.0000   0.0000   0.0000   0.0000

          k = 0.0000 0.3849 0.0000 ( 64840 PWs)   bands (ev):

  -125.0414-125.0408-125.0402-125.0402-125.0394-125.0394-125.0390-125.0387
  -125.0387-125.0384-125.0382-125.0382-125.0382-125.0382-125.0378-125.0378
  -124.8718-124.8714-124.8712-124.8707-124.8706-124.8706-124.8702-124.8702
  -124.8698-124.8698-124.8694-124.8693-124.8693-124.8691-124.8691-124.8690
  -124.8688-124.8687-124.8687-124.8686-124.8686-124.8686-124.8686-124.8683
  -124.8683-124.8682-124.8681-124.8681-124.8681-124.8681-124.8678-124.8678
   -79.2052 -79.2052 -79.2041 -79.2020 -79.2020 -79.2002 -79.2002 -79.1975
   -79.1975 -79.1975 -79.1934 -79.1934 -79.1930 -79.1923 -79.1917 -79.1916
   -79.1907 -79.1907 -79.1903 -79.1902 -79.1902 -79.1899 -79.1899 -79.1896
   -79.1893 -79.1893 -79.1893 -79.1893 -79.1889 -79.1889 -79.1847 -79.1847
   -79.1843 -79.1843 -79.1815 -79.1815 -79.1811 -79.1811 -79.1794 -79.1792
   -79.1775 -79.1774 -79.1774 -79.1747 -79.1746 -79.1728 -79.1727 -79.1710
   -79.0342 -79.0342 -79.0337 -79.0337 -79.0331 -79.0326 -79.0310 -79.0310
   -79.0305 -79.0305 -79.0293 -79.0293 -79.0288 -79.0288 -79.0280 -79.0276
   -79.0273 -79.0269 -79.0267 -79.0267 -79.0266 -79.0266 -79.0265 -79.0263
   -79.0263 -79.0261 -79.0261 -79.0261 -79.0258 -79.0258 -79.0254 -79.0254
   -79.0254 -79.0251 -79.0251 -79.0250 -79.0248 -79.0247 -79.0247 -79.0245
   -79.0245 -79.0245 -79.0245 -79.0243 -79.0242 -79.0242 -79.0241 -79.0241
   -79.0241 -79.0241 -79.0237 -79.0237 -79.0225 -79.0225 -79.0220 -79.0220
   -79.0192 -79.0192 -79.0188 -79.0188 -79.0138 -79.0138 -79.0134 -79.0134
   -79.0133 -79.0133 -79.0129 -79.0129 -79.0106 -79.0106 -79.0102 -79.0102
   -79.0102 -79.0101 -79.0098 -79.0098 -79.0085 -79.0083 -79.0080 -79.0078
   -79.0066 -79.0065 -79.0065 -79.0061 -79.0060 -79.0060 -79.0038 -79.0038
   -79.0033 -79.0033 -79.0019 -79.0019 -79.0014 -79.0014 -79.0001 -78.9997
    -8.4057  -7.8074  -7.2793  -7.2793  -7.2332  -6.9749  -6.8621  -6.8213
    -6.8148  -6.8148  -6.8019  -6.7595  -6.7595  -6.7229  -6.6906  -6.6625
    -6.6625  -6.6584  -6.6151  -6.6151  -6.6084  -6.6084  -6.6043  -6.6018
    -6.5551  -6.5551  -6.5329  -6.5329  -6.5217  -6.5217  -6.5215  -6.5215
    -6.5196  -6.5196  -6.4980  -6.4963  -6.4963  -6.4864  -6.4864  -6.4731
    -6.4731  -6.4411  -6.4411  -6.4407  -6.4407  -6.4037  -6.4037  -6.4020
    -6.4018  -6.4018  -6.3315  -6.3315  -6.3160  -6.3160  -6.3145  -6.3127
    -6.3127  -6.3063  -6.3063  -6.2648  -6.2459  -6.2459  -6.2458  -6.2430
    -6.2430  -6.2254  -6.2254  -6.2237  -6.2237  -6.2162  -6.2110  -6.2110
    -6.2026  -6.2026  -6.1857  -6.1857  -6.1637  -6.1637  -6.1624  -6.1218
    -6.1190  -6.1190  -6.1112  -6.1112  -6.1029  -6.0900  -6.0900  -6.0887
    -6.0887  -6.0682  -6.0461  -6.0461  -6.0432  -6.0387  -6.0387  -6.0361
    -6.0361  -6.0093  -6.0093  -5.9876  -5.9876  -5.9737  -5.9655  -5.9588
    -5.9525  -5.9427  -5.9427  -5.9408  -5.9408  -5.9320  -5.9035  -5.9035
    -5.9005  -5.8756  -5.8701  -5.8701  -5.8562  -5.8562  -5.8552  -5.8494
    -5.8411  -5.8411  -5.8332  -5.8332  -5.8321  -5.8040  -5.7995  -5.7995
    -5.7903  -5.7903  -5.7844  -5.7844  -5.7806  -5.7806  -5.7730  -5.7730
    -5.7701  -5.7566  -5.7502  -5.7502  -5.7317  -5.7317  -5.7298  -5.7298
    -5.7248  -5.7232  -5.7232  -5.7125  -5.6945  -5.6945  -5.6898  -5.6898
    -5.6752  -5.6752  -5.6660  -5.6660  -5.6582  -5.6582  -5.6469  -5.6319
    -5.6319  -5.6279  -5.6279  -5.6213  -5.6084  -5.6047  -5.6039  -5.6039
    -5.5733  -5.5733  -5.5682  -5.5654  -5.5654  -5.5640  -5.5640  -5.5573
    -5.5573  -5.5493  -5.5364  -5.5351  -5.5314  -5.5305  -5.5305  -5.5294
    -5.5294  -5.5286  -5.5286  -5.5208  -5.5208  -5.5142  -5.5142  -5.5031
    -5.5031  -5.4918  -5.4918  -5.4802  -5.4715  -5.4715  -5.4660  -5.4659
    -5.4457  -5.4457  -5.4440  -5.4415  -5.4413  -5.4361  -5.4361  -5.4292
    -5.4277  -5.4277  -5.4239  -5.4181  -5.4136  -5.4136  -5.4080  -5.4080
    -5.4004  -5.3899  -5.3899  -5.3795  -5.3699  -5.3693  -5.3693  -5.3675
    -5.3675  -5.3346  -5.3239  -5.3239  -5.3103  -5.3094  -5.3094  -5.3073
    -5.3073  -5.3027  -5.3027  -5.3001  -5.2938  -5.2708  -5.2708  -5.1785
    -5.1785  -5.1677  -5.1677  -5.1404  -5.1391  -5.0621  -4.9350  -4.9350
    -4.6758  -4.6758  -4.5727  -3.7602  -3.7602  -3.6448  -3.6448  -3.2965
    -3.1030  -2.8380  -2.7420  -2.3686  -2.3686  -2.3484  -2.3484  -1.9488
    -1.9488  -1.4623  -1.4623  -1.2934  -1.2870  -1.2870  -0.7566  -0.5058
    -0.5058  -0.4292  -0.1041  -0.1041  -0.0971  -0.0971  -0.0091  -0.0091
     0.3664   0.7441   0.8705   0.8705   1.1098   1.1098   1.4306   1.4306
     1.5531   1.5531   2.3853   2.3853   2.4943   2.4943   2.8523   2.8523
     2.9877   3.0913   3.0913   3.1384   3.3075   3.4776   3.4776   3.8032
     3.8032   3.8794   3.8794   3.9027   4.1364   4.1911   4.1911   4.4962
     4.4962   4.7431   4.7431   5.0809   5.0809   5.1571   5.1675   5.1675
     5.2765   5.4705   5.6530   5.6530   5.7229   5.7707   5.7707   5.8780
     6.0832   6.1791   6.1791   6.2741   6.3116   6.3116   6.3346   6.3747
     6.3747   6.4066   6.4784   6.4784   6.5868   6.5868   6.5988   6.6952
     6.6952   6.8941   6.8941   6.8971   6.8971   7.0235   7.1978   7.2814
     7.4841   7.4841   7.6373   7.6373   7.6512   7.6512   7.6522   7.6522
     7.7953   7.7953   7.8732   7.8732   7.9273   7.9273   8.0744   8.0744
     8.2953   8.3632   8.4126   8.5230   8.5653   8.7621   8.7622   8.7754
     8.7754   8.8624   8.8624   8.8633   8.8633   8.8677   8.8679   8.9304

     occupation numbers 
     1.0000   1.0000   1.0000   1.0000   1.0000   1.0000   1.0000   1.0000
     1.0000   1.0000   1.0000   1.0000   1.0000   1.0000   1.0000   1.0000
     1.0000   1.0000   1.0000   1.0000   1.0000   1.0000   1.0000   1.0000
     1.0000   1.0000   1.0000   1.0000   1.0000   1.0000   1.0000   1.0000
     1.0000   1.0000   1.0000   1.0000   1.0000   1.0000   1.0000   1.0000
     1.0000   1.0000   1.0000   1.0000   1.0000   1.0000   1.0000   1.0000
     1.0000   1.0000   1.0000   1.0000   1.0000   1.0000   1.0000   1.0000
     1.0000   1.0000   1.0000   1.0000   1.0000   1.0000   1.0000   1.0000
     1.0000   1.0000   1.0000   1.0000   1.0000   1.0000   1.0000   1.0000
     1.0000   1.0000   1.0000   1.0000   1.0000   1.0000   1.0000   1.0000
     1.0000   1.0000   1.0000   1.0000   1.0000   1.0000   1.0000   1.0000
     1.0000   1.0000   1.0000   1.0000   1.0000   1.0000   1.0000   1.0000
     1.0000   1.0000   1.0000   1.0000   1.0000   1.0000   1.0000   1.0000
     1.0000   1.0000   1.0000   1.0000   1.0000   1.0000   1.0000   1.0000
     1.0000   1.0000   1.0000   1.0000   1.0000   1.0000   1.0000   1.0000
     1.0000   1.0000   1.0000   1.0000   1.0000   1.0000   1.0000   1.0000
     1.0000   1.0000   1.0000   1.0000   1.0000   1.0000   1.0000   1.0000
     1.0000   1.0000   1.0000   1.0000   1.0000   1.0000   1.0000   1.0000
     1.0000   1.0000   1.0000   1.0000   1.0000   1.0000   1.0000   1.0000
     1.0000   1.0000   1.0000   1.0000   1.0000   1.0000   1.0000   1.0000
     1.0000   1.0000   1.0000   1.0000   1.0000   1.0000   1.0000   1.0000
     1.0000   1.0000   1.0000   1.0000   1.0000   1.0000   1.0000   1.0000
     1.0000   1.0000   1.0000   1.0000   1.0000   1.0000   1.0000   1.0000
     1.0000   1.0000   1.0000   1.0000   1.0000   1.0000   1.0000   1.0000
     1.0000   1.0000   1.0000   1.0000   1.0000   1.0000   1.0000   1.0000
     1.0000   1.0000   1.0000   1.0000   1.0000   1.0000   1.0000   1.0000
     1.0000   1.0000   1.0000   1.0000   1.0000   1.0000   1.0000   1.0000
     1.0000   1.0000   1.0000   1.0000   1.0000   1.0000   1.0000   1.0000
     1.0000   1.0000   1.0000   1.0000   1.0000   1.0000   1.0000   1.0000
     1.0000   1.0000   1.0000   1.0000   1.0000   1.0000   1.0000   1.0000
     1.0000   1.0000   1.0000   1.0000   1.0000   1.0000   1.0000   1.0000
     1.0000   1.0000   1.0000   1.0000   1.0000   1.0000   1.0000   1.0000
     1.0000   1.0000   1.0000   1.0000   1.0000   1.0000   1.0000   1.0000
     1.0000   1.0000   1.0000   1.0000   1.0000   1.0000   1.0000   1.0000
     1.0000   1.0000   1.0000   1.0000   1.0000   1.0000   1.0000   1.0000
     1.0000   1.0000   1.0000   1.0000   1.0000   1.0000   1.0000   1.0000
     1.0000   1.0000   1.0000   1.0000   1.0000   1.0000   1.0000   1.0000
     1.0000   1.0000   1.0000   1.0000   1.0000   1.0000   1.0000   1.0000
     1.0000   1.0000   1.0000   1.0000   1.0000   1.0000   1.0000   1.0000
     1.0000   1.0000   1.0000   1.0000   1.0000   1.0000   1.0000   1.0000
     1.0000   1.0000   1.0000   1.0000   1.0000   1.0000   1.0000   1.0000
     1.0000   1.0000   1.0000   1.0000   1.0000   1.0000   1.0000   1.0000
     1.0000   1.0000   1.0000   1.0000   1.0000   1.0000   1.0000   1.0000
     1.0000   1.0000   1.0000   1.0000   1.0000   1.0000   1.0000   1.0000
     1.0000   1.0000   1.0000   1.0000   1.0000   1.0000   1.0000   1.0000
     1.0000   1.0000   1.0000   1.0000   1.0000   1.0000   1.0000   1.0000
     1.0000   1.0000   1.0000   1.0000   1.0000   1.0000   1.0000   1.0000
     1.0000   1.0000   1.0000   1.0000   1.0000   1.0000   1.0000   1.0000
     1.0000   1.0000   1.0000   1.0000   1.0000   1.0000   1.0000   1.0000
     1.0000   1.0000   1.0000   1.0000   1.0000   1.0000   1.0000   1.0000
     1.0000   1.0000   1.0000   1.0000   1.0000   1.0000   1.0000   1.0000
     1.0000   1.0000   1.0000   1.0000   1.0000   1.0000   1.0000   1.0000
     1.0000   1.0000   1.0000   1.0000   1.0000   1.0000   1.0000   1.0000
     1.0000   1.0000   1.0000   1.0000   1.0000   1.0000   1.0000   1.0000
     1.0000   1.0000   1.0000   1.0000   1.0000   1.0000   1.0000   1.0000
     1.0000   1.0000   1.0000   1.0000   1.0000   1.0000   1.0000   1.0000
     1.0000   1.0000   1.0000   1.0000   1.0000   1.0000   1.0000   1.0000
     1.0000   1.0000   1.0000   1.0000   1.0000   1.0000   1.0000   1.0000
     1.0000   1.0000   1.0000   1.0000   1.0000   1.0000   1.0000   1.0000
     1.0000   1.0046   1.0217   1.0217   1.0831   1.0831   0.5473   0.5473
     0.2490   0.2490   0.0000   0.0000   0.0000   0.0000   0.0000   0.0000
     0.0000   0.0000   0.0000   0.0000   0.0000   0.0000   0.0000   0.0000
     0.0000   0.0000   0.0000   0.0000   0.0000   0.0000   0.0000   0.0000
     0.0000   0.0000   0.0000   0.0000   0.0000   0.0000   0.0000   0.0000
     0.0000   0.0000   0.0000   0.0000   0.0000   0.0000   0.0000   0.0000
     0.0000   0.0000   0.0000   0.0000   0.0000   0.0000   0.0000   0.0000
     0.0000   0.0000   0.0000   0.0000   0.0000   0.0000   0.0000   0.0000
     0.0000   0.0000   0.0000   0.0000   0.0000   0.0000   0.0000   0.0000
     0.0000   0.0000   0.0000   0.0000   0.0000   0.0000   0.0000   0.0000
     0.0000   0.0000   0.0000   0.0000   0.0000   0.0000   0.0000   0.0000
     0.0000   0.0000   0.0000   0.0000   0.0000   0.0000   0.0000   0.0000
     0.0000   0.0000   0.0000   0.0000   0.0000   0.0000   0.0000   0.0000

          k = 0.0000-0.5774 0.0000 ( 64842 PWs)   bands (ev):

  -125.0411-125.0411-125.0403-125.0403-125.0390-125.0390-125.0390-125.0390
  -125.0387-125.0387-125.0382-125.0382-125.0382-125.0382-125.0378-125.0378
  -124.8715-124.8715-124.8711-124.8711-124.8707-124.8707-124.8702-124.8702
  -124.8695-124.8694-124.8694-124.8694-124.8691-124.8691-124.8690-124.8690
  -124.8690-124.8690-124.8686-124.8686-124.8686-124.8686-124.8686-124.8686
  -124.8682-124.8682-124.8681-124.8681-124.8681-124.8681-124.8677-124.8677
   -79.2037 -79.2037 -79.2037 -79.2037 -79.2012 -79.2012 -79.2002 -79.2002
   -79.1957 -79.1957 -79.1956 -79.1956 -79.1927 -79.1927 -79.1917 -79.1917
   -79.1907 -79.1907 -79.1903 -79.1903 -79.1903 -79.1903 -79.1899 -79.1899
   -79.1893 -79.1893 -79.1893 -79.1893 -79.1889 -79.1889 -79.1842 -79.1841
   -79.1826 -79.1826 -79.1826 -79.1826 -79.1793 -79.1793 -79.1793 -79.1793
   -79.1784 -79.1784 -79.1757 -79.1757 -79.1747 -79.1747 -79.1718 -79.1718
   -79.0327 -79.0327 -79.0327 -79.0327 -79.0322 -79.0322 -79.0322 -79.0322
   -79.0303 -79.0302 -79.0298 -79.0298 -79.0292 -79.0292 -79.0287 -79.0287
   -79.0278 -79.0277 -79.0273 -79.0273 -79.0268 -79.0268 -79.0263 -79.0263
   -79.0255 -79.0254 -79.0254 -79.0254 -79.0251 -79.0250 -79.0250 -79.0250
   -79.0250 -79.0250 -79.0247 -79.0247 -79.0247 -79.0247 -79.0246 -79.0246
   -79.0245 -79.0245 -79.0245 -79.0245 -79.0242 -79.0242 -79.0242 -79.0242
   -79.0241 -79.0241 -79.0241 -79.0241 -79.0241 -79.0241 -79.0237 -79.0237
   -79.0198 -79.0198 -79.0193 -79.0193 -79.0132 -79.0132 -79.0128 -79.0128
   -79.0117 -79.0117 -79.0117 -79.0117 -79.0112 -79.0112 -79.0112 -79.0112
   -79.0084 -79.0084 -79.0084 -79.0084 -79.0079 -79.0079 -79.0079 -79.0079
   -79.0076 -79.0075 -79.0071 -79.0071 -79.0048 -79.0048 -79.0043 -79.0043
   -79.0038 -79.0038 -79.0033 -79.0033 -79.0009 -79.0009 -79.0004 -79.0004
    -8.1493  -8.1493  -7.3106  -7.3106  -7.0334  -7.0334  -6.8552  -6.8552
    -6.8361  -6.8361  -6.7252  -6.7252  -6.7252  -6.7252  -6.6520  -6.6520
    -6.6303  -6.6302  -6.6279  -6.6279  -6.6279  -6.6279  -6.5984  -6.5984
    -6.5984  -6.5984  -6.5420  -6.5420  -6.5346  -6.5346  -6.5346  -6.5346
    -6.5091  -6.5091  -6.4772  -6.4772  -6.4772  -6.4772  -6.4618  -6.4618
    -6.4618  -6.4618  -6.4567  -6.4566  -6.4359  -6.4359  -6.4245  -6.4245
    -6.4245  -6.4245  -6.4034  -6.4034  -6.3105  -6.3105  -6.2974  -6.2974
    -6.2974  -6.2974  -6.2918  -6.2918  -6.2768  -6.2768  -6.2722  -6.2722
    -6.2722  -6.2722  -6.2290  -6.2290  -6.2213  -6.2213  -6.2213  -6.2213
    -6.1953  -6.1953  -6.1949  -6.1949  -6.1461  -6.1461  -6.1415  -6.1415
    -6.1180  -6.1180  -6.1024  -6.1024  -6.0836  -6.0836  -6.0836  -6.0836
    -6.0489  -6.0489  -6.0462  -6.0462  -6.0462  -6.0462  -6.0384  -6.0384
    -6.0275  -6.0275  -6.0230  -6.0230  -5.9911  -5.9911  -5.9911  -5.9911
    -5.9816  -5.9816  -5.9540  -5.9540  -5.9380  -5.9380  -5.9176  -5.9176
    -5.9099  -5.9099  -5.8606  -5.8606  -5.8606  -5.8606  -5.8199  -5.8199
    -5.8098  -5.8098  -5.8098  -5.8098  -5.8051  -5.8051  -5.7937  -5.7937
    -5.7892  -5.7892  -5.7864  -5.7864  -5.7703  -5.7703  -5.7703  -5.7703
    -5.7682  -5.7682  -5.7682  -5.7682  -5.7655  -5.7655  -5.7485  -5.7485
    -5.7485  -5.7485  -5.7316  -5.7316  -5.6811  -5.6811  -5.6793  -5.6793
    -5.6635  -5.6635  -5.6437  -5.6437  -5.6437  -5.6437  -5.6306  -5.6306
    -5.6165  -5.6165  -5.6062  -5.6062  -5.6062  -5.6062  -5.5964  -5.5964
    -5.5762  -5.5762  -5.5392  -5.5392  -5.5342  -5.5342  -5.5342  -5.5342
    -5.5265  -5.5265  -5.5264  -5.5264  -5.5227  -5.5227  -5.5227  -5.5227
    -5.5006  -5.5006  -5.5006  -5.5006  -5.4965  -5.4965  -5.4928  -5.4928
    -5.4862  -5.4862  -5.4850  -5.4850  -5.4660  -5.4660  -5.4660  -5.4659
    -5.4557  -5.4557  -5.4557  -5.4557  -5.4457  -5.4457  -5.4239  -5.4239
    -5.4154  -5.4154  -5.4107  -5.4107  -5.4085  -5.4085  -5.4066  -5.4066
    -5.4061  -5.4061  -5.4061  -5.4061  -5.3748  -5.3748  -5.3740  -5.3739
    -5.3560  -5.3560  -5.3560  -5.3560  -5.3297  -5.3297  -5.3297  -5.3297
    -5.2619  -5.2618  -5.2618  -5.2618  -5.2364  -5.2364  -5.2364  -5.2364
    -5.2312  -5.2312  -5.2104  -5.2104  -5.2075  -5.2075  -4.7029  -4.7029
    -4.4131  -4.4131  -4.4131  -4.4131  -3.7226  -3.7226  -3.1075  -3.1075
    -3.0668  -3.0668  -3.0668  -3.0668  -2.3879  -2.3879  -2.2457  -2.2457
    -1.7515  -1.7515  -1.7515  -1.7515  -0.7512  -0.7512  -0.7512  -0.7512
    -0.3320  -0.3320  -0.3320  -0.3320  -0.0895  -0.0895   0.0174   0.0174
     1.0298   1.0298   1.0500   1.0500   1.3412   1.3412   1.3746   1.3746
     1.3746   1.3746   2.2166   2.2166   2.9053   2.9053   2.9053   2.9053
     3.1025   3.1025   3.1025   3.1025   3.3160   3.3160   3.5558   3.5558
     3.8603   3.8603   3.8603   3.8603   3.9988   3.9988   4.2636   4.2636
     4.4477   4.4477   4.7487   4.7487   4.8660   4.8660   5.4864   5.4864
     5.5273   5.5273   5.7259   5.7259   5.7949   5.7949   5.9302   5.9302
     5.9302   5.9302   5.9874   5.9874   5.9874   5.9874   6.1552   6.1552
     6.1552   6.1552   6.4288   6.4288   6.5532   6.5532   6.6443   6.6443
     6.6640   6.6640   6.8486   6.8486   6.8675   6.8675   7.0185   7.0185
     7.0185   7.0185   7.5867   7.5867   7.7461   7.7461   8.0648   8.0648
     8.0899   8.0899   8.0899   8.0899   8.2826   8.2827   8.4775   8.4775
     8.4775   8.4775   8.6228   8.6228   8.6228   8.6228   8.6686   8.6687
     8.7407   8.7408   8.8126   8.8126   9.0005   9.0005   9.0005   9.0006

     occupation numbers 
     1.0000   1.0000   1.0000   1.0000   1.0000   1.0000   1.0000   1.0000
     1.0000   1.0000   1.0000   1.0000   1.0000   1.0000   1.0000   1.0000
     1.0000   1.0000   1.0000   1.0000   1.0000   1.0000   1.0000   1.0000
     1.0000   1.0000   1.0000   1.0000   1.0000   1.0000   1.0000   1.0000
     1.0000   1.0000   1.0000   1.0000   1.0000   1.0000   1.0000   1.0000
     1.0000   1.0000   1.0000   1.0000   1.0000   1.0000   1.0000   1.0000
     1.0000   1.0000   1.0000   1.0000   1.0000   1.0000   1.0000   1.0000
     1.0000   1.0000   1.0000   1.0000   1.0000   1.0000   1.0000   1.0000
     1.0000   1.0000   1.0000   1.0000   1.0000   1.0000   1.0000   1.0000
     1.0000   1.0000   1.0000   1.0000   1.0000   1.0000   1.0000   1.0000
     1.0000   1.0000   1.0000   1.0000   1.0000   1.0000   1.0000   1.0000
     1.0000   1.0000   1.0000   1.0000   1.0000   1.0000   1.0000   1.0000
     1.0000   1.0000   1.0000   1.0000   1.0000   1.0000   1.0000   1.0000
     1.0000   1.0000   1.0000   1.0000   1.0000   1.0000   1.0000   1.0000
     1.0000   1.0000   1.0000   1.0000   1.0000   1.0000   1.0000   1.0000
     1.0000   1.0000   1.0000   1.0000   1.0000   1.0000   1.0000   1.0000
     1.0000   1.0000   1.0000   1.0000   1.0000   1.0000   1.0000   1.0000
     1.0000   1.0000   1.0000   1.0000   1.0000   1.0000   1.0000   1.0000
     1.0000   1.0000   1.0000   1.0000   1.0000   1.0000   1.0000   1.0000
     1.0000   1.0000   1.0000   1.0000   1.0000   1.0000   1.0000   1.0000
     1.0000   1.0000   1.0000   1.0000   1.0000   1.0000   1.0000   1.0000
     1.0000   1.0000   1.0000   1.0000   1.0000   1.0000   1.0000   1.0000
     1.0000   1.0000   1.0000   1.0000   1.0000   1.0000   1.0000   1.0000
     1.0000   1.0000   1.0000   1.0000   1.0000   1.0000   1.0000   1.0000
     1.0000   1.0000   1.0000   1.0000   1.0000   1.0000   1.0000   1.0000
     1.0000   1.0000   1.0000   1.0000   1.0000   1.0000   1.0000   1.0000
     1.0000   1.0000   1.0000   1.0000   1.0000   1.0000   1.0000   1.0000
     1.0000   1.0000   1.0000   1.0000   1.0000   1.0000   1.0000   1.0000
     1.0000   1.0000   1.0000   1.0000   1.0000   1.0000   1.0000   1.0000
     1.0000   1.0000   1.0000   1.0000   1.0000   1.0000   1.0000   1.0000
     1.0000   1.0000   1.0000   1.0000   1.0000   1.0000   1.0000   1.0000
     1.0000   1.0000   1.0000   1.0000   1.0000   1.0000   1.0000   1.0000
     1.0000   1.0000   1.0000   1.0000   1.0000   1.0000   1.0000   1.0000
     1.0000   1.0000   1.0000   1.0000   1.0000   1.0000   1.0000   1.0000
     1.0000   1.0000   1.0000   1.0000   1.0000   1.0000   1.0000   1.0000
     1.0000   1.0000   1.0000   1.0000   1.0000   1.0000   1.0000   1.0000
     1.0000   1.0000   1.0000   1.0000   1.0000   1.0000   1.0000   1.0000
     1.0000   1.0000   1.0000   1.0000   1.0000   1.0000   1.0000   1.0000
     1.0000   1.0000   1.0000   1.0000   1.0000   1.0000   1.0000   1.0000
     1.0000   1.0000   1.0000   1.0000   1.0000   1.0000   1.0000   1.0000
     1.0000   1.0000   1.0000   1.0000   1.0000   1.0000   1.0000   1.0000
     1.0000   1.0000   1.0000   1.0000   1.0000   1.0000   1.0000   1.0000
     1.0000   1.0000   1.0000   1.0000   1.0000   1.0000   1.0000   1.0000
     1.0000   1.0000   1.0000   1.0000   1.0000   1.0000   1.0000   1.0000
     1.0000   1.0000   1.0000   1.0000   1.0000   1.0000   1.0000   1.0000
     1.0000   1.0000   1.0000   1.0000   1.0000   1.0000   1.0000   1.0000
     1.0000   1.0000   1.0000   1.0000   1.0000   1.0000   1.0000   1.0000
     1.0000   1.0000   1.0000   1.0000   1.0000   1.0000   1.0000   1.0000
     1.0000   1.0000   1.0000   1.0000   1.0000   1.0000   1.0000   1.0000
     1.0000   1.0000   1.0000   1.0000   1.0000   1.0000   1.0000   1.0000
     1.0000   1.0000   1.0000   1.0000   1.0000   1.0000   1.0000   1.0000
     1.0000   1.0000   1.0000   1.0000   1.0000   1.0000   1.0000   1.0000
     1.0000   1.0000   1.0000   1.0000   1.0000   1.0000   1.0000   1.0000
     1.0000   1.0000   1.0000   1.0000   1.0000   1.0000   1.0000   1.0000
     1.0000   1.0000   1.0000   1.0000   1.0000   1.0000   1.0000   1.0000
     1.0000   1.0000   1.0000   1.0000   1.0000   1.0000   1.0000   1.0000
     1.0000   1.0000   1.0000   1.0000   1.0000   1.0000   1.0000   1.0000
     1.0000   1.0000   1.0000   1.0000   1.0000   1.0000   1.0000   1.0000
     1.0000   1.0000   1.0000   1.0000   1.0000   1.0000   1.0000   1.0000
     1.0708   1.0708   1.0763   1.0763   0.7887   0.7887   0.7015   0.7015
     0.7014   0.7014   0.0000   0.0000   0.0000   0.0000   0.0000   0.0000
     0.0000   0.0000   0.0000   0.0000   0.0000   0.0000   0.0000   0.0000
     0.0000   0.0000   0.0000   0.0000   0.0000   0.0000   0.0000   0.0000
     0.0000   0.0000   0.0000   0.0000   0.0000   0.0000   0.0000   0.0000
     0.0000   0.0000   0.0000   0.0000   0.0000   0.0000   0.0000   0.0000
     0.0000   0.0000   0.0000   0.0000   0.0000   0.0000   0.0000   0.0000
     0.0000   0.0000   0.0000   0.0000   0.0000   0.0000   0.0000   0.0000
     0.0000   0.0000   0.0000   0.0000   0.0000   0.0000   0.0000   0.0000
     0.0000   0.0000   0.0000   0.0000   0.0000   0.0000   0.0000   0.0000
     0.0000   0.0000   0.0000   0.0000   0.0000   0.0000   0.0000   0.0000
     0.0000   0.0000   0.0000   0.0000   0.0000   0.0000   0.0000   0.0000
     0.0000   0.0000   0.0000   0.0000   0.0000   0.0000   0.0000   0.0000

          k = 0.1667 0.0962 0.0000 ( 64809 PWs)   bands (ev):

  -125.0416-125.0404-125.0401-125.0401-125.0397-125.0396-125.0395-125.0384
  -125.0384-125.0382-125.0382-125.0382-125.0381-125.0381-125.0380-125.0380
  -124.8720-124.8715-124.8708-124.8705-124.8705-124.8703-124.8701-124.8701
  -124.8700-124.8700-124.8699-124.8696-124.8696-124.8694-124.8688-124.8688
  -124.8686-124.8686-124.8686-124.8686-124.8686-124.8684-124.8684-124.8684
  -124.8684-124.8682-124.8681-124.8681-124.8681-124.8681-124.8679-124.8679
   -79.2061 -79.2061 -79.2059 -79.2005 -79.2004 -79.2002 -79.2002 -79.1989
   -79.1989 -79.1932 -79.1931 -79.1918 -79.1915 -79.1915 -79.1910 -79.1910
   -79.1909 -79.1909 -79.1908 -79.1896 -79.1896 -79.1894 -79.1893 -79.1893
   -79.1893 -79.1893 -79.1891 -79.1891 -79.1886 -79.1886 -79.1863 -79.1863
   -79.1858 -79.1858 -79.1840 -79.1840 -79.1838 -79.1802 -79.1802 -79.1797
   -79.1763 -79.1760 -79.1760 -79.1747 -79.1747 -79.1739 -79.1710 -79.1706
   -79.0352 -79.0352 -79.0349 -79.0347 -79.0347 -79.0344 -79.0295 -79.0295
   -79.0292 -79.0292 -79.0290 -79.0290 -79.0287 -79.0287 -79.0282 -79.0280
   -79.0280 -79.0277 -79.0275 -79.0275 -79.0269 -79.0266 -79.0266 -79.0264
   -79.0262 -79.0262 -79.0261 -79.0261 -79.0259 -79.0257 -79.0257 -79.0255
   -79.0248 -79.0248 -79.0246 -79.0245 -79.0245 -79.0245 -79.0245 -79.0243
   -79.0243 -79.0243 -79.0243 -79.0241 -79.0241 -79.0241 -79.0241 -79.0240
   -79.0238 -79.0238 -79.0222 -79.0217 -79.0200 -79.0200 -79.0195 -79.0195
   -79.0177 -79.0177 -79.0172 -79.0172 -79.0154 -79.0154 -79.0149 -79.0149
   -79.0149 -79.0149 -79.0144 -79.0144 -79.0131 -79.0131 -79.0129 -79.0126
   -79.0126 -79.0124 -79.0093 -79.0093 -79.0088 -79.0088 -79.0088 -79.0083
   -79.0054 -79.0051 -79.0051 -79.0050 -79.0046 -79.0046 -79.0038 -79.0038
   -79.0033 -79.0033 -79.0030 -79.0025 -79.0001 -78.9997 -78.9996 -78.9992
    -8.5630  -7.4147  -7.3635  -7.1905  -7.1905  -7.0558  -6.9085  -6.9085
    -6.8821  -6.8705  -6.8705  -6.8651  -6.7152  -6.7076  -6.7076  -6.6782
    -6.6673  -6.6673  -6.6205  -6.6144  -6.5823  -6.5753  -6.5753  -6.5614
    -6.5614  -6.5585  -6.5400  -6.5400  -6.5247  -6.5247  -6.5237  -6.5212
    -6.5212  -6.4835  -6.4835  -6.4817  -6.4817  -6.4713  -6.4713  -6.4530
    -6.4530  -6.4470  -6.4470  -6.4002  -6.4002  -6.3637  -6.3637  -6.3606
    -6.3606  -6.3372  -6.3296  -6.3276  -6.3276  -6.3198  -6.3198  -6.2994
    -6.2994  -6.2593  -6.2368  -6.2288  -6.2288  -6.2196  -6.2196  -6.2194
    -6.2194  -6.1959  -6.1946  -6.1946  -6.1937  -6.1937  -6.1885  -6.1885
    -6.1869  -6.1744  -6.1744  -6.1667  -6.1618  -6.1618  -6.1604  -6.1604
    -6.1360  -6.1360  -6.1235  -6.1235  -6.1051  -6.1051  -6.1020  -6.0985
    -6.0985  -6.0935  -6.0819  -6.0819  -6.0816  -6.0394  -6.0394  -6.0200
    -6.0200  -5.9573  -5.9573  -5.9569  -5.9569  -5.9412  -5.9340  -5.9321
    -5.9225  -5.9225  -5.9134  -5.9122  -5.9116  -5.9082  -5.8944  -5.8944
    -5.8935  -5.8860  -5.8860  -5.8836  -5.8836  -5.8669  -5.8669  -5.8475
    -5.8475  -5.8234  -5.8234  -5.8133  -5.8049  -5.8018  -5.8018  -5.7933
    -5.7933  -5.7836  -5.7836  -5.7698  -5.7682  -5.7682  -5.7642  -5.7642
    -5.7488  -5.7453  -5.7453  -5.7377  -5.7377  -5.7274  -5.7274  -5.7236
    -5.7236  -5.7223  -5.7219  -5.7204  -5.7204  -5.7192  -5.7192  -5.7081
    -5.7081  -5.7041  -5.7041  -5.7015  -5.7005  -5.7005  -5.6827  -5.6827
    -5.6816  -5.6816  -5.6727  -5.6685  -5.6403  -5.6403  -5.6163  -5.6108
    -5.6108  -5.6023  -5.5991  -5.5991  -5.5958  -5.5859  -5.5838  -5.5694
    -5.5694  -5.5642  -5.5642  -5.5625  -5.5625  -5.5567  -5.5560  -5.5560
    -5.5447  -5.5447  -5.5412  -5.5412  -5.5361  -5.5307  -5.5307  -5.5301
    -5.5301  -5.5067  -5.5067  -5.4627  -5.4613  -5.4613  -5.4473  -5.4473
    -5.4464  -5.4464  -5.4426  -5.4426  -5.4426  -5.4387  -5.4387  -5.4386
    -5.4327  -5.4234  -5.4117  -5.4057  -5.4032  -5.4032  -5.4021  -5.3978
    -5.3978  -5.3961  -5.3961  -5.3938  -5.3862  -5.3794  -5.3675  -5.3671
    -5.3544  -5.3544  -5.3213  -5.3213  -5.3170  -5.3170  -5.3121  -5.3121
    -5.3083  -5.3083  -5.2823  -5.2823  -5.2790  -5.2790  -5.2729  -5.2729
    -5.2677  -5.2274  -5.1070  -5.1070  -5.1041  -5.1041  -5.0959  -5.0953
    -4.8010  -4.5841  -4.5841  -4.0911  -4.0911  -3.8302  -3.4096  -2.9858
    -2.9858  -2.4784  -2.2270  -2.2270  -2.0611  -2.0611  -1.7065  -1.7065
    -1.6765  -1.5593  -1.5593  -1.4425  -1.1020  -1.1020  -1.0961  -1.0961
    -0.6400  -0.6114  -0.6114  -0.3274   0.1273   0.1273   0.2703   0.2703
     0.3600   0.3600   0.6585   0.6712   0.6712   0.9267   1.2880   1.2880
     1.5531   1.5531   1.9854   1.9854   2.3221   2.4433   2.4433   2.5261
     2.5261   2.7266   2.9596   3.0967   3.0967   3.1584   4.1282   4.1282
     4.3467   4.4095   4.4095   4.4897   4.4897   4.5874   4.5874   4.6417
     4.6417   5.0213   5.1260   5.2224   5.2224   5.2570   5.2570   5.3172
     5.3783   5.3783   5.4907   5.4907   5.5006   5.8835   5.8835   6.0134
     6.0496   6.0496   6.2519   6.3279   6.4095   6.4095   6.4369   6.4369
     6.4488   6.5422   6.6272   6.6272   6.7555   6.7555   6.8479   6.8479
     6.9170   6.9170   7.0544   7.0544   7.2185   7.2185   7.4389   7.4389
     7.4569   7.4569   7.4837   7.4992   7.5138   7.5881   7.5881   7.6454
     7.6510   7.6510   7.7758   7.7788   7.7788   7.7890   7.7890   7.9425
     7.9425   8.2586   8.3134   8.3134   8.3182   8.3182   8.4165   8.5195
     8.5198   8.5243   8.5244   8.5968   8.5968   8.6148   8.6148   8.7097

     occupation numbers 
     1.0000   1.0000   1.0000   1.0000   1.0000   1.0000   1.0000   1.0000
     1.0000   1.0000   1.0000   1.0000   1.0000   1.0000   1.0000   1.0000
     1.0000   1.0000   1.0000   1.0000   1.0000   1.0000   1.0000   1.0000
     1.0000   1.0000   1.0000   1.0000   1.0000   1.0000   1.0000   1.0000
     1.0000   1.0000   1.0000   1.0000   1.0000   1.0000   1.0000   1.0000
     1.0000   1.0000   1.0000   1.0000   1.0000   1.0000   1.0000   1.0000
     1.0000   1.0000   1.0000   1.0000   1.0000   1.0000   1.0000   1.0000
     1.0000   1.0000   1.0000   1.0000   1.0000   1.0000   1.0000   1.0000
     1.0000   1.0000   1.0000   1.0000   1.0000   1.0000   1.0000   1.0000
     1.0000   1.0000   1.0000   1.0000   1.0000   1.0000   1.0000   1.0000
     1.0000   1.0000   1.0000   1.0000   1.0000   1.0000   1.0000   1.0000
     1.0000   1.0000   1.0000   1.0000   1.0000   1.0000   1.0000   1.0000
     1.0000   1.0000   1.0000   1.0000   1.0000   1.0000   1.0000   1.0000
     1.0000   1.0000   1.0000   1.0000   1.0000   1.0000   1.0000   1.0000
     1.0000   1.0000   1.0000   1.0000   1.0000   1.0000   1.0000   1.0000
     1.0000   1.0000   1.0000   1.0000   1.0000   1.0000   1.0000   1.0000
     1.0000   1.0000   1.0000   1.0000   1.0000   1.0000   1.0000   1.0000
     1.0000   1.0000   1.0000   1.0000   1.0000   1.0000   1.0000   1.0000
     1.0000   1.0000   1.0000   1.0000   1.0000   1.0000   1.0000   1.0000
     1.0000   1.0000   1.0000   1.0000   1.0000   1.0000   1.0000   1.0000
     1.0000   1.0000   1.0000   1.0000   1.0000   1.0000   1.0000   1.0000
     1.0000   1.0000   1.0000   1.0000   1.0000   1.0000   1.0000   1.0000
     1.0000   1.0000   1.0000   1.0000   1.0000   1.0000   1.0000   1.0000
     1.0000   1.0000   1.0000   1.0000   1.0000   1.0000   1.0000   1.0000
     1.0000   1.0000   1.0000   1.0000   1.0000   1.0000   1.0000   1.0000
     1.0000   1.0000   1.0000   1.0000   1.0000   1.0000   1.0000   1.0000
     1.0000   1.0000   1.0000   1.0000   1.0000   1.0000   1.0000   1.0000
     1.0000   1.0000   1.0000   1.0000   1.0000   1.0000   1.0000   1.0000
     1.0000   1.0000   1.0000   1.0000   1.0000   1.0000   1.0000   1.0000
     1.0000   1.0000   1.0000   1.0000   1.0000   1.0000   1.0000   1.0000
     1.0000   1.0000   1.0000   1.0000   1.0000   1.0000   1.0000   1.0000
     1.0000   1.0000   1.0000   1.0000   1.0000   1.0000   1.0000   1.0000
     1.0000   1.0000   1.0000   1.0000   1.0000   1.0000   1.0000   1.0000
     1.0000   1.0000   1.0000   1.0000   1.0000   1.0000   1.0000   1.0000
     1.0000   1.0000   1.0000   1.0000   1.0000   1.0000   1.0000   1.0000
     1.0000   1.0000   1.0000   1.0000   1.0000   1.0000   1.0000   1.0000
     1.0000   1.0000   1.0000   1.0000   1.0000   1.0000   1.0000   1.0000
     1.0000   1.0000   1.0000   1.0000   1.0000   1.0000   1.0000   1.0000
     1.0000   1.0000   1.0000   1.0000   1.0000   1.0000   1.0000   1.0000
     1.0000   1.0000   1.0000   1.0000   1.0000   1.0000   1.0000   1.0000
     1.0000   1.0000   1.0000   1.0000   1.0000   1.0000   1.0000   1.0000
     1.0000   1.0000   1.0000   1.0000   1.0000   1.0000   1.0000   1.0000
     1.0000   1.0000   1.0000   1.0000   1.0000   1.0000   1.0000   1.0000
     1.0000   1.0000   1.0000   1.0000   1.0000   1.0000   1.0000   1.0000
     1.0000   1.0000   1.0000   1.0000   1.0000   1.0000   1.0000   1.0000
     1.0000   1.0000   1.0000   1.0000   1.0000   1.0000   1.0000   1.0000
     1.0000   1.0000   1.0000   1.0000   1.0000   1.0000   1.0000   1.0000
     1.0000   1.0000   1.0000   1.0000   1.0000   1.0000   1.0000   1.0000
     1.0000   1.0000   1.0000   1.0000   1.0000   1.0000   1.0000   1.0000
     1.0000   1.0000   1.0000   1.0000   1.0000   1.0000   1.0000   1.0000
     1.0000   1.0000   1.0000   1.0000   1.0000   1.0000   1.0000   1.0000
     1.0000   1.0000   1.0000   1.0000   1.0000   1.0000   1.0000   1.0000
     1.0000   1.0000   1.0000   1.0000   1.0000   1.0000   1.0000   1.0000
     1.0000   1.0000   1.0000   1.0000   1.0000   1.0000   1.0000   1.0000
     1.0000   1.0000   1.0000   1.0000   1.0000   1.0000   1.0000   1.0000
     1.0000   1.0000   1.0000   1.0000   1.0000   1.0000   1.0000   1.0000
     1.0000   1.0000   1.0000   1.0000   1.0000   1.0000   1.0000   1.0000
     1.0000   1.0000   1.0000   1.0000   1.0000   1.0000   1.0000   1.0000
     1.0000   1.0000   1.0000   1.0000   1.0000   1.0000   1.0000   1.0000
     1.0000   1.0000   1.0012   1.0015   1.0015   1.0365   0.9100   0.9100
     0.2490   0.2490   0.0008   0.0008   0.0000   0.0000   0.0000   0.0000
     0.0000   0.0000   0.0000   0.0000   0.0000   0.0000   0.0000   0.0000
     0.0000   0.0000   0.0000   0.0000   0.0000   0.0000   0.0000   0.0000
     0.0000   0.0000   0.0000   0.0000   0.0000   0.0000   0.0000   0.0000
     0.0000   0.0000   0.0000   0.0000   0.0000   0.0000   0.0000   0.0000
     0.0000   0.0000   0.0000   0.0000   0.0000   0.0000   0.0000   0.0000
     0.0000   0.0000   0.0000   0.0000   0.0000   0.0000   0.0000   0.0000
     0.0000   0.0000   0.0000   0.0000   0.0000   0.0000   0.0000   0.0000
     0.0000   0.0000   0.0000   0.0000   0.0000   0.0000   0.0000   0.0000
     0.0000   0.0000   0.0000   0.0000   0.0000   0.0000   0.0000   0.0000
     0.0000   0.0000   0.0000   0.0000   0.0000   0.0000   0.0000   0.0000
     0.0000   0.0000   0.0000   0.0000   0.0000   0.0000   0.0000   0.0000

          k = 0.1667 0.2887 0.0000 ( 64836 PWs)   bands (ev):

  -125.0415-125.0406-125.0405-125.0398-125.0398-125.0392-125.0392-125.0387
  -125.0384-125.0384-125.0383-125.0383-125.0381-125.0380-125.0379-125.0378
  -124.8719-124.8714-124.8710-124.8709-124.8705-124.8705-124.8702-124.8702
  -124.8697-124.8697-124.8696-124.8696-124.8692-124.8691-124.8691-124.8688
  -124.8688-124.8687-124.8687-124.8687-124.8685-124.8684-124.8684-124.8684
  -124.8683-124.8682-124.8682-124.8682-124.8680-124.8679-124.8679-124.8678
   -79.2057 -79.2049 -79.2049 -79.2014 -79.2014 -79.2001 -79.2000 -79.1993
   -79.1970 -79.1954 -79.1954 -79.1931 -79.1920 -79.1920 -79.1912 -79.1912
   -79.1912 -79.1905 -79.1905 -79.1899 -79.1896 -79.1895 -79.1894 -79.1894
   -79.1892 -79.1891 -79.1891 -79.1891 -79.1891 -79.1889 -79.1871 -79.1871
   -79.1831 -79.1831 -79.1819 -79.1818 -79.1818 -79.1813 -79.1798 -79.1798
   -79.1772 -79.1772 -79.1760 -79.1760 -79.1735 -79.1735 -79.1722 -79.1709
   -79.0348 -79.0343 -79.0340 -79.0340 -79.0335 -79.0335 -79.0305 -79.0305
   -79.0300 -79.0300 -79.0291 -79.0291 -79.0286 -79.0286 -79.0284 -79.0281
   -79.0279 -79.0276 -79.0271 -79.0271 -79.0266 -79.0266 -79.0263 -79.0263
   -79.0260 -79.0258 -79.0258 -79.0257 -79.0256 -79.0255 -79.0252 -79.0252
   -79.0251 -79.0248 -79.0247 -79.0247 -79.0246 -79.0246 -79.0244 -79.0244
   -79.0244 -79.0243 -79.0243 -79.0243 -79.0243 -79.0242 -79.0242 -79.0241
   -79.0240 -79.0240 -79.0239 -79.0239 -79.0238 -79.0237 -79.0203 -79.0198
   -79.0181 -79.0181 -79.0177 -79.0177 -79.0162 -79.0162 -79.0158 -79.0158
   -79.0122 -79.0122 -79.0117 -79.0117 -79.0110 -79.0109 -79.0109 -79.0105
   -79.0104 -79.0104 -79.0104 -79.0099 -79.0089 -79.0089 -79.0085 -79.0085
   -79.0063 -79.0063 -79.0058 -79.0058 -79.0051 -79.0051 -79.0047 -79.0046
   -79.0026 -79.0026 -79.0021 -79.0021 -79.0013 -79.0008 -79.0000 -78.9995
    -8.4578  -7.5779  -7.5779  -7.2758  -7.0011  -6.9353  -6.9353  -6.8560
    -6.8560  -6.8228  -6.8064  -6.8064  -6.6909  -6.6909  -6.6711  -6.6711
    -6.6708  -6.6534  -6.6534  -6.6480  -6.6480  -6.6222  -6.5739  -6.5739
    -6.5689  -6.5689  -6.5641  -6.5640  -6.5152  -6.5152  -6.5090  -6.5090
    -6.5074  -6.5074  -6.5041  -6.5041  -6.4946  -6.4905  -6.4904  -6.4640
    -6.4640  -6.4531  -6.4232  -6.4196  -6.4196  -6.4176  -6.3750  -6.3710
[...]
     1.0000   1.0000   1.0000   1.0000   1.0000   1.0000   1.0000   1.0000
     1.0000   1.0000   1.0000   1.0000   1.0000   1.0000   1.0000   1.0000
     1.0000   1.0000   1.0000   1.0000   1.0000   1.0000   1.0000   1.0000
     1.0000   1.0000   1.0000   1.0000   1.0000   1.0000   1.0000   1.0000
     1.0000   1.0000   1.0000   1.0000   1.0000   1.0000   1.0000   1.0000
     1.0000   1.0000   1.0000   1.0000   1.0000   1.0000   1.0000   1.0000
     1.0000   1.0000   1.0000   1.0000   1.0000   1.0000   1.0000   1.0000
     1.0000   1.0000   1.0000   1.0000   1.0000   1.0000   1.0000   1.0000
     1.0000   1.0000   1.0000   1.0000   1.0000   1.0000   1.0000   1.0000
     1.0000   1.0000   1.0000   1.0000   1.0000   1.0000   1.0000   1.0000
     1.0000   1.0000   1.0000   1.0000   1.0000   1.0000   1.0000   1.0000
     1.0000   1.0000   1.0000   1.0000   1.0000   1.0000   1.0000   1.0000
     1.0000   1.0000   1.0000   1.0000   1.0000   1.0000   1.0000   1.0000
     1.0000   1.0000   1.0000   1.0000   1.0000   1.0000   1.0000   1.0000
     1.0000   1.0000   1.0000   1.0000   1.0000   1.0000   1.0000   1.0000
     1.0000   1.0000   1.0000   1.0000   1.0000   1.0000   1.0000   1.0000
     1.0000   1.0000   1.0000   1.0000   1.0000   1.0000   1.0000   1.0000
     1.0000   1.0000   1.0000   1.0000   1.0000   1.0000   1.0000   1.0000
     1.0000   1.0000   1.0000   1.0000   1.0000   1.0000   1.0000   1.0000
     1.0000   1.0000   1.0000   1.0000   1.0000   1.0000   1.0000   1.0000
     1.0000   1.0000   1.0000   1.0000   1.0000   1.0000   1.0000   1.0000
     1.0000   1.0000   1.0000   1.0000   1.0000   1.0000   1.0000   1.0000
     1.0000   1.0000   1.0000   1.0000   1.0000   1.0000   1.0000   1.0000
     1.0000   1.0000   1.0000   1.0000   1.0000   1.0000   1.0000   1.0000
     1.0000   1.0000   1.0000   1.0000   1.0000   1.0000   1.0000   1.0000
     1.0000   1.0000   1.0000   1.0000   1.0000   1.0000   1.0000   1.0000
     1.0000   1.0000   1.0000   1.0000   1.0000   1.0000   1.0000   1.0000
     1.0000   1.0000   1.0000   1.0000   1.0000   1.0000   1.0000   1.0000
     1.0000   1.0000   1.0000   1.0000   1.0000   1.0000   1.0000   1.0000
     1.0000   1.0000   1.0000   1.0000   1.0000   1.0000   1.0000   1.0000
     1.0000   1.0000   1.0000   1.0000   1.0000   1.0000   1.0000   1.0000
     1.0000   1.0000   1.0000   1.0000   1.0000   1.0000   1.0000   1.0000
     1.0000   1.0000   1.0000   1.0000   1.0000   1.0000   1.0000   1.0000
     1.0000   1.0000   1.0000   1.0000   1.0000   1.0000   1.0000   1.0000
     1.0000   1.0000   1.0000   1.0000   1.0000   1.0000   1.0000   1.0000
     1.0000   1.0000   1.0000   1.0000   1.0000   1.0000   1.0000   1.0000
     1.0000   1.0000   1.0000   1.0000   1.0000   1.0000   1.0000   1.0000
     1.0000   1.0000   1.0000   1.0000   1.0000   1.0000   1.0000   1.0000
     1.0000   1.0000   1.0000   1.0000   1.0000   1.0000   1.0000   1.0000
     1.0000   1.0000   1.0000   1.0000   1.0000   1.0000   1.0000   1.0000
     1.0000   1.0000   1.0000   1.0000   1.0000   1.0000   1.0000   1.0000
     1.0000   1.0000   1.0000   1.0000   1.0000   1.0000   1.0000   1.0000
     1.0000   1.0000   1.0000   1.0000   1.0000   1.0000   1.0000   1.0000
     1.0000   1.0000   1.0000   1.0000   1.0000   1.0000   1.0000   1.0000
     1.0000   1.0000   1.0000   1.0000   1.0000   1.0000   1.0000   1.0000
     1.0000   1.0000   1.0000   1.0000   1.0000   1.0000   1.0000   1.0000
     1.0000   1.0000   1.0000   1.0000   1.0000   1.0000   1.0000   1.0000
     1.0000   1.0000   1.0000   1.0000   1.0000   1.0000   1.0000   1.0000
     1.0000   1.0000   1.0000   1.0000   1.0000   1.0000   1.0000   1.0000
     1.0000   1.0000   1.0000   1.0000   1.0000   1.0000   1.0000   1.0000
     1.0000   1.0000   1.0000   1.0000   1.0000   1.0000   1.0000   1.0000
     1.0000   1.0000   1.0000   1.0000   1.0000   1.0000   1.0000   1.0001
     1.0002   1.0004   1.0010   1.0160   1.0457   1.0833   0.7576   0.5812
     0.4382   0.1098   0.0000   0.0000   0.0000   0.0000   0.0000   0.0000
     0.0000   0.0000   0.0000   0.0000   0.0000   0.0000   0.0000   0.0000
     0.0000   0.0000   0.0000   0.0000   0.0000   0.0000   0.0000   0.0000
     0.0000   0.0000   0.0000   0.0000   0.0000   0.0000   0.0000   0.0000
     0.0000   0.0000   0.0000   0.0000   0.0000   0.0000   0.0000   0.0000
     0.0000   0.0000   0.0000   0.0000   0.0000   0.0000   0.0000   0.0000
     0.0000   0.0000   0.0000   0.0000   0.0000   0.0000   0.0000   0.0000
     0.0000   0.0000   0.0000   0.0000   0.0000   0.0000   0.0000   0.0000
     0.0000   0.0000   0.0000   0.0000   0.0000   0.0000   0.0000   0.0000
     0.0000   0.0000   0.0000   0.0000   0.0000   0.0000   0.0000   0.0000
     0.0000   0.0000   0.0000   0.0000   0.0000   0.0000   0.0000   0.0000
     0.0000   0.0000   0.0000   0.0000   0.0000   0.0000   0.0000   0.0000

          k =-0.5000-0.8660 0.0000 ( 64842 PWs)   bands (ev):

  -125.0412-125.0411-125.0403-125.0403-125.0390-125.0390-125.0390-125.0390
  -125.0387-125.0386-125.0382-125.0382-125.0382-125.0381-125.0378-125.0378
  -124.8716-124.8715-124.8711-124.8711-124.8707-124.8707-124.8702-124.8702
  -124.8695-124.8695-124.8694-124.8694-124.8691-124.8691-124.8690-124.8690
  -124.8690-124.8690-124.8686-124.8686-124.8686-124.8686-124.8686-124.8685
  -124.8682-124.8682-124.8681-124.8681-124.8681-124.8681-124.8677-124.8677
   -79.2037 -79.2037 -79.2037 -79.2036 -79.2012 -79.2012 -79.2002 -79.2002
   -79.1957 -79.1957 -79.1957 -79.1957 -79.1927 -79.1927 -79.1917 -79.1917
   -79.1907 -79.1907 -79.1903 -79.1903 -79.1903 -79.1903 -79.1899 -79.1898
   -79.1893 -79.1893 -79.1893 -79.1892 -79.1889 -79.1889 -79.1842 -79.1841
   -79.1826 -79.1826 -79.1826 -79.1825 -79.1793 -79.1793 -79.1793 -79.1793
   -79.1785 -79.1784 -79.1757 -79.1756 -79.1747 -79.1747 -79.1718 -79.1717
   -79.0327 -79.0327 -79.0327 -79.0327 -79.0323 -79.0323 -79.0322 -79.0322
   -79.0303 -79.0302 -79.0298 -79.0297 -79.0292 -79.0292 -79.0287 -79.0287
   -79.0278 -79.0277 -79.0273 -79.0272 -79.0268 -79.0268 -79.0263 -79.0263
   -79.0255 -79.0255 -79.0254 -79.0254 -79.0251 -79.0250 -79.0250 -79.0250
   -79.0250 -79.0250 -79.0247 -79.0247 -79.0247 -79.0247 -79.0246 -79.0246
   -79.0245 -79.0245 -79.0245 -79.0245 -79.0242 -79.0242 -79.0242 -79.0242
   -79.0241 -79.0241 -79.0241 -79.0241 -79.0240 -79.0240 -79.0237 -79.0237
   -79.0198 -79.0198 -79.0193 -79.0193 -79.0132 -79.0132 -79.0128 -79.0128
   -79.0117 -79.0117 -79.0117 -79.0117 -79.0112 -79.0112 -79.0112 -79.0112
   -79.0084 -79.0084 -79.0084 -79.0084 -79.0079 -79.0079 -79.0079 -79.0079
   -79.0076 -79.0075 -79.0071 -79.0070 -79.0048 -79.0048 -79.0043 -79.0043
   -79.0038 -79.0038 -79.0033 -79.0033 -79.0009 -79.0009 -79.0004 -79.0004
    -8.1493  -8.1493  -7.3106  -7.3106  -7.0334  -7.0334  -6.8552  -6.8552
    -6.8361  -6.8361  -6.7253  -6.7253  -6.7252  -6.7252  -6.6520  -6.6520
    -6.6303  -6.6302  -6.6279  -6.6279  -6.6279  -6.6279  -6.5984  -6.5984
    -6.5984  -6.5984  -6.5420  -6.5420  -6.5346  -6.5346  -6.5346  -6.5346
    -6.5091  -6.5091  -6.4772  -6.4772  -6.4772  -6.4772  -6.4618  -6.4618
    -6.4618  -6.4618  -6.4567  -6.4566  -6.4359  -6.4359  -6.4245  -6.4245
    -6.4244  -6.4244  -6.4034  -6.4034  -6.3105  -6.3105  -6.2974  -6.2974
    -6.2974  -6.2974  -6.2918  -6.2918  -6.2768  -6.2768  -6.2722  -6.2722
    -6.2722  -6.2721  -6.2290  -6.2289  -6.2213  -6.2213  -6.2213  -6.2213
    -6.1953  -6.1953  -6.1949  -6.1949  -6.1461  -6.1461  -6.1415  -6.1415
    -6.1180  -6.1180  -6.1024  -6.1024  -6.0836  -6.0836  -6.0836  -6.0836
    -6.0489  -6.0489  -6.0462  -6.0462  -6.0462  -6.0462  -6.0384  -6.0384
    -6.0275  -6.0275  -6.0231  -6.0230  -5.9911  -5.9911  -5.9911  -5.9911
    -5.9816  -5.9816  -5.9540  -5.9539  -5.9380  -5.9380  -5.9176  -5.9175
    -5.9099  -5.9099  -5.8606  -5.8606  -5.8606  -5.8606  -5.8199  -5.8199
    -5.8098  -5.8098  -5.8098  -5.8098  -5.8051  -5.8051  -5.7937  -5.7937
    -5.7892  -5.7891  -5.7864  -5.7864  -5.7703  -5.7703  -5.7703  -5.7703
    -5.7682  -5.7682  -5.7682  -5.7682  -5.7655  -5.7655  -5.7485  -5.7485
    -5.7485  -5.7485  -5.7316  -5.7316  -5.6811  -5.6811  -5.6793  -5.6793
    -5.6635  -5.6635  -5.6437  -5.6437  -5.6437  -5.6437  -5.6306  -5.6306
    -5.6166  -5.6165  -5.6062  -5.6062  -5.6061  -5.6061  -5.5964  -5.5964
    -5.5763  -5.5762  -5.5393  -5.5392  -5.5342  -5.5342  -5.5342  -5.5342
    -5.5266  -5.5265  -5.5264  -5.5264  -5.5227  -5.5227  -5.5227  -5.5227
    -5.5006  -5.5006  -5.5006  -5.5006  -5.4965  -5.4965  -5.4928  -5.4928
    -5.4862  -5.4862  -5.4850  -5.4850  -5.4660  -5.4660  -5.4660  -5.4660
    -5.4557  -5.4557  -5.4557  -5.4557  -5.4457  -5.4457  -5.4239  -5.4239
    -5.4154  -5.4154  -5.4107  -5.4106  -5.4085  -5.4085  -5.4066  -5.4066
    -5.4061  -5.4061  -5.4061  -5.4061  -5.3748  -5.3748  -5.3740  -5.3739
    -5.3560  -5.3560  -5.3560  -5.3560  -5.3297  -5.3297  -5.3297  -5.3297
    -5.2619  -5.2619  -5.2618  -5.2618  -5.2365  -5.2365  -5.2364  -5.2364
    -5.2312  -5.2312  -5.2104  -5.2104  -5.2075  -5.2075  -4.7029  -4.7029
    -4.4131  -4.4131  -4.4131  -4.4131  -3.7226  -3.7226  -3.1075  -3.1075
    -3.0668  -3.0668  -3.0668  -3.0668  -2.3879  -2.3879  -2.2457  -2.2457
    -1.7515  -1.7515  -1.7515  -1.7515  -0.7512  -0.7512  -0.7512  -0.7512
    -0.3320  -0.3320  -0.3320  -0.3320  -0.0896  -0.0895   0.0174   0.0174
     1.0298   1.0298   1.0500   1.0500   1.3412   1.3412   1.3746   1.3746
     1.3746   1.3746   2.2166   2.2166   2.9053   2.9053   2.9053   2.9053
     3.1025   3.1025   3.1025   3.1025   3.3160   3.3160   3.5558   3.5558
     3.8603   3.8603   3.8603   3.8603   3.9988   3.9988   4.2636   4.2636
     4.4477   4.4477   4.7487   4.7487   4.8660   4.8660   5.4864   5.4864
     5.5272   5.5273   5.7259   5.7259   5.7949   5.7949   5.9302   5.9302
     5.9302   5.9302   5.9874   5.9874   5.9874   5.9874   6.1552   6.1552
     6.1552   6.1552   6.4288   6.4288   6.5532   6.5532   6.6443   6.6443
     6.6640   6.6640   6.8486   6.8486   6.8675   6.8675   7.0185   7.0185
     7.0185   7.0185   7.5867   7.5867   7.7461   7.7461   8.0648   8.0648
     8.0899   8.0899   8.0899   8.0899   8.2827   8.2827   8.4775   8.4775
     8.4775   8.4775   8.6228   8.6228   8.6228   8.6228   8.6686   8.6686
     8.7407   8.7408   8.8126   8.8126   9.0005   9.0005   9.0006   9.0006

     occupation numbers 
     1.0000   1.0000   1.0000   1.0000   1.0000   1.0000   1.0000   1.0000
     1.0000   1.0000   1.0000   1.0000   1.0000   1.0000   1.0000   1.0000
     1.0000   1.0000   1.0000   1.0000   1.0000   1.0000   1.0000   1.0000
     1.0000   1.0000   1.0000   1.0000   1.0000   1.0000   1.0000   1.0000
     1.0000   1.0000   1.0000   1.0000   1.0000   1.0000   1.0000   1.0000
     1.0000   1.0000   1.0000   1.0000   1.0000   1.0000   1.0000   1.0000
     1.0000   1.0000   1.0000   1.0000   1.0000   1.0000   1.0000   1.0000
     1.0000   1.0000   1.0000   1.0000   1.0000   1.0000   1.0000   1.0000
     1.0000   1.0000   1.0000   1.0000   1.0000   1.0000   1.0000   1.0000
     1.0000   1.0000   1.0000   1.0000   1.0000   1.0000   1.0000   1.0000
     1.0000   1.0000   1.0000   1.0000   1.0000   1.0000   1.0000   1.0000
     1.0000   1.0000   1.0000   1.0000   1.0000   1.0000   1.0000   1.0000
     1.0000   1.0000   1.0000   1.0000   1.0000   1.0000   1.0000   1.0000
     1.0000   1.0000   1.0000   1.0000   1.0000   1.0000   1.0000   1.0000
     1.0000   1.0000   1.0000   1.0000   1.0000   1.0000   1.0000   1.0000
     1.0000   1.0000   1.0000   1.0000   1.0000   1.0000   1.0000   1.0000
     1.0000   1.0000   1.0000   1.0000   1.0000   1.0000   1.0000   1.0000
     1.0000   1.0000   1.0000   1.0000   1.0000   1.0000   1.0000   1.0000
     1.0000   1.0000   1.0000   1.0000   1.0000   1.0000   1.0000   1.0000
     1.0000   1.0000   1.0000   1.0000   1.0000   1.0000   1.0000   1.0000
     1.0000   1.0000   1.0000   1.0000   1.0000   1.0000   1.0000   1.0000
     1.0000   1.0000   1.0000   1.0000   1.0000   1.0000   1.0000   1.0000
     1.0000   1.0000   1.0000   1.0000   1.0000   1.0000   1.0000   1.0000
     1.0000   1.0000   1.0000   1.0000   1.0000   1.0000   1.0000   1.0000
     1.0000   1.0000   1.0000   1.0000   1.0000   1.0000   1.0000   1.0000
     1.0000   1.0000   1.0000   1.0000   1.0000   1.0000   1.0000   1.0000
     1.0000   1.0000   1.0000   1.0000   1.0000   1.0000   1.0000   1.0000
     1.0000   1.0000   1.0000   1.0000   1.0000   1.0000   1.0000   1.0000
     1.0000   1.0000   1.0000   1.0000   1.0000   1.0000   1.0000   1.0000
     1.0000   1.0000   1.0000   1.0000   1.0000   1.0000   1.0000   1.0000
     1.0000   1.0000   1.0000   1.0000   1.0000   1.0000   1.0000   1.0000
     1.0000   1.0000   1.0000   1.0000   1.0000   1.0000   1.0000   1.0000
     1.0000   1.0000   1.0000   1.0000   1.0000   1.0000   1.0000   1.0000
     1.0000   1.0000   1.0000   1.0000   1.0000   1.0000   1.0000   1.0000
     1.0000   1.0000   1.0000   1.0000   1.0000   1.0000   1.0000   1.0000
     1.0000   1.0000   1.0000   1.0000   1.0000   1.0000   1.0000   1.0000
     1.0000   1.0000   1.0000   1.0000   1.0000   1.0000   1.0000   1.0000
     1.0000   1.0000   1.0000   1.0000   1.0000   1.0000   1.0000   1.0000
     1.0000   1.0000   1.0000   1.0000   1.0000   1.0000   1.0000   1.0000
     1.0000   1.0000   1.0000   1.0000   1.0000   1.0000   1.0000   1.0000
     1.0000   1.0000   1.0000   1.0000   1.0000   1.0000   1.0000   1.0000
     1.0000   1.0000   1.0000   1.0000   1.0000   1.0000   1.0000   1.0000
     1.0000   1.0000   1.0000   1.0000   1.0000   1.0000   1.0000   1.0000
     1.0000   1.0000   1.0000   1.0000   1.0000   1.0000   1.0000   1.0000
     1.0000   1.0000   1.0000   1.0000   1.0000   1.0000   1.0000   1.0000
     1.0000   1.0000   1.0000   1.0000   1.0000   1.0000   1.0000   1.0000
     1.0000   1.0000   1.0000   1.0000   1.0000   1.0000   1.0000   1.0000
     1.0000   1.0000   1.0000   1.0000   1.0000   1.0000   1.0000   1.0000
     1.0000   1.0000   1.0000   1.0000   1.0000   1.0000   1.0000   1.0000
     1.0000   1.0000   1.0000   1.0000   1.0000   1.0000   1.0000   1.0000
     1.0000   1.0000   1.0000   1.0000   1.0000   1.0000   1.0000   1.0000
     1.0000   1.0000   1.0000   1.0000   1.0000   1.0000   1.0000   1.0000
     1.0000   1.0000   1.0000   1.0000   1.0000   1.0000   1.0000   1.0000
     1.0000   1.0000   1.0000   1.0000   1.0000   1.0000   1.0000   1.0000
     1.0000   1.0000   1.0000   1.0000   1.0000   1.0000   1.0000   1.0000
     1.0000   1.0000   1.0000   1.0000   1.0000   1.0000   1.0000   1.0000
     1.0000   1.0000   1.0000   1.0000   1.0000   1.0000   1.0000   1.0000
     1.0000   1.0000   1.0000   1.0000   1.0000   1.0000   1.0000   1.0000
     1.0000   1.0000   1.0000   1.0000   1.0000   1.0000   1.0000   1.0000
     1.0708   1.0708   1.0763   1.0763   0.7887   0.7887   0.7015   0.7015
     0.7014   0.7014   0.0000   0.0000   0.0000   0.0000   0.0000   0.0000
     0.0000   0.0000   0.0000   0.0000   0.0000   0.0000   0.0000   0.0000
     0.0000   0.0000   0.0000   0.0000   0.0000   0.0000   0.0000   0.0000
     0.0000   0.0000   0.0000   0.0000   0.0000   0.0000   0.0000   0.0000
     0.0000   0.0000   0.0000   0.0000   0.0000   0.0000   0.0000   0.0000
     0.0000   0.0000   0.0000   0.0000   0.0000   0.0000   0.0000   0.0000
     0.0000   0.0000   0.0000   0.0000   0.0000   0.0000   0.0000   0.0000
     0.0000   0.0000   0.0000   0.0000   0.0000   0.0000   0.0000   0.0000
     0.0000   0.0000   0.0000   0.0000   0.0000   0.0000   0.0000   0.0000
     0.0000   0.0000   0.0000   0.0000   0.0000   0.0000   0.0000   0.0000
     0.0000   0.0000   0.0000   0.0000   0.0000   0.0000   0.0000   0.0000
     0.0000   0.0000   0.0000   0.0000   0.0000   0.0000   0.0000   0.0000

     the Fermi energy is     1.4858 ev

!    total energy              =  -22154.26174376 Ry
     estimated scf accuracy    <       0.00000722 Ry
     smearing contrib. (-TS)   =      -0.00547768 Ry
     internal energy E=F+TS    =  -22154.25626608 Ry

     The total energy is F=E-TS. E is the sum of the following terms:
     one-electron contribution = -144865.12674671 Ry
     hartree contribution      =   72365.72817034 Ry
     xc contribution           =   -2024.10563340 Ry
     ewald contribution        =   52369.24794370 Ry

     convergence has been achieved in   9 iterations

     Writing all to output data dir ./tmp/Zn002.save/ :
     XML data file, charge density, pseudopotentials, collected wavefunctions

     init_run     :    224.05s CPU    225.49s WALL (       1 calls)
     electrons    :   8073.82s CPU   8130.56s WALL (       1 calls)

     Called by init_run:
     wfcinit      :    222.78s CPU    224.15s WALL (       1 calls)
     wfcinit:atom :      0.15s CPU      0.24s WALL (      20 calls)
     wfcinit:wfcr :    220.51s CPU    221.62s WALL (      20 calls)
     potinit      :      0.07s CPU      0.08s WALL (       1 calls)
     hinit0       :      0.03s CPU      0.04s WALL (       1 calls)

     Called by electrons:
     c_bands      :   7526.07s CPU   7579.63s WALL (      10 calls)
     sum_band     :    539.09s CPU    541.95s WALL (      10 calls)
     v_of_rho     :      0.67s CPU      0.71s WALL (      10 calls)
     v_h          :      0.04s CPU      0.05s WALL (      10 calls)
     v_xc         :      0.63s CPU      0.66s WALL (      10 calls)
     newd         :      8.74s CPU      9.00s WALL (      10 calls)
     mix_rho      :      0.07s CPU      0.08s WALL (      10 calls)

     Called by c_bands:
     init_us_2    :      7.88s CPU      7.92s WALL (     420 calls)
     cegterg      :   7510.57s CPU   7563.94s WALL (     200 calls)

     Called by sum_band:
     sum_band:wei :      0.09s CPU      0.09s WALL (      10 calls)
     sum_band:loo :    530.14s CPU    532.72s WALL (      10 calls)
     sum_band:buf :      1.69s CPU      1.70s WALL (     200 calls)
     sum_band:ini :      3.75s CPU      3.76s WALL (     200 calls)
     sum_band:cal :    452.34s CPU    454.38s WALL (     200 calls)
     sum_band:bec :      4.05s CPU      4.06s WALL (     200 calls)
     addusdens    :      8.66s CPU      8.93s WALL (      10 calls)
                                        0.00s GPU  (      10 calls)
     addusd:skk   :      0.09s CPU      0.09s WALL (      10 calls)
                                        0.00s GPU  (      10 calls)

     Called by *egterg:
     cdiaghg      :    511.50s CPU    531.36s WALL (    1156 calls)
     cegterg:over :   1155.87s CPU   1159.66s WALL (     976 calls)
     cegterg:upda :    528.71s CPU    531.87s WALL (     976 calls)
     cegterg:last :   1707.70s CPU   1717.51s WALL (     380 calls)
     cdiaghg:chol :     31.62s CPU     31.70s WALL (    1156 calls)
     cdiaghg:inve :      5.02s CPU      5.03s WALL (    1156 calls)
     cdiaghg:para :    130.01s CPU    132.54s WALL (    2312 calls)
     h_psi        :   2429.08s CPU   2440.32s WALL (    1196 calls)
     s_psi        :   1020.09s CPU   1022.51s WALL (    1196 calls)
     g_psi        :      1.01s CPU      1.02s WALL (     976 calls)

     Called by h_psi:
     h_psi:calbec :   1085.23s CPU   1090.09s WALL (    1196 calls)
     vloc_psi     :    308.23s CPU    310.52s WALL (    1196 calls)
     add_vuspsi   :   1032.62s CPU   1035.13s WALL (    1196 calls)

     General routines
     calbec       :   1537.57s CPU   1544.47s WALL (    1396 calls)
     fft          :      0.46s CPU      0.53s WALL (     128 calls)
     ffts         :      0.02s CPU      0.02s WALL (      20 calls)
     fftw         :    326.16s CPU    328.50s WALL (  667344 calls)
     interpolate  :      0.04s CPU      0.05s WALL (      10 calls)

     Parallel routines

     PWSCF        :      2h18m CPU      2h19m WALL


   This run was terminated on:   4:33:53  27Mar2025            

=------------------------------------------------------------------------------=
   JOB DONE.
=------------------------------------------------------------------------------=
