--------------------------------------------------------------------------
By default, for Open MPI 4.0 and later, infiniband ports on a device
are not used by default.  The intent is to use UCX for these devices.
You can override this policy by setting the btl_openib_allow_ib MCA parameter
to true.

  Local host:              psid08
  Local adapter:           mlx4_0
  Local port:              1

--------------------------------------------------------------------------
--------------------------------------------------------------------------
WARNING: There was an error initializing an OpenFabrics device.

  Local host:   psid08
  Local device: mlx4_0
--------------------------------------------------------------------------

     Program PWSCF v.7.3.1 starts on 24Mar2025 at 19:12:11 

     This program is part of the open-source Quantum ESPRESSO suite
     for quantum simulation of materials; please cite
         "P. Giannozzi et al., J. Phys.:Condens. Matter 21 395502 (2009);
         "P. Giannozzi et al., J. Phys.:Condens. Matter 29 465901 (2017);
         "P. Giannozzi et al., J. Chem. Phys. 152 154105 (2020);
          URL http://www.quantum-espresso.org", 
     in publications or presentations arising from this work. More details at
     http://www.quantum-espresso.org/quote

     Parallel version (MPI), running on    28 processors

     MPI processes distributed on     1 nodes
     184742 MiB available memory on the printing compute node when the environment starts

     Waiting for input...
     Reading input from standard input

     Current dimensions of program PWSCF are:
     Max number of different atomic species (ntypx) = 10
     Max number of k-points (npk) =  40000
     Max angular momentum in pseudopotentials (lmaxx) =  4
     Message from routine input:
     WARNING: "startingwfc" set to atomic+random may spoil restart
     Message from routine input:
     WARNING: "startingpot" set to atomic may spoil restart
     file C.pbe-n-kjpaw_psl.1.0.0.UPF: wavefunction(s)  2S 2P renormalized

     gamma-point specific algorithms are used

     R & G space division:  proc/nbgrp/npool/nimage =      28
     Subspace diagonalization in iterative solution of the eigenvalue problem:
     a serial algorithm will be used


     Parallelization info
     --------------------
     sticks:   dense  smooth     PW     G-vecs:    dense   smooth      PW
     Min         759     759    190                83583    83583   10444
     Max         764     764    194                83594    83594   10452
     Sum       21329   21329   5337              2340509  2340509  292499

     Using Slab Decomposition



     bravais-lattice index     =            1
     lattice parameter (alat)  =      47.2432  a.u.
     unit-cell volume          =  105442.7265 (a.u.)^3
     number of atoms/cell      =           15
     number of atomic types    =            3
     number of electrons       =        44.00
     number of Kohn-Sham states=           26
     kinetic-energy cutoff     =      30.0000  Ry
     charge density cutoff     =     120.0000  Ry
     scf convergence threshold =      1.0E-08
     mixing beta               =       0.7000
     number of iterations used =            8  plain     mixing
     Exchange-correlation= PBE
                           (   1   4   3   4   0   0   0)

     celldm(1)=  47.243153  celldm(2)=   0.000000  celldm(3)=   0.000000
     celldm(4)=   0.000000  celldm(5)=   0.000000  celldm(6)=   0.000000

     crystal axes: (cart. coord. in units of alat)
               a(1) = (   1.000000   0.000000   0.000000 )  
               a(2) = (   0.000000   1.000000   0.000000 )  
               a(3) = (   0.000000   0.000000   1.000000 )  

     reciprocal axes: (cart. coord. in units 2 pi/alat)
               b(1) = (  1.000000  0.000000  0.000000 )  
               b(2) = (  0.000000  1.000000  0.000000 )  
               b(3) = (  0.000000  0.000000  1.000000 )  


     PseudoPot. # 1 for N  read from file:
     /home/ys/qepseudo/SSSP_1.3.0_PBE_efficiency/N.pbe-n-radius_5.UPF
     MD5 check sum: 16739722b17309cd8fe442a2ace49922
     Pseudo is Ultrasoft + core correction, Zval =  5.0
     Generated using "atomic" code by A. Dal Corso  v.5.1
     Using radial grid of 1085 points,  4 beta functions with: 
                l(1) =   0
                l(2) =   0
                l(3) =   1
                l(4) =   1
     Q(r) pseudized with 0 coefficients 


     PseudoPot. # 2 for C  read from file:
     /home/ys/qepseudo/SSSP_1.3.0_PBE_efficiency/C.pbe-n-kjpaw_psl.1.0.0.UPF
     MD5 check sum: 5d2aebdfa2cae82b50a7e79e9516da0f
     Pseudo is Projector augmented-wave + core cor, Zval =  4.0
     Generated using "atomic" code by A. Dal Corso  v.5.1
     Shape of augmentation charge: PSQ
     Using radial grid of 1073 points,  4 beta functions with: 
                l(1) =   0
                l(2) =   0
                l(3) =   1
                l(4) =   1
     Q(r) pseudized with 0 coefficients 


     PseudoPot. # 3 for H  read from file:
     /home/ys/qepseudo/SSSP_1.3.0_PBE_efficiency/H.pbe-rrkjus_psl.1.0.0.UPF
     MD5 check sum: f52b6d4d1c606e5624b1dc7b2218f220
     Pseudo is Ultrasoft, Zval =  1.0
     Generated using "atomic" code by A. Dal Corso  v.5.1
     Using radial grid of  929 points,  2 beta functions with: 
                l(1) =   0
                l(2) =   0
     Q(r) pseudized with 0 coefficients 


     atomic species   valence    mass     pseudopotential
     N                 5.00    14.00674     N ( 1.00)
     C                 4.00    12.01070     C ( 1.00)
     H                 1.00     1.00794     H ( 1.00)

     No symmetry found


                                    s                        frac. trans.

      isym =  1     identity                                     

 cryst.   s( 1) = (     1          0          0      )
                  (     0          1          0      )
                  (     0          0          1      )

 cart.    s( 1) = (  1.0000000  0.0000000  0.0000000 )
                  (  0.0000000  1.0000000  0.0000000 )
                  (  0.0000000  0.0000000  1.0000000 )


     point group C_1 (1)    
     there are  1 classes
     the character table:

       E    
A      1.00

     the symmetry operations in each class and the name of the first element:

     E        1
          identity                                               

   Cartesian axes

     site n.     atom                  positions (alat units)
         1        N      tau(   1) = (   0.3082678   0.1827150   0.1827483  )
         2        N      tau(   2) = (   0.0363798   0.1828990   0.1827129  )
         3        C      tau(   3) = (   0.2534588   0.1827714   0.1830055  )
         4        C      tau(   4) = (   0.2244869   0.1342045   0.1830535  )
         5        C      tau(   5) = (   0.2245759   0.2313823   0.1829050  )
         6        C      tau(   6) = (   0.1403054   0.1828634   0.1831074  )
         7        C      tau(   7) = (   0.1690373   0.1343110   0.1830798  )
         8        C      tau(   8) = (   0.1691172   0.2313529   0.1829516  )
         9        C      tau(   9) = (   0.0833500   0.1829758   0.1830006  )
        10        H      tau(  10) = (   0.2461775   0.0961439   0.1827069  )
        11        H      tau(  11) = (   0.2463212   0.2694081   0.1825574  )
        12        H      tau(  12) = (   0.1471759   0.0964282   0.1827547  )
        13        H      tau(  13) = (   0.1472591   0.2692297   0.1826131  )
        14        H      tau(  14) = (   0.3292573   0.2174491   0.1824904  )
        15        H      tau(  15) = (   0.3292127   0.1479599   0.1825171  )

   Crystallographic axes

     site n.     atom                  positions (cryst. coord.)
         1        N      tau(   1) = (  0.3082678  0.1827150  0.1827483  )
         2        N      tau(   2) = (  0.0363798  0.1828990  0.1827129  )
         3        C      tau(   3) = (  0.2534588  0.1827714  0.1830055  )
         4        C      tau(   4) = (  0.2244869  0.1342045  0.1830535  )
         5        C      tau(   5) = (  0.2245759  0.2313823  0.1829050  )
         6        C      tau(   6) = (  0.1403054  0.1828634  0.1831074  )
         7        C      tau(   7) = (  0.1690373  0.1343110  0.1830798  )
         8        C      tau(   8) = (  0.1691172  0.2313529  0.1829516  )
         9        C      tau(   9) = (  0.0833500  0.1829758  0.1830006  )
        10        H      tau(  10) = (  0.2461775  0.0961439  0.1827069  )
        11        H      tau(  11) = (  0.2463212  0.2694081  0.1825574  )
        12        H      tau(  12) = (  0.1471759  0.0964282  0.1827547  )
        13        H      tau(  13) = (  0.1472591  0.2692297  0.1826131  )
        14        H      tau(  14) = (  0.3292573  0.2174491  0.1824904  )
        15        H      tau(  15) = (  0.3292127  0.1479599  0.1825171  )

     number of k points=     1  Marzari-Vanderbilt smearing, width (Ry)=  0.0200
                       cart. coord. in units 2pi/alat
        k(    1) = (   0.0000000   0.0000000   0.0000000), wk =   2.0000000

                       cryst. coord.
        k(    1) = (   0.0000000   0.0000000   0.0000000), wk =   2.0000000

     Dense  grid:  1170255 G-vectors     FFT dimensions: ( 180, 180, 180)

     Dynamical RAM for                 wfc:       2.07 MB

     Dynamical RAM for     wfc (w. buffer):       2.07 MB

     Dynamical RAM for           str. fact:       1.91 MB

     Dynamical RAM for           local pot:       0.00 MB

     Dynamical RAM for          nlocal pot:       6.70 MB

     Dynamical RAM for                qrad:       0.75 MB

     Dynamical RAM for          rho,v,vnew:       7.10 MB

     Dynamical RAM for               rhoin:       2.37 MB

     Dynamical RAM for            rho*nmix:      10.20 MB

     Dynamical RAM for           G-vectors:       2.71 MB

     Dynamical RAM for          h,s,v(r/c):       0.06 MB

     Dynamical RAM for          <psi|beta>:       0.02 MB

     Dynamical RAM for                 psi:       4.15 MB

     Dynamical RAM for                hpsi:       4.15 MB

     Dynamical RAM for                spsi:       4.15 MB

     Dynamical RAM for      wfcinit/wfcrot:       6.74 MB

     Dynamical RAM for           addusdens:      31.89 MB

     Dynamical RAM for          addusforce:      39.87 MB

     Dynamical RAM for         addusstress:      31.89 MB

     Estimated static dynamical RAM per process >      34.82 MB

     Estimated max dynamical RAM per process >      84.89 MB

     Estimated total dynamical RAM >       2.32 GB

     Atomic positions and unit cell read from directory:
     ./tmp/H2O.save/


     Check: negative core charge=   -0.000015
     Cannot read rho : file not found

     Initial potential from superposition of free atoms

     starting charge      43.9996, renormalised to      44.0000

     negative rho (up, down):  9.908E-02 0.000E+00
     Starting wfcs are   42 randomized atomic wfcs
     Checking if some PAW data can be deallocated... 
       PAW data deallocated on   14 nodes for type:  2

     total cpu time spent up to now is        1.2 secs

     Self-consistent Calculation

     iteration #  1     ecut=    30.00 Ry     beta= 0.70
     Davidson diagonalization with overlap

---- Real-time Memory Report at c_bands before calling an iterative solver
            83 MiB given to the printing process from OS
             0 MiB allocation reported by mallinfo(arena+hblkhd)
        182714 MiB available memory on the node where the printing process lives
------------------
     ethr =  1.00E-05,  avg # of iterations =  8.0

     negative rho (up, down):  2.476E-01 0.000E+00

     total cpu time spent up to now is        3.3 secs

     total energy              =    -175.85382593 Ry
     estimated scf accuracy    <       1.86376239 Ry

     iteration #  2     ecut=    30.00 Ry     beta= 0.70
     Davidson diagonalization with overlap

---- Real-time Memory Report at c_bands before calling an iterative solver
            92 MiB given to the printing process from OS
             0 MiB allocation reported by mallinfo(arena+hblkhd)
        182589 MiB available memory on the node where the printing process lives
------------------
     ethr =  4.24E-03,  avg # of iterations =  5.0

     negative rho (up, down):  2.649E-01 0.000E+00

     total cpu time spent up to now is        4.6 secs

     total energy              =    -176.22300399 Ry
     estimated scf accuracy    <       0.64504709 Ry

     iteration #  3     ecut=    30.00 Ry     beta= 0.70
     Davidson diagonalization with overlap

---- Real-time Memory Report at c_bands before calling an iterative solver
            93 MiB given to the printing process from OS
             0 MiB allocation reported by mallinfo(arena+hblkhd)
        182566 MiB available memory on the node where the printing process lives
------------------
[psid08:243497] 27 more processes have sent help message help-mpi-btl-openib.txt / ib port not selected
[psid08:243497] Set MCA parameter "orte_base_help_aggregate" to 0 to see all help / error messages
[psid08:243497] 27 more processes have sent help message help-mpi-btl-openib.txt / error in device init
     ethr =  1.47E-03,  avg # of iterations =  2.0

     negative rho (up, down):  2.754E-01 0.000E+00

     total cpu time spent up to now is        5.8 secs

     total energy              =    -176.33429968 Ry
     estimated scf accuracy    <       0.21316173 Ry

     iteration #  4     ecut=    30.00 Ry     beta= 0.70
     Davidson diagonalization with overlap

---- Real-time Memory Report at c_bands before calling an iterative solver
            94 MiB given to the printing process from OS
             0 MiB allocation reported by mallinfo(arena+hblkhd)
        182530 MiB available memory on the node where the printing process lives
------------------
     ethr =  4.84E-04,  avg # of iterations =  5.0

     negative rho (up, down):  2.895E-01 0.000E+00

     total cpu time spent up to now is        6.9 secs

     total energy              =    -176.38012310 Ry
     estimated scf accuracy    <       0.02720045 Ry

     iteration #  5     ecut=    30.00 Ry     beta= 0.70
     Davidson diagonalization with overlap

---- Real-time Memory Report at c_bands before calling an iterative solver
            95 MiB given to the printing process from OS
             0 MiB allocation reported by mallinfo(arena+hblkhd)
        182492 MiB available memory on the node where the printing process lives
------------------
     ethr =  6.18E-05,  avg # of iterations = 13.0

     negative rho (up, down):  2.925E-01 0.000E+00

     total cpu time spent up to now is        8.2 secs

     total energy              =    -176.38460157 Ry
     estimated scf accuracy    <       0.00134285 Ry

     iteration #  6     ecut=    30.00 Ry     beta= 0.70
     Davidson diagonalization with overlap

---- Real-time Memory Report at c_bands before calling an iterative solver
            97 MiB given to the printing process from OS
             0 MiB allocation reported by mallinfo(arena+hblkhd)
        182459 MiB available memory on the node where the printing process lives
------------------
     ethr =  3.05E-06,  avg # of iterations =  8.0

     negative rho (up, down):  2.935E-01 0.000E+00

     total cpu time spent up to now is        9.6 secs

     total energy              =    -176.38498338 Ry
     estimated scf accuracy    <       0.00016185 Ry

     iteration #  7     ecut=    30.00 Ry     beta= 0.70
     Davidson diagonalization with overlap

---- Real-time Memory Report at c_bands before calling an iterative solver
            98 MiB given to the printing process from OS
             0 MiB allocation reported by mallinfo(arena+hblkhd)
        182422 MiB available memory on the node where the printing process lives
------------------
     ethr =  3.68E-07,  avg # of iterations =  2.0

     negative rho (up, down):  2.938E-01 0.000E+00

     total cpu time spent up to now is       10.7 secs

     total energy              =    -176.38501893 Ry
     estimated scf accuracy    <       0.00004135 Ry

     iteration #  8     ecut=    30.00 Ry     beta= 0.70
     Davidson diagonalization with overlap

---- Real-time Memory Report at c_bands before calling an iterative solver
            99 MiB given to the printing process from OS
             0 MiB allocation reported by mallinfo(arena+hblkhd)
        182390 MiB available memory on the node where the printing process lives
------------------
     ethr =  9.40E-08,  avg # of iterations =  2.0

     negative rho (up, down):  2.939E-01 0.000E+00

     total cpu time spent up to now is       11.9 secs

     total energy              =    -176.38502779 Ry
     estimated scf accuracy    <       0.00001036 Ry

     iteration #  9     ecut=    30.00 Ry     beta= 0.70
     Davidson diagonalization with overlap

---- Real-time Memory Report at c_bands before calling an iterative solver
           100 MiB given to the printing process from OS
             0 MiB allocation reported by mallinfo(arena+hblkhd)
        182352 MiB available memory on the node where the printing process lives
------------------
     ethr =  2.36E-08,  avg # of iterations =  2.0

     negative rho (up, down):  2.940E-01 0.000E+00

     total cpu time spent up to now is       12.9 secs

     total energy              =    -176.38502957 Ry
     estimated scf accuracy    <       0.00000060 Ry

     iteration # 10     ecut=    30.00 Ry     beta= 0.70
     Davidson diagonalization with overlap

---- Real-time Memory Report at c_bands before calling an iterative solver
           102 MiB given to the printing process from OS
             0 MiB allocation reported by mallinfo(arena+hblkhd)
        182317 MiB available memory on the node where the printing process lives
------------------
     ethr =  1.37E-09,  avg # of iterations =  4.0

     negative rho (up, down):  2.940E-01 0.000E+00

     total cpu time spent up to now is       14.1 secs

     total energy              =    -176.38502981 Ry
     estimated scf accuracy    <       0.00000016 Ry

     iteration # 11     ecut=    30.00 Ry     beta= 0.70
     Davidson diagonalization with overlap

---- Real-time Memory Report at c_bands before calling an iterative solver
           102 MiB given to the printing process from OS
             0 MiB allocation reported by mallinfo(arena+hblkhd)
        182316 MiB available memory on the node where the printing process lives
------------------
     ethr =  3.54E-10,  avg # of iterations =  2.0

     negative rho (up, down):  2.940E-01 0.000E+00

     total cpu time spent up to now is       15.1 secs

     total energy              =    -176.38502981 Ry
     estimated scf accuracy    <       0.00000004 Ry

     iteration # 12     ecut=    30.00 Ry     beta= 0.70
     Davidson diagonalization with overlap

---- Real-time Memory Report at c_bands before calling an iterative solver
           102 MiB given to the printing process from OS
             0 MiB allocation reported by mallinfo(arena+hblkhd)
        182316 MiB available memory on the node where the printing process lives
------------------
     ethr =  9.27E-11,  avg # of iterations =  3.0

     negative rho (up, down):  2.940E-01 0.000E+00

     total cpu time spent up to now is       16.2 secs

     End of self-consistent calculation

          k = 0.0000 0.0000 0.0000 (146250 PWs)   bands (ev):

   -23.7279 -22.1850 -21.4009 -19.0305 -18.9569 -16.0653 -15.7677 -13.8294
   -13.4591 -13.3253 -11.2665 -11.1061 -10.6928 -10.1789  -9.9300  -9.0000
    -8.8235  -8.1140  -7.7215  -7.5271  -6.8196  -5.4326  -1.8717  -1.6947
    -1.6256  -1.2138

     occupation numbers 
     1.0000   1.0000   1.0000   1.0000   1.0000   1.0000   1.0000   1.0000
     1.0000   1.0000   1.0000   1.0000   1.0000   1.0000   1.0000   1.0000
     1.0000   1.0000   1.0000   1.0000   1.0000   1.0000   0.0000   0.0000
     0.0000   0.0000

     the Fermi energy is    -3.7345 ev

!    total energy              =    -176.38502982 Ry
     estimated scf accuracy    <          6.4E-09 Ry
     smearing contrib. (-TS)   =       0.00000000 Ry
     internal energy E=F+TS    =    -176.38502982 Ry

     The total energy is F=E-TS. E is the sum of the following terms:
     one-electron contribution =    -700.55788526 Ry
     hartree contribution      =     355.37223952 Ry
     xc contribution           =     -47.21486475 Ry
     ewald contribution        =     259.19844933 Ry
     one-center paw contrib.   =     -43.18296866 Ry
      -> PAW hartree energy AE =       0.00000000 Ry
      -> PAW hartree energy PS =       0.00000000 Ry
      -> PAW xc energy AE      =       0.00000000 Ry
      -> PAW xc energy PS      =       0.00000000 Ry
      -> total E_H with PAW    =     355.37223952 Ry
      -> total E_XC with PAW   =     -47.21486475 Ry

     convergence has been achieved in  12 iterations

     negative rho (up, down):  2.940E-01 0.000E+00

     Forces acting on atoms (cartesian axes, Ry/au):

     atom    1 type  1   force =    -0.00003671    0.00025684    0.00022514
     atom    2 type  1   force =    -0.00020803    0.00013674    0.00005714
     atom    3 type  2   force =    -0.00003993   -0.00018582   -0.00012624
     atom    4 type  2   force =     0.00007654    0.00022752   -0.00015536
     atom    5 type  2   force =     0.00025762   -0.00011626   -0.00003586
     atom    6 type  2   force =    -0.00017326    0.00012540   -0.00011075
     atom    7 type  2   force =     0.00027537   -0.00033142   -0.00011383
     atom    8 type  2   force =     0.00018657    0.00029081   -0.00004717
     atom    9 type  2   force =    -0.00020613    0.00010900    0.00008074
     atom   10 type  3   force =     0.00001186   -0.00022637    0.00018590
     atom   11 type  3   force =     0.00003218    0.00002115   -0.00000305
     atom   12 type  3   force =    -0.00014278   -0.00017917    0.00036198
     atom   13 type  3   force =     0.00007970    0.00033258    0.00020273
     atom   14 type  3   force =    -0.00004292   -0.00004201   -0.00028575
     atom   15 type  3   force =    -0.00007007   -0.00041898   -0.00023564
     The non-local contrib.  to forces
     atom    1 type  1   force =    -0.04191391    0.00051846   -0.00906679
     atom    2 type  1   force =     1.88540166    0.00438104    0.01311061
     atom    3 type  2   force =     0.33689569   -0.00068255    0.00013245
     atom    4 type  2   force =     0.05859338    0.03787967    0.00056190
     atom    5 type  2   force =     0.05786577   -0.03793759    0.00126470
     atom    6 type  2   force =    -0.25828628    0.00011229    0.00127095
     atom    7 type  2   force =    -0.01748760    0.03533504    0.00145240
     atom    8 type  2   force =    -0.01689685   -0.03483593    0.00128423
     atom    9 type  2   force =     0.24023434    0.00007640    0.00150169
     atom   10 type  3   force =    -0.03730148    0.06787556    0.00065783
     atom   11 type  3   force =    -0.03739659   -0.06780563    0.00065371
     atom   12 type  3   force =     0.03980429    0.06871509    0.00065642
     atom   13 type  3   force =     0.03982312   -0.06867236    0.00067205
     atom   14 type  3   force =    -0.05286583   -0.08653079    0.00063835
     atom   15 type  3   force =    -0.05282437    0.08663361    0.00057083
     The ionic contribution  to forces
     atom    1 type  1   force =     9.89737983   -0.00973212   -0.00798562
     atom    2 type  1   force =   -13.55190918   -0.01036117   -0.06138889
     atom    3 type  2   force =     2.63101683   -0.00221937    0.04249324
     atom    4 type  2   force =     2.70992274   -7.03646190    0.03114924
     atom    5 type  2   force =     2.71999307    7.03428879    0.00271255
     atom    6 type  2   force =    -3.43009850   -0.00340139    0.04205913
     atom    7 type  2   force =    -2.66776468   -6.95868736    0.02824967
     atom    8 type  2   force =    -2.64843929    6.96430800    0.00736001
     atom    9 type  2   force =    -1.53040062    0.02689882    0.04401046
     atom   10 type  3   force =     1.50289805   -3.27113471   -0.01962865
     atom   11 type  3   force =     1.50804550    3.26903219   -0.02243350
     atom   12 type  3   force =    -1.47759448   -3.25343416   -0.01878592
     atom   13 type  3   force =    -1.47462019    3.25564929   -0.02179114
     atom   14 type  3   force =     2.90761169    2.86365253   -0.02397986
     atom   15 type  3   force =     2.90395923   -2.86839743   -0.02204070
     The local contribution  to forces
     atom    1 type  1   force =    -9.85568992    0.00960679    0.01748834
     atom    2 type  1   force =    11.67766428    0.00626305    0.04871348
     atom    3 type  2   force =    -2.96417986    0.00273989   -0.04352345
     atom    4 type  2   force =    -2.76578592    7.00048995   -0.03227588
     atom    5 type  2   force =    -2.77573618   -6.99816558   -0.00404055
     atom    6 type  2   force =     3.68683611    0.00344596   -0.04326234
     atom    7 type  2   force =     2.68337687    6.92395960   -0.03018715
     atom    8 type  2   force =     2.66427572   -6.93016585   -0.00888262
     atom    9 type  2   force =     1.30173909   -0.02797328   -0.04611911
     atom   10 type  3   force =    -1.46567931    3.20316103    0.01944624
     atom   11 type  3   force =    -1.47071159   -3.20108098    0.02206625
     atom   12 type  3   force =     1.43755497    3.18466318    0.01878099
     atom   13 type  3   force =     1.43478462   -3.18651502    0.02161126
     atom   14 type  3   force =    -2.85488357   -2.77703858    0.02334526
     atom   15 type  3   force =    -2.85129966    2.78147260    0.02152374
     The core correction contribution to forces
     atom    1 type  1   force =     0.00009208   -0.00000945    0.00007865
     atom    2 type  1   force =    -0.01157540   -0.00001986   -0.00008936
     atom    3 type  2   force =    -0.00386700    0.00010351    0.00106094
     atom    4 type  2   force =    -0.00274475   -0.00155586    0.00069898
     atom    5 type  2   force =    -0.00195712    0.00182742    0.00031681
     atom    6 type  2   force =     0.00132738    0.00009615    0.00011104
     atom    7 type  2   force =     0.00207600   -0.00081241    0.00066095
     atom    8 type  2   force =     0.00117272    0.00111195    0.00048041
     atom    9 type  2   force =    -0.01194663    0.00123373    0.00097671
     atom   10 type  3   force =     0.00000000    0.00000000    0.00000000
     atom   11 type  3   force =     0.00000000    0.00000000    0.00000000
     atom   12 type  3   force =     0.00000000    0.00000000    0.00000000
     atom   13 type  3   force =     0.00000000    0.00000000    0.00000000
     atom   14 type  3   force =     0.00000000    0.00000000    0.00000000
     atom   15 type  3   force =     0.00000000    0.00000000    0.00000000
     The Hubbard contrib.    to forces
     atom    1 type  1   force =     0.00000000    0.00000000    0.00000000
     atom    2 type  1   force =     0.00000000    0.00000000    0.00000000
     atom    3 type  2   force =     0.00000000    0.00000000    0.00000000
     atom    4 type  2   force =     0.00000000    0.00000000    0.00000000
     atom    5 type  2   force =     0.00000000    0.00000000    0.00000000
     atom    6 type  2   force =     0.00000000    0.00000000    0.00000000
     atom    7 type  2   force =     0.00000000    0.00000000    0.00000000
     atom    8 type  2   force =     0.00000000    0.00000000    0.00000000
     atom    9 type  2   force =     0.00000000    0.00000000    0.00000000
     atom   10 type  3   force =     0.00000000    0.00000000    0.00000000
     atom   11 type  3   force =     0.00000000    0.00000000    0.00000000
     atom   12 type  3   force =     0.00000000    0.00000000    0.00000000
     atom   13 type  3   force =     0.00000000    0.00000000    0.00000000
     atom   14 type  3   force =     0.00000000    0.00000000    0.00000000
     atom   15 type  3   force =     0.00000000    0.00000000    0.00000000
     The SCF correction term to forces
     atom    1 type  1   force =     0.00000175   -0.00000041    0.00000006
     atom    2 type  1   force =     0.00011716    0.00000011    0.00000081
     atom    3 type  2   force =     0.00000096   -0.00000087    0.00000008
     atom    4 type  2   force =    -0.00000235    0.00000209   -0.00000009
     atom    5 type  2   force =    -0.00000137   -0.00000287    0.00000013
     atom    6 type  2   force =    -0.00004543   -0.00000117   -0.00000002
     atom    7 type  2   force =    -0.00001866    0.00000014   -0.00000021
     atom    8 type  2   force =    -0.00001920   -0.00000094    0.00000030
     atom    9 type  2   force =     0.00007423   -0.00000023    0.00000050
     atom   10 type  3   force =     0.00000115   -0.00000182   -0.00000002
     atom   11 type  3   force =     0.00000140    0.00000200   -0.00000000
     atom   12 type  3   force =    -0.00000101    0.00000315   -0.00000001
     atom   13 type  3   force =    -0.00000129   -0.00000289    0.00000007
     atom   14 type  3   force =     0.00000133    0.00000127   -0.00000000
     atom   15 type  3   force =     0.00000128   -0.00000133   -0.00000000

     Total force =     0.001260     Total SCF correction =     0.000149
     SCF correction compared to forces is large: reduce conv_thr to get better values


     Computing stress (Cartesian axis) and pressure


     negative rho (up, down):  2.940E-01 0.000E+00
          total   stress  (Ry/bohr**3)                   (kbar)     P=       -0.38
  -0.00000248   0.00000001  -0.00000000           -0.36        0.00       -0.00
   0.00000001  -0.00000277   0.00000000            0.00       -0.41        0.00
  -0.00000000   0.00000000  -0.00000245           -0.00        0.00       -0.36

     kinetic stress (kbar)     68.74      0.00      0.01
                                0.00     71.62      0.01
                                0.01      0.01     81.48

     local   stress (kbar)   -648.98      0.18      0.23
                                0.18   -353.70      0.31
                                0.23      0.31    -79.47

     nonloc. stress (kbar)     19.26     -0.00      0.00
                               -0.00     18.64     -0.00
                                0.00     -0.00     18.04

     hartree stress (kbar)    285.62     -0.09     -0.10
                               -0.09    157.28     -0.12
                               -0.10     -0.12     52.89

     exc-cor stress (kbar)     -6.03      0.00     -0.00
                                0.00     -6.22     -0.00
                               -0.00     -0.00     -6.69

     corecor stress (kbar)    -11.85      0.00     -0.00
                                0.00    -11.80      0.00
                               -0.00      0.00    -11.57

     ewald   stress (kbar)    292.88     -0.09     -0.15
                               -0.09    123.77     -0.19
                               -0.15     -0.19    -55.04

     hubbard stress (kbar)      0.00      0.00      0.00
                                0.00      0.00      0.00
                                0.00      0.00      0.00

     DFT-D   stress (kbar)      0.00      0.00      0.00
                                0.00      0.00      0.00
                                0.00      0.00      0.00

     XDM     stress (kbar)      0.00      0.00      0.00
                                0.00      0.00      0.00
                                0.00      0.00      0.00

     dft-nl  stress (kbar)      0.00      0.00      0.00
                                0.00      0.00      0.00
                                0.00      0.00      0.00

     TS-vdW  stress (kbar)      0.00      0.00      0.00
                                0.00      0.00      0.00
                                0.00      0.00      0.00

     MDB     stress (kbar)      0.00      0.00      0.00
                                0.00      0.00      0.00
                                0.00      0.00      0.00

     3D-RISM stress (kbar)      0.00      0.00      0.00
                                0.00      0.00      0.00
                                0.00      0.00      0.00


     Writing all to output data dir ./tmp/H2O.save/ :
     XML data file, charge density, pseudopotentials, collected wavefunctions

     init_run     :      1.00s CPU      1.06s WALL (       1 calls)
     electrons    :     14.42s CPU     15.08s WALL (       1 calls)
     forces       :      0.62s CPU      0.64s WALL (       1 calls)
     stress       :      0.95s CPU      0.96s WALL (       1 calls)

     Called by init_run:
     wfcinit      :      0.36s CPU      0.37s WALL (       1 calls)
     wfcinit:atom :      0.00s CPU      0.00s WALL (       1 calls)
     wfcinit:wfcr :      0.34s CPU      0.35s WALL (       1 calls)
     potinit      :      0.18s CPU      0.21s WALL (       1 calls)
     hinit0       :      0.08s CPU      0.08s WALL (       1 calls)

     Called by electrons:
     c_bands      :      8.53s CPU      8.98s WALL (      12 calls)
     sum_band     :      2.39s CPU      2.45s WALL (      12 calls)
     v_of_rho     :      2.00s CPU      2.08s WALL (      13 calls)
     v_h          :      0.15s CPU      0.16s WALL (      13 calls)
     v_xc         :      2.14s CPU      2.22s WALL (      15 calls)
     newd         :      1.15s CPU      1.17s WALL (      13 calls)
     PAW_pot      :      0.26s CPU      0.26s WALL (      13 calls)
     mix_rho      :      0.25s CPU      0.27s WALL (      12 calls)

     Called by c_bands:
     init_us_2    :      0.09s CPU      0.09s WALL (      25 calls)
     regterg      :      8.41s CPU      8.63s WALL (      12 calls)

     Called by sum_band:
     sum_band:wei :      0.00s CPU      0.00s WALL (      12 calls)
     sum_band:loo :      1.14s CPU      1.17s WALL (      12 calls)
     sum_band:buf :      0.00s CPU      0.00s WALL (      12 calls)
     sum_band:ini :      0.05s CPU      0.05s WALL (      12 calls)
     sum_band:cal :      0.34s CPU      0.34s WALL (      12 calls)
     sum_band:bec :      0.00s CPU      0.00s WALL (      12 calls)
     addusdens    :      1.01s CPU      1.02s WALL (      12 calls)
                                        0.00s GPU  (      12 calls)
     addusd:skk   :      0.02s CPU      0.02s WALL (      36 calls)
                                        0.00s GPU  (      36 calls)

     Called by *egterg:
     rdiaghg      :      0.03s CPU      0.03s WALL (      68 calls)
     regterg:over :      0.79s CPU      0.80s WALL (      56 calls)
     regterg:upda :      0.18s CPU      0.18s WALL (      56 calls)
     regterg:last :      0.59s CPU      0.59s WALL (      31 calls)
     h_psi        :      6.04s CPU      6.27s WALL (      69 calls)
     s_psi        :      0.69s CPU      0.69s WALL (      69 calls)
     g_psi        :      0.01s CPU      0.01s WALL (      56 calls)

     Called by h_psi:
     h_psi:calbec :      1.08s CPU      1.08s WALL (      69 calls)
     vloc_psi     :      4.21s CPU      4.43s WALL (      69 calls)
     add_vuspsi   :      0.73s CPU      0.74s WALL (      69 calls)

     General routines
     calbec       :      1.56s CPU      1.57s WALL (      86 calls)
     fft          :      1.09s CPU      1.22s WALL (     137 calls)
     ffts         :      0.10s CPU      0.10s WALL (      12 calls)
     fftw         :      4.03s CPU      4.28s WALL (    1138 calls)

     Parallel routines

     PAW routines
     PAW_pot      :      0.26s CPU      0.26s WALL (      13 calls)

     PWSCF        :     17.11s CPU     18.11s WALL


   This run was terminated on:  19:12:30  24Mar2025            

=------------------------------------------------------------------------------=
   JOB DONE.
=------------------------------------------------------------------------------=
