
     Program PWSCF v.7.3.1 starts on 26Mar2025 at 23:29:35 

     This program is part of the open-source Quantum ESPRESSO suite
     for quantum simulation of materials; please cite
         "P. Giannozzi et al., J. Phys.:Condens. Matter 21 395502 (2009);
         "P. Giannozzi et al., J. Phys.:Condens. Matter 29 465901 (2017);
         "P. Giannozzi et al., J. Chem. Phys. 152 154105 (2020);
          URL http://www.quantum-espresso.org", 
     in publications or presentations arising from this work. More details at
     http://www.quantum-espresso.org/quote

     Parallel version (MPI), running on    33 processors

     MPI processes distributed on     1 nodes
     114700 MiB available memory on the printing compute node when the environment starts

     Waiting for input...
     Reading input from standard input

     Current dimensions of program PWSCF are:
     Max number of different atomic species (ntypx) = 10
     Max number of k-points (npk) =  40000
     Max angular momentum in pseudopotentials (lmaxx) =  4
     Found identity + ( -0.5000  0.0000  0.0000) symmetry
     This is a supercell, fractional translations are disabled

     R & G space division:  proc/nbgrp/npool/nimage =      33
     Subspace diagonalization in iterative solution of the eigenvalue problem:
     one sub-group per band group will be used
     custom distributed-memory algorithm (size of sub-group:  5*  5 procs)


     Parallelization info
     --------------------
     sticks:   dense  smooth     PW     G-vecs:    dense   smooth      PW
     Min         228     130     36                36393    15714    2270
     Max         230     131     37                36401    15723    2280
     Sum        7555    4303   1189              1201061   518755   75035

     Using Slab Decomposition



     bravais-lattice index     =            0
     lattice parameter (alat)  =      19.7617  a.u.
     unit-cell volume          =   15176.5939 (a.u.)^3
     number of atoms/cell      =           48
     number of atomic types    =            1
     number of electrons       =       960.00
     number of Kohn-Sham states=          576
     kinetic-energy cutoff     =      40.0000  Ry
     charge density cutoff     =     280.0000  Ry
     scf convergence threshold =      1.0E-05
     mixing beta               =       0.7000
     number of iterations used =            8  plain     mixing
     Exchange-correlation= SLA  PW   PBE  PBE
                           (   1   4   3   4   0   0   0)

     celldm(1)=  19.761696  celldm(2)=   0.000000  celldm(3)=   0.000000
     celldm(4)=   0.000000  celldm(5)=   0.000000  celldm(6)=   0.000000

     crystal axes: (cart. coord. in units of alat)
               a(1) = (   1.000000   0.000000   0.000000 )  
               a(2) = (  -0.500000   0.866025   0.000000 )  
               a(3) = (   0.000000   0.000000   2.270759 )  

     reciprocal axes: (cart. coord. in units 2 pi/alat)
               b(1) = (  1.000000  0.577350 -0.000000 )  
               b(2) = (  0.000000  1.154701  0.000000 )  
               b(3) = (  0.000000 -0.000000  0.440381 )  


     PseudoPot. # 1 for Zn read from file:
     /home/ys/qepseudo/SSSP_1.3.0_PBE_efficiency/Zn_pbe_v1.uspp.F.UPF
     MD5 check sum: df62231357ef9e81f77b2b3087fa5675
     Pseudo is Ultrasoft, Zval = 20.0
     Generated by new atomic code, or converted to UPF format
     Using radial grid of  943 points,  6 beta functions with: 
                l(1) =   0
                l(2) =   0
                l(3) =   1
                l(4) =   1
                l(5) =   2
                l(6) =   2
     Q(r) pseudized with  8 coefficients,  rinner =    1.100   1.100   1.100
                                                       1.100   1.100

     atomic species   valence    mass     pseudopotential
     Zn               20.00    65.38000     Zn( 1.00)

     No symmetry found


                                    s                        frac. trans.

      isym =  1     identity                                     

 cryst.   s( 1) = (     1          0          0      )
                  (     0          1          0      )
                  (     0          0          1      )

 cart.    s( 1) = (  1.0000000  0.0000000  0.0000000 )
                  (  0.0000000  1.0000000  0.0000000 )
                  (  0.0000000  0.0000000  1.0000000 )


   Cartesian axes

     site n.     atom                  positions (alat units)
         1        Zn     tau(   1) = (   0.0000000   0.1443375   0.1164998  )
         2        Zn     tau(   2) = (   0.5000000   0.1443375   0.1164998  )
         3        Zn     tau(   3) = (   0.0000000   0.1443375   0.5824993  )
         4        Zn     tau(   4) = (   0.5000000   0.1443375   0.5824993  )
         5        Zn     tau(   5) = (  -0.1250000   0.3608439   0.1164998  )
         6        Zn     tau(   6) = (   0.3750000   0.3608439   0.1164998  )
         7        Zn     tau(   7) = (  -0.1250000   0.3608439   0.5824993  )
         8        Zn     tau(   8) = (   0.3750000   0.3608439   0.5824993  )
         9        Zn     tau(   9) = (  -0.2500000   0.5773502   0.1164998  )
        10        Zn     tau(  10) = (   0.2500000   0.5773502   0.1164998  )
        11        Zn     tau(  11) = (  -0.2500000   0.5773502   0.5824993  )
        12        Zn     tau(  12) = (   0.2500000   0.5773502   0.5824993  )
        13        Zn     tau(  13) = (  -0.3750000   0.7938567   0.1164998  )
        14        Zn     tau(  14) = (   0.1250000   0.7938567   0.1164998  )
        15        Zn     tau(  15) = (  -0.3750000   0.7938567   0.5824993  )
        16        Zn     tau(  16) = (   0.1250000   0.7938567   0.5824993  )
        17        Zn     tau(  17) = (   0.2500000   0.1443375   0.1164998  )
        18        Zn     tau(  18) = (   0.7500000   0.1443375   0.1164998  )
        19        Zn     tau(  19) = (   0.2500000   0.1443375   0.5824993  )
        20        Zn     tau(  20) = (   0.7500000   0.1443375   0.5824993  )
        21        Zn     tau(  21) = (   0.1250000   0.3608439   0.1164998  )
        22        Zn     tau(  22) = (   0.6250000   0.3608439   0.1164998  )
        23        Zn     tau(  23) = (   0.1250000   0.3608439   0.5824993  )
        24        Zn     tau(  24) = (   0.6250000   0.3608439   0.5824993  )
        25        Zn     tau(  25) = (   0.0000000   0.5773502   0.1164998  )
        26        Zn     tau(  26) = (   0.5000000   0.5773502   0.1164998  )
        27        Zn     tau(  27) = (   0.0000000   0.5773502   0.5824993  )
        28        Zn     tau(  28) = (   0.5000000   0.5773502   0.5824993  )
        29        Zn     tau(  29) = (  -0.1250000   0.7938567   0.1164998  )
        30        Zn     tau(  30) = (   0.3750000   0.7938567   0.1164998  )
        31        Zn     tau(  31) = (  -0.1250000   0.7938567   0.5824993  )
        32        Zn     tau(  32) = (   0.3750000   0.7938567   0.5824993  )
        33        Zn     tau(  33) = (   0.1250000   0.0721688   0.3494996  )
        34        Zn     tau(  34) = (   0.6250000   0.0721688   0.3494996  )
        35        Zn     tau(  35) = (   0.0000000   0.2886752   0.3494996  )
        36        Zn     tau(  36) = (   0.5000000   0.2886752   0.3494996  )
        37        Zn     tau(  37) = (  -0.1250000   0.5051815   0.3494996  )
        38        Zn     tau(  38) = (   0.3750000   0.5051815   0.3494996  )
        39        Zn     tau(  39) = (  -0.2500000   0.7216879   0.3494996  )
        40        Zn     tau(  40) = (   0.2500000   0.7216879   0.3494996  )
        41        Zn     tau(  41) = (   0.3750000   0.0721688   0.3494996  )
        42        Zn     tau(  42) = (   0.8750000   0.0721688   0.3494996  )
        43        Zn     tau(  43) = (   0.2500000   0.2886752   0.3494996  )
        44        Zn     tau(  44) = (   0.7500000   0.2886752   0.3494996  )
        45        Zn     tau(  45) = (   0.1250000   0.5051815   0.3494996  )
        46        Zn     tau(  46) = (   0.6250000   0.5051815   0.3494996  )
        47        Zn     tau(  47) = (   0.0000000   0.7216879   0.3494996  )
        48        Zn     tau(  48) = (   0.5000000   0.7216879   0.3494996  )

   Crystallographic axes

     site n.     atom                  positions (cryst. coord.)
         1        Zn     tau(   1) = (  0.0833333  0.1666666  0.0513044  )
         2        Zn     tau(   2) = (  0.5833333  0.1666666  0.0513044  )
         3        Zn     tau(   3) = (  0.0833333  0.1666666  0.2565219  )
         4        Zn     tau(   4) = (  0.5833333  0.1666666  0.2565219  )
         5        Zn     tau(   5) = (  0.0833333  0.4166666  0.0513044  )
         6        Zn     tau(   6) = (  0.5833333  0.4166666  0.0513044  )
         7        Zn     tau(   7) = (  0.0833333  0.4166666  0.2565219  )
         8        Zn     tau(   8) = (  0.5833333  0.4166666  0.2565219  )
         9        Zn     tau(   9) = (  0.0833333  0.6666666  0.0513044  )
        10        Zn     tau(  10) = (  0.5833333  0.6666666  0.0513044  )
        11        Zn     tau(  11) = (  0.0833333  0.6666666  0.2565219  )
        12        Zn     tau(  12) = (  0.5833333  0.6666666  0.2565219  )
        13        Zn     tau(  13) = (  0.0833333  0.9166667  0.0513044  )
        14        Zn     tau(  14) = (  0.5833334  0.9166667  0.0513044  )
        15        Zn     tau(  15) = (  0.0833333  0.9166667  0.2565219  )
        16        Zn     tau(  16) = (  0.5833334  0.9166667  0.2565219  )
        17        Zn     tau(  17) = (  0.3333333  0.1666666  0.0513044  )
        18        Zn     tau(  18) = (  0.8333334  0.1666666  0.0513044  )
        19        Zn     tau(  19) = (  0.3333333  0.1666666  0.2565219  )
        20        Zn     tau(  20) = (  0.8333334  0.1666666  0.2565219  )
        21        Zn     tau(  21) = (  0.3333333  0.4166666  0.0513044  )
        22        Zn     tau(  22) = (  0.8333333  0.4166666  0.0513044  )
        23        Zn     tau(  23) = (  0.3333333  0.4166666  0.2565219  )
        24        Zn     tau(  24) = (  0.8333333  0.4166666  0.2565219  )
        25        Zn     tau(  25) = (  0.3333333  0.6666666  0.0513044  )
        26        Zn     tau(  26) = (  0.8333333  0.6666666  0.0513044  )
        27        Zn     tau(  27) = (  0.3333333  0.6666666  0.2565219  )
        28        Zn     tau(  28) = (  0.8333333  0.6666666  0.2565219  )
        29        Zn     tau(  29) = (  0.3333334  0.9166667  0.0513044  )
        30        Zn     tau(  30) = (  0.8333334  0.9166667  0.0513044  )
        31        Zn     tau(  31) = (  0.3333334  0.9166667  0.2565219  )
        32        Zn     tau(  32) = (  0.8333334  0.9166667  0.2565219  )
        33        Zn     tau(  33) = (  0.1666667  0.0833334  0.1539131  )
        34        Zn     tau(  34) = (  0.6666667  0.0833334  0.1539131  )
        35        Zn     tau(  35) = (  0.1666667  0.3333334  0.1539131  )
        36        Zn     tau(  36) = (  0.6666667  0.3333334  0.1539131  )
        37        Zn     tau(  37) = (  0.1666667  0.5833334  0.1539131  )
        38        Zn     tau(  38) = (  0.6666667  0.5833334  0.1539131  )
        39        Zn     tau(  39) = (  0.1666667  0.8333334  0.1539131  )
        40        Zn     tau(  40) = (  0.6666667  0.8333334  0.1539131  )
        41        Zn     tau(  41) = (  0.4166667  0.0833334  0.1539131  )
        42        Zn     tau(  42) = (  0.9166667  0.0833334  0.1539131  )
        43        Zn     tau(  43) = (  0.4166667  0.3333334  0.1539131  )
        44        Zn     tau(  44) = (  0.9166667  0.3333334  0.1539131  )
        45        Zn     tau(  45) = (  0.4166667  0.5833334  0.1539131  )
        46        Zn     tau(  46) = (  0.9166667  0.5833334  0.1539131  )
        47        Zn     tau(  47) = (  0.4166667  0.8333334  0.1539131  )
        48        Zn     tau(  48) = (  0.9166667  0.8333334  0.1539131  )

     number of k points=    10  Marzari-Vanderbilt smearing, width (Ry)=  0.0200
                       cart. coord. in units 2pi/alat
        k(    1) = (   0.0000000   0.0000000   0.0000000), wk =   0.1250000
        k(    2) = (   0.0000000   0.2886751   0.0000000), wk =   0.2500000
        k(    3) = (   0.0000000  -0.5773503   0.0000000), wk =   0.1250000
        k(    4) = (   0.2500000   0.1443376   0.0000000), wk =   0.2500000
        k(    5) = (   0.2500000   0.4330127   0.0000000), wk =   0.2500000
        k(    6) = (   0.2500000  -0.4330127   0.0000000), wk =   0.2500000
        k(    7) = (   0.2500000  -0.1443376   0.0000000), wk =   0.2500000
        k(    8) = (  -0.5000000  -0.2886751   0.0000000), wk =   0.1250000
        k(    9) = (  -0.5000000   0.0000000   0.0000000), wk =   0.2500000
        k(   10) = (  -0.5000000  -0.8660254   0.0000000), wk =   0.1250000

                       cryst. coord.
        k(    1) = (   0.0000000   0.0000000   0.0000000), wk =   0.1250000
        k(    2) = (   0.0000000   0.2500000   0.0000000), wk =   0.2500000
        k(    3) = (   0.0000000  -0.5000000   0.0000000), wk =   0.1250000
        k(    4) = (   0.2500000   0.0000000   0.0000000), wk =   0.2500000
        k(    5) = (   0.2500000   0.2500000   0.0000000), wk =   0.2500000
        k(    6) = (   0.2500000  -0.5000000   0.0000000), wk =   0.2500000
        k(    7) = (   0.2500000  -0.2500000   0.0000000), wk =   0.2500000
        k(    8) = (  -0.5000000   0.0000000   0.0000000), wk =   0.1250000
        k(    9) = (  -0.5000000   0.2500000   0.0000000), wk =   0.2500000
        k(   10) = (  -0.5000000  -0.5000000   0.0000000), wk =   0.1250000

     Dense  grid:  1201061 G-vectors     FFT dimensions: ( 108, 108, 240)

     Smooth grid:   518755 G-vectors     FFT dimensions: (  80,  80, 192)

     Dynamical RAM for                 wfc:      17.26 MB

     Dynamical RAM for     wfc (w. buffer):     189.88 MB

     Dynamical RAM for           str. fact:       0.56 MB

     Dynamical RAM for           local pot:       0.00 MB

     Dynamical RAM for          nlocal pot:      25.89 MB

     Dynamical RAM for                qrad:       1.34 MB

     Dynamical RAM for          rho,v,vnew:       3.80 MB

     Dynamical RAM for               rhoin:       1.27 MB

     Dynamical RAM for            rho*nmix:       8.89 MB

     Dynamical RAM for           G-vectors:       2.20 MB

     Dynamical RAM for          h,s,v(r/c):       2.42 MB

     Dynamical RAM for          <psi|beta>:       7.59 MB

     Dynamical RAM for                 psi:      34.52 MB

     Dynamical RAM for                hpsi:      34.52 MB

     Dynamical RAM for                spsi:      34.52 MB

     Dynamical RAM for      wfcinit/wfcrot:      46.32 MB

     Dynamical RAM for           addusdens:     129.95 MB

     Estimated static dynamical RAM per process >     229.61 MB

     Estimated max dynamical RAM per process >     368.45 MB

     Estimated total dynamical RAM >      11.87 GB

     Initial potential from superposition of free atoms

     starting charge     959.9932, renormalised to     960.0000

     negative rho (up, down):  4.194E-03 0.000E+00
     Starting wfcs are  624 randomized atomic wfcs

     total cpu time spent up to now is      112.9 secs

     Self-consistent Calculation

     iteration #  1     ecut=    40.00 Ry     beta= 0.70
     Davidson diagonalization with overlap

---- Real-time Memory Report at c_bands before calling an iterative solver
           298 MiB given to the printing process from OS
             0 MiB allocation reported by mallinfo(arena+hblkhd)
        106679 MiB available memory on the node where the printing process lives
------------------
     ethr =  1.00E-02,  avg # of iterations =  9.4

     Threshold (ethr) on eigenvalues was too large:
     Diagonalizing with lowered threshold

     Davidson diagonalization with overlap

---- Real-time Memory Report at c_bands before calling an iterative solver
           392 MiB given to the printing process from OS
             0 MiB allocation reported by mallinfo(arena+hblkhd)
        105532 MiB available memory on the node where the printing process lives
------------------
     ethr =  1.61E-04,  avg # of iterations = 11.2

     negative rho (up, down):  5.596E-03 0.000E+00

     total cpu time spent up to now is      991.1 secs

     total energy              =  -22153.52053955 Ry
     estimated scf accuracy    <       1.57417206 Ry

     iteration #  2     ecut=    40.00 Ry     beta= 0.70
     Davidson diagonalization with overlap

---- Real-time Memory Report at c_bands before calling an iterative solver
           402 MiB given to the printing process from OS
             0 MiB allocation reported by mallinfo(arena+hblkhd)
        105432 MiB available memory on the node where the printing process lives
------------------
     ethr =  1.64E-04,  avg # of iterations =  3.9

     negative rho (up, down):  6.190E-03 0.000E+00

     total cpu time spent up to now is     1522.1 secs

     total energy              =  -22153.79591470 Ry
     estimated scf accuracy    <       2.39156535 Ry

     iteration #  3     ecut=    40.00 Ry     beta= 0.70
     Davidson diagonalization with overlap

---- Real-time Memory Report at c_bands before calling an iterative solver
           405 MiB given to the printing process from OS
             0 MiB allocation reported by mallinfo(arena+hblkhd)
        105405 MiB available memory on the node where the printing process lives
------------------
     ethr =  1.64E-04,  avg # of iterations =  2.0

     negative rho (up, down):  6.043E-03 0.000E+00

     total cpu time spent up to now is     1957.7 secs

     total energy              =  -22154.25296994 Ry
     estimated scf accuracy    <       0.00933937 Ry

     iteration #  4     ecut=    40.00 Ry     beta= 0.70
     Davidson diagonalization with overlap

---- Real-time Memory Report at c_bands before calling an iterative solver
           405 MiB given to the printing process from OS
             0 MiB allocation reported by mallinfo(arena+hblkhd)
        105387 MiB available memory on the node where the printing process lives
------------------
     ethr =  9.73E-07,  avg # of iterations = 11.7

     negative rho (up, down):  6.096E-03 0.000E+00

     total cpu time spent up to now is     2528.9 secs

     total energy              =  -22154.25393836 Ry
     estimated scf accuracy    <       0.01123829 Ry

     iteration #  5     ecut=    40.00 Ry     beta= 0.70
     Davidson diagonalization with overlap

---- Real-time Memory Report at c_bands before calling an iterative solver
           406 MiB given to the printing process from OS
             0 MiB allocation reported by mallinfo(arena+hblkhd)
        105367 MiB available memory on the node where the printing process lives
------------------
     ethr =  9.73E-07,  avg # of iterations =  3.0

     negative rho (up, down):  6.103E-03 0.000E+00

     total cpu time spent up to now is     2912.5 secs

     total energy              =  -22154.25469580 Ry
     estimated scf accuracy    <       0.00571521 Ry

     iteration #  6     ecut=    40.00 Ry     beta= 0.70
     Davidson diagonalization with overlap

---- Real-time Memory Report at c_bands before calling an iterative solver
           407 MiB given to the printing process from OS
             0 MiB allocation reported by mallinfo(arena+hblkhd)
        105349 MiB available memory on the node where the printing process lives
------------------
     ethr =  5.95E-07,  avg # of iterations =  2.0

     negative rho (up, down):  6.107E-03 0.000E+00

     total cpu time spent up to now is     3281.6 secs

     total energy              =  -22154.25525148 Ry
     estimated scf accuracy    <       0.00047788 Ry

     iteration #  7     ecut=    40.00 Ry     beta= 0.70
     Davidson diagonalization with overlap

---- Real-time Memory Report at c_bands before calling an iterative solver
           407 MiB given to the printing process from OS
             0 MiB allocation reported by mallinfo(arena+hblkhd)
        105332 MiB available memory on the node where the printing process lives
------------------
     ethr =  4.98E-08,  avg # of iterations =  2.0

     negative rho (up, down):  6.109E-03 0.000E+00

     total cpu time spent up to now is     3695.8 secs

     total energy              =  -22154.25525803 Ry
     estimated scf accuracy    <       0.00103489 Ry

     iteration #  8     ecut=    40.00 Ry     beta= 0.70
     Davidson diagonalization with overlap

---- Real-time Memory Report at c_bands before calling an iterative solver
           408 MiB given to the printing process from OS
             0 MiB allocation reported by mallinfo(arena+hblkhd)
        105312 MiB available memory on the node where the printing process lives
------------------
     ethr =  4.98E-08,  avg # of iterations =  1.0

     negative rho (up, down):  6.109E-03 0.000E+00

     total cpu time spent up to now is     3990.7 secs

     total energy              =  -22154.25533195 Ry
     estimated scf accuracy    <       0.00002264 Ry

     iteration #  9     ecut=    40.00 Ry     beta= 0.70
     Davidson diagonalization with overlap

---- Real-time Memory Report at c_bands before calling an iterative solver
           408 MiB given to the printing process from OS
             0 MiB allocation reported by mallinfo(arena+hblkhd)
        105297 MiB available memory on the node where the printing process lives
------------------
     ethr =  2.36E-09,  avg # of iterations =  2.0

     negative rho (up, down):  6.110E-03 0.000E+00

     total cpu time spent up to now is     4429.8 secs

     End of self-consistent calculation

          k = 0.0000 0.0000 0.0000 ( 64855 PWs)   bands (ev):

  -125.0697-125.0681-125.0681-125.0680-125.0679-125.0678-125.0677-125.0665
  -125.0664-125.0663-125.0663-125.0662-125.0661-125.0661-125.0659-125.0657
  -124.8659-124.8659-124.8643-124.8642-124.8642-124.8642-124.8642-124.8641
  -124.8641-124.8641-124.8640-124.8640-124.8640-124.8639-124.8625-124.8625
  -124.8625-124.8625-124.8625-124.8625-124.8624-124.8624-124.8624-124.8624
  -124.8623-124.8623-124.8623-124.8623-124.8622-124.8622-124.8621-124.8620
   -79.2361 -79.2360 -79.2360 -79.2295 -79.2295 -79.2294 -79.2293 -79.2293
   -79.2293 -79.2181 -79.2181 -79.2181 -79.2180 -79.2180 -79.2179 -79.2178
   -79.2161 -79.2161 -79.2160 -79.2160 -79.2160 -79.2160 -79.2159 -79.2159
   -79.2159 -79.2157 -79.2157 -79.2156 -79.2141 -79.2140 -79.2139 -79.2139
   -79.2138 -79.2137 -79.2137 -79.2136 -79.2134 -79.2094 -79.2094 -79.2094
   -79.2048 -79.2047 -79.2047 -79.2047 -79.2046 -79.2046 -79.2000 -79.2000
   -79.0289 -79.0289 -79.0289 -79.0289 -79.0289 -79.0289 -79.0223 -79.0223
   -79.0223 -79.0223 -79.0223 -79.0223 -79.0223 -79.0223 -79.0222 -79.0222
   -79.0222 -79.0222 -79.0222 -79.0221 -79.0205 -79.0205 -79.0204 -79.0204
   -79.0204 -79.0204 -79.0203 -79.0203 -79.0203 -79.0203 -79.0202 -79.0202
   -79.0186 -79.0186 -79.0186 -79.0186 -79.0185 -79.0185 -79.0185 -79.0185
   -79.0185 -79.0185 -79.0184 -79.0184 -79.0184 -79.0183 -79.0183 -79.0183
   -79.0182 -79.0181 -79.0110 -79.0110 -79.0110 -79.0110 -79.0110 -79.0109
   -79.0109 -79.0109 -79.0109 -79.0109 -79.0109 -79.0108 -79.0090 -79.0090
   -79.0090 -79.0090 -79.0089 -79.0089 -79.0089 -79.0089 -79.0089 -79.0089
   -79.0089 -79.0089 -79.0024 -79.0023 -79.0023 -79.0023 -79.0023 -79.0023
   -78.9977 -78.9977 -78.9977 -78.9976 -78.9976 -78.9976 -78.9976 -78.9976
   -78.9976 -78.9976 -78.9976 -78.9975 -78.9929 -78.9929 -78.9929 -78.9929
    -8.6227  -7.4009  -7.0932  -7.0693  -7.0692  -7.0692  -7.0692  -7.0691
    -7.0691  -6.9160  -6.9160  -6.9160  -6.7272  -6.7272  -6.7272  -6.6798
    -6.6798  -6.6798  -6.5905  -6.5905  -6.5905  -6.5904  -6.5904  -6.5904
    -6.5414  -6.5414  -6.5414  -6.5413  -6.5413  -6.5413  -6.5382  -6.5382
    -6.5382  -6.4806  -6.4806  -6.4805  -6.4805  -6.4804  -6.4804  -6.4339
    -6.4339  -6.4338  -6.4338  -6.4338  -6.4338  -6.3366  -6.3366  -6.3366
    -6.3366  -6.3365  -6.3365  -6.3352  -6.3351  -6.3351  -6.2751  -6.2751
    -6.2750  -6.2750  -6.2749  -6.2749  -6.2715  -6.2132  -6.2131  -6.2131
    -6.2131  -6.2130  -6.2130  -6.1733  -6.1733  -6.1733  -6.1733  -6.1733
    -6.1733  -6.1478  -6.1478  -6.1478  -6.1478  -6.1478  -6.1478  -6.1242
    -6.1241  -6.1241  -6.1241  -6.1241  -6.1241  -6.1240  -6.1240  -6.0993
    -6.0993  -6.0993  -6.0981  -6.0980  -6.0980  -6.0980  -6.0980  -6.0980
    -5.9960  -5.9960  -5.9960  -5.9960  -5.9959  -5.9959  -5.9186  -5.9186
    -5.8999  -5.8999  -5.8674  -5.8674  -5.8674  -5.8674  -5.8674  -5.8674
    -5.8653  -5.8653  -5.8653  -5.8653  -5.8652  -5.8652  -5.8338  -5.8338
    -5.8338  -5.7848  -5.7848  -5.7848  -5.7848  -5.7847  -5.7847  -5.7784
    -5.7784  -5.7784  -5.7784  -5.7784  -5.7784  -5.7780  -5.7779  -5.7779
    -5.7779  -5.7779  -5.7779  -5.7562  -5.7562  -5.7562  -5.7562  -5.7562
    -5.7562  -5.7468  -5.7468  -5.7468  -5.7467  -5.7467  -5.7467  -5.7300
    -5.7300  -5.7299  -5.7299  -5.7298  -5.7298  -5.7171  -5.7110  -5.7110
    -5.7110  -5.7110  -5.7109  -5.7109  -5.6987  -5.6987  -5.6987  -5.6123
    -5.6123  -5.5773  -5.5773  -5.5773  -5.5773  -5.5772  -5.5772  -5.5707
    -5.5707  -5.5707  -5.5707  -5.5706  -5.5706  -5.5475  -5.5474  -5.5474
    -5.5474  -5.5474  -5.5474  -5.5314  -5.5314  -5.5314  -5.5047  -5.5047
    -5.5047  -5.5047  -5.5046  -5.5046  -5.4961  -5.4961  -5.4961  -5.4960
    -5.4960  -5.4960  -5.4479  -5.4478  -5.4478  -5.4478  -5.4478  -5.4478
    -5.4356  -5.4356  -5.4356  -5.4353  -5.4353  -5.4353  -5.3991  -5.3991
    -5.3991  -5.3930  -5.3930  -5.3930  -5.3930  -5.3929  -5.3929  -5.3854
    -5.3854  -5.3641  -5.3641  -5.3216  -5.3216  -5.3216  -5.3216  -5.3215
    -5.3215  -5.2921  -5.2921  -5.2920  -5.2920  -5.2920  -5.2920  -5.2830
    -5.2830  -5.2830  -5.0737  -5.0737  -5.0737  -5.0736  -5.0736  -5.0735
    -4.3985  -4.3985  -4.3985  -4.3984  -4.3984  -4.3983  -3.4510  -2.1043
    -2.1043  -2.1043  -2.1043  -2.1043  -2.1043  -2.0209  -2.0208  -2.0208
    -2.0207  -2.0207  -2.0206  -0.8429  -0.8429  -0.8429  -0.7125  -0.6408
    -0.6408  -0.6408  -0.6408  -0.6408  -0.6408  -0.0851  -0.0851  -0.0851
     0.2446   0.2446   0.2446   1.5357   1.5357   1.5357   1.5357   1.5357
     1.5357   1.5802   1.5802   1.5803   1.5803   1.5804   1.5804   2.3083
     2.3083   2.3083   3.1075   3.3006   3.3006   3.3006   4.1408   4.1408
     4.1408   4.8831   4.8831   4.8831   4.8832   4.8832   4.8832   5.0741
     5.2651   5.4267   5.4267   5.4267   5.4267   5.4267   5.4268   5.4341
     5.4341   5.4342   5.4342   5.4342   5.4342   5.6047   5.6047   5.6047
     5.6047   5.6048   5.6048   6.1991   6.3976   6.5619   6.5619   6.5619
     6.8727   6.8727   6.8727   6.8727   6.8727   6.8727   7.0101   7.0101
     7.0102   7.0102   7.0102   7.0102   7.1011   7.1011   7.1011   7.1011
     7.1011   7.1011   7.1881   7.1881   7.1881   7.1881   7.1882   7.1882
     8.0380   8.0380   8.0380   8.0381   8.0381   8.0381   8.1444   8.1445
     8.1445   8.1445   8.1445   8.1445   8.1850   8.1850   8.1850   8.1850
     8.1850   8.1850   8.2063   8.3653   8.3753   8.3753   8.3753   9.2826

     occupation numbers 
     1.0000   1.0000   1.0000   1.0000   1.0000   1.0000   1.0000   1.0000
     1.0000   1.0000   1.0000   1.0000   1.0000   1.0000   1.0000   1.0000
     1.0000   1.0000   1.0000   1.0000   1.0000   1.0000   1.0000   1.0000
     1.0000   1.0000   1.0000   1.0000   1.0000   1.0000   1.0000   1.0000
     1.0000   1.0000   1.0000   1.0000   1.0000   1.0000   1.0000   1.0000
     1.0000   1.0000   1.0000   1.0000   1.0000   1.0000   1.0000   1.0000
     1.0000   1.0000   1.0000   1.0000   1.0000   1.0000   1.0000   1.0000
     1.0000   1.0000   1.0000   1.0000   1.0000   1.0000   1.0000   1.0000
     1.0000   1.0000   1.0000   1.0000   1.0000   1.0000   1.0000   1.0000
     1.0000   1.0000   1.0000   1.0000   1.0000   1.0000   1.0000   1.0000
     1.0000   1.0000   1.0000   1.0000   1.0000   1.0000   1.0000   1.0000
     1.0000   1.0000   1.0000   1.0000   1.0000   1.0000   1.0000   1.0000
     1.0000   1.0000   1.0000   1.0000   1.0000   1.0000   1.0000   1.0000
     1.0000   1.0000   1.0000   1.0000   1.0000   1.0000   1.0000   1.0000
     1.0000   1.0000   1.0000   1.0000   1.0000   1.0000   1.0000   1.0000
     1.0000   1.0000   1.0000   1.0000   1.0000   1.0000   1.0000   1.0000
     1.0000   1.0000   1.0000   1.0000   1.0000   1.0000   1.0000   1.0000
     1.0000   1.0000   1.0000   1.0000   1.0000   1.0000   1.0000   1.0000
     1.0000   1.0000   1.0000   1.0000   1.0000   1.0000   1.0000   1.0000
     1.0000   1.0000   1.0000   1.0000   1.0000   1.0000   1.0000   1.0000
     1.0000   1.0000   1.0000   1.0000   1.0000   1.0000   1.0000   1.0000
     1.0000   1.0000   1.0000   1.0000   1.0000   1.0000   1.0000   1.0000
     1.0000   1.0000   1.0000   1.0000   1.0000   1.0000   1.0000   1.0000
     1.0000   1.0000   1.0000   1.0000   1.0000   1.0000   1.0000   1.0000
     1.0000   1.0000   1.0000   1.0000   1.0000   1.0000   1.0000   1.0000
     1.0000   1.0000   1.0000   1.0000   1.0000   1.0000   1.0000   1.0000
     1.0000   1.0000   1.0000   1.0000   1.0000   1.0000   1.0000   1.0000
     1.0000   1.0000   1.0000   1.0000   1.0000   1.0000   1.0000   1.0000
     1.0000   1.0000   1.0000   1.0000   1.0000   1.0000   1.0000   1.0000
     1.0000   1.0000   1.0000   1.0000   1.0000   1.0000   1.0000   1.0000
     1.0000   1.0000   1.0000   1.0000   1.0000   1.0000   1.0000   1.0000
     1.0000   1.0000   1.0000   1.0000   1.0000   1.0000   1.0000   1.0000
     1.0000   1.0000   1.0000   1.0000   1.0000   1.0000   1.0000   1.0000
     1.0000   1.0000   1.0000   1.0000   1.0000   1.0000   1.0000   1.0000
     1.0000   1.0000   1.0000   1.0000   1.0000   1.0000   1.0000   1.0000
     1.0000   1.0000   1.0000   1.0000   1.0000   1.0000   1.0000   1.0000
     1.0000   1.0000   1.0000   1.0000   1.0000   1.0000   1.0000   1.0000
     1.0000   1.0000   1.0000   1.0000   1.0000   1.0000   1.0000   1.0000
     1.0000   1.0000   1.0000   1.0000   1.0000   1.0000   1.0000   1.0000
     1.0000   1.0000   1.0000   1.0000   1.0000   1.0000   1.0000   1.0000
     1.0000   1.0000   1.0000   1.0000   1.0000   1.0000   1.0000   1.0000
     1.0000   1.0000   1.0000   1.0000   1.0000   1.0000   1.0000   1.0000
     1.0000   1.0000   1.0000   1.0000   1.0000   1.0000   1.0000   1.0000
     1.0000   1.0000   1.0000   1.0000   1.0000   1.0000   1.0000   1.0000
     1.0000   1.0000   1.0000   1.0000   1.0000   1.0000   1.0000   1.0000
     1.0000   1.0000   1.0000   1.0000   1.0000   1.0000   1.0000   1.0000
     1.0000   1.0000   1.0000   1.0000   1.0000   1.0000   1.0000   1.0000
     1.0000   1.0000   1.0000   1.0000   1.0000   1.0000   1.0000   1.0000
     1.0000   1.0000   1.0000   1.0000   1.0000   1.0000   1.0000   1.0000
     1.0000   1.0000   1.0000   1.0000   1.0000   1.0000   1.0000   1.0000
     1.0000   1.0000   1.0000   1.0000   1.0000   1.0000   1.0000   1.0000
     1.0000   1.0000   1.0000   1.0000   1.0000   1.0000   1.0000   1.0000
     1.0000   1.0000   1.0000   1.0000   1.0000   1.0000   1.0000   1.0000
     1.0000   1.0000   1.0000   1.0000   1.0000   1.0000   1.0000   1.0000
     1.0000   1.0000   1.0000   1.0000   1.0000   1.0000   1.0000   1.0000
     1.0000   1.0000   1.0000   1.0000   1.0000   1.0000   1.0000   1.0000
     1.0000   1.0000   1.0000   1.0000   1.0000   1.0000   1.0000   1.0000
     1.0000   1.0000   1.0000   1.0000   1.0000   1.0000   1.0000   1.0000
     1.0000   1.0000   1.0000   1.0000   1.0000   1.0000   1.0000   1.0000
     1.0000   1.0000   1.0000   0.1849   0.1849   0.1849   0.1849   0.1849
     0.1849   0.1223   0.1223   0.1222   0.1222   0.1221   0.1221   0.0000
     0.0000   0.0000   0.0000   0.0000   0.0000   0.0000   0.0000   0.0000
     0.0000   0.0000   0.0000   0.0000   0.0000   0.0000   0.0000   0.0000
     0.0000   0.0000   0.0000   0.0000   0.0000   0.0000   0.0000   0.0000
     0.0000   0.0000   0.0000   0.0000   0.0000   0.0000   0.0000   0.0000
     0.0000   0.0000   0.0000   0.0000   0.0000   0.0000   0.0000   0.0000
     0.0000   0.0000   0.0000   0.0000   0.0000   0.0000   0.0000   0.0000
     0.0000   0.0000   0.0000   0.0000   0.0000   0.0000   0.0000   0.0000
     0.0000   0.0000   0.0000   0.0000   0.0000   0.0000   0.0000   0.0000
     0.0000   0.0000   0.0000   0.0000   0.0000   0.0000   0.0000   0.0000
     0.0000   0.0000   0.0000   0.0000   0.0000   0.0000   0.0000   0.0000
     0.0000   0.0000   0.0000   0.0000   0.0000   0.0000   0.0000   0.0000

          k = 0.0000 0.2887 0.0000 ( 64808 PWs)   bands (ev):

  -125.0696-125.0686-125.0682-125.0682-125.0675-125.0675-125.0672-125.0666
  -125.0666-125.0665-125.0663-125.0662-125.0661-125.0660-125.0658-125.0657
  -124.8657-124.8657-124.8648-124.8648-124.8644-124.8644-124.8644-124.8643
  -124.8637-124.8637-124.8637-124.8637-124.8634-124.8634-124.8628-124.8628
  -124.8628-124.8628-124.8625-124.8625-124.8625-124.8625-124.8624-124.8624
  -124.8623-124.8623-124.8623-124.8623-124.8621-124.8621-124.8620-124.8620
   -79.2353 -79.2353 -79.2347 -79.2307 -79.2307 -79.2298 -79.2298 -79.2279
   -79.2279 -79.2249 -79.2217 -79.2217 -79.2191 -79.2190 -79.2177 -79.2166
   -79.2161 -79.2161 -79.2153 -79.2153 -79.2150 -79.2150 -79.2150 -79.2147
   -79.2147 -79.2143 -79.2143 -79.2141 -79.2140 -79.2138 -79.2137 -79.2136
   -79.2134 -79.2133 -79.2123 -79.2123 -79.2111 -79.2101 -79.2101 -79.2090
   -79.2065 -79.2062 -79.2062 -79.2042 -79.2042 -79.2029 -79.2013 -79.2003
   -79.0282 -79.0282 -79.0281 -79.0281 -79.0276 -79.0275 -79.0236 -79.0236
   -79.0236 -79.0236 -79.0227 -79.0227 -79.0227 -79.0226 -79.0222 -79.0220
   -79.0211 -79.0210 -79.0208 -79.0208 -79.0207 -79.0207 -79.0207 -79.0207
   -79.0206 -79.0206 -79.0200 -79.0199 -79.0199 -79.0199 -79.0196 -79.0196
   -79.0189 -79.0189 -79.0189 -79.0189 -79.0186 -79.0186 -79.0186 -79.0186
   -79.0185 -79.0185 -79.0184 -79.0184 -79.0184 -79.0183 -79.0181 -79.0181
   -79.0181 -79.0180 -79.0178 -79.0178 -79.0146 -79.0146 -79.0146 -79.0146
   -79.0120 -79.0120 -79.0120 -79.0119 -79.0079 -79.0079 -79.0079 -79.0079
   -79.0076 -79.0076 -79.0076 -79.0076 -79.0053 -79.0053 -79.0052 -79.0052
   -79.0040 -79.0040 -79.0031 -79.0031 -79.0031 -79.0031 -79.0020 -79.0020
   -78.9994 -78.9994 -78.9991 -78.9991 -78.9991 -78.9991 -78.9972 -78.9972
   -78.9972 -78.9971 -78.9958 -78.9958 -78.9943 -78.9943 -78.9933 -78.9933
    -8.5039  -7.6205  -7.3011  -7.2487  -7.2486  -7.0306  -6.8998  -6.8737
    -6.8737  -6.8507  -6.8471  -6.8471  -6.7084  -6.6935  -6.6934  -6.6917
    -6.6765  -6.6645  -6.6401  -6.6401  -6.5916  -6.5821  -6.5786  -6.5786
    -6.5693  -6.5693  -6.5498  -6.5498  -6.5296  -6.5296  -6.5201  -6.5201
    -6.5186  -6.5138  -6.5138  -6.5110  -6.5110  -6.5039  -6.5039  -6.4880
    -6.4880  -6.4624  -6.4623  -6.4248  -6.4248  -6.3970  -6.3969  -6.3819
    -6.3819  -6.3776  -6.3238  -6.3190  -6.3190  -6.3174  -6.3174  -6.3170
    -6.3170  -6.2709  -6.2709  -6.2607  -6.2536  -6.2312  -6.2312  -6.2251
    -6.2251  -6.2233  -6.2233  -6.2233  -6.2105  -6.2105  -6.2065  -6.2065
    -6.1975  -6.1975  -6.1857  -6.1857  -6.1816  -6.1799  -6.1799  -6.1559
    -6.1397  -6.1254  -6.1254  -6.1163  -6.1163  -6.1023  -6.1023  -6.0948
    -6.0924  -6.0924  -6.0800  -6.0653  -6.0653  -6.0514  -6.0514  -6.0501
    -6.0501  -5.9610  -5.9610  -5.9607  -5.9607  -5.9456  -5.9431  -5.9390
    -5.9390  -5.9366  -5.9366  -5.9258  -5.9257  -5.9150  -5.9131  -5.9131
    -5.8950  -5.8950  -5.8913  -5.8871  -5.8832  -5.8759  -5.8758  -5.8707
    -5.8478  -5.8478  -5.8409  -5.8409  -5.8268  -5.8128  -5.7973  -5.7973
    -5.7972  -5.7972  -5.7884  -5.7884  -5.7783  -5.7783  -5.7776  -5.7750
    -5.7750  -5.7571  -5.7571  -5.7492  -5.7492  -5.7419  -5.7321  -5.7321
    -5.7159  -5.7145  -5.7145  -5.7071  -5.7071  -5.6994  -5.6994  -5.6968
    -5.6968  -5.6941  -5.6941  -5.6812  -5.6697  -5.6697  -5.6591  -5.6457
    -5.6411  -5.6411  -5.6353  -5.6353  -5.6203  -5.6203  -5.6188  -5.6182
    -5.6182  -5.6144  -5.6130  -5.6072  -5.6072  -5.5815  -5.5659  -5.5625
    -5.5625  -5.5580  -5.5580  -5.5497  -5.5497  -5.5474  -5.5474  -5.5453
    -5.5453  -5.5426  -5.5286  -5.5286  -5.5278  -5.5232  -5.5232  -5.5143
    -5.5143  -5.4934  -5.4934  -5.4642  -5.4622  -5.4595  -5.4595  -5.4560
    -5.4560  -5.4536  -5.4536  -5.4417  -5.4417  -5.4324  -5.4277  -5.4277
    -5.4254  -5.4212  -5.4163  -5.4159  -5.4041  -5.4041  -5.4014  -5.4014
    -5.3904  -5.3889  -5.3888  -5.3823  -5.3701  -5.3701  -5.3662  -5.3609
    -5.3473  -5.3473  -5.3434  -5.3345  -5.3218  -5.3218  -5.3156  -5.3132
    -5.3132  -5.3035  -5.3035  -5.2949  -5.2949  -5.2843  -5.2843  -5.1452
    -5.1452  -5.1316  -5.1316  -5.1261  -5.1261  -5.1078  -5.1071  -4.9484
    -4.9353  -4.6393  -4.6393  -3.8818  -3.8818  -3.4806  -3.3946  -3.3946
    -3.3660  -2.6743  -2.3025  -2.3025  -2.2225  -2.0218  -2.0218  -1.9720
    -1.9720  -1.5154  -1.5154  -1.2926  -1.2926  -1.1175  -0.7955  -0.5735
    -0.5735  -0.5615  -0.5615  -0.5524   0.0233   0.0233   0.2684   0.2684
     0.5596   0.5596   0.6331   0.8762   0.8977   0.8977   1.1832   1.1832
     1.5559   1.5559   2.2260   2.2260   2.6467   2.6960   2.6961   2.7206
     2.7819   2.7819   2.9494   2.9494   3.2194   3.5459   3.6902   3.6902
     3.9082   3.9082   4.1118   4.1847   4.1847   4.5559   4.5559   4.8012
     4.8012   4.8426   4.8426   5.1513   5.1513   5.1599   5.1599   5.1870
     5.3801   5.4257   5.4257   5.5679   5.6422   5.7930   5.7930   5.8064
     6.0889   6.0936   6.0936   6.2990   6.3126   6.3126   6.3152   6.5100
     6.5386   6.5386   6.5939   6.5939   6.7098   6.7578   6.7578   7.0096
     7.0096   7.0865   7.0865   7.1718   7.1718   7.2399   7.3084   7.3084
     7.4082   7.4233   7.4233   7.4469   7.4469   7.6562   7.6562   7.6673
     7.6673   7.6994   7.6994   7.7425   7.8554   7.8554   7.9455   7.9455
     8.0228   8.0228   8.1333   8.3095   8.3218   8.4770   8.6360   8.6360
     8.6958   8.7071   8.7071   8.8074   8.8074   8.8254   8.8359   8.8359

     occupation numbers 
     1.0000   1.0000   1.0000   1.0000   1.0000   1.0000   1.0000   1.0000
     1.0000   1.0000   1.0000   1.0000   1.0000   1.0000   1.0000   1.0000
     1.0000   1.0000   1.0000   1.0000   1.0000   1.0000   1.0000   1.0000
     1.0000   1.0000   1.0000   1.0000   1.0000   1.0000   1.0000   1.0000
     1.0000   1.0000   1.0000   1.0000   1.0000   1.0000   1.0000   1.0000
     1.0000   1.0000   1.0000   1.0000   1.0000   1.0000   1.0000   1.0000
     1.0000   1.0000   1.0000   1.0000   1.0000   1.0000   1.0000   1.0000
     1.0000   1.0000   1.0000   1.0000   1.0000   1.0000   1.0000   1.0000
     1.0000   1.0000   1.0000   1.0000   1.0000   1.0000   1.0000   1.0000
     1.0000   1.0000   1.0000   1.0000   1.0000   1.0000   1.0000   1.0000
     1.0000   1.0000   1.0000   1.0000   1.0000   1.0000   1.0000   1.0000
     1.0000   1.0000   1.0000   1.0000   1.0000   1.0000   1.0000   1.0000
     1.0000   1.0000   1.0000   1.0000   1.0000   1.0000   1.0000   1.0000
     1.0000   1.0000   1.0000   1.0000   1.0000   1.0000   1.0000   1.0000
     1.0000   1.0000   1.0000   1.0000   1.0000   1.0000   1.0000   1.0000
     1.0000   1.0000   1.0000   1.0000   1.0000   1.0000   1.0000   1.0000
     1.0000   1.0000   1.0000   1.0000   1.0000   1.0000   1.0000   1.0000
     1.0000   1.0000   1.0000   1.0000   1.0000   1.0000   1.0000   1.0000
     1.0000   1.0000   1.0000   1.0000   1.0000   1.0000   1.0000   1.0000
     1.0000   1.0000   1.0000   1.0000   1.0000   1.0000   1.0000   1.0000
     1.0000   1.0000   1.0000   1.0000   1.0000   1.0000   1.0000   1.0000
     1.0000   1.0000   1.0000   1.0000   1.0000   1.0000   1.0000   1.0000
     1.0000   1.0000   1.0000   1.0000   1.0000   1.0000   1.0000   1.0000
     1.0000   1.0000   1.0000   1.0000   1.0000   1.0000   1.0000   1.0000
     1.0000   1.0000   1.0000   1.0000   1.0000   1.0000   1.0000   1.0000
     1.0000   1.0000   1.0000   1.0000   1.0000   1.0000   1.0000   1.0000
     1.0000   1.0000   1.0000   1.0000   1.0000   1.0000   1.0000   1.0000
     1.0000   1.0000   1.0000   1.0000   1.0000   1.0000   1.0000   1.0000
     1.0000   1.0000   1.0000   1.0000   1.0000   1.0000   1.0000   1.0000
     1.0000   1.0000   1.0000   1.0000   1.0000   1.0000   1.0000   1.0000
     1.0000   1.0000   1.0000   1.0000   1.0000   1.0000   1.0000   1.0000
     1.0000   1.0000   1.0000   1.0000   1.0000   1.0000   1.0000   1.0000
     1.0000   1.0000   1.0000   1.0000   1.0000   1.0000   1.0000   1.0000
     1.0000   1.0000   1.0000   1.0000   1.0000   1.0000   1.0000   1.0000
     1.0000   1.0000   1.0000   1.0000   1.0000   1.0000   1.0000   1.0000
     1.0000   1.0000   1.0000   1.0000   1.0000   1.0000   1.0000   1.0000
     1.0000   1.0000   1.0000   1.0000   1.0000   1.0000   1.0000   1.0000
     1.0000   1.0000   1.0000   1.0000   1.0000   1.0000   1.0000   1.0000
     1.0000   1.0000   1.0000   1.0000   1.0000   1.0000   1.0000   1.0000
     1.0000   1.0000   1.0000   1.0000   1.0000   1.0000   1.0000   1.0000
     1.0000   1.0000   1.0000   1.0000   1.0000   1.0000   1.0000   1.0000
     1.0000   1.0000   1.0000   1.0000   1.0000   1.0000   1.0000   1.0000
     1.0000   1.0000   1.0000   1.0000   1.0000   1.0000   1.0000   1.0000
     1.0000   1.0000   1.0000   1.0000   1.0000   1.0000   1.0000   1.0000
     1.0000   1.0000   1.0000   1.0000   1.0000   1.0000   1.0000   1.0000
     1.0000   1.0000   1.0000   1.0000   1.0000   1.0000   1.0000   1.0000
     1.0000   1.0000   1.0000   1.0000   1.0000   1.0000   1.0000   1.0000
     1.0000   1.0000   1.0000   1.0000   1.0000   1.0000   1.0000   1.0000
     1.0000   1.0000   1.0000   1.0000   1.0000   1.0000   1.0000   1.0000
     1.0000   1.0000   1.0000   1.0000   1.0000   1.0000   1.0000   1.0000
     1.0000   1.0000   1.0000   1.0000   1.0000   1.0000   1.0000   1.0000
     1.0000   1.0000   1.0000   1.0000   1.0000   1.0000   1.0000   1.0000
     1.0000   1.0000   1.0000   1.0000   1.0000   1.0000   1.0000   1.0000
     1.0000   1.0000   1.0000   1.0000   1.0000   1.0000   1.0000   1.0000
     1.0000   1.0000   1.0000   1.0000   1.0000   1.0000   1.0000   1.0000
     1.0000   1.0000   1.0000   1.0000   1.0000   1.0000   1.0000   1.0000
     1.0000   1.0000   1.0000   1.0000   1.0000   1.0000   1.0000   1.0000
     1.0000   1.0000   1.0000   1.0000   1.0000   1.0000   1.0000   1.0000
     1.0000   1.0000   1.0000   1.0000   1.0000   1.0000   1.0000   1.0000
     1.0006   1.0006   1.0019   1.0374   1.0443   1.0443   0.9983   0.9983
     0.1542   0.1542   0.0000   0.0000   0.0000   0.0000   0.0000   0.0000
     0.0000   0.0000   0.0000   0.0000   0.0000   0.0000   0.0000   0.0000
     0.0000   0.0000   0.0000   0.0000   0.0000   0.0000   0.0000   0.0000
     0.0000   0.0000   0.0000   0.0000   0.0000   0.0000   0.0000   0.0000
     0.0000   0.0000   0.0000   0.0000   0.0000   0.0000   0.0000   0.0000
     0.0000   0.0000   0.0000   0.0000   0.0000   0.0000   0.0000   0.0000
     0.0000   0.0000   0.0000   0.0000   0.0000   0.0000   0.0000   0.0000
     0.0000   0.0000   0.0000   0.0000   0.0000   0.0000   0.0000   0.0000
     0.0000   0.0000   0.0000   0.0000   0.0000   0.0000   0.0000   0.0000
     0.0000   0.0000   0.0000   0.0000   0.0000   0.0000   0.0000   0.0000
     0.0000   0.0000   0.0000   0.0000   0.0000   0.0000   0.0000   0.0000
     0.0000   0.0000   0.0000   0.0000   0.0000   0.0000   0.0000   0.0000

          k = 0.0000-0.5774 0.0000 ( 64842 PWs)   bands (ev):

  -125.0693-125.0690-125.0683-125.0683-125.0671-125.0671-125.0671-125.0670
  -125.0668-125.0665-125.0665-125.0662-125.0661-125.0660-125.0658-125.0656
  -124.8654-124.8654-124.8653-124.8653-124.8645-124.8645-124.8645-124.8644
  -124.8633-124.8633-124.8633-124.8633-124.8633-124.8633-124.8632-124.8632
  -124.8629-124.8629-124.8628-124.8628-124.8625-124.8625-124.8624-124.8624
  -124.8623-124.8623-124.8623-124.8622-124.8620-124.8620-124.8620-124.8619
   -79.2335 -79.2333 -79.2332 -79.2330 -79.2309 -79.2307 -79.2298 -79.2297
   -79.2252 -79.2252 -79.2252 -79.2252 -79.2203 -79.2203 -79.2173 -79.2171
   -79.2162 -79.2162 -79.2148 -79.2148 -79.2148 -79.2148 -79.2145 -79.2143
   -79.2141 -79.2138 -79.2137 -79.2137 -79.2137 -79.2136 -79.2134 -79.2132
   -79.2124 -79.2122 -79.2121 -79.2120 -79.2089 -79.2089 -79.2088 -79.2088
   -79.2081 -79.2079 -79.2054 -79.2051 -79.2043 -79.2042 -79.2015 -79.2012
   -79.0262 -79.0262 -79.0262 -79.0262 -79.0261 -79.0260 -79.0260 -79.0260
   -79.0237 -79.0237 -79.0236 -79.0236 -79.0226 -79.0226 -79.0226 -79.0226
   -79.0218 -79.0217 -79.0217 -79.0216 -79.0208 -79.0208 -79.0207 -79.0207
   -79.0194 -79.0194 -79.0194 -79.0194 -79.0194 -79.0194 -79.0194 -79.0194
   -79.0191 -79.0191 -79.0189 -79.0189 -79.0186 -79.0186 -79.0185 -79.0185
   -79.0184 -79.0184 -79.0183 -79.0183 -79.0181 -79.0181 -79.0181 -79.0181
   -79.0181 -79.0181 -79.0181 -79.0181 -79.0181 -79.0180 -79.0180 -79.0180
   -79.0132 -79.0132 -79.0132 -79.0132 -79.0067 -79.0066 -79.0066 -79.0066
   -79.0052 -79.0052 -79.0052 -79.0051 -79.0051 -79.0050 -79.0050 -79.0050
   -79.0018 -79.0018 -79.0018 -79.0018 -79.0018 -79.0018 -79.0018 -79.0018
   -79.0010 -79.0010 -79.0009 -79.0008 -78.9983 -78.9982 -78.9981 -78.9981
   -78.9972 -78.9972 -78.9972 -78.9971 -78.9944 -78.9944 -78.9942 -78.9942
    -8.1561  -8.1559  -7.3173  -7.3173  -7.0267  -7.0265  -6.8654  -6.8652
    -6.8613  -6.8611  -6.7514  -6.7513  -6.7511  -6.7511  -6.6554  -6.6552
    -6.6485  -6.6484  -6.6484  -6.6484  -6.6265  -6.6264  -6.6088  -6.6087
    -6.6086  -6.6085  -6.5550  -6.5549  -6.5308  -6.5307  -6.5306  -6.5306
    -6.5071  -6.5071  -6.4890  -6.4890  -6.4890  -6.4890  -6.4648  -6.4648
    -6.4648  -6.4648  -6.4626  -6.4624  -6.4513  -6.4513  -6.4278  -6.4278
    -6.4238  -6.4238  -6.4236  -6.4236  -6.3120  -6.3120  -6.3031  -6.3031
    -6.2949  -6.2949  -6.2949  -6.2949  -6.2934  -6.2933  -6.2726  -6.2725
    -6.2725  -6.2724  -6.2379  -6.2378  -6.2230  -6.2230  -6.2230  -6.2230
    -6.2077  -6.2077  -6.2026  -6.2026  -6.1719  -6.1718  -6.1437  -6.1437
    -6.1137  -6.1137  -6.1052  -6.1052  -6.0844  -6.0844  -6.0843  -6.0843
    -6.0632  -6.0632  -6.0632  -6.0632  -6.0440  -6.0439  -6.0343  -6.0343
    -6.0277  -6.0276  -6.0242  -6.0241  -6.0110  -6.0108  -5.9918  -5.9918
    -5.9918  -5.9918  -5.9485  -5.9485  -5.9479  -5.9477  -5.9171  -5.9171
    -5.9074  -5.9074  -5.8737  -5.8737  -5.8735  -5.8735  -5.8171  -5.8169
    -5.8111  -5.8111  -5.8104  -5.8104  -5.8104  -5.8104  -5.8069  -5.8067
    -5.7892  -5.7892  -5.7871  -5.7869  -5.7775  -5.7775  -5.7774  -5.7774
    -5.7696  -5.7695  -5.7692  -5.7692  -5.7692  -5.7692  -5.7575  -5.7575
    -5.7557  -5.7556  -5.7556  -5.7556  -5.6773  -5.6773  -5.6759  -5.6758
    -5.6689  -5.6689  -5.6473  -5.6473  -5.6473  -5.6473  -5.6329  -5.6327
    -5.6258  -5.6258  -5.6066  -5.6066  -5.6064  -5.6064  -5.5963  -5.5963
    -5.5723  -5.5722  -5.5452  -5.5451  -5.5307  -5.5307  -5.5306  -5.5306
    -5.5284  -5.5284  -5.5284  -5.5284  -5.5251  -5.5251  -5.5230  -5.5229
    -5.5010  -5.5010  -5.5009  -5.5009  -5.4910  -5.4909  -5.4902  -5.4901
    -5.4885  -5.4885  -5.4810  -5.4810  -5.4660  -5.4660  -5.4660  -5.4660
    -5.4532  -5.4531  -5.4530  -5.4530  -5.4419  -5.4418  -5.4248  -5.4246
    -5.4175  -5.4174  -5.4174  -5.4173  -5.4144  -5.4144  -5.4134  -5.4134
    -5.4069  -5.4069  -5.4047  -5.4046  -5.4021  -5.4019  -5.3726  -5.3724
    -5.3647  -5.3647  -5.3646  -5.3646  -5.3262  -5.3262  -5.3262  -5.3262
    -5.2564  -5.2563  -5.2562  -5.2562  -5.2367  -5.2366  -5.2364  -5.2364
    -5.2363  -5.2362  -5.2037  -5.2036  -5.2010  -5.2009  -4.7031  -4.7031
    -4.4195  -4.4195  -4.4194  -4.4194  -3.7289  -3.7289  -3.1113  -3.1112
    -3.0623  -3.0623  -3.0623  -3.0622  -2.3921  -2.3921  -2.2403  -2.2403
    -1.7585  -1.7585  -1.7583  -1.7583  -0.7558  -0.7558  -0.7558  -0.7558
    -0.3260  -0.3260  -0.3259  -0.3259  -0.0906  -0.0905   0.0127   0.0127
     1.0209   1.0209   1.0489   1.0489   1.3376   1.3376   1.3695   1.3696
     1.3696   1.3696   2.2231   2.2231   2.8995   2.8995   2.8996   2.8996
     3.1014   3.1014   3.1014   3.1014   3.3217   3.3217   3.5547   3.5549
     3.8661   3.8661   3.8661   3.8661   3.9980   3.9981   4.2576   4.2576
     4.4468   4.4468   4.7455   4.7455   4.8576   4.8576   5.4821   5.4821
     5.5255   5.5255   5.7249   5.7249   5.8005   5.8006   5.9293   5.9293
     5.9294   5.9294   5.9827   5.9827   5.9827   5.9827   6.1536   6.1536
     6.1536   6.1536   6.4270   6.4270   6.5593   6.5593   6.6433   6.6433
     6.6628   6.6628   6.8473   6.8473   6.8663   6.8663   7.0135   7.0135
     7.0135   7.0135   7.5855   7.5855   7.7448   7.7448   8.0643   8.0643
     8.0903   8.0903   8.0903   8.0903   8.2784   8.2784   8.4765   8.4765
     8.4765   8.4765   8.6263   8.6263   8.6263   8.6263   8.6676   8.6677
     8.7362   8.7362   8.8111   8.8111   8.9991   8.9992   8.9992   8.9993

     occupation numbers 
     1.0000   1.0000   1.0000   1.0000   1.0000   1.0000   1.0000   1.0000
     1.0000   1.0000   1.0000   1.0000   1.0000   1.0000   1.0000   1.0000
     1.0000   1.0000   1.0000   1.0000   1.0000   1.0000   1.0000   1.0000
     1.0000   1.0000   1.0000   1.0000   1.0000   1.0000   1.0000   1.0000
     1.0000   1.0000   1.0000   1.0000   1.0000   1.0000   1.0000   1.0000
     1.0000   1.0000   1.0000   1.0000   1.0000   1.0000   1.0000   1.0000
     1.0000   1.0000   1.0000   1.0000   1.0000   1.0000   1.0000   1.0000
     1.0000   1.0000   1.0000   1.0000   1.0000   1.0000   1.0000   1.0000
     1.0000   1.0000   1.0000   1.0000   1.0000   1.0000   1.0000   1.0000
     1.0000   1.0000   1.0000   1.0000   1.0000   1.0000   1.0000   1.0000
     1.0000   1.0000   1.0000   1.0000   1.0000   1.0000   1.0000   1.0000
     1.0000   1.0000   1.0000   1.0000   1.0000   1.0000   1.0000   1.0000
     1.0000   1.0000   1.0000   1.0000   1.0000   1.0000   1.0000   1.0000
     1.0000   1.0000   1.0000   1.0000   1.0000   1.0000   1.0000   1.0000
     1.0000   1.0000   1.0000   1.0000   1.0000   1.0000   1.0000   1.0000
     1.0000   1.0000   1.0000   1.0000   1.0000   1.0000   1.0000   1.0000
     1.0000   1.0000   1.0000   1.0000   1.0000   1.0000   1.0000   1.0000
     1.0000   1.0000   1.0000   1.0000   1.0000   1.0000   1.0000   1.0000
     1.0000   1.0000   1.0000   1.0000   1.0000   1.0000   1.0000   1.0000
     1.0000   1.0000   1.0000   1.0000   1.0000   1.0000   1.0000   1.0000
     1.0000   1.0000   1.0000   1.0000   1.0000   1.0000   1.0000   1.0000
     1.0000   1.0000   1.0000   1.0000   1.0000   1.0000   1.0000   1.0000
     1.0000   1.0000   1.0000   1.0000   1.0000   1.0000   1.0000   1.0000
     1.0000   1.0000   1.0000   1.0000   1.0000   1.0000   1.0000   1.0000
     1.0000   1.0000   1.0000   1.0000   1.0000   1.0000   1.0000   1.0000
     1.0000   1.0000   1.0000   1.0000   1.0000   1.0000   1.0000   1.0000
     1.0000   1.0000   1.0000   1.0000   1.0000   1.0000   1.0000   1.0000
     1.0000   1.0000   1.0000   1.0000   1.0000   1.0000   1.0000   1.0000
     1.0000   1.0000   1.0000   1.0000   1.0000   1.0000   1.0000   1.0000
     1.0000   1.0000   1.0000   1.0000   1.0000   1.0000   1.0000   1.0000
     1.0000   1.0000   1.0000   1.0000   1.0000   1.0000   1.0000   1.0000
     1.0000   1.0000   1.0000   1.0000   1.0000   1.0000   1.0000   1.0000
     1.0000   1.0000   1.0000   1.0000   1.0000   1.0000   1.0000   1.0000
     1.0000   1.0000   1.0000   1.0000   1.0000   1.0000   1.0000   1.0000
     1.0000   1.0000   1.0000   1.0000   1.0000   1.0000   1.0000   1.0000
     1.0000   1.0000   1.0000   1.0000   1.0000   1.0000   1.0000   1.0000
     1.0000   1.0000   1.0000   1.0000   1.0000   1.0000   1.0000   1.0000
     1.0000   1.0000   1.0000   1.0000   1.0000   1.0000   1.0000   1.0000
     1.0000   1.0000   1.0000   1.0000   1.0000   1.0000   1.0000   1.0000
     1.0000   1.0000   1.0000   1.0000   1.0000   1.0000   1.0000   1.0000
     1.0000   1.0000   1.0000   1.0000   1.0000   1.0000   1.0000   1.0000
     1.0000   1.0000   1.0000   1.0000   1.0000   1.0000   1.0000   1.0000
     1.0000   1.0000   1.0000   1.0000   1.0000   1.0000   1.0000   1.0000
     1.0000   1.0000   1.0000   1.0000   1.0000   1.0000   1.0000   1.0000
     1.0000   1.0000   1.0000   1.0000   1.0000   1.0000   1.0000   1.0000
     1.0000   1.0000   1.0000   1.0000   1.0000   1.0000   1.0000   1.0000
     1.0000   1.0000   1.0000   1.0000   1.0000   1.0000   1.0000   1.0000
     1.0000   1.0000   1.0000   1.0000   1.0000   1.0000   1.0000   1.0000
     1.0000   1.0000   1.0000   1.0000   1.0000   1.0000   1.0000   1.0000
     1.0000   1.0000   1.0000   1.0000   1.0000   1.0000   1.0000   1.0000
     1.0000   1.0000   1.0000   1.0000   1.0000   1.0000   1.0000   1.0000
     1.0000   1.0000   1.0000   1.0000   1.0000   1.0000   1.0000   1.0000
     1.0000   1.0000   1.0000   1.0000   1.0000   1.0000   1.0000   1.0000
     1.0000   1.0000   1.0000   1.0000   1.0000   1.0000   1.0000   1.0000
     1.0000   1.0000   1.0000   1.0000   1.0000   1.0000   1.0000   1.0000
     1.0000   1.0000   1.0000   1.0000   1.0000   1.0000   1.0000   1.0000
     1.0000   1.0000   1.0000   1.0000   1.0000   1.0000   1.0000   1.0000
     1.0000   1.0000   1.0000   1.0000   1.0000   1.0000   1.0000   1.0000
     1.0000   1.0000   1.0000   1.0000   1.0000   1.0000   1.0000   1.0000
     1.0812   1.0812   1.0833   1.0833   0.6573   0.6573   0.5690   0.5689
     0.5687   0.5687   0.0000   0.0000   0.0000   0.0000   0.0000   0.0000
     0.0000   0.0000   0.0000   0.0000   0.0000   0.0000   0.0000   0.0000
     0.0000   0.0000   0.0000   0.0000   0.0000   0.0000   0.0000   0.0000
     0.0000   0.0000   0.0000   0.0000   0.0000   0.0000   0.0000   0.0000
     0.0000   0.0000   0.0000   0.0000   0.0000   0.0000   0.0000   0.0000
     0.0000   0.0000   0.0000   0.0000   0.0000   0.0000   0.0000   0.0000
     0.0000   0.0000   0.0000   0.0000   0.0000   0.0000   0.0000   0.0000
     0.0000   0.0000   0.0000   0.0000   0.0000   0.0000   0.0000   0.0000
     0.0000   0.0000   0.0000   0.0000   0.0000   0.0000   0.0000   0.0000
     0.0000   0.0000   0.0000   0.0000   0.0000   0.0000   0.0000   0.0000
     0.0000   0.0000   0.0000   0.0000   0.0000   0.0000   0.0000   0.0000
     0.0000   0.0000   0.0000   0.0000   0.0000   0.0000   0.0000   0.0000

          k = 0.2500 0.1443 0.0000 ( 64808 PWs)   bands (ev):

  -125.0695-125.0686-125.0682-125.0681-125.0676-125.0675-125.0672-125.0667
  -125.0666-125.0663-125.0663-125.0662-125.0661-125.0661-125.0658-125.0657
  -124.8657-124.8657-124.8648-124.8648-124.8644-124.8644-124.8644-124.8644
  -124.8637-124.8637-124.8637-124.8637-124.8634-124.8634-124.8628-124.8628
  -124.8628-124.8628-124.8625-124.8625-124.8625-124.8625-124.8624-124.8624
  -124.8624-124.8623-124.8623-124.8622-124.8621-124.8621-124.8620-124.8620
   -79.2353 -79.2353 -79.2347 -79.2307 -79.2307 -79.2298 -79.2298 -79.2279
   -79.2279 -79.2249 -79.2217 -79.2217 -79.2191 -79.2190 -79.2177 -79.2166
   -79.2161 -79.2161 -79.2154 -79.2153 -79.2150 -79.2150 -79.2150 -79.2147
   -79.2147 -79.2144 -79.2143 -79.2140 -79.2139 -79.2139 -79.2137 -79.2137
   -79.2134 -79.2133 -79.2123 -79.2123 -79.2111 -79.2101 -79.2101 -79.2090
   -79.2065 -79.2062 -79.2062 -79.2042 -79.2042 -79.2029 -79.2013 -79.2003
   -79.0282 -79.0282 -79.0281 -79.0281 -79.0276 -79.0275 -79.0236 -79.0236
   -79.0236 -79.0236 -79.0227 -79.0227 -79.0227 -79.0227 -79.0222 -79.0220
   -79.0211 -79.0210 -79.0208 -79.0208 -79.0207 -79.0207 -79.0207 -79.0207
   -79.0206 -79.0206 -79.0200 -79.0199 -79.0199 -79.0199 -79.0196 -79.0196
   -79.0189 -79.0189 -79.0189 -79.0189 -79.0186 -79.0186 -79.0186 -79.0186
   -79.0185 -79.0184 -79.0184 -79.0184 -79.0183 -79.0183 -79.0181 -79.0181
   -79.0181 -79.0181 -79.0178 -79.0178 -79.0146 -79.0146 -79.0146 -79.0146
   -79.0120 -79.0120 -79.0119 -79.0119 -79.0079 -79.0079 -79.0079 -79.0079
   -79.0076 -79.0076 -79.0076 -79.0076 -79.0053 -79.0053 -79.0052 -79.0052
   -79.0040 -79.0040 -79.0031 -79.0031 -79.0031 -79.0031 -79.0020 -79.0020
   -78.9994 -78.9994 -78.9991 -78.9991 -78.9991 -78.9991 -78.9972 -78.9972
   -78.9972 -78.9972 -78.9958 -78.9958 -78.9943 -78.9943 -78.9933 -78.9933
    -8.5039  -7.6205  -7.3011  -7.2487  -7.2487  -7.0306  -6.8998  -6.8737
    -6.8737  -6.8507  -6.8471  -6.8471  -6.7084  -6.6934  -6.6934  -6.6917
    -6.6765  -6.6645  -6.6401  -6.6401  -6.5916  -6.5821  -6.5786  -6.5786
    -6.5693  -6.5693  -6.5498  -6.5498  -6.5296  -6.5296  -6.5201  -6.5201
    -6.5186  -6.5138  -6.5138  -6.5110  -6.5110  -6.5039  -6.5039  -6.4880
    -6.4880  -6.4624  -6.4623  -6.4248  -6.4248  -6.3970  -6.3969  -6.3819
    -6.3819  -6.3776  -6.3238  -6.3190  -6.3190  -6.3174  -6.3174  -6.3170
    -6.3170  -6.2709  -6.2709  -6.2607  -6.2536  -6.2312  -6.2312  -6.2251
    -6.2251  -6.2233  -6.2233  -6.2233  -6.2105  -6.2105  -6.2065  -6.2065
    -6.1975  -6.1975  -6.1857  -6.1857  -6.1816  -6.1799  -6.1799  -6.1559
    -6.1397  -6.1254  -6.1254  -6.1163  -6.1163  -6.1023  -6.1023  -6.0948
    -6.0924  -6.0924  -6.0800  -6.0653  -6.0653  -6.0514  -6.0514  -6.0501
    -6.0501  -5.9610  -5.9610  -5.9607  -5.9607  -5.9456  -5.9431  -5.9390
    -5.9390  -5.9366  -5.9366  -5.9257  -5.9257  -5.9150  -5.9131  -5.9131
    -5.8950  -5.8950  -5.8913  -5.8871  -5.8832  -5.8759  -5.8758  -5.8707
    -5.8478  -5.8478  -5.8409  -5.8409  -5.8268  -5.8128  -5.7973  -5.7973
    -5.7972  -5.7972  -5.7884  -5.7884  -5.7783  -5.7783  -5.7776  -5.7750
    -5.7750  -5.7571  -5.7571  -5.7492  -5.7492  -5.7419  -5.7321  -5.7321
    -5.7159  -5.7145  -5.7145  -5.7071  -5.7071  -5.6994  -5.6994  -5.6968
    -5.6968  -5.6941  -5.6941  -5.6812  -5.6697  -5.6697  -5.6591  -5.6457
    -5.6411  -5.6411  -5.6353  -5.6353  -5.6203  -5.6203  -5.6188  -5.6182
    -5.6182  -5.6144  -5.6130  -5.6072  -5.6072  -5.5815  -5.5659  -5.5625
    -5.5625  -5.5580  -5.5580  -5.5497  -5.5497  -5.5474  -5.5474  -5.5453
    -5.5453  -5.5426  -5.5286  -5.5286  -5.5278  -5.5232  -5.5232  -5.5143
    -5.5143  -5.4934  -5.4934  -5.4642  -5.4622  -5.4595  -5.4595  -5.4560
    -5.4560  -5.4536  -5.4536  -5.4417  -5.4417  -5.4324  -5.4277  -5.4277
    -5.4254  -5.4212  -5.4163  -5.4159  -5.4041  -5.4041  -5.4014  -5.4014
    -5.3904  -5.3888  -5.3888  -5.3823  -5.3701  -5.3701  -5.3662  -5.3609
    -5.3473  -5.3473  -5.3434  -5.3345  -5.3218  -5.3218  -5.3156  -5.3132
    -5.3132  -5.3035  -5.3035  -5.2949  -5.2949  -5.2843  -5.2843  -5.1452
    -5.1452  -5.1316  -5.1316  -5.1261  -5.1261  -5.1078  -5.1071  -4.9484
    -4.9353  -4.6393  -4.6393  -3.8818  -3.8818  -3.4806  -3.3946  -3.3946
    -3.3660  -2.6743  -2.3025  -2.3025  -2.2225  -2.0218  -2.0218  -1.9720
    -1.9720  -1.5154  -1.5154  -1.2926  -1.2926  -1.1175  -0.7955  -0.5735
    -0.5735  -0.5615  -0.5615  -0.5524   0.0233   0.0233   0.2684   0.2684
     0.5596   0.5596   0.6331   0.8762   0.8977   0.8977   1.1832   1.1832
     1.5559   1.5559   2.2260   2.2260   2.6467   2.6960   2.6961   2.7206
     2.7819   2.7819   2.9494   2.9494   3.2194   3.5459   3.6902   3.6902
     3.9082   3.9082   4.1118   4.1847   4.1847   4.5559   4.5559   4.8012
     4.8012   4.8426   4.8426   5.1513   5.1513   5.1599   5.1599   5.1870
     5.3801   5.4257   5.4257   5.5679   5.6422   5.7930   5.7930   5.8064
     6.0889   6.0936   6.0936   6.2990   6.3126   6.3126   6.3152   6.5100
     6.5386   6.5386   6.5939   6.5939   6.7098   6.7578   6.7578   7.0096
     7.0096   7.0865   7.0865   7.1718   7.1718   7.2399   7.3084   7.3084
     7.4082   7.4233   7.4233   7.4469   7.4469   7.6562   7.6562   7.6673
     7.6673   7.6994   7.6994   7.7425   7.8554   7.8554   7.9455   7.9455
     8.0228   8.0228   8.1333   8.3095   8.3218   8.4770   8.6360   8.6360
     8.6958   8.7071   8.7071   8.8074   8.8074   8.8254   8.8359   8.8359

     occupation numbers 
     1.0000   1.0000   1.0000   1.0000   1.0000   1.0000   1.0000   1.0000
     1.0000   1.0000   1.0000   1.0000   1.0000   1.0000   1.0000   1.0000
     1.0000   1.0000   1.0000   1.0000   1.0000   1.0000   1.0000   1.0000
     1.0000   1.0000   1.0000   1.0000   1.0000   1.0000   1.0000   1.0000
     1.0000   1.0000   1.0000   1.0000   1.0000   1.0000   1.0000   1.0000
     1.0000   1.0000   1.0000   1.0000   1.0000   1.0000   1.0000   1.0000
     1.0000   1.0000   1.0000   1.0000   1.0000   1.0000   1.0000   1.0000
     1.0000   1.0000   1.0000   1.0000   1.0000   1.0000   1.0000   1.0000
     1.0000   1.0000   1.0000   1.0000   1.0000   1.0000   1.0000   1.0000
     1.0000   1.0000   1.0000   1.0000   1.0000   1.0000   1.0000   1.0000
     1.0000   1.0000   1.0000   1.0000   1.0000   1.0000   1.0000   1.0000
     1.0000   1.0000   1.0000   1.0000   1.0000   1.0000   1.0000   1.0000
     1.0000   1.0000   1.0000   1.0000   1.0000   1.0000   1.0000   1.0000
     1.0000   1.0000   1.0000   1.0000   1.0000   1.0000   1.0000   1.0000
     1.0000   1.0000   1.0000   1.0000   1.0000   1.0000   1.0000   1.0000
     1.0000   1.0000   1.0000   1.0000   1.0000   1.0000   1.0000   1.0000
     1.0000   1.0000   1.0000   1.0000   1.0000   1.0000   1.0000   1.0000
     1.0000   1.0000   1.0000   1.0000   1.0000   1.0000   1.0000   1.0000
     1.0000   1.0000   1.0000   1.0000   1.0000   1.0000   1.0000   1.0000
     1.0000   1.0000   1.0000   1.0000   1.0000   1.0000   1.0000   1.0000
     1.0000   1.0000   1.0000   1.0000   1.0000   1.0000   1.0000   1.0000
     1.0000   1.0000   1.0000   1.0000   1.0000   1.0000   1.0000   1.0000
     1.0000   1.0000   1.0000   1.0000   1.0000   1.0000   1.0000   1.0000
     1.0000   1.0000   1.0000   1.0000   1.0000   1.0000   1.0000   1.0000
     1.0000   1.0000   1.0000   1.0000   1.0000   1.0000   1.0000   1.0000
     1.0000   1.0000   1.0000   1.0000   1.0000   1.0000   1.0000   1.0000
     1.0000   1.0000   1.0000   1.0000   1.0000   1.0000   1.0000   1.0000
     1.0000   1.0000   1.0000   1.0000   1.0000   1.0000   1.0000   1.0000
     1.0000   1.0000   1.0000   1.0000   1.0000   1.0000   1.0000   1.0000
     1.0000   1.0000   1.0000   1.0000   1.0000   1.0000   1.0000   1.0000
     1.0000   1.0000   1.0000   1.0000   1.0000   1.0000   1.0000   1.0000
     1.0000   1.0000   1.0000   1.0000   1.0000   1.0000   1.0000   1.0000
     1.0000   1.0000   1.0000   1.0000   1.0000   1.0000   1.0000   1.0000
     1.0000   1.0000   1.0000   1.0000   1.0000   1.0000   1.0000   1.0000
     1.0000   1.0000   1.0000   1.0000   1.0000   1.0000   1.0000   1.0000
     1.0000   1.0000   1.0000   1.0000   1.0000   1.0000   1.0000   1.0000
     1.0000   1.0000   1.0000   1.0000   1.0000   1.0000   1.0000   1.0000
     1.0000   1.0000   1.0000   1.0000   1.0000   1.0000   1.0000   1.0000
     1.0000   1.0000   1.0000   1.0000   1.0000   1.0000   1.0000   1.0000
     1.0000   1.0000   1.0000   1.0000   1.0000   1.0000   1.0000   1.0000
     1.0000   1.0000   1.0000   1.0000   1.0000   1.0000   1.0000   1.0000
     1.0000   1.0000   1.0000   1.0000   1.0000   1.0000   1.0000   1.0000
     1.0000   1.0000   1.0000   1.0000   1.0000   1.0000   1.0000   1.0000
     1.0000   1.0000   1.0000   1.0000   1.0000   1.0000   1.0000   1.0000
     1.0000   1.0000   1.0000   1.0000   1.0000   1.0000   1.0000   1.0000
     1.0000   1.0000   1.0000   1.0000   1.0000   1.0000   1.0000   1.0000
     1.0000   1.0000   1.0000   1.0000   1.0000   1.0000   1.0000   1.0000
     1.0000   1.0000   1.0000   1.0000   1.0000   1.0000   1.0000   1.0000
     1.0000   1.0000   1.0000   1.0000   1.0000   1.0000   1.0000   1.0000
     1.0000   1.0000   1.0000   1.0000   1.0000   1.0000   1.0000   1.0000
     1.0000   1.0000   1.0000   1.0000   1.0000   1.0000   1.0000   1.0000
     1.0000   1.0000   1.0000   1.0000   1.0000   1.0000   1.0000   1.0000
     1.0000   1.0000   1.0000   1.0000   1.0000   1.0000   1.0000   1.0000
     1.0000   1.0000   1.0000   1.0000   1.0000   1.0000   1.0000   1.0000
     1.0000   1.0000   1.0000   1.0000   1.0000   1.0000   1.0000   1.0000
     1.0000   1.0000   1.0000   1.0000   1.0000   1.0000   1.0000   1.0000
     1.0000   1.0000   1.0000   1.0000   1.0000   1.0000   1.0000   1.0000
     1.0000   1.0000   1.0000   1.0000   1.0000   1.0000   1.0000   1.0000
     1.0000   1.0000   1.0000   1.0000   1.0000   1.0000   1.0000   1.0000
     1.0006   1.0006   1.0019   1.0374   1.0443   1.0443   0.9983   0.9983
     0.1542   0.1542   0.0000   0.0000   0.0000   0.0000   0.0000   0.0000
     0.0000   0.0000   0.0000   0.0000   0.0000   0.0000   0.0000   0.0000
     0.0000   0.0000   0.0000   0.0000   0.0000   0.0000   0.0000   0.0000
     0.0000   0.0000   0.0000   0.0000   0.0000   0.0000   0.0000   0.0000
     0.0000   0.0000   0.0000   0.0000   0.0000   0.0000   0.0000   0.0000
     0.0000   0.0000   0.0000   0.0000   0.0000   0.0000   0.0000   0.0000
     0.0000   0.0000   0.0000   0.0000   0.0000   0.0000   0.0000   0.0000
     0.0000   0.0000   0.0000   0.0000   0.0000   0.0000   0.0000   0.0000
     0.0000   0.0000   0.0000   0.0000   0.0000   0.0000   0.0000   0.0000
     0.0000   0.0000   0.0000   0.0000   0.0000   0.0000   0.0000   0.0000
     0.0000   0.0000   0.0000   0.0000   0.0000   0.0000   0.0000   0.0000
     0.0000   0.0000   0.0000   0.0000   0.0000   0.0000   0.0000   0.0000

          k = 0.2500 0.4330 0.0000 ( 64876 PWs)   bands (ev):

  -125.0693-125.0689-125.0687-125.0677-125.0676-125.0671-125.0670-125.0668
  -125.0667-125.0666-125.0664-125.0663-125.0661-125.0660-125.0658-125.0656
  -124.8655-124.8655-124.8651-124.8650-124.8650-124.8649-124.8639-124.8639
  -124.8639-124.8639-124.8633-124.8633-124.8632-124.8631-124.8631-124.8630
  -124.8628-124.8628-124.8628-124.8627-124.8626-124.8626-124.8626-124.8626
  -124.8623-124.8623-124.8622-124.8622-124.8621-124.8620-124.8619-124.8619
   -79.2344 -79.2328 -79.2327 -79.2322 -79.2321 -79.2301 -79.2300 -79.2280
   -79.2280 -79.2275 -79.2240 -79.2232 -79.2195 -79.2195 -79.2174 -79.2169
   -79.2167 -79.2160 -79.2160 -79.2156 -79.2155 -79.2149 -79.2147 -79.2146
   -79.2143 -79.2142 -79.2141 -79.2140 -79.2137 -79.2136 -79.2134 -79.2132
   -79.2127 -79.2109 -79.2108 -79.2095 -79.2094 -79.2093 -79.2087 -79.2087
   -79.2080 -79.2079 -79.2065 -79.2065 -79.2039 -79.2024 -79.2024 -79.2010
   -79.0273 -79.0272 -79.0256 -79.0256 -79.0256 -79.0256 -79.0251 -79.0251
   -79.0250 -79.0250 -79.0230 -79.0229 -79.0229 -79.0228 -79.0219 -79.0218
   -79.0214 -79.0213 -79.0213 -79.0212 -79.0209 -79.0209 -79.0209 -79.0208
   -79.0204 -79.0204 -79.0201 -79.0201 -79.0201 -79.0200 -79.0195 -79.0194
   -79.0193 -79.0193 -79.0192 -79.0192 -79.0189 -79.0189 -79.0189 -79.0188
   -79.0187 -79.0187 -79.0187 -79.0187 -79.0184 -79.0183 -79.0183 -79.0182
   -79.0181 -79.0181 -79.0180 -79.0179 -79.0169 -79.0169 -79.0161 -79.0161
   -79.0124 -79.0124 -79.0124 -79.0124 -79.0090 -79.0089 -79.0089 -79.0089
   -79.0056 -79.0056 -79.0038 -79.0038 -79.0038 -79.0037 -79.0024 -79.0024
   -79.0023 -79.0023 -79.0023 -79.0022 -79.0017 -79.0017 -79.0017 -79.0016
   -79.0010 -79.0010 -79.0009 -79.0009 -78.9995 -78.9995 -78.9994 -78.9994
   -78.9969 -78.9969 -78.9954 -78.9954 -78.9954 -78.9953 -78.9940 -78.9940
    -8.2702  -7.8234  -7.8233  -7.1126  -6.9156  -6.8415  -6.8415  -6.8043
    -6.8043  -6.7985  -6.7985  -6.7938  -6.7938  -6.7703  -6.7291  -6.7290
    -6.7000  -6.6999  -6.6568  -6.6568  -6.6249  -6.6110  -6.6110  -6.6061
    -6.6060  -6.5897  -6.5896  -6.5697  -6.5697  -6.5615  -6.5614  -6.5457
    -6.5358  -6.5358  -6.4937  -6.4936  -6.4738  -6.4738  -6.4704  -6.4635
    -6.4634  -6.4418  -6.4417  -6.4191  -6.4138  -6.4138  -6.4137  -6.4137
    -6.4048  -6.4048  -6.3940  -6.3717  -6.3717  -6.3141  -6.3039  -6.3039
    -6.2990  -6.2990  -6.2937  -6.2937  -6.2932  -6.2803  -6.2689  -6.2650
    -6.2649  -6.2563  -6.2509  -6.2508  -6.2454  -6.2454  -6.2435  -6.2241
    -6.2241  -6.2038  -6.2038  -6.1793  -6.1793  -6.1675  -6.1490  -6.1475
    -6.1433  -6.1433  -6.1197  -6.1197  -6.1097  -6.1097  -6.0964  -6.0909
    -6.0580  -6.0580  -6.0484  -6.0483  -6.0439  -6.0348  -6.0219  -6.0219
    -5.9992  -5.9936  -5.9936  -5.9910  -5.9822  -5.9822  -5.9745  -5.9745
    -5.9721  -5.9721  -5.9590  -5.9506  -5.9442  -5.9172  -5.9172  -5.9093
    -5.9093  -5.9084  -5.9006  -5.8929  -5.8929  -5.8880  -5.8877  -5.8791
    -5.8790  -5.8550  -5.8550  -5.8481  -5.8481  -5.8354  -5.8353  -5.8351
    -5.8343  -5.8304  -5.8304  -5.8106  -5.7985  -5.7984  -5.7957  -5.7745
    -5.7649  -5.7649  -5.7574  -5.7539  -5.7539  -5.7515  -5.7149  -5.7148
    -5.6961  -5.6961  -5.6934  -5.6933  -5.6593  -5.6560  -5.6560  -5.6552
    -5.6552  -5.6486  -5.6342  -5.6326  -5.6326  -5.6256  -5.6255  -5.5946
    -5.5943  -5.5943  -5.5939  -5.5939  -5.5845  -5.5845  -5.5828  -5.5828
    -5.5804  -5.5804  -5.5763  -5.5762  -5.5684  -5.5684  -5.5512  -5.5511
    -5.5506  -5.5506  -5.5468  -5.5421  -5.5384  -5.5384  -5.5167  -5.5167
    -5.5141  -5.5116  -5.5116  -5.5089  -5.5049  -5.4857  -5.4856  -5.4840
    -5.4813  -5.4813  -5.4681  -5.4632  -5.4632  -5.4617  -5.4616  -5.4597
    -5.4596  -5.4576  -5.4576  -5.4450  -5.4450  -5.4426  -5.4426  -5.4355
    -5.4354  -5.4326  -5.4200  -5.4199  -5.4118  -5.4118  -5.4115  -5.4008
    -5.3969  -5.3884  -5.3884  -5.3765  -5.3763  -5.3763  -5.3708  -5.3695
    -5.3667  -5.3667  -5.3372  -5.3297  -5.3297  -5.3104  -5.3103  -5.2834
    -5.2781  -5.2780  -5.2748  -5.2748  -5.2739  -5.2739  -5.2591  -5.2307
    -5.1892  -5.1892  -5.1852  -5.1852  -5.1457  -5.1457  -5.0660  -5.0659
    -4.4574  -4.2339  -4.2339  -4.0447  -4.0447  -3.2458  -3.2458  -3.1963
    -3.1456  -2.8779  -2.8779  -2.8504  -2.8503  -2.7811  -2.7810  -1.7966
    -1.7966  -1.7021  -1.7021  -1.4139  -1.4139  -0.8455  -0.4763  -0.4763
    -0.4127  -0.4127  -0.3236  -0.2417   0.2940   0.3497   0.3498   0.4229
     0.4229   0.6993   0.6993   0.7886   0.9696   0.9696   1.0861   1.4152
     1.4153   1.9755   1.9755   2.5303   2.5512   2.8201   2.9852   3.0902
     3.3254   3.3254   3.3634   3.3634   3.4431   3.4462   3.4462   3.5742
     3.5742   3.6667   3.8897   3.8898   4.3743   4.3743   4.3911   4.4241
     4.4429   4.4429   4.5662   4.5663   4.8782   4.9323   5.1385   5.1385
     5.2198   5.2198   5.4127   5.4436   5.4437   5.4516   5.4516   5.6100
     5.8638   5.8638   6.0695   6.0695   6.0900   6.1232   6.1233   6.5415
     6.5416   6.5470   6.6431   6.6451   6.6452   6.7349   6.9516   6.9984
     6.9984   7.0013   7.0096   7.0096   7.0434   7.0434   7.1631   7.1631
     7.1842   7.1843   7.2111   7.2111   7.2214   7.2214   7.4452   7.4452
     8.0915   8.2140   8.2140   8.3521   8.3615   8.3828   8.3828   8.5218
     8.5218   8.5387   8.5525   8.5819   8.5819   8.6230   8.6230   8.6575
     8.6777   8.6777   8.7000   8.7422   8.8050   8.8050   9.0123   9.0123

     occupation numbers 
     1.0000   1.0000   1.0000   1.0000   1.0000   1.0000   1.0000   1.0000
     1.0000   1.0000   1.0000   1.0000   1.0000   1.0000   1.0000   1.0000
     1.0000   1.0000   1.0000   1.0000   1.0000   1.0000   1.0000   1.0000
     1.0000   1.0000   1.0000   1.0000   1.0000   1.0000   1.0000   1.0000
     1.0000   1.0000   1.0000   1.0000   1.0000   1.0000   1.0000   1.0000
     1.0000   1.0000   1.0000   1.0000   1.0000   1.0000   1.0000   1.0000
     1.0000   1.0000   1.0000   1.0000   1.0000   1.0000   1.0000   1.0000
     1.0000   1.0000   1.0000   1.0000   1.0000   1.0000   1.0000   1.0000
     1.0000   1.0000   1.0000   1.0000   1.0000   1.0000   1.0000   1.0000
     1.0000   1.0000   1.0000   1.0000   1.0000   1.0000   1.0000   1.0000
     1.0000   1.0000   1.0000   1.0000   1.0000   1.0000   1.0000   1.0000
     1.0000   1.0000   1.0000   1.0000   1.0000   1.0000   1.0000   1.0000
     1.0000   1.0000   1.0000   1.0000   1.0000   1.0000   1.0000   1.0000
     1.0000   1.0000   1.0000   1.0000   1.0000   1.0000   1.0000   1.0000
     1.0000   1.0000   1.0000   1.0000   1.0000   1.0000   1.0000   1.0000
     1.0000   1.0000   1.0000   1.0000   1.0000   1.0000   1.0000   1.0000
     1.0000   1.0000   1.0000   1.0000   1.0000   1.0000   1.0000   1.0000
     1.0000   1.0000   1.0000   1.0000   1.0000   1.0000   1.0000   1.0000
     1.0000   1.0000   1.0000   1.0000   1.0000   1.0000   1.0000   1.0000
     1.0000   1.0000   1.0000   1.0000   1.0000   1.0000   1.0000   1.0000
     1.0000   1.0000   1.0000   1.0000   1.0000   1.0000   1.0000   1.0000
     1.0000   1.0000   1.0000   1.0000   1.0000   1.0000   1.0000   1.0000
     1.0000   1.0000   1.0000   1.0000   1.0000   1.0000   1.0000   1.0000
     1.0000   1.0000   1.0000   1.0000   1.0000   1.0000   1.0000   1.0000
     1.0000   1.0000   1.0000   1.0000   1.0000   1.0000   1.0000   1.0000
     1.0000   1.0000   1.0000   1.0000   1.0000   1.0000   1.0000   1.0000
     1.0000   1.0000   1.0000   1.0000   1.0000   1.0000   1.0000   1.0000
     1.0000   1.0000   1.0000   1.0000   1.0000   1.0000   1.0000   1.0000
     1.0000   1.0000   1.0000   1.0000   1.0000   1.0000   1.0000   1.0000
     1.0000   1.0000   1.0000   1.0000   1.0000   1.0000   1.0000   1.0000
     1.0000   1.0000   1.0000   1.0000   1.0000   1.0000   1.0000   1.0000
     1.0000   1.0000   1.0000   1.0000   1.0000   1.0000   1.0000   1.0000
     1.0000   1.0000   1.0000   1.0000   1.0000   1.0000   1.0000   1.0000
     1.0000   1.0000   1.0000   1.0000   1.0000   1.0000   1.0000   1.0000
     1.0000   1.0000   1.0000   1.0000   1.0000   1.0000   1.0000   1.0000
     1.0000   1.0000   1.0000   1.0000   1.0000   1.0000   1.0000   1.0000
     1.0000   1.0000   1.0000   1.0000   1.0000   1.0000   1.0000   1.0000
     1.0000   1.0000   1.0000   1.0000   1.0000   1.0000   1.0000   1.0000
     1.0000   1.0000   1.0000   1.0000   1.0000   1.0000   1.0000   1.0000
     1.0000   1.0000   1.0000   1.0000   1.0000   1.0000   1.0000   1.0000
     1.0000   1.0000   1.0000   1.0000   1.0000   1.0000   1.0000   1.0000
     1.0000   1.0000   1.0000   1.0000   1.0000   1.0000   1.0000   1.0000
     1.0000   1.0000   1.0000   1.0000   1.0000   1.0000   1.0000   1.0000
     1.0000   1.0000   1.0000   1.0000   1.0000   1.0000   1.0000   1.0000
     1.0000   1.0000   1.0000   1.0000   1.0000   1.0000   1.0000   1.0000
     1.0000   1.0000   1.0000   1.0000   1.0000   1.0000   1.0000   1.0000
     1.0000   1.0000   1.0000   1.0000   1.0000   1.0000   1.0000   1.0000
     1.0000   1.0000   1.0000   1.0000   1.0000   1.0000   1.0000   1.0000
     1.0000   1.0000   1.0000   1.0000   1.0000   1.0000   1.0000   1.0000
     1.0000   1.0000   1.0000   1.0000   1.0000   1.0000   1.0000   1.0000
     1.0000   1.0000   1.0000   1.0000   1.0000   1.0000   1.0000   1.0000
     1.0000   1.0000   1.0000   1.0000   1.0000   1.0000   1.0000   1.0000
     1.0000   1.0000   1.0000   1.0000   1.0000   1.0000   1.0000   1.0000
     1.0000   1.0000   1.0000   1.0000   1.0000   1.0000   1.0000   1.0000
     1.0000   1.0000   1.0000   1.0000   1.0000   1.0000   1.0000   1.0000
     1.0000   1.0000   1.0000   1.0000   1.0000   1.0000   1.0000   1.0000
     1.0000   1.0000   1.0000   1.0000   1.0000   1.0000   1.0000   1.0000
     1.0000   1.0000   1.0000   1.0000   1.0000   1.0000   1.0000   1.0000
     1.0000   1.0000   1.0000   1.0000   1.0000   1.0000   1.0000   1.0000
     1.0000   1.0052   1.0052   1.0159   1.0686   1.0686   1.0779   0.4454
     0.4452   0.0003   0.0003   0.0000   0.0000   0.0000   0.0000   0.0000
     0.0000   0.0000   0.0000   0.0000   0.0000   0.0000   0.0000   0.0000
     0.0000   0.0000   0.0000   0.0000   0.0000   0.0000   0.0000   0.0000
     0.0000   0.0000   0.0000   0.0000   0.0000   0.0000   0.0000   0.0000
     0.0000   0.0000   0.0000   0.0000   0.0000   0.0000   0.0000   0.0000
     0.0000   0.0000   0.0000   0.0000   0.0000   0.0000   0.0000   0.0000
     0.0000   0.0000   0.0000   0.0000   0.0000   0.0000   0.0000   0.0000
     0.0000   0.0000   0.0000   0.0000   0.0000   0.0000   0.0000   0.0000
     0.0000   0.0000   0.0000   0.0000   0.0000   0.0000   0.0000   0.0000
     0.0000   0.0000   0.0000   0.0000   0.0000   0.0000   0.0000   0.0000
     0.0000   0.0000   0.0000   0.0000   0.0000   0.0000   0.0000   0.0000
     0.0000   0.0000   0.0000   0.0000   0.0000   0.0000   0.0000   0.0000

          k = 0.2500-0.4330 0.0000 ( 64876 PWs)   bands (ev):

  -125.0693-125.0689-125.0687-125.0677-125.0677-125.0671-125.0670-125.0668
  -125.0667-125.0665-125.0664-125.0663-125.0661-125.0660-125.0658-125.0656
  -124.8655-124.8655-124.8651-124.8651-124.8649-124.8649-124.8639-124.8639
  -124.8639-124.8638-124.8633-124.8633-124.8632-124.8632-124.8631-124.8630
  -124.8628-124.8628-124.8627-124.8627-124.8626-124.8626-124.8626-124.8626
  -124.8623-124.8623-124.8622-124.8622-124.8621-124.8620-124.8619-124.8619
   -79.2344 -79.2328 -79.2327 -79.2322 -79.2321 -79.2301 -79.2300 -79.2280
   -79.2279 -79.2275 -79.2240 -79.2232 -79.2195 -79.2195 -79.2174 -79.2169
   -79.2167 -79.2160 -79.2160 -79.2155 -79.2155 -79.2149 -79.2147 -79.2146
   -79.2144 -79.2142 -79.2141 -79.2140 -79.2137 -79.2136 -79.2134 -79.2132
   -79.2127 -79.2109 -79.2107 -79.2095 -79.2094 -79.2093 -79.2087 -79.2087
   -79.2081 -79.2079 -79.2065 -79.2065 -79.2039 -79.2024 -79.2024 -79.2010
   -79.0273 -79.0272 -79.0256 -79.0256 -79.0256 -79.0256 -79.0251 -79.0251
   -79.0250 -79.0250 -79.0230 -79.0230 -79.0229 -79.0228 -79.0219 -79.0218
   -79.0214 -79.0213 -79.0213 -79.0212 -79.0209 -79.0209 -79.0208 -79.0208
   -79.0204 -79.0204 -79.0201 -79.0201 -79.0201 -79.0200 -79.0195 -79.0195
   -79.0193 -79.0193 -79.0192 -79.0192 -79.0189 -79.0189 -79.0188 -79.0188
   -79.0187 -79.0187 -79.0187 -79.0187 -79.0184 -79.0183 -79.0183 -79.0182
   -79.0181 -79.0181 -79.0180 -79.0179 -79.0169 -79.0169 -79.0161 -79.0161
   -79.0124 -79.0124 -79.0124 -79.0124 -79.0090 -79.0090 -79.0089 -79.0089
   -79.0056 -79.0056 -79.0038 -79.0038 -79.0037 -79.0037 -79.0024 -79.0024
   -79.0023 -79.0023 -79.0023 -79.0022 -79.0017 -79.0017 -79.0017 -79.0016
   -79.0010 -79.0010 -79.0009 -79.0009 -78.9995 -78.9995 -78.9995 -78.9994
   -78.9969 -78.9969 -78.9954 -78.9954 -78.9954 -78.9953 -78.9940 -78.9940
    -8.2702  -7.8234  -7.8233  -7.1126  -6.9156  -6.8415  -6.8415  -6.8043
    -6.8043  -6.7985  -6.7985  -6.7938  -6.7938  -6.7703  -6.7291  -6.7290
    -6.7000  -6.6998  -6.6568  -6.6568  -6.6249  -6.6110  -6.6110  -6.6061
    -6.6060  -6.5897  -6.5896  -6.5697  -6.5697  -6.5615  -6.5614  -6.5457
    -6.5358  -6.5358  -6.4937  -6.4936  -6.4738  -6.4738  -6.4704  -6.4634
    -6.4634  -6.4418  -6.4417  -6.4191  -6.4138  -6.4138  -6.4137  -6.4137
    -6.4048  -6.4048  -6.3940  -6.3718  -6.3716  -6.3141  -6.3039  -6.3039
    -6.2990  -6.2990  -6.2937  -6.2937  -6.2932  -6.2803  -6.2689  -6.2650
    -6.2649  -6.2563  -6.2509  -6.2508  -6.2454  -6.2454  -6.2435  -6.2241
    -6.2241  -6.2038  -6.2038  -6.1793  -6.1793  -6.1675  -6.1490  -6.1475
    -6.1433  -6.1433  -6.1197  -6.1197  -6.1098  -6.1097  -6.0964  -6.0909
    -6.0580  -6.0580  -6.0484  -6.0483  -6.0439  -6.0348  -6.0219  -6.0219
    -5.9992  -5.9936  -5.9936  -5.9910  -5.9822  -5.9822  -5.9745  -5.9745
    -5.9721  -5.9721  -5.9590  -5.9506  -5.9442  -5.9172  -5.9172  -5.9093
    -5.9093  -5.9084  -5.9006  -5.8929  -5.8929  -5.8880  -5.8877  -5.8791
    -5.8790  -5.8550  -5.8550  -5.8481  -5.8481  -5.8354  -5.8353  -5.8351
    -5.8343  -5.8304  -5.8304  -5.8106  -5.7985  -5.7984  -5.7957  -5.7745
    -5.7649  -5.7649  -5.7574  -5.7539  -5.7539  -5.7515  -5.7149  -5.7148
    -5.6961  -5.6961  -5.6934  -5.6933  -5.6593  -5.6560  -5.6560  -5.6552
    -5.6552  -5.6486  -5.6342  -5.6326  -5.6326  -5.6256  -5.6255  -5.5946
    -5.5944  -5.5943  -5.5939  -5.5939  -5.5846  -5.5845  -5.5828  -5.5828
    -5.5804  -5.5804  -5.5763  -5.5762  -5.5684  -5.5684  -5.5512  -5.5511
    -5.5506  -5.5506  -5.5468  -5.5421  -5.5384  -5.5384  -5.5167  -5.5167
    -5.5141  -5.5116  -5.5116  -5.5089  -5.5049  -5.4857  -5.4856  -5.4840
    -5.4813  -5.4812  -5.4681  -5.4632  -5.4632  -5.4617  -5.4616  -5.4597
    -5.4596  -5.4576  -5.4576  -5.4450  -5.4450  -5.4426  -5.4426  -5.4355
    -5.4354  -5.4326  -5.4200  -5.4199  -5.4118  -5.4118  -5.4115  -5.4008
[...]
     1.0000   1.0000   1.0000   1.0000   1.0000   1.0000   1.0000   1.0000
     1.0000   1.0000   1.0000   1.0000   1.0000   1.0000   1.0000   1.0000
     1.0000   1.0000   1.0000   1.0000   1.0000   1.0000   1.0000   1.0000
     1.0000   1.0000   1.0000   1.0000   1.0000   1.0000   1.0000   1.0000
     1.0000   1.0000   1.0000   1.0000   1.0000   1.0000   1.0000   1.0000
     1.0000   1.0000   1.0000   1.0000   1.0000   1.0000   1.0000   1.0000
     1.0000   1.0000   1.0000   1.0000   1.0000   1.0000   1.0000   1.0000
     1.0000   1.0000   1.0000   1.0000   1.0000   1.0000   1.0000   1.0000
     1.0000   1.0000   1.0000   1.0000   1.0000   1.0000   1.0000   1.0000
     1.0000   1.0000   1.0000   1.0000   1.0000   1.0000   1.0000   1.0000
     1.0000   1.0000   1.0000   1.0000   1.0000   1.0000   1.0000   1.0000
     1.0000   1.0000   1.0000   1.0000   1.0000   1.0000   1.0000   1.0000
     1.0000   1.0000   1.0000   1.0000   1.0000   1.0000   1.0000   1.0000
     1.0000   1.0000   1.0000   1.0000   1.0000   1.0000   1.0000   1.0000
     1.0000   1.0000   1.0000   1.0000   1.0000   1.0000   1.0000   1.0000
     1.0000   1.0000   1.0000   1.0000   1.0000   1.0000   1.0000   1.0000
     1.0000   1.0000   1.0000   1.0000   1.0000   1.0000   1.0000   1.0000
     1.0000   1.0000   1.0000   1.0000   1.0000   1.0000   1.0000   1.0000
     1.0000   1.0000   1.0000   1.0000   1.0000   1.0000   1.0000   1.0000
     1.0000   1.0000   1.0000   1.0000   1.0000   1.0000   1.0000   1.0000
     1.0000   1.0000   1.0000   1.0000   1.0000   1.0000   1.0000   1.0000
     1.0000   1.0000   1.0000   1.0000   1.0000   1.0000   1.0000   1.0000
     1.0000   1.0000   1.0000   1.0000   1.0000   1.0000   1.0000   1.0000
     1.0000   1.0000   1.0000   1.0000   1.0000   1.0000   1.0000   1.0000
     1.0000   1.0000   1.0000   1.0000   1.0000   1.0000   1.0000   1.0000
     1.0000   1.0000   1.0000   1.0000   1.0000   1.0000   1.0000   1.0000
     1.0000   1.0000   1.0000   1.0000   1.0000   1.0000   1.0000   1.0000
     1.0000   1.0000   1.0000   1.0000   1.0000   1.0000   1.0000   1.0000
     1.0000   1.0000   1.0000   1.0000   1.0000   1.0000   1.0000   1.0000
     1.0000   1.0000   1.0000   1.0000   1.0000   1.0000   1.0000   1.0000
     1.0000   1.0000   1.0000   1.0000   1.0000   1.0000   1.0000   1.0000
     1.0000   1.0000   1.0000   1.0000   1.0000   1.0000   1.0000   1.0000
     1.0000   1.0000   1.0000   1.0000   1.0000   1.0000   1.0000   1.0000
     1.0000   1.0000   1.0000   1.0000   1.0000   1.0000   1.0000   1.0000
     1.0000   1.0000   1.0000   1.0000   1.0000   1.0000   1.0000   1.0000
     1.0000   1.0000   1.0000   1.0000   1.0000   1.0000   1.0000   1.0000
     1.0000   1.0000   1.0000   1.0000   1.0000   1.0000   1.0000   1.0000
     1.0000   1.0000   1.0000   1.0000   1.0000   1.0000   1.0000   1.0000
     1.0000   1.0000   1.0000   1.0000   1.0000   1.0000   1.0000   1.0000
     1.0000   1.0000   1.0000   1.0000   1.0000   1.0000   1.0000   1.0000
     1.0000   1.0000   1.0000   1.0000   1.0000   1.0000   1.0000   1.0000
     1.0000   1.0000   1.0000   1.0000   1.0000   1.0000   1.0000   1.0000
     1.0000   1.0000   1.0000   1.0000   1.0000   1.0000   1.0000   1.0000
     1.0000   1.0000   1.0000   1.0000   1.0000   1.0000   1.0000   1.0000
     1.0000   1.0000   1.0000   1.0000   1.0000   1.0000   1.0000   1.0000
     1.0000   1.0000   1.0000   1.0000   1.0000   1.0000   1.0000   1.0000
     1.0000   1.0000   1.0000   1.0000   1.0000   1.0000   1.0000   1.0000
     1.0000   1.0000   1.0000   1.0000   1.0000   1.0000   1.0000   1.0000
     1.0000   1.0000   1.0000   1.0000   1.0000   1.0000   1.0000   1.0000
     1.0000   1.0000   1.0000   1.0000   1.0000   1.0000   1.0000   1.0000
     1.0000   1.0000   1.0000   1.0000   1.0000   1.0000   1.0000   1.0000
     1.0000   1.0000   1.0000   1.0000   1.0000   1.0000   1.0000   1.0000
     1.0000   1.0052   1.0052   1.0159   1.0686   1.0686   1.0779   0.4455
     0.4451   0.0003   0.0003   0.0000   0.0000   0.0000   0.0000   0.0000
     0.0000   0.0000   0.0000   0.0000   0.0000   0.0000   0.0000   0.0000
     0.0000   0.0000   0.0000   0.0000   0.0000   0.0000   0.0000   0.0000
     0.0000   0.0000   0.0000   0.0000   0.0000   0.0000   0.0000   0.0000
     0.0000   0.0000   0.0000   0.0000   0.0000   0.0000   0.0000   0.0000
     0.0000   0.0000   0.0000   0.0000   0.0000   0.0000   0.0000   0.0000
     0.0000   0.0000   0.0000   0.0000   0.0000   0.0000   0.0000   0.0000
     0.0000   0.0000   0.0000   0.0000   0.0000   0.0000   0.0000   0.0000
     0.0000   0.0000   0.0000   0.0000   0.0000   0.0000   0.0000   0.0000
     0.0000   0.0000   0.0000   0.0000   0.0000   0.0000   0.0000   0.0000
     0.0000   0.0000   0.0000   0.0000   0.0000   0.0000   0.0000   0.0000
     0.0000   0.0000   0.0000   0.0000   0.0000   0.0000   0.0000   0.0000

          k =-0.5000-0.8660 0.0000 ( 64842 PWs)   bands (ev):

  -125.0692-125.0691-125.0683-125.0682-125.0672-125.0671-125.0671-125.0670
  -125.0667-125.0666-125.0663-125.0662-125.0661-125.0660-125.0657-125.0656
  -124.8654-124.8654-124.8653-124.8653-124.8645-124.8645-124.8645-124.8644
  -124.8633-124.8633-124.8633-124.8633-124.8633-124.8633-124.8633-124.8632
  -124.8629-124.8629-124.8629-124.8628-124.8625-124.8624-124.8624-124.8624
  -124.8624-124.8623-124.8623-124.8623-124.8620-124.8620-124.8619-124.8619
   -79.2333 -79.2333 -79.2332 -79.2331 -79.2309 -79.2308 -79.2298 -79.2297
   -79.2252 -79.2252 -79.2252 -79.2252 -79.2203 -79.2203 -79.2173 -79.2172
   -79.2162 -79.2162 -79.2149 -79.2148 -79.2148 -79.2148 -79.2144 -79.2143
   -79.2139 -79.2139 -79.2138 -79.2138 -79.2137 -79.2137 -79.2133 -79.2132
   -79.2123 -79.2122 -79.2122 -79.2121 -79.2089 -79.2089 -79.2088 -79.2088
   -79.2081 -79.2079 -79.2053 -79.2052 -79.2043 -79.2042 -79.2014 -79.2013
   -79.0262 -79.0262 -79.0261 -79.0261 -79.0261 -79.0261 -79.0261 -79.0260
   -79.0237 -79.0237 -79.0237 -79.0236 -79.0226 -79.0226 -79.0226 -79.0226
   -79.0218 -79.0217 -79.0216 -79.0216 -79.0208 -79.0208 -79.0207 -79.0207
   -79.0195 -79.0194 -79.0194 -79.0194 -79.0194 -79.0194 -79.0194 -79.0194
   -79.0190 -79.0190 -79.0190 -79.0189 -79.0186 -79.0185 -79.0185 -79.0185
   -79.0184 -79.0184 -79.0184 -79.0183 -79.0181 -79.0181 -79.0181 -79.0181
   -79.0181 -79.0181 -79.0181 -79.0181 -79.0180 -79.0180 -79.0180 -79.0180
   -79.0132 -79.0132 -79.0132 -79.0132 -79.0067 -79.0066 -79.0066 -79.0066
   -79.0052 -79.0051 -79.0051 -79.0051 -79.0051 -79.0051 -79.0050 -79.0050
   -79.0018 -79.0018 -79.0018 -79.0018 -79.0018 -79.0018 -79.0018 -79.0018
   -79.0010 -79.0010 -79.0009 -79.0009 -78.9982 -78.9982 -78.9982 -78.9981
   -78.9972 -78.9972 -78.9972 -78.9971 -78.9943 -78.9943 -78.9943 -78.9942
    -8.1560  -8.1559  -7.3173  -7.3173  -7.0266  -7.0266  -6.8653  -6.8652
    -6.8613  -6.8611  -6.7513  -6.7513  -6.7512  -6.7511  -6.6554  -6.6553
    -6.6485  -6.6484  -6.6484  -6.6484  -6.6265  -6.6264  -6.6087  -6.6087
    -6.6086  -6.6085  -6.5550  -6.5549  -6.5307  -6.5307  -6.5307  -6.5306
    -6.5071  -6.5071  -6.4891  -6.4891  -6.4890  -6.4890  -6.4648  -6.4648
    -6.4648  -6.4648  -6.4626  -6.4625  -6.4513  -6.4513  -6.4278  -6.4278
    -6.4237  -6.4237  -6.4236  -6.4236  -6.3120  -6.3120  -6.3031  -6.3031
    -6.2949  -6.2949  -6.2949  -6.2949  -6.2934  -6.2933  -6.2726  -6.2725
    -6.2725  -6.2724  -6.2379  -6.2378  -6.2230  -6.2230  -6.2230  -6.2230
    -6.2077  -6.2077  -6.2026  -6.2026  -6.1719  -6.1718  -6.1437  -6.1437
    -6.1137  -6.1137  -6.1052  -6.1052  -6.0844  -6.0844  -6.0843  -6.0843
    -6.0632  -6.0632  -6.0632  -6.0632  -6.0440  -6.0440  -6.0343  -6.0343
    -6.0277  -6.0276  -6.0242  -6.0241  -6.0110  -6.0108  -5.9918  -5.9918
    -5.9918  -5.9918  -5.9485  -5.9485  -5.9478  -5.9478  -5.9171  -5.9171
    -5.9074  -5.9074  -5.8737  -5.8737  -5.8736  -5.8735  -5.8170  -5.8169
    -5.8111  -5.8111  -5.8104  -5.8104  -5.8104  -5.8104  -5.8069  -5.8068
    -5.7892  -5.7892  -5.7870  -5.7870  -5.7775  -5.7775  -5.7774  -5.7774
    -5.7696  -5.7695  -5.7692  -5.7692  -5.7692  -5.7692  -5.7575  -5.7575
    -5.7557  -5.7556  -5.7556  -5.7556  -5.6773  -5.6773  -5.6759  -5.6759
    -5.6689  -5.6689  -5.6473  -5.6473  -5.6473  -5.6473  -5.6328  -5.6327
    -5.6258  -5.6258  -5.6065  -5.6065  -5.6065  -5.6064  -5.5963  -5.5963
    -5.5723  -5.5722  -5.5452  -5.5451  -5.5307  -5.5307  -5.5306  -5.5306
    -5.5284  -5.5284  -5.5284  -5.5284  -5.5251  -5.5251  -5.5230  -5.5229
    -5.5010  -5.5010  -5.5009  -5.5009  -5.4910  -5.4909  -5.4902  -5.4901
    -5.4885  -5.4885  -5.4810  -5.4810  -5.4660  -5.4660  -5.4660  -5.4660
    -5.4531  -5.4531  -5.4531  -5.4530  -5.4419  -5.4418  -5.4247  -5.4246
    -5.4174  -5.4174  -5.4174  -5.4174  -5.4144  -5.4144  -5.4134  -5.4134
    -5.4069  -5.4069  -5.4047  -5.4046  -5.4020  -5.4019  -5.3725  -5.3724
    -5.3647  -5.3647  -5.3646  -5.3646  -5.3262  -5.3262  -5.3262  -5.3262
    -5.2563  -5.2563  -5.2563  -5.2562  -5.2366  -5.2366  -5.2364  -5.2364
    -5.2363  -5.2363  -5.2037  -5.2036  -5.2010  -5.2009  -4.7031  -4.7031
    -4.4195  -4.4195  -4.4194  -4.4194  -3.7289  -3.7289  -3.1113  -3.1112
    -3.0623  -3.0623  -3.0623  -3.0622  -2.3921  -2.3921  -2.2403  -2.2403
    -1.7584  -1.7584  -1.7583  -1.7583  -0.7558  -0.7558  -0.7558  -0.7558
    -0.3260  -0.3260  -0.3259  -0.3259  -0.0906  -0.0905   0.0127   0.0127
     1.0209   1.0209   1.0489   1.0489   1.3376   1.3376   1.3696   1.3696
     1.3696   1.3696   2.2231   2.2231   2.8995   2.8995   2.8995   2.8996
     3.1014   3.1014   3.1014   3.1014   3.3217   3.3217   3.5548   3.5548
     3.8661   3.8661   3.8661   3.8661   3.9980   3.9980   4.2576   4.2576
     4.4468   4.4468   4.7455   4.7455   4.8576   4.8576   5.4821   5.4821
     5.5255   5.5255   5.7249   5.7249   5.8005   5.8006   5.9293   5.9293
     5.9294   5.9294   5.9827   5.9827   5.9827   5.9827   6.1536   6.1536
     6.1536   6.1536   6.4270   6.4270   6.5593   6.5593   6.6433   6.6433
     6.6628   6.6628   6.8473   6.8473   6.8663   6.8663   7.0135   7.0135
     7.0135   7.0135   7.5855   7.5855   7.7448   7.7448   8.0643   8.0643
     8.0903   8.0903   8.0903   8.0903   8.2784   8.2784   8.4765   8.4765
     8.4765   8.4765   8.6263   8.6263   8.6263   8.6263   8.6676   8.6676
     8.7362   8.7362   8.8111   8.8111   8.9992   8.9992   8.9992   8.9993

     occupation numbers 
     1.0000   1.0000   1.0000   1.0000   1.0000   1.0000   1.0000   1.0000
     1.0000   1.0000   1.0000   1.0000   1.0000   1.0000   1.0000   1.0000
     1.0000   1.0000   1.0000   1.0000   1.0000   1.0000   1.0000   1.0000
     1.0000   1.0000   1.0000   1.0000   1.0000   1.0000   1.0000   1.0000
     1.0000   1.0000   1.0000   1.0000   1.0000   1.0000   1.0000   1.0000
     1.0000   1.0000   1.0000   1.0000   1.0000   1.0000   1.0000   1.0000
     1.0000   1.0000   1.0000   1.0000   1.0000   1.0000   1.0000   1.0000
     1.0000   1.0000   1.0000   1.0000   1.0000   1.0000   1.0000   1.0000
     1.0000   1.0000   1.0000   1.0000   1.0000   1.0000   1.0000   1.0000
     1.0000   1.0000   1.0000   1.0000   1.0000   1.0000   1.0000   1.0000
     1.0000   1.0000   1.0000   1.0000   1.0000   1.0000   1.0000   1.0000
     1.0000   1.0000   1.0000   1.0000   1.0000   1.0000   1.0000   1.0000
     1.0000   1.0000   1.0000   1.0000   1.0000   1.0000   1.0000   1.0000
     1.0000   1.0000   1.0000   1.0000   1.0000   1.0000   1.0000   1.0000
     1.0000   1.0000   1.0000   1.0000   1.0000   1.0000   1.0000   1.0000
     1.0000   1.0000   1.0000   1.0000   1.0000   1.0000   1.0000   1.0000
     1.0000   1.0000   1.0000   1.0000   1.0000   1.0000   1.0000   1.0000
     1.0000   1.0000   1.0000   1.0000   1.0000   1.0000   1.0000   1.0000
     1.0000   1.0000   1.0000   1.0000   1.0000   1.0000   1.0000   1.0000
     1.0000   1.0000   1.0000   1.0000   1.0000   1.0000   1.0000   1.0000
     1.0000   1.0000   1.0000   1.0000   1.0000   1.0000   1.0000   1.0000
     1.0000   1.0000   1.0000   1.0000   1.0000   1.0000   1.0000   1.0000
     1.0000   1.0000   1.0000   1.0000   1.0000   1.0000   1.0000   1.0000
     1.0000   1.0000   1.0000   1.0000   1.0000   1.0000   1.0000   1.0000
     1.0000   1.0000   1.0000   1.0000   1.0000   1.0000   1.0000   1.0000
     1.0000   1.0000   1.0000   1.0000   1.0000   1.0000   1.0000   1.0000
     1.0000   1.0000   1.0000   1.0000   1.0000   1.0000   1.0000   1.0000
     1.0000   1.0000   1.0000   1.0000   1.0000   1.0000   1.0000   1.0000
     1.0000   1.0000   1.0000   1.0000   1.0000   1.0000   1.0000   1.0000
     1.0000   1.0000   1.0000   1.0000   1.0000   1.0000   1.0000   1.0000
     1.0000   1.0000   1.0000   1.0000   1.0000   1.0000   1.0000   1.0000
     1.0000   1.0000   1.0000   1.0000   1.0000   1.0000   1.0000   1.0000
     1.0000   1.0000   1.0000   1.0000   1.0000   1.0000   1.0000   1.0000
     1.0000   1.0000   1.0000   1.0000   1.0000   1.0000   1.0000   1.0000
     1.0000   1.0000   1.0000   1.0000   1.0000   1.0000   1.0000   1.0000
     1.0000   1.0000   1.0000   1.0000   1.0000   1.0000   1.0000   1.0000
     1.0000   1.0000   1.0000   1.0000   1.0000   1.0000   1.0000   1.0000
     1.0000   1.0000   1.0000   1.0000   1.0000   1.0000   1.0000   1.0000
     1.0000   1.0000   1.0000   1.0000   1.0000   1.0000   1.0000   1.0000
     1.0000   1.0000   1.0000   1.0000   1.0000   1.0000   1.0000   1.0000
     1.0000   1.0000   1.0000   1.0000   1.0000   1.0000   1.0000   1.0000
     1.0000   1.0000   1.0000   1.0000   1.0000   1.0000   1.0000   1.0000
     1.0000   1.0000   1.0000   1.0000   1.0000   1.0000   1.0000   1.0000
     1.0000   1.0000   1.0000   1.0000   1.0000   1.0000   1.0000   1.0000
     1.0000   1.0000   1.0000   1.0000   1.0000   1.0000   1.0000   1.0000
     1.0000   1.0000   1.0000   1.0000   1.0000   1.0000   1.0000   1.0000
     1.0000   1.0000   1.0000   1.0000   1.0000   1.0000   1.0000   1.0000
     1.0000   1.0000   1.0000   1.0000   1.0000   1.0000   1.0000   1.0000
     1.0000   1.0000   1.0000   1.0000   1.0000   1.0000   1.0000   1.0000
     1.0000   1.0000   1.0000   1.0000   1.0000   1.0000   1.0000   1.0000
     1.0000   1.0000   1.0000   1.0000   1.0000   1.0000   1.0000   1.0000
     1.0000   1.0000   1.0000   1.0000   1.0000   1.0000   1.0000   1.0000
     1.0000   1.0000   1.0000   1.0000   1.0000   1.0000   1.0000   1.0000
     1.0000   1.0000   1.0000   1.0000   1.0000   1.0000   1.0000   1.0000
     1.0000   1.0000   1.0000   1.0000   1.0000   1.0000   1.0000   1.0000
     1.0000   1.0000   1.0000   1.0000   1.0000   1.0000   1.0000   1.0000
     1.0000   1.0000   1.0000   1.0000   1.0000   1.0000   1.0000   1.0000
     1.0000   1.0000   1.0000   1.0000   1.0000   1.0000   1.0000   1.0000
     1.0000   1.0000   1.0000   1.0000   1.0000   1.0000   1.0000   1.0000
     1.0812   1.0812   1.0833   1.0833   0.6573   0.6573   0.5689   0.5689
     0.5688   0.5687   0.0000   0.0000   0.0000   0.0000   0.0000   0.0000
     0.0000   0.0000   0.0000   0.0000   0.0000   0.0000   0.0000   0.0000
     0.0000   0.0000   0.0000   0.0000   0.0000   0.0000   0.0000   0.0000
     0.0000   0.0000   0.0000   0.0000   0.0000   0.0000   0.0000   0.0000
     0.0000   0.0000   0.0000   0.0000   0.0000   0.0000   0.0000   0.0000
     0.0000   0.0000   0.0000   0.0000   0.0000   0.0000   0.0000   0.0000
     0.0000   0.0000   0.0000   0.0000   0.0000   0.0000   0.0000   0.0000
     0.0000   0.0000   0.0000   0.0000   0.0000   0.0000   0.0000   0.0000
     0.0000   0.0000   0.0000   0.0000   0.0000   0.0000   0.0000   0.0000
     0.0000   0.0000   0.0000   0.0000   0.0000   0.0000   0.0000   0.0000
     0.0000   0.0000   0.0000   0.0000   0.0000   0.0000   0.0000   0.0000
     0.0000   0.0000   0.0000   0.0000   0.0000   0.0000   0.0000   0.0000

     the Fermi energy is     1.4326 ev

!    total energy              =  -22154.25532978 Ry
     estimated scf accuracy    <       0.00000911 Ry
     smearing contrib. (-TS)   =       0.00132824 Ry
     internal energy E=F+TS    =  -22154.25665801 Ry

     The total energy is F=E-TS. E is the sum of the following terms:
     one-electron contribution = -144865.75225644 Ry
     hartree contribution      =   72366.43554680 Ry
     xc contribution           =   -2024.18789206 Ry
     ewald contribution        =   52369.24794370 Ry

     convergence has been achieved in   9 iterations

     Writing all to output data dir ./tmp/Zn002.save/ :
     XML data file, charge density, pseudopotentials, collected wavefunctions

     init_run     :    112.03s CPU    112.77s WALL (       1 calls)
     electrons    :   4284.53s CPU   4317.02s WALL (       1 calls)

     Called by init_run:
     wfcinit      :    110.73s CPU    111.42s WALL (       1 calls)
     wfcinit:atom :      0.08s CPU      0.13s WALL (      10 calls)
     wfcinit:wfcr :    109.61s CPU    110.16s WALL (      10 calls)
     potinit      :      0.08s CPU      0.09s WALL (       1 calls)
     hinit0       :      0.03s CPU      0.03s WALL (       1 calls)

     Called by electrons:
     c_bands      :   4003.35s CPU   4033.96s WALL (      10 calls)
     sum_band     :    272.52s CPU    274.09s WALL (      10 calls)
     v_of_rho     :      0.68s CPU      0.71s WALL (      10 calls)
     v_h          :      0.05s CPU      0.05s WALL (      10 calls)
     v_xc         :      0.63s CPU      0.66s WALL (      10 calls)
     newd         :      8.74s CPU      8.98s WALL (      10 calls)
     mix_rho      :      0.08s CPU      0.08s WALL (      10 calls)

     Called by c_bands:
     init_us_2    :      3.96s CPU      3.97s WALL (     210 calls)
     cegterg      :   3995.49s CPU   4026.01s WALL (     100 calls)

     Called by sum_band:
     sum_band:wei :      0.04s CPU      0.04s WALL (      10 calls)
     sum_band:loo :    263.64s CPU    264.93s WALL (      10 calls)
     sum_band:buf :      0.84s CPU      0.85s WALL (     100 calls)
     sum_band:ini :      1.88s CPU      1.89s WALL (     100 calls)
     sum_band:cal :    224.93s CPU    225.96s WALL (     100 calls)
     sum_band:bec :      2.03s CPU      2.04s WALL (     100 calls)
     addusdens    :      8.69s CPU      8.95s WALL (      10 calls)
                                        0.00s GPU  (      10 calls)
     addusd:skk   :      0.08s CPU      0.09s WALL (      10 calls)
                                        0.00s GPU  (      10 calls)

     Called by *egterg:
     cdiaghg      :    316.91s CPU    329.82s WALL (     572 calls)
     cegterg:over :    657.80s CPU    659.98s WALL (     482 calls)
     cegterg:upda :    290.67s CPU    292.38s WALL (     482 calls)
     cegterg:last :    870.39s CPU    875.36s WALL (     190 calls)
     cdiaghg:chol :     20.40s CPU     20.46s WALL (     572 calls)
     cdiaghg:inve :      3.27s CPU      3.28s WALL (     572 calls)
     cdiaghg:para :     86.23s CPU     87.75s WALL (    1144 calls)
     h_psi        :   1247.45s CPU   1253.39s WALL (     592 calls)
     s_psi        :    514.97s CPU    516.20s WALL (     592 calls)
     g_psi        :      0.56s CPU      0.56s WALL (     482 calls)

     Called by h_psi:
     h_psi:calbec :    566.65s CPU    569.25s WALL (     592 calls)
     vloc_psi     :    161.82s CPU    163.04s WALL (     592 calls)
     add_vuspsi   :    517.38s CPU    518.63s WALL (     592 calls)

     General routines
     calbec       :    791.58s CPU    795.21s WALL (     692 calls)
     fft          :      0.44s CPU      0.50s WALL (     128 calls)
     ffts         :      0.02s CPU      0.02s WALL (      20 calls)
     fftw         :    170.68s CPU    171.92s WALL (  347490 calls)
     interpolate  :      0.04s CPU      0.05s WALL (      10 calls)

     Parallel routines

     PWSCF        :      1h13m CPU      1h14m WALL


   This run was terminated on:   0:43:36  27Mar2025            

=------------------------------------------------------------------------------=
   JOB DONE.
=------------------------------------------------------------------------------=
