--------------------------------------------------------------------------
By default, for Open MPI 4.0 and later, infiniband ports on a device
are not used by default.  The intent is to use UCX for these devices.
You can override this policy by setting the btl_openib_allow_ib MCA parameter
to true.

  Local host:              psid10
  Local adapter:           mlx4_0
  Local port:              1

--------------------------------------------------------------------------
--------------------------------------------------------------------------
WARNING: There was an error initializing an OpenFabrics device.

  Local host:   psid10
  Local device: mlx4_0
--------------------------------------------------------------------------

     Program PWSCF v.7.3.1 starts on 20Mar2025 at 14:21:53 

     This program is part of the open-source Quantum ESPRESSO suite
     for quantum simulation of materials; please cite
         "P. Giannozzi et al., J. Phys.:Condens. Matter 21 395502 (2009);
         "P. Giannozzi et al., J. Phys.:Condens. Matter 29 465901 (2017);
         "P. Giannozzi et al., J. Chem. Phys. 152 154105 (2020);
          URL http://www.quantum-espresso.org", 
     in publications or presentations arising from this work. More details at
     http://www.quantum-espresso.org/quote

     Parallel version (MPI), running on    32 processors

     MPI processes distributed on     1 nodes
     145035 MiB available memory on the printing compute node when the environment starts

     Waiting for input...
     Reading input from standard input
Warning: card &CELL ignored
Warning: card   CELL_DOFREE = 'ALL' ignored
Warning: card / ignored

     Current dimensions of program PWSCF are:
     Max number of different atomic species (ntypx) = 10
     Max number of k-points (npk) =  40000
     Max angular momentum in pseudopotentials (lmaxx) =  4
     file O.pbe-n-kjpaw_psl.0.1.UPF: wavefunction(s)  2P renormalized

     R & G space division:  proc/nbgrp/npool/nimage =      32
     Subspace diagonalization in iterative solution of the eigenvalue problem:
     one sub-group per band group will be used
     custom distributed-memory algorithm (size of sub-group:  5*  5 procs)


     Parallelization info
     --------------------
     sticks:   dense  smooth     PW     G-vecs:    dense   smooth      PW
     Min         101     101     26                10531    10531    1466
     Max         102     102     27                10543    10543    1481
     Sum        3241    3241    859               337189   337189   47187

     Using Slab Decomposition



     bravais-lattice index     =            0
     lattice parameter (alat)  =      19.7617  a.u.
     unit-cell volume          =   15176.5939 (a.u.)^3
     number of atoms/cell      =           67
     number of atomic types    =            3
     number of electrons       =      1288.00
     number of Kohn-Sham states=          773
     kinetic-energy cutoff     =      30.0000  Ry
     charge density cutoff     =     120.0000  Ry
     scf convergence threshold =      7.3E-07
     mixing beta               =       0.7000
     number of iterations used =            8  plain     mixing
     energy convergence thresh.=      1.0E-05
     force convergence thresh. =      5.0E-04
     Exchange-correlation= PBE
                           (   1   4   3   4   0   0   0)
     nstep                     =          100


     celldm(1)=  19.761696  celldm(2)=   0.000000  celldm(3)=   0.000000
     celldm(4)=   0.000000  celldm(5)=   0.000000  celldm(6)=   0.000000

     crystal axes: (cart. coord. in units of alat)
               a(1) = (   1.000000   0.000000   0.000000 )  
               a(2) = (  -0.500000   0.866025   0.000000 )  
               a(3) = (   0.000000   0.000000   2.270759 )  

     reciprocal axes: (cart. coord. in units 2 pi/alat)
               b(1) = (  1.000000  0.577350 -0.000000 )  
               b(2) = (  0.000000  1.154701  0.000000 )  
               b(3) = (  0.000000 -0.000000  0.440381 )  


     PseudoPot. # 1 for Zn read from file:
     /home/ys/qepseudo/SSSP_1.3.0_PBE_efficiency/Zn_pbe_v1.uspp.F.UPF
     MD5 check sum: df62231357ef9e81f77b2b3087fa5675
     Pseudo is Ultrasoft, Zval = 20.0
     Generated by new atomic code, or converted to UPF format
     Using radial grid of  943 points,  6 beta functions with: 
                l(1) =   0
                l(2) =   0
                l(3) =   1
                l(4) =   1
                l(5) =   2
                l(6) =   2
     Q(r) pseudized with  8 coefficients,  rinner =    1.100   1.100   1.100
                                                       1.100   1.100

     PseudoPot. # 2 for O  read from file:
     /home/ys/qepseudo/SSSP_1.3.0_PBE_efficiency/O.pbe-n-kjpaw_psl.0.1.UPF
     MD5 check sum: 0234752ac141de4415c5fc33072bef88
     Pseudo is Projector augmented-wave + core cor, Zval =  6.0
     Generated using "atomic" code by A. Dal Corso  v.5.0.99 svn rev. 10869
     Shape of augmentation charge: BESSEL
     Using radial grid of 1095 points,  4 beta functions with: 
                l(1) =   0
                l(2) =   0
                l(3) =   1
                l(4) =   1
     Q(r) pseudized with 0 coefficients 


     PseudoPot. # 3 for H  read from file:
     /home/ys/qepseudo/SSSP_1.3.0_PBE_efficiency/H.pbe-rrkjus_psl.1.0.0.UPF
     MD5 check sum: f52b6d4d1c606e5624b1dc7b2218f220
     Pseudo is Ultrasoft, Zval =  1.0
     Generated using "atomic" code by A. Dal Corso  v.5.1
     Using radial grid of  929 points,  2 beta functions with: 
                l(1) =   0
                l(2) =   0
     Q(r) pseudized with 0 coefficients 


     atomic species   valence    mass     pseudopotential
     Zn               20.00    65.38000     Zn( 1.00)
     O                 6.00    16.00000     O ( 1.00)
     H                 1.00     1.00800     H ( 1.00)

     No symmetry found


                                    s                        frac. trans.

      isym =  1     identity                                     

 cryst.   s( 1) = (     1          0          0      )
                  (     0          1          0      )
                  (     0          0          1      )

 cart.    s( 1) = (  1.0000000  0.0000000  0.0000000 )
                  (  0.0000000  1.0000000  0.0000000 )
                  (  0.0000000  0.0000000  1.0000000 )


   Cartesian axes

     site n.     atom                  positions (alat units)
         1        Zn     tau(   1) = (  -0.0000000   0.1443376   0.1164999  )
         2        Zn     tau(   2) = (   0.5000000   0.1443376   0.1164999  )
         3        Zn     tau(   3) = (   0.0001063   0.1443772   0.5902127  )
         4        Zn     tau(   4) = (   0.4998958   0.1443643   0.5917156  )
         5        Zn     tau(   5) = (  -0.1250000   0.3608439   0.1164999  )
         6        Zn     tau(   6) = (   0.3750000   0.3608439   0.1164999  )
         7        Zn     tau(   7) = (  -0.1249761   0.3609302   0.5908726  )
         8        Zn     tau(   8) = (   0.3749642   0.3608477   0.5913644  )
         9        Zn     tau(   9) = (  -0.2500000   0.5773503   0.1164999  )
        10        Zn     tau(  10) = (   0.2500000   0.5773503   0.1164999  )
        11        Zn     tau(  11) = (  -0.2499911   0.5773738   0.5915504  )
        12        Zn     tau(  12) = (   0.2499824   0.5772583   0.5907382  )
        13        Zn     tau(  13) = (  -0.3750000   0.7938566   0.1164999  )
        14        Zn     tau(  14) = (   0.1250000   0.7938566   0.1164999  )
        15        Zn     tau(  15) = (  -0.3749161   0.7938269   0.5909604  )
        16        Zn     tau(  16) = (   0.1249053   0.7937898   0.5911170  )
        17        Zn     tau(  17) = (   0.2500000   0.1443376   0.1164999  )
        18        Zn     tau(  18) = (   0.7500000   0.1443376   0.1164999  )
        19        Zn     tau(  19) = (   0.2499566   0.1443139   0.5910485  )
        20        Zn     tau(  20) = (   0.7500401   0.1444360   0.5909256  )
        21        Zn     tau(  21) = (   0.1250000   0.3608439   0.1164999  )
        22        Zn     tau(  22) = (   0.6250000   0.3608439   0.1164999  )
        23        Zn     tau(  23) = (   0.1249684   0.3608327   0.5904686  )
        24        Zn     tau(  24) = (   0.6250220   0.3609386   0.5917101  )
        25        Zn     tau(  25) = (  -0.0000000   0.5773503   0.1164999  )
        26        Zn     tau(  26) = (   0.5000000   0.5773503   0.1164999  )
        27        Zn     tau(  27) = (  -0.0000983   0.5773031   0.5910657  )
        28        Zn     tau(  28) = (   0.5000885   0.5773473   0.5912976  )
        29        Zn     tau(  29) = (  -0.1250000   0.7938566   0.1164999  )
        30        Zn     tau(  30) = (   0.3750000   0.7938566   0.1164999  )
        31        Zn     tau(  31) = (  -0.1251014   0.7937984   0.5915674  )
        32        Zn     tau(  32) = (   0.3751324   0.7938157   0.5904624  )
        33        Zn     tau(  33) = (   0.1250000   0.0721688   0.3494996  )
        34        Zn     tau(  34) = (   0.6250000   0.0721688   0.3494996  )
        35        Zn     tau(  35) = (   0.1249168   0.0722609   0.8321064  )
        36        Zn     tau(  36) = (   0.6250907   0.0721249   0.8320849  )
        37        Zn     tau(  37) = (   0.0000000   0.2886751   0.3494996  )
        38        Zn     tau(  38) = (   0.5000000   0.2886751   0.3494996  )
        39        Zn     tau(  39) = (   0.0001155   0.2886284   0.8318992  )
        40        Zn     tau(  40) = (   0.4998869   0.2887254   0.8327133  )
        41        Zn     tau(  41) = (  -0.1250000   0.5051815   0.3494996  )
        42        Zn     tau(  42) = (   0.3750000   0.5051815   0.3494996  )
        43        Zn     tau(  43) = (  -0.1248885   0.5051081   0.8328053  )
        44        Zn     tau(  44) = (   0.3748852   0.5052048   0.8322362  )
        45        Zn     tau(  45) = (  -0.2500000   0.7216878   0.3494996  )
        46        Zn     tau(  46) = (   0.2500000   0.7216878   0.3494996  )
        47        Zn     tau(  47) = (  -0.2500816   0.7217457   0.8330261  )
        48        Zn     tau(  48) = (   0.2500888   0.7216111   0.8315798  )
        49        Zn     tau(  49) = (   0.3750000   0.0721688   0.3494996  )
        50        Zn     tau(  50) = (   0.8750000   0.0721688   0.3494996  )
        51        Zn     tau(  51) = (   0.3748288   0.0722025   0.8328001  )
        52        Zn     tau(  52) = (   0.8751982   0.0721830   0.8313936  )
        53        Zn     tau(  53) = (   0.2500000   0.2886751   0.3494996  )
        54        Zn     tau(  54) = (   0.7500000   0.2886751   0.3494996  )
        55        Zn     tau(  55) = (   0.2498217   0.2886951   0.8322994  )
        56        Zn     tau(  56) = (   0.7501831   0.2886665   0.8323685  )
        57        Zn     tau(  57) = (   0.1250000   0.5051815   0.3494996  )
        58        Zn     tau(  58) = (   0.6250000   0.5051815   0.3494996  )
        59        Zn     tau(  59) = (   0.1250170   0.5050584   0.8321067  )
        60        Zn     tau(  60) = (   0.6249778   0.5052529   0.8329305  )
        61        Zn     tau(  61) = (   0.0000000   0.7216878   0.3494996  )
        62        Zn     tau(  62) = (   0.5000000   0.7216878   0.3494996  )
        63        Zn     tau(  63) = (   0.0000162   0.7215786   0.8326164  )
        64        Zn     tau(  64) = (   0.4999851   0.7217841   0.8320793  )
        65        O      tau(  65) = (   0.1296507   0.4909258   1.1234322  )
        66        H      tau(  66) = (   0.2120004   0.5252847   1.1515935  )
        67        H      tau(  67) = (   0.1331079   0.4009360   1.1488660  )

   Crystallographic axes

     site n.     atom                  positions (cryst. coord.)
         1        Zn     tau(   1) = (  0.0833333  0.1666667  0.0513044  )
         2        Zn     tau(   2) = (  0.5833333  0.1666667  0.0513044  )
         3        Zn     tau(   3) = (  0.0834625  0.1667124  0.2599187  )
         4        Zn     tau(   4) = (  0.5832446  0.1666976  0.2605806  )
         5        Zn     tau(   5) = (  0.0833333  0.4166667  0.0513044  )
         6        Zn     tau(   6) = (  0.5833333  0.4166667  0.0513044  )
         7        Zn     tau(   7) = (  0.0834070  0.4167663  0.2602093  )
         8        Zn     tau(   8) = (  0.5832997  0.4166711  0.2604259  )
         9        Zn     tau(   9) = (  0.0833333  0.6666667  0.0513044  )
        10        Zn     tau(  10) = (  0.5833333  0.6666667  0.0513044  )
        11        Zn     tau(  11) = (  0.0833558  0.6666938  0.2605078  )
        12        Zn     tau(  12) = (  0.5832626  0.6665605  0.2601501  )
        13        Zn     tau(  13) = (  0.0833333  0.9166667  0.0513044  )
        14        Zn     tau(  14) = (  0.5833333  0.9166667  0.0513044  )
        15        Zn     tau(  15) = (  0.0834001  0.9166324  0.2602480  )
        16        Zn     tau(  16) = (  0.5832000  0.9165895  0.2603170  )
        17        Zn     tau(  17) = (  0.3333333  0.1666667  0.0513044  )
        18        Zn     tau(  18) = (  0.8333333  0.1666667  0.0513044  )
        19        Zn     tau(  19) = (  0.3332763  0.1666393  0.2602868  )
        20        Zn     tau(  20) = (  0.8334303  0.1667804  0.2602327  )
        21        Zn     tau(  21) = (  0.3333333  0.4166667  0.0513044  )
        22        Zn     tau(  22) = (  0.8333333  0.4166667  0.0513044  )
        23        Zn     tau(  23) = (  0.3332952  0.4166537  0.2600314  )
        24        Zn     tau(  24) = (  0.8334099  0.4167759  0.2605781  )
        25        Zn     tau(  25) = (  0.3333333  0.6666667  0.0513044  )
        26        Zn     tau(  26) = (  0.8333333  0.6666667  0.0513044  )
        27        Zn     tau(  27) = (  0.3332078  0.6666122  0.2602944  )
        28        Zn     tau(  28) = (  0.8334201  0.6666632  0.2603965  )
        29        Zn     tau(  29) = (  0.3333333  0.9166667  0.0513044  )
        30        Zn     tau(  30) = (  0.8333333  0.9166667  0.0513044  )
        31        Zn     tau(  31) = (  0.3331983  0.9165994  0.2605153  )
        32        Zn     tau(  32) = (  0.8334421  0.9166194  0.2600287  )
        33        Zn     tau(  33) = (  0.1666667  0.0833333  0.1539131  )
        34        Zn     tau(  34) = (  0.6666667  0.0833333  0.1539131  )
        35        Zn     tau(  35) = (  0.1666366  0.0834397  0.3664442  )
        36        Zn     tau(  36) = (  0.6667321  0.0832826  0.3664347  )
        37        Zn     tau(  37) = (  0.1666667  0.3333333  0.1539131  )
        38        Zn     tau(  38) = (  0.6666667  0.3333333  0.1539131  )
        39        Zn     tau(  39) = (  0.1667552  0.3332793  0.3663530  )
        40        Zn     tau(  40) = (  0.6665826  0.3333914  0.3667115  )
        41        Zn     tau(  41) = (  0.1666667  0.5833333  0.1539131  )
        42        Zn     tau(  42) = (  0.6666667  0.5833333  0.1539131  )
        43        Zn     tau(  43) = (  0.1667358  0.5832486  0.3667520  )
        44        Zn     tau(  44) = (  0.6665653  0.5833603  0.3665014  )
        45        Zn     tau(  45) = (  0.1666667  0.8333333  0.1539131  )
        46        Zn     tau(  46) = (  0.6666667  0.8333333  0.1539131  )
        47        Zn     tau(  47) = (  0.1666184  0.8334001  0.3668492  )
        48        Zn     tau(  48) = (  0.6667112  0.8332447  0.3662123  )
        49        Zn     tau(  49) = (  0.4166667  0.0833333  0.1539131  )
        50        Zn     tau(  50) = (  0.9166667  0.0833333  0.1539131  )
        51        Zn     tau(  51) = (  0.4165149  0.0833723  0.3667497  )
        52        Zn     tau(  52) = (  0.9168731  0.0833498  0.3661303  )
        53        Zn     tau(  53) = (  0.4166667  0.3333333  0.1539131  )
        54        Zn     tau(  54) = (  0.9166667  0.3333333  0.1539131  )
        55        Zn     tau(  55) = (  0.4164999  0.3333564  0.3665292  )
        56        Zn     tau(  56) = (  0.9168448  0.3333234  0.3665596  )
        57        Zn     tau(  57) = (  0.4166667  0.5833333  0.1539131  )
        58        Zn     tau(  58) = (  0.9166667  0.5833333  0.1539131  )
        59        Zn     tau(  59) = (  0.4166127  0.5831912  0.3664443  )
        60        Zn     tau(  60) = (  0.9166857  0.5834158  0.3668071  )
        61        Zn     tau(  61) = (  0.4166667  0.8333333  0.1539131  )
        62        Zn     tau(  62) = (  0.9166667  0.8333333  0.1539131  )
        63        Zn     tau(  63) = (  0.4166198  0.8332071  0.3666688  )
        64        Zn     tau(  64) = (  0.9167074  0.8334445  0.3664323  )
        65        O      tau(  65) = (  0.4130869  0.5668723  0.4947387  )
        66        H      tau(  66) = (  0.5152737  0.6065466  0.5071404  )
        67        H      tau(  67) = (  0.3645884  0.4629610  0.5059393  )

     number of k points=     5  Marzari-Vanderbilt smearing, width (Ry)=  0.0200
                       cart. coord. in units 2pi/alat
        k(    1) = (   0.0000000   0.0000000   0.0000000), wk =   0.2222222
        k(    2) = (   0.0000000   0.3849002   0.0000000), wk =   0.4444444
        k(    3) = (   0.3333333   0.1924501   0.0000000), wk =   0.4444444
        k(    4) = (   0.3333333   0.5773503   0.0000000), wk =   0.4444444
        k(    5) = (   0.3333333  -0.1924501   0.0000000), wk =   0.4444444

                       cryst. coord.
        k(    1) = (   0.0000000   0.0000000   0.0000000), wk =   0.2222222
        k(    2) = (   0.0000000   0.3333333   0.0000000), wk =   0.4444444
        k(    3) = (   0.3333333   0.0000000   0.0000000), wk =   0.4444444
        k(    4) = (   0.3333333   0.3333333   0.0000000), wk =   0.4444444
        k(    5) = (   0.3333333  -0.3333333   0.0000000), wk =   0.4444444

     Dense  grid:   337189 G-vectors     FFT dimensions: (  72,  72, 160)

     Dynamical RAM for                 wfc:      15.52 MB

     Dynamical RAM for     wfc (w. buffer):      93.13 MB

     Dynamical RAM for           str. fact:       0.48 MB

     Dynamical RAM for           local pot:       0.00 MB

     Dynamical RAM for          nlocal pot:      23.37 MB

     Dynamical RAM for                qrad:       2.64 MB

     Dynamical RAM for          rho,v,vnew:       1.08 MB

     Dynamical RAM for               rhoin:       0.36 MB

     Dynamical RAM for            rho*nmix:       2.57 MB

     Dynamical RAM for           G-vectors:       0.68 MB

     Dynamical RAM for          h,s,v(r/c):       4.37 MB

     Dynamical RAM for          <psi|beta>:      13.73 MB

     Dynamical RAM for                 psi:      31.04 MB

     Dynamical RAM for                hpsi:      31.04 MB

     Dynamical RAM for                spsi:      31.04 MB

     Dynamical RAM for      wfcinit/wfcrot:      49.73 MB

     Dynamical RAM for           addusdens:      40.19 MB

     Dynamical RAM for          addusforce:      60.78 MB

     Dynamical RAM for         addusstress:      32.31 MB

     Estimated static dynamical RAM per process >     123.38 MB

     Estimated max dynamical RAM per process >     237.19 MB

     Estimated total dynamical RAM >       7.41 GB

     Check: negative core charge=   -0.000010

     Initial potential from superposition of free atoms

     starting charge    1287.9910, renormalised to    1288.0000

     negative rho (up, down):  6.495E-03 0.000E+00
     Starting wfcs are  838 randomized atomic wfcs
[psid10:123636] 31 more processes have sent help message help-mpi-btl-openib.txt / ib port not selected
[psid10:123636] Set MCA parameter "orte_base_help_aggregate" to 0 to see all help / error messages
[psid10:123636] 31 more processes have sent help message help-mpi-btl-openib.txt / error in device init
     Checking if some PAW data can be deallocated... 
       PAW data deallocated on   31 nodes for type:  2

     total cpu time spent up to now is       64.9 secs

     Self-consistent Calculation

     iteration #  1     ecut=    30.00 Ry     beta= 0.70
     Davidson diagonalization with overlap

---- Real-time Memory Report at c_bands before calling an iterative solver
           201 MiB given to the printing process from OS
             0 MiB allocation reported by mallinfo(arena+hblkhd)
        140595 MiB available memory on the node where the printing process lives
------------------
     ethr =  1.00E-02,  avg # of iterations =  8.0

     Threshold (ethr) on eigenvalues was too large:
     Diagonalizing with lowered threshold

     Davidson diagonalization with overlap

---- Real-time Memory Report at c_bands before calling an iterative solver
           276 MiB given to the printing process from OS
             0 MiB allocation reported by mallinfo(arena+hblkhd)
        138202 MiB available memory on the node where the printing process lives
------------------
     ethr =  2.40E-04,  avg # of iterations =  3.0

     negative rho (up, down):  1.021E-02 0.000E+00

     total cpu time spent up to now is      562.5 secs

     total energy              =  -29577.87566378 Ry
     estimated scf accuracy    <       3.28066202 Ry

     iteration #  2     ecut=    30.00 Ry     beta= 0.70
     Davidson diagonalization with overlap

---- Real-time Memory Report at c_bands before calling an iterative solver
           276 MiB given to the printing process from OS
             0 MiB allocation reported by mallinfo(arena+hblkhd)
        138200 MiB available memory on the node where the printing process lives
------------------
     ethr =  2.55E-04,  avg # of iterations =  4.6

     negative rho (up, down):  1.072E-02 0.000E+00

     total cpu time spent up to now is      894.4 secs

     total energy              =  -29578.54666294 Ry
     estimated scf accuracy    <       5.41988542 Ry

     iteration #  3     ecut=    30.00 Ry     beta= 0.70
     Davidson diagonalization with overlap

---- Real-time Memory Report at c_bands before calling an iterative solver
           293 MiB given to the printing process from OS
             0 MiB allocation reported by mallinfo(arena+hblkhd)
        137923 MiB available memory on the node where the printing process lives
------------------
     ethr =  2.55E-04,  avg # of iterations =  9.0

     negative rho (up, down):  1.077E-02 0.000E+00

     total cpu time spent up to now is     1202.7 secs

     total energy              =  -29579.28566644 Ry
     estimated scf accuracy    <       2.73439899 Ry

     iteration #  4     ecut=    30.00 Ry     beta= 0.70
     Davidson diagonalization with overlap

---- Real-time Memory Report at c_bands before calling an iterative solver
           293 MiB given to the printing process from OS
             0 MiB allocation reported by mallinfo(arena+hblkhd)
        137913 MiB available memory on the node where the printing process lives
------------------
     ethr =  2.12E-04,  avg # of iterations =  5.2

     negative rho (up, down):  1.142E-02 0.000E+00

     total cpu time spent up to now is     1432.2 secs

     total energy              =  -29579.47747171 Ry
     estimated scf accuracy    <       0.91365897 Ry

     iteration #  5     ecut=    30.00 Ry     beta= 0.70
     Davidson diagonalization with overlap

---- Real-time Memory Report at c_bands before calling an iterative solver
           293 MiB given to the printing process from OS
             0 MiB allocation reported by mallinfo(arena+hblkhd)
        137903 MiB available memory on the node where the printing process lives
------------------
     ethr =  7.09E-05,  avg # of iterations =  9.6

     negative rho (up, down):  1.256E-02 0.000E+00

     total cpu time spent up to now is     1682.8 secs

     total energy              =  -29579.48662379 Ry
     estimated scf accuracy    <       1.03256747 Ry

     iteration #  6     ecut=    30.00 Ry     beta= 0.70
     Davidson diagonalization with overlap

---- Real-time Memory Report at c_bands before calling an iterative solver
           294 MiB given to the printing process from OS
             0 MiB allocation reported by mallinfo(arena+hblkhd)
        137893 MiB available memory on the node where the printing process lives
------------------
     ethr =  7.09E-05,  avg # of iterations =  2.8

     negative rho (up, down):  1.282E-02 0.000E+00

     total cpu time spent up to now is     1906.2 secs

     total energy              =  -29579.57482546 Ry
     estimated scf accuracy    <       0.02767149 Ry

     iteration #  7     ecut=    30.00 Ry     beta= 0.70
     Davidson diagonalization with overlap

---- Real-time Memory Report at c_bands before calling an iterative solver
           294 MiB given to the printing process from OS
             0 MiB allocation reported by mallinfo(arena+hblkhd)
        137882 MiB available memory on the node where the printing process lives
------------------
     c_bands:  1 eigenvalues not converged
     c_bands:  1 eigenvalues not converged
     c_bands:  2 eigenvalues not converged
     ethr =  2.15E-06,  avg # of iterations = 19.2

     negative rho (up, down):  1.293E-02 0.000E+00

     total cpu time spent up to now is     2209.0 secs

     total energy              =  -29579.57866488 Ry
     estimated scf accuracy    <       0.00381062 Ry

     iteration #  8     ecut=    30.00 Ry     beta= 0.70
     Davidson diagonalization with overlap

---- Real-time Memory Report at c_bands before calling an iterative solver
           294 MiB given to the printing process from OS
             0 MiB allocation reported by mallinfo(arena+hblkhd)
        137873 MiB available memory on the node where the printing process lives
------------------
     ethr =  2.96E-07,  avg # of iterations =  5.0

     negative rho (up, down):  1.306E-02 0.000E+00

     total cpu time spent up to now is     2435.8 secs

     total energy              =  -29579.57930207 Ry
     estimated scf accuracy    <       0.00083647 Ry

     iteration #  9     ecut=    30.00 Ry     beta= 0.70
     Davidson diagonalization with overlap

---- Real-time Memory Report at c_bands before calling an iterative solver
           294 MiB given to the printing process from OS
             0 MiB allocation reported by mallinfo(arena+hblkhd)
        137863 MiB available memory on the node where the printing process lives
------------------
     ethr =  6.49E-08,  avg # of iterations =  2.0

     negative rho (up, down):  1.310E-02 0.000E+00

     total cpu time spent up to now is     2652.0 secs

     total energy              =  -29579.57938506 Ry
     estimated scf accuracy    <       0.00036665 Ry

     iteration # 10     ecut=    30.00 Ry     beta= 0.70
     Davidson diagonalization with overlap

---- Real-time Memory Report at c_bands before calling an iterative solver
           294 MiB given to the printing process from OS
             0 MiB allocation reported by mallinfo(arena+hblkhd)
        137855 MiB available memory on the node where the printing process lives
------------------
     ethr =  2.85E-08,  avg # of iterations =  2.0

     negative rho (up, down):  1.314E-02 0.000E+00

     total cpu time spent up to now is     2868.2 secs

     total energy              =  -29579.57943821 Ry
     estimated scf accuracy    <       0.00002771 Ry

     iteration # 11     ecut=    30.00 Ry     beta= 0.70
     Davidson diagonalization with overlap

---- Real-time Memory Report at c_bands before calling an iterative solver
           294 MiB given to the printing process from OS
             0 MiB allocation reported by mallinfo(arena+hblkhd)
        137844 MiB available memory on the node where the printing process lives
------------------
     ethr =  2.15E-09,  avg # of iterations =  2.0

     negative rho (up, down):  1.315E-02 0.000E+00

     total cpu time spent up to now is     3125.8 secs

     total energy              =  -29579.57944331 Ry
     estimated scf accuracy    <       0.00001406 Ry

     iteration # 12     ecut=    30.00 Ry     beta= 0.70
     Davidson diagonalization with overlap

---- Real-time Memory Report at c_bands before calling an iterative solver
           294 MiB given to the printing process from OS
             0 MiB allocation reported by mallinfo(arena+hblkhd)
        137844 MiB available memory on the node where the printing process lives
------------------
     ethr =  1.09E-09,  avg # of iterations =  2.0

     negative rho (up, down):  1.316E-02 0.000E+00

     total cpu time spent up to now is     3347.7 secs

     total energy              =  -29579.57944565 Ry
     estimated scf accuracy    <       0.00000099 Ry

     iteration # 13     ecut=    30.00 Ry     beta= 0.70
     Davidson diagonalization with overlap

---- Real-time Memory Report at c_bands before calling an iterative solver
           294 MiB given to the printing process from OS
             0 MiB allocation reported by mallinfo(arena+hblkhd)
        137842 MiB available memory on the node where the printing process lives
------------------
     ethr =  7.72E-11,  avg # of iterations =  2.0

     negative rho (up, down):  1.316E-02 0.000E+00

     total cpu time spent up to now is     3604.3 secs

     End of self-consistent calculation

          k = 0.0000 0.0000 0.0000 ( 42115 PWs)   bands (ev):

  -123.1510-123.1491-123.1479-123.1474-123.1467-123.1462-123.1458-123.1456
  -123.1453-123.1450-123.1442-123.1440-123.1437-123.1423-123.1416-123.1400
  -123.1008-123.0989-123.0980-123.0970-123.0955-123.0947-123.0946-123.0939
  -123.0933-123.0927-123.0925-123.0921-123.0920-123.0910-123.0900-123.0851
  -122.9551-122.9532-122.9524-122.9519-122.9515-122.9511-122.9507-122.9503
  -122.9502-122.9499-122.9493-122.9482-122.9476-122.9475-122.9470-122.9459
  -122.9198-122.9180-122.9171-122.9168-122.9162-122.9158-122.9139-122.9137
  -122.9134-122.9126-122.9124-122.9115-122.9106-122.9000-122.8993-122.8661
   -77.2584 -77.2581 -77.2581 -77.2496 -77.2491 -77.2489 -77.2481 -77.2478
   -77.2478 -77.2371 -77.2357 -77.2347 -77.2338 -77.2333 -77.2327 -77.2322
   -77.2321 -77.2319 -77.2315 -77.2310 -77.2306 -77.2303 -77.2286 -77.2282
   -77.2269 -77.2266 -77.2266 -77.2264 -77.2257 -77.2254 -77.2248 -77.2238
   -77.2234 -77.2230 -77.2224 -77.2219 -77.2219 -77.2212 -77.2211 -77.2189
   -77.2185 -77.2181 -77.2179 -77.2176 -77.2170 -77.2160 -77.2153 -77.2152
   -77.2070 -77.2068 -77.2065 -77.1983 -77.1976 -77.1968 -77.1967 -77.1961
   -77.1952 -77.1869 -77.1854 -77.1842 -77.1833 -77.1820 -77.1811 -77.1808
   -77.1804 -77.1796 -77.1791 -77.1789 -77.1788 -77.1787 -77.1775 -77.1768
   -77.1757 -77.1755 -77.1754 -77.1742 -77.1738 -77.1732 -77.1725 -77.1719
   -77.1715 -77.1713 -77.1710 -77.1700 -77.1695 -77.1693 -77.1690 -77.1670
   -77.1668 -77.1665 -77.1654 -77.1653 -77.1647 -77.1641 -77.1612 -77.1610
   -77.0602 -77.0601 -77.0599 -77.0512 -77.0511 -77.0501 -77.0499 -77.0498
   -77.0497 -77.0482 -77.0471 -77.0467 -77.0461 -77.0454 -77.0451 -77.0447
   -77.0443 -77.0441 -77.0435 -77.0434 -77.0417 -77.0415 -77.0411 -77.0410
   -77.0397 -77.0281 -77.0280 -77.0278 -77.0273 -77.0271 -77.0260 -77.0254
   -77.0251 -77.0245 -77.0243 -77.0237 -77.0233 -77.0230 -77.0230 -77.0228
   -77.0218 -77.0211 -77.0209 -77.0203 -77.0200 -77.0191 -77.0189 -77.0182
   -77.0181 -77.0175 -77.0173 -77.0144 -77.0143 -77.0138 -77.0131 -77.0126
   -77.0123 -77.0118 -77.0113 -77.0108 -77.0100 -77.0096 -77.0090 -77.0088
   -77.0086 -77.0080 -77.0077 -77.0073 -77.0069 -77.0060 -76.9950 -76.9948
   -76.9917 -76.9910 -76.9904 -76.9902 -76.9891 -76.9882 -76.9879 -76.9873
   -76.9871 -76.9869 -76.9857 -76.9856 -76.9845 -76.9835 -76.9830 -76.9825
   -76.9815 -76.9796 -76.9757 -76.9739 -76.9713 -76.9562 -76.9481 -76.9475
   -18.1521  -6.5961  -5.8066  -5.7804  -5.1184  -5.0344  -5.0186  -5.0179
    -5.0161  -5.0149  -5.0134  -5.0125  -4.8681  -4.8680  -4.8680  -4.8086
    -4.8086  -4.8085  -4.6849  -4.6847  -4.6845  -4.6839  -4.6838  -4.6832
    -4.6813  -4.6811  -4.6811  -4.6013  -4.6001  -4.5999  -4.5383  -4.5381
    -4.5379  -4.5374  -4.5372  -4.5369  -4.5100  -4.5097  -4.5096  -4.4578
    -4.4575  -4.4569  -4.4564  -4.4554  -4.4553  -4.4551  -4.4546  -4.4544
    -4.4531  -4.4524  -4.4514  -4.4371  -4.4368  -4.4368  -4.4118  -4.4111
    -4.4110  -4.4107  -4.4098  -4.4098  -4.3641  -4.3640  -4.3634  -4.3633
    -4.3631  -4.3622  -4.3063  -4.2727  -4.2724  -4.2717  -4.2716  -4.2713
    -4.2711  -4.2709  -4.2707  -4.2706  -4.2703  -4.2698  -4.2695  -4.2294
    -4.2291  -4.2290  -4.2283  -4.2279  -4.2276  -4.2209  -4.2208  -4.2202
    -4.2200  -4.2199  -4.2196  -4.2167  -4.2151  -4.2150  -4.1763  -4.1756
    -4.1747  -4.1742  -4.1733  -4.1727  -4.1355  -4.1348  -4.1345  -4.1329
    -4.1328  -4.1312  -4.1053  -4.1052  -4.0876  -4.0870  -4.0859  -4.0855
    -4.0832  -4.0829  -4.0828  -4.0817  -4.0815  -4.0771  -4.0771  -4.0767
    -4.0761  -4.0759  -4.0753  -4.0638  -4.0477  -4.0476  -4.0184  -4.0181
    -4.0169  -4.0168  -4.0143  -4.0141  -4.0024  -4.0023  -4.0016  -4.0015
    -4.0010  -4.0009  -3.9620  -3.9617  -3.9612  -3.9608  -3.9605  -3.9604
    -3.9284  -3.9280  -3.9279  -3.9276  -3.9274  -3.9264  -3.9030  -3.9030
    -3.8619  -3.8618  -3.8614  -3.8613  -3.8610  -3.8609  -3.8573  -3.8572
    -3.8275  -3.8274  -3.8274  -3.8168  -3.8165  -3.8160  -3.8156  -3.8145
    -3.8142  -3.7892  -3.7891  -3.7883  -3.7880  -3.7873  -3.7873  -3.7659
    -3.7658  -3.7655  -3.7655  -3.7652  -3.7652  -3.7607  -3.7606  -3.7604
    -3.7596  -3.7593  -3.7589  -3.7442  -3.7440  -3.7440  -3.7434  -3.7429
    -3.7427  -3.7423  -3.7417  -3.7415  -3.7290  -3.7287  -3.7283  -3.7281
    -3.7277  -3.7270  -3.7258  -3.7255  -3.7244  -3.7227  -3.7217  -3.7193
    -3.7118  -3.7111  -3.7110  -3.7103  -3.7100  -3.7097  -3.6673  -3.6670
    -3.6669  -3.6580  -3.6577  -3.6576  -3.6563  -3.6556  -3.6553  -3.6479
    -3.6472  -3.6464  -3.6458  -3.6452  -3.6447  -3.6150  -3.6150  -3.5951
    -3.5946  -3.5945  -3.5942  -3.5936  -3.5934  -3.5895  -3.5887  -3.5884
    -3.5878  -3.5857  -3.5851  -3.5809  -3.5800  -3.5796  -3.5795  -3.5787
    -3.5785  -3.5724  -3.5713  -3.5711  -3.5705  -3.5659  -3.5654  -3.5129
    -3.5128  -3.5071  -3.5070  -3.5065  -3.4861  -3.4859  -3.4858  -3.4852
    -3.4851  -3.4845  -3.4749  -3.4740  -3.4738  -3.4573  -3.4570  -3.4555
    -3.4509  -3.4498  -3.4493  -3.4472  -3.4432  -3.4425  -3.4323  -3.4310
    -3.4309  -3.4289  -3.4281  -3.4274  -3.4263  -3.4260  -3.4257  -3.4062
    -3.4059  -3.4058  -3.4053  -3.4052  -3.4051  -3.3803  -3.3793  -3.3782
    -3.3775  -3.3747  -3.3742  -3.3720  -3.3715  -3.3713  -3.3635  -3.3635
    -3.3297  -3.3296  -3.3071  -3.3070  -3.3068  -3.3068  -3.3064  -3.3064
    -3.2846  -3.2840  -3.2833  -3.2820  -3.2814  -3.2785  -3.2720  -3.2720
    -3.2719  -3.2202  -3.2201  -3.2201  -3.1425  -3.0730  -3.0729  -3.0729
    -3.0342  -3.0315  -3.0310  -3.0098  -3.0084  -3.0077  -3.0072  -3.0047
    -3.0040  -2.2243  -1.6062  -1.6023  -1.5992  -1.5975  -1.5938  -1.5690
    -1.1469  -0.1808  -0.1297  -0.1290  -0.1286  -0.1280  -0.1270  -0.1157
     0.2911   0.2936   0.2959   0.2997   0.3033   0.4021   0.7140   0.7143
     0.7150   0.7158   0.7180   0.7268   1.0587   1.1718   1.1721   1.1722
     1.7349   1.7351   1.7352   2.0794   2.0806   2.0813   2.1300   2.1311
     2.1323   2.1344   2.1363   2.1469   2.3325   2.3342   2.3363   3.3200
     3.3247   3.3292   3.3346   3.3376   3.3895   3.8242   3.8251   3.8260
     3.8286   3.8308   3.8409   3.9918   4.4190   4.4194   4.4229   4.7023
     4.7025   4.7106   5.5332   5.5334   5.5342   5.7838   5.8240   5.8442
     5.8577   5.8623   5.9205   6.0447   6.4391   6.4402   6.4575   6.8363
     6.9091   7.1837   7.1923   7.1942   7.2008   7.2045   7.2331   7.4292
     7.4300   7.4302   7.4316   7.4321   7.4338   7.5782   7.5935   7.5954
     7.5962   7.5969   7.5973   7.5989   7.6505   7.9225   8.0025   8.0214
     8.0614   8.3232   8.3237   8.3248   8.3252   8.3259   8.3289   8.3638
     8.3669   8.3815   8.4001   8.4020   8.4023   8.4029   8.4051   8.4058
     8.4929   8.5598   8.5990   8.6841   8.6984   8.7002   8.7081   8.7269
     8.7477   8.8031   8.8217   8.8552   8.8780   8.9070   9.3624   9.3979
     9.4106   9.4221   9.4272   9.5070   9.8243   9.8421   9.8437   9.8441
     9.8465   9.8634   9.8927   9.8939   9.8981   9.9013   9.9018   9.9105
     9.9796   9.9948  10.0079  10.1166  10.1450  10.3806  10.4497  10.4609
    10.4846  10.5079  10.5115  10.5938  10.6309  10.6439  10.6671  10.9217
    11.1040  11.1363  11.1681  11.1867  11.2733  11.2782  11.2785  11.2793
    11.2806  11.2819  11.3807  11.4274  11.4496

     occupation numbers 
     1.0000   1.0000   1.0000   1.0000   1.0000   1.0000   1.0000   1.0000
     1.0000   1.0000   1.0000   1.0000   1.0000   1.0000   1.0000   1.0000
     1.0000   1.0000   1.0000   1.0000   1.0000   1.0000   1.0000   1.0000
     1.0000   1.0000   1.0000   1.0000   1.0000   1.0000   1.0000   1.0000
     1.0000   1.0000   1.0000   1.0000   1.0000   1.0000   1.0000   1.0000
     1.0000   1.0000   1.0000   1.0000   1.0000   1.0000   1.0000   1.0000
     1.0000   1.0000   1.0000   1.0000   1.0000   1.0000   1.0000   1.0000
     1.0000   1.0000   1.0000   1.0000   1.0000   1.0000   1.0000   1.0000
     1.0000   1.0000   1.0000   1.0000   1.0000   1.0000   1.0000   1.0000
     1.0000   1.0000   1.0000   1.0000   1.0000   1.0000   1.0000   1.0000
     1.0000   1.0000   1.0000   1.0000   1.0000   1.0000   1.0000   1.0000
     1.0000   1.0000   1.0000   1.0000   1.0000   1.0000   1.0000   1.0000
     1.0000   1.0000   1.0000   1.0000   1.0000   1.0000   1.0000   1.0000
     1.0000   1.0000   1.0000   1.0000   1.0000   1.0000   1.0000   1.0000
     1.0000   1.0000   1.0000   1.0000   1.0000   1.0000   1.0000   1.0000
     1.0000   1.0000   1.0000   1.0000   1.0000   1.0000   1.0000   1.0000
     1.0000   1.0000   1.0000   1.0000   1.0000   1.0000   1.0000   1.0000
     1.0000   1.0000   1.0000   1.0000   1.0000   1.0000   1.0000   1.0000
     1.0000   1.0000   1.0000   1.0000   1.0000   1.0000   1.0000   1.0000
     1.0000   1.0000   1.0000   1.0000   1.0000   1.0000   1.0000   1.0000
     1.0000   1.0000   1.0000   1.0000   1.0000   1.0000   1.0000   1.0000
     1.0000   1.0000   1.0000   1.0000   1.0000   1.0000   1.0000   1.0000
     1.0000   1.0000   1.0000   1.0000   1.0000   1.0000   1.0000   1.0000
     1.0000   1.0000   1.0000   1.0000   1.0000   1.0000   1.0000   1.0000
     1.0000   1.0000   1.0000   1.0000   1.0000   1.0000   1.0000   1.0000
     1.0000   1.0000   1.0000   1.0000   1.0000   1.0000   1.0000   1.0000
     1.0000   1.0000   1.0000   1.0000   1.0000   1.0000   1.0000   1.0000
     1.0000   1.0000   1.0000   1.0000   1.0000   1.0000   1.0000   1.0000
     1.0000   1.0000   1.0000   1.0000   1.0000   1.0000   1.0000   1.0000
     1.0000   1.0000   1.0000   1.0000   1.0000   1.0000   1.0000   1.0000
     1.0000   1.0000   1.0000   1.0000   1.0000   1.0000   1.0000   1.0000
     1.0000   1.0000   1.0000   1.0000   1.0000   1.0000   1.0000   1.0000
     1.0000   1.0000   1.0000   1.0000   1.0000   1.0000   1.0000   1.0000
     1.0000   1.0000   1.0000   1.0000   1.0000   1.0000   1.0000   1.0000
     1.0000   1.0000   1.0000   1.0000   1.0000   1.0000   1.0000   1.0000
     1.0000   1.0000   1.0000   1.0000   1.0000   1.0000   1.0000   1.0000
     1.0000   1.0000   1.0000   1.0000   1.0000   1.0000   1.0000   1.0000
     1.0000   1.0000   1.0000   1.0000   1.0000   1.0000   1.0000   1.0000
     1.0000   1.0000   1.0000   1.0000   1.0000   1.0000   1.0000   1.0000
     1.0000   1.0000   1.0000   1.0000   1.0000   1.0000   1.0000   1.0000
     1.0000   1.0000   1.0000   1.0000   1.0000   1.0000   1.0000   1.0000
     1.0000   1.0000   1.0000   1.0000   1.0000   1.0000   1.0000   1.0000
     1.0000   1.0000   1.0000   1.0000   1.0000   1.0000   1.0000   1.0000
     1.0000   1.0000   1.0000   1.0000   1.0000   1.0000   1.0000   1.0000
     1.0000   1.0000   1.0000   1.0000   1.0000   1.0000   1.0000   1.0000
     1.0000   1.0000   1.0000   1.0000   1.0000   1.0000   1.0000   1.0000
     1.0000   1.0000   1.0000   1.0000   1.0000   1.0000   1.0000   1.0000
     1.0000   1.0000   1.0000   1.0000   1.0000   1.0000   1.0000   1.0000
     1.0000   1.0000   1.0000   1.0000   1.0000   1.0000   1.0000   1.0000
     1.0000   1.0000   1.0000   1.0000   1.0000   1.0000   1.0000   1.0000
     1.0000   1.0000   1.0000   1.0000   1.0000   1.0000   1.0000   1.0000
     1.0000   1.0000   1.0000   1.0000   1.0000   1.0000   1.0000   1.0000
     1.0000   1.0000   1.0000   1.0000   1.0000   1.0000   1.0000   1.0000
     1.0000   1.0000   1.0000   1.0000   1.0000   1.0000   1.0000   1.0000
     1.0000   1.0000   1.0000   1.0000   1.0000   1.0000   1.0000   1.0000
     1.0000   1.0000   1.0000   1.0000   1.0000   1.0000   1.0000   1.0000
     1.0000   1.0000   1.0000   1.0000   1.0000   1.0000   1.0000   1.0000
     1.0000   1.0000   1.0000   1.0000   1.0000   1.0000   1.0000   1.0000
     1.0000   1.0000   1.0000   1.0000   1.0000   1.0000   1.0000   1.0000
     1.0000   1.0000   1.0000   1.0000   1.0000   1.0000   1.0000   1.0000
     1.0000   1.0000   1.0000   1.0000   1.0000   1.0000   1.0000   1.0000
     1.0000   1.0000   1.0000   1.0000   1.0000   1.0000   1.0000   1.0000
     1.0000   1.0000   1.0000   1.0000   1.0000   1.0000   1.0000   1.0000
     1.0000   1.0000   1.0000   1.0000   1.0000   1.0000   1.0000   1.0000
     1.0000   1.0000   1.0000   1.0000   1.0000   1.0000   1.0000   1.0000
     1.0000   1.0000   1.0000   1.0000   1.0000   1.0000   1.0000   1.0000
     1.0000   1.0000   1.0000   1.0000   1.0000   1.0000   1.0000   1.0000
     1.0000   1.0000   1.0000   1.0000   1.0000   1.0000   1.0000   1.0000
     1.0000   1.0000   1.0000   1.0000   1.0000   1.0000   1.0000   1.0000
     1.0000   1.0000   1.0000   1.0000   1.0000   1.0000   1.0000   1.0000
     1.0000   1.0000   1.0000   1.0000   1.0000   1.0000   1.0000   1.0000
     1.0000   1.0000   1.0000   1.0000   1.0000   1.0000   1.0000   1.0000
     1.0000   1.0000   1.0000   1.0000   1.0000   1.0000   1.0000   1.0000
     1.0000   1.0000   1.0000   1.0000   1.0000   1.0000   1.0000   1.0000
     1.0000   1.0000   1.0000   1.0000   1.0000   1.0000   1.0000   1.0000
     1.0000   1.0000   1.0000   1.0000   1.0000   1.0000   1.0000   1.0000
     1.0000   1.0000   1.0000   1.0000   1.0000   1.0000   1.0000   1.0000
     1.0000   1.0000   1.0000   1.0000   1.0000   1.0000   1.0000   1.0000
     1.0000   1.0000   1.0000   1.0000   1.0000   1.0000   1.0000   1.0000
     1.0000   1.0000   1.0000   1.0000   1.0000   1.0000   1.0000   1.0335
     1.0349   1.0362   1.0379   1.0388   1.0563   0.5749   0.5724   0.5699
     0.5628   0.5567   0.5288   0.1860   0.0004   0.0004   0.0004   0.0000
     0.0000   0.0000   0.0000   0.0000   0.0000   0.0000   0.0000   0.0000
     0.0000   0.0000   0.0000   0.0000   0.0000   0.0000   0.0000   0.0000
     0.0000   0.0000   0.0000   0.0000   0.0000   0.0000   0.0000   0.0000
     0.0000   0.0000   0.0000   0.0000   0.0000   0.0000   0.0000   0.0000
     0.0000   0.0000   0.0000   0.0000   0.0000   0.0000   0.0000   0.0000
     0.0000   0.0000   0.0000   0.0000   0.0000   0.0000   0.0000   0.0000
     0.0000   0.0000   0.0000   0.0000   0.0000   0.0000   0.0000   0.0000
     0.0000   0.0000   0.0000   0.0000   0.0000   0.0000   0.0000   0.0000
     0.0000   0.0000   0.0000   0.0000   0.0000   0.0000   0.0000   0.0000
     0.0000   0.0000   0.0000   0.0000   0.0000   0.0000   0.0000   0.0000
     0.0000   0.0000   0.0000   0.0000   0.0000   0.0000   0.0000   0.0000
     0.0000   0.0000   0.0000   0.0000   0.0000   0.0000   0.0000   0.0000
     0.0000   0.0000   0.0000   0.0000   0.0000   0.0000   0.0000   0.0000
     0.0000   0.0000   0.0000   0.0000   0.0000   0.0000   0.0000   0.0000
     0.0000   0.0000   0.0000   0.0000   0.0000

          k = 0.0000 0.3849 0.0000 ( 42150 PWs)   bands (ev):

  -123.1504-123.1491-123.1481-123.1475-123.1469-123.1463-123.1459-123.1457
  -123.1456-123.1452-123.1446-123.1442-123.1440-123.1425-123.1419-123.1403
  -123.1006-123.0989-123.0980-123.0972-123.0955-123.0949-123.0948-123.0942
  -123.0933-123.0930-123.0927-123.0925-123.0923-123.0911-123.0903-123.0853
  -122.9542-122.9533-122.9526-122.9521-122.9517-122.9514-122.9509-122.9506
  -122.9504-122.9500-122.9496-122.9483-122.9480-122.9477-122.9474-122.9462
  -122.9194-122.9180-122.9174-122.9170-122.9163-122.9160-122.9142-122.9138
  -122.9136-122.9129-122.9126-122.9118-122.9108-122.9000-122.8996-122.8662
   -77.2574 -77.2570 -77.2538 -77.2505 -77.2503 -77.2496 -77.2490 -77.2432
   -77.2430 -77.2382 -77.2375 -77.2358 -77.2355 -77.2349 -77.2344 -77.2343
   -77.2335 -77.2332 -77.2328 -77.2325 -77.2323 -77.2322 -77.2317 -77.2314
   -77.2307 -77.2303 -77.2299 -77.2291 -77.2288 -77.2287 -77.2277 -77.2262
   -77.2251 -77.2250 -77.2230 -77.2228 -77.2214 -77.2208 -77.2185 -77.2180
   -77.2172 -77.2164 -77.2164 -77.2148 -77.2148 -77.2143 -77.2128 -77.2125
   -77.2059 -77.2054 -77.2024 -77.1990 -77.1987 -77.1977 -77.1968 -77.1913
   -77.1908 -77.1873 -77.1864 -77.1858 -77.1844 -77.1839 -77.1831 -77.1826
   -77.1824 -77.1819 -77.1813 -77.1808 -77.1805 -77.1804 -77.1799 -77.1792
   -77.1789 -77.1785 -77.1781 -77.1772 -77.1772 -77.1770 -77.1767 -77.1732
   -77.1731 -77.1718 -77.1713 -77.1707 -77.1695 -77.1690 -77.1664 -77.1663
   -77.1655 -77.1645 -77.1640 -77.1630 -77.1628 -77.1624 -77.1591 -77.1590
   -77.0591 -77.0588 -77.0555 -77.0524 -77.0522 -77.0513 -77.0510 -77.0489
   -77.0477 -77.0475 -77.0471 -77.0459 -77.0455 -77.0449 -77.0448 -77.0447
   -77.0443 -77.0440 -77.0436 -77.0433 -77.0423 -77.0416 -77.0411 -77.0405
   -77.0400 -77.0394 -77.0366 -77.0362 -77.0343 -77.0340 -77.0306 -77.0304
   -77.0267 -77.0264 -77.0249 -77.0246 -77.0227 -77.0221 -77.0215 -77.0211
   -77.0200 -77.0197 -77.0193 -77.0182 -77.0180 -77.0175 -77.0171 -77.0170
   -77.0165 -77.0151 -77.0148 -77.0147 -77.0140 -77.0137 -77.0134 -77.0131
   -77.0128 -77.0124 -77.0113 -77.0111 -77.0110 -77.0097 -77.0090 -77.0090
   -77.0081 -77.0073 -77.0066 -77.0060 -77.0058 -77.0048 -77.0012 -76.9983
   -76.9963 -76.9953 -76.9952 -76.9947 -76.9941 -76.9927 -76.9918 -76.9891
   -76.9883 -76.9860 -76.9854 -76.9850 -76.9832 -76.9820 -76.9816 -76.9813
   -76.9803 -76.9777 -76.9749 -76.9735 -76.9705 -76.9563 -76.9484 -76.9476
   -18.1521  -6.3839  -5.7836  -5.7755  -5.6091  -5.2387  -5.2381  -5.0857
    -4.9831  -4.9190  -4.8380  -4.7997  -4.7997  -4.7904  -4.7762  -4.7377
    -4.7377  -4.7201  -4.7200  -4.7090  -4.7084  -4.7057  -4.6954  -4.6490
    -4.6312  -4.6284  -4.6283  -4.6000  -4.6000  -4.5934  -4.5933  -4.5710
    -4.5686  -4.5479  -4.5479  -4.5328  -4.5321  -4.5239  -4.5236  -4.5113
    -4.5113  -4.4963  -4.4962  -4.4953  -4.4796  -4.4785  -4.4784  -4.4758
    -4.4757  -4.4629  -4.4626  -4.4384  -4.4378  -4.4262  -4.4256  -4.4254
    -4.4245  -4.4087  -4.4050  -4.4048  -4.3964  -4.3959  -4.3945  -4.3930
    -4.3929  -4.3648  -4.3647  -4.3547  -4.3538  -4.3342  -4.3338  -4.3325
    -4.3323  -4.3279  -4.3277  -4.3258  -4.2789  -4.2785  -4.2782  -4.2762
    -4.2755  -4.2545  -4.2540  -4.2530  -4.2526  -4.2393  -4.2390  -4.2324
    -4.2101  -4.2101  -4.2089  -4.2085  -4.2021  -4.2018  -4.2009  -4.2002
    -4.1989  -4.1781  -4.1778  -4.1726  -4.1716  -4.1705  -4.1630  -4.1625
    -4.1571  -4.1570  -4.1559  -4.1448  -4.1443  -4.1354  -4.1316  -4.1314
    -4.1257  -4.0906  -4.0866  -4.0851  -4.0802  -4.0658  -4.0654  -4.0642
    -4.0633  -4.0625  -4.0567  -4.0561  -4.0520  -4.0512  -4.0507  -4.0503
    -4.0264  -4.0247  -4.0228  -4.0218  -4.0053  -4.0051  -3.9944  -3.9859
    -3.9779  -3.9748  -3.9744  -3.9743  -3.9739  -3.9493  -3.9484  -3.9421
    -3.9417  -3.9358  -3.9342  -3.9288  -3.9241  -3.9166  -3.9166  -3.9021
    -3.9010  -3.9000  -3.8878  -3.8842  -3.8840  -3.8828  -3.8824  -3.8777
    -3.8589  -3.8588  -3.8500  -3.8496  -3.8491  -3.8459  -3.8337  -3.8335
    -3.8294  -3.8159  -3.8036  -3.8008  -3.8006  -3.7827  -3.7812  -3.7808
    -3.7785  -3.7783  -3.7750  -3.7749  -3.7741  -3.7736  -3.7702  -3.7485
    -3.7471  -3.7468  -3.7460  -3.7442  -3.7437  -3.7384  -3.7380  -3.7278
    -3.7276  -3.7245  -3.7242  -3.7231  -3.7108  -3.7091  -3.7073  -3.7070
    -3.6988  -3.6947  -3.6941  -3.6798  -3.6793  -3.6748  -3.6746  -3.6679
    -3.6649  -3.6634  -3.6629  -3.6623  -3.6617  -3.6568  -3.6558  -3.6552
    -3.6528  -3.6370  -3.6366  -3.6360  -3.6353  -3.6340  -3.6334  -3.6328
    -3.6323  -3.6303  -3.6251  -3.6040  -3.6002  -3.5991  -3.5977  -3.5967
    -3.5809  -3.5804  -3.5715  -3.5704  -3.5462  -3.5456  -3.5454  -3.5441
    -3.5426  -3.5420  -3.5390  -3.5380  -3.5373  -3.5369  -3.5358  -3.5354
    -3.5275  -3.5263  -3.5195  -3.5122  -3.5120  -3.5104  -3.5101  -3.5088
    -3.5079  -3.5061  -3.5042  -3.5022  -3.4995  -3.4992  -3.4950  -3.4827
    -3.4823  -3.4795  -3.4773  -3.4686  -3.4570  -3.4558  -3.4520  -3.4515
    -3.4512  -3.4500  -3.4454  -3.4267  -3.4256  -3.4208  -3.4174  -3.4169
    -3.4167  -3.4139  -3.4139  -3.4132  -3.4125  -3.4119  -3.4116  -3.3986
    -3.3951  -3.3934  -3.3906  -3.3904  -3.3897  -3.3883  -3.3881  -3.3880
    -3.3847  -3.3834  -3.3758  -3.3672  -3.3626  -3.3609  -3.3539  -3.3526
    -3.3524  -3.3453  -3.3451  -3.3325  -3.3268  -3.3124  -3.3123  -3.2996
    -3.2993  -3.2897  -3.2896  -3.2812  -3.2762  -3.2749  -3.2741  -3.2609
    -3.2581  -3.2414  -3.1760  -3.1747  -3.1671  -3.1671  -3.1295  -3.1287
    -3.1263  -3.0888  -2.9706  -2.9704  -2.9079  -2.6050  -2.4358  -2.2983
    -2.2792  -2.1981  -1.9321  -1.9106  -1.7956  -1.7948  -1.7642  -1.0061
    -1.0018  -0.9935  -0.8354  -0.8251  -0.7624  -0.5429  -0.2902  -0.1629
    -0.0344   0.0224   0.0240   0.0600   0.0989   0.4287   0.4463   0.5215
     0.5218   0.8655   0.8670   1.0228   1.0376   1.3231   1.3249   1.3375
     1.4825   1.5564   1.9650   1.9658   2.1253   2.2021   2.2122   2.2599
     2.2632   2.5107   2.5115   2.8118   2.8135   2.8593   2.8792   2.9402
     2.9408   2.9987   3.8069   3.8083   4.1045   4.1070   4.1943   4.2444
     4.2651   4.4063   4.4077   4.6430   4.6454   4.8275   4.8988   5.0040
     5.0532   5.0561   5.4352   5.4595   5.4879   5.4900   5.5540   5.5745
     5.6428   5.6447   5.6512   5.7557   5.7603   6.1111   6.1138   6.1412
     6.2051   6.2068   6.5161   6.6531   6.6778   6.7945   6.9072   6.9100
     7.0721   7.0725   7.0802   7.1203   7.1786   7.1855   7.2032   7.2570
     7.4095   7.4226   7.4560   7.5506   7.6882   7.7701   7.8158   7.8211
     7.8306   7.8435   7.8637   7.9874   7.9886   7.9984   8.0088   8.2410
     8.2912   8.3024   8.3686   8.3897   8.3905   8.4067   8.5610   8.6281
     8.6342   8.6856   8.7369   8.8459   8.9727   9.0276   9.0373   9.1229
     9.1365   9.1843   9.2449   9.2589   9.3337   9.4180   9.4431   9.5084
     9.5132   9.5204   9.5548   9.5901   9.6173   9.6461   9.6559   9.7512
     9.8695   9.8905   9.9728   9.9896  10.0103  10.0348  10.1442  10.1556
    10.1786  10.2050  10.2416  10.2860  10.3218  10.4139  10.4591  10.4913
    10.5224  10.5293  10.7045  10.7397  10.7414  10.8370  10.9608  10.9767
    10.9810  10.9903  10.9941  11.0075  11.0173  11.0413  11.0554  11.1327
    11.2059  11.2802  11.4298  11.4762  11.5063

     occupation numbers 
     1.0000   1.0000   1.0000   1.0000   1.0000   1.0000   1.0000   1.0000
     1.0000   1.0000   1.0000   1.0000   1.0000   1.0000   1.0000   1.0000
     1.0000   1.0000   1.0000   1.0000   1.0000   1.0000   1.0000   1.0000
     1.0000   1.0000   1.0000   1.0000   1.0000   1.0000   1.0000   1.0000
     1.0000   1.0000   1.0000   1.0000   1.0000   1.0000   1.0000   1.0000
     1.0000   1.0000   1.0000   1.0000   1.0000   1.0000   1.0000   1.0000
     1.0000   1.0000   1.0000   1.0000   1.0000   1.0000   1.0000   1.0000
     1.0000   1.0000   1.0000   1.0000   1.0000   1.0000   1.0000   1.0000
     1.0000   1.0000   1.0000   1.0000   1.0000   1.0000   1.0000   1.0000
     1.0000   1.0000   1.0000   1.0000   1.0000   1.0000   1.0000   1.0000
     1.0000   1.0000   1.0000   1.0000   1.0000   1.0000   1.0000   1.0000
     1.0000   1.0000   1.0000   1.0000   1.0000   1.0000   1.0000   1.0000
     1.0000   1.0000   1.0000   1.0000   1.0000   1.0000   1.0000   1.0000
     1.0000   1.0000   1.0000   1.0000   1.0000   1.0000   1.0000   1.0000
     1.0000   1.0000   1.0000   1.0000   1.0000   1.0000   1.0000   1.0000
     1.0000   1.0000   1.0000   1.0000   1.0000   1.0000   1.0000   1.0000
     1.0000   1.0000   1.0000   1.0000   1.0000   1.0000   1.0000   1.0000
     1.0000   1.0000   1.0000   1.0000   1.0000   1.0000   1.0000   1.0000
     1.0000   1.0000   1.0000   1.0000   1.0000   1.0000   1.0000   1.0000
     1.0000   1.0000   1.0000   1.0000   1.0000   1.0000   1.0000   1.0000
     1.0000   1.0000   1.0000   1.0000   1.0000   1.0000   1.0000   1.0000
     1.0000   1.0000   1.0000   1.0000   1.0000   1.0000   1.0000   1.0000
     1.0000   1.0000   1.0000   1.0000   1.0000   1.0000   1.0000   1.0000
     1.0000   1.0000   1.0000   1.0000   1.0000   1.0000   1.0000   1.0000
     1.0000   1.0000   1.0000   1.0000   1.0000   1.0000   1.0000   1.0000
     1.0000   1.0000   1.0000   1.0000   1.0000   1.0000   1.0000   1.0000
     1.0000   1.0000   1.0000   1.0000   1.0000   1.0000   1.0000   1.0000
     1.0000   1.0000   1.0000   1.0000   1.0000   1.0000   1.0000   1.0000
     1.0000   1.0000   1.0000   1.0000   1.0000   1.0000   1.0000   1.0000
     1.0000   1.0000   1.0000   1.0000   1.0000   1.0000   1.0000   1.0000
     1.0000   1.0000   1.0000   1.0000   1.0000   1.0000   1.0000   1.0000
     1.0000   1.0000   1.0000   1.0000   1.0000   1.0000   1.0000   1.0000
     1.0000   1.0000   1.0000   1.0000   1.0000   1.0000   1.0000   1.0000
     1.0000   1.0000   1.0000   1.0000   1.0000   1.0000   1.0000   1.0000
     1.0000   1.0000   1.0000   1.0000   1.0000   1.0000   1.0000   1.0000
     1.0000   1.0000   1.0000   1.0000   1.0000   1.0000   1.0000   1.0000
     1.0000   1.0000   1.0000   1.0000   1.0000   1.0000   1.0000   1.0000
     1.0000   1.0000   1.0000   1.0000   1.0000   1.0000   1.0000   1.0000
     1.0000   1.0000   1.0000   1.0000   1.0000   1.0000   1.0000   1.0000
     1.0000   1.0000   1.0000   1.0000   1.0000   1.0000   1.0000   1.0000
     1.0000   1.0000   1.0000   1.0000   1.0000   1.0000   1.0000   1.0000
     1.0000   1.0000   1.0000   1.0000   1.0000   1.0000   1.0000   1.0000
     1.0000   1.0000   1.0000   1.0000   1.0000   1.0000   1.0000   1.0000
     1.0000   1.0000   1.0000   1.0000   1.0000   1.0000   1.0000   1.0000
     1.0000   1.0000   1.0000   1.0000   1.0000   1.0000   1.0000   1.0000
     1.0000   1.0000   1.0000   1.0000   1.0000   1.0000   1.0000   1.0000
     1.0000   1.0000   1.0000   1.0000   1.0000   1.0000   1.0000   1.0000
     1.0000   1.0000   1.0000   1.0000   1.0000   1.0000   1.0000   1.0000
     1.0000   1.0000   1.0000   1.0000   1.0000   1.0000   1.0000   1.0000
     1.0000   1.0000   1.0000   1.0000   1.0000   1.0000   1.0000   1.0000
     1.0000   1.0000   1.0000   1.0000   1.0000   1.0000   1.0000   1.0000
     1.0000   1.0000   1.0000   1.0000   1.0000   1.0000   1.0000   1.0000
     1.0000   1.0000   1.0000   1.0000   1.0000   1.0000   1.0000   1.0000
     1.0000   1.0000   1.0000   1.0000   1.0000   1.0000   1.0000   1.0000
     1.0000   1.0000   1.0000   1.0000   1.0000   1.0000   1.0000   1.0000
     1.0000   1.0000   1.0000   1.0000   1.0000   1.0000   1.0000   1.0000
     1.0000   1.0000   1.0000   1.0000   1.0000   1.0000   1.0000   1.0000
     1.0000   1.0000   1.0000   1.0000   1.0000   1.0000   1.0000   1.0000
     1.0000   1.0000   1.0000   1.0000   1.0000   1.0000   1.0000   1.0000
     1.0000   1.0000   1.0000   1.0000   1.0000   1.0000   1.0000   1.0000
     1.0000   1.0000   1.0000   1.0000   1.0000   1.0000   1.0000   1.0000
     1.0000   1.0000   1.0000   1.0000   1.0000   1.0000   1.0000   1.0000
     1.0000   1.0000   1.0000   1.0000   1.0000   1.0000   1.0000   1.0000
     1.0000   1.0000   1.0000   1.0000   1.0000   1.0000   1.0000   1.0000
     1.0000   1.0000   1.0000   1.0000   1.0000   1.0000   1.0000   1.0000
     1.0000   1.0000   1.0000   1.0000   1.0000   1.0000   1.0000   1.0000
     1.0000   1.0000   1.0000   1.0000   1.0000   1.0000   1.0000   1.0000
     1.0000   1.0000   1.0000   1.0000   1.0000   1.0000   1.0000   1.0000
     1.0000   1.0000   1.0000   1.0000   1.0000   1.0000   1.0000   1.0000
     1.0000   1.0000   1.0000   1.0000   1.0000   1.0000   1.0000   1.0000
     1.0000   1.0000   1.0000   1.0000   1.0000   1.0000   1.0000   1.0000
     1.0000   1.0000   1.0000   1.0000   1.0000   1.0000   1.0000   1.0000
     1.0000   1.0000   1.0000   1.0000   1.0000   1.0000   1.0000   1.0000
     1.0000   1.0000   1.0000   1.0000   1.0000   1.0000   1.0000   1.0000
     1.0000   1.0000   1.0000   1.0000   1.0000   1.0000   1.0000   1.0000
     1.0000   1.0000   1.0000   1.0000   1.0000   1.0000   1.0000   1.0000
     1.0000   1.0000   1.0000   1.0000   1.0000   1.0000   1.0000   1.0000
     1.0000   1.0000   1.0000   1.0000   1.0000   1.0000   1.0000   1.0000
     1.0000   1.0000   1.0000   1.0000   1.0000   1.0000   1.0000   1.0000
     1.0000   1.0000   1.0000   1.0000   1.0000   1.0000   1.0000   1.0001
     1.0001   1.0004   0.6229   0.6190   0.0594   0.0577   0.0190   0.0092
     0.0067   0.0006   0.0005   0.0000   0.0000   0.0000   0.0000   0.0000
     0.0000   0.0000   0.0000   0.0000   0.0000   0.0000   0.0000   0.0000
     0.0000   0.0000   0.0000   0.0000   0.0000   0.0000   0.0000   0.0000
     0.0000   0.0000   0.0000   0.0000   0.0000   0.0000   0.0000   0.0000
     0.0000   0.0000   0.0000   0.0000   0.0000   0.0000   0.0000   0.0000
     0.0000   0.0000   0.0000   0.0000   0.0000   0.0000   0.0000   0.0000
     0.0000   0.0000   0.0000   0.0000   0.0000   0.0000   0.0000   0.0000
     0.0000   0.0000   0.0000   0.0000   0.0000   0.0000   0.0000   0.0000
     0.0000   0.0000   0.0000   0.0000   0.0000   0.0000   0.0000   0.0000
     0.0000   0.0000   0.0000   0.0000   0.0000   0.0000   0.0000   0.0000
     0.0000   0.0000   0.0000   0.0000   0.0000   0.0000   0.0000   0.0000
     0.0000   0.0000   0.0000   0.0000   0.0000   0.0000   0.0000   0.0000
     0.0000   0.0000   0.0000   0.0000   0.0000   0.0000   0.0000   0.0000
     0.0000   0.0000   0.0000   0.0000   0.0000   0.0000   0.0000   0.0000
     0.0000   0.0000   0.0000   0.0000   0.0000   0.0000   0.0000   0.0000
     0.0000   0.0000   0.0000   0.0000   0.0000

          k = 0.3333 0.1925 0.0000 ( 42150 PWs)   bands (ev):

  -123.1504-123.1491-123.1481-123.1475-123.1469-123.1462-123.1459-123.1458
  -123.1456-123.1453-123.1446-123.1442-123.1440-123.1425-123.1419-123.1403
  -123.1006-123.0989-123.0980-123.0972-123.0955-123.0949-123.0948-123.0942
  -123.0933-123.0930-123.0927-123.0925-123.0923-123.0911-123.0903-123.0853
  -122.9542-122.9532-122.9526-122.9522-122.9517-122.9514-122.9509-122.9506
  -122.9504-122.9500-122.9496-122.9483-122.9479-122.9477-122.9475-122.9462
  -122.9194-122.9180-122.9174-122.9170-122.9163-122.9160-122.9142-122.9138
  -122.9136-122.9128-122.9126-122.9118-122.9108-122.9000-122.8996-122.8662
   -77.2573 -77.2570 -77.2538 -77.2505 -77.2504 -77.2495 -77.2490 -77.2431
   -77.2430 -77.2382 -77.2374 -77.2361 -77.2353 -77.2350 -77.2344 -77.2342
   -77.2336 -77.2332 -77.2327 -77.2326 -77.2324 -77.2322 -77.2317 -77.2312
   -77.2308 -77.2305 -77.2296 -77.2290 -77.2287 -77.2285 -77.2280 -77.2261
   -77.2252 -77.2249 -77.2230 -77.2228 -77.2215 -77.2207 -77.2185 -77.2181
   -77.2173 -77.2164 -77.2161 -77.2150 -77.2148 -77.2142 -77.2128 -77.2125
   -77.2057 -77.2056 -77.2024 -77.1990 -77.1987 -77.1976 -77.1969 -77.1912
   -77.1909 -77.1872 -77.1864 -77.1859 -77.1845 -77.1838 -77.1832 -77.1825
   -77.1823 -77.1819 -77.1812 -77.1807 -77.1805 -77.1804 -77.1799 -77.1791
   -77.1789 -77.1786 -77.1782 -77.1776 -77.1772 -77.1770 -77.1764 -77.1733
   -77.1731 -77.1718 -77.1712 -77.1706 -77.1695 -77.1690 -77.1664 -77.1663
   -77.1655 -77.1648 -77.1642 -77.1630 -77.1625 -77.1622 -77.1592 -77.1589
   -77.0591 -77.0588 -77.0555 -77.0523 -77.0523 -77.0513 -77.0510 -77.0489
   -77.0477 -77.0474 -77.0471 -77.0459 -77.0455 -77.0449 -77.0448 -77.0447
   -77.0443 -77.0440 -77.0437 -77.0432 -77.0421 -77.0417 -77.0413 -77.0403
   -77.0400 -77.0395 -77.0366 -77.0362 -77.0343 -77.0340 -77.0306 -77.0304
   -77.0267 -77.0264 -77.0248 -77.0246 -77.0227 -77.0221 -77.0214 -77.0210
   -77.0200 -77.0197 -77.0193 -77.0182 -77.0181 -77.0176 -77.0171 -77.0168
   -77.0165 -77.0152 -77.0151 -77.0147 -77.0139 -77.0136 -77.0134 -77.0131
   -77.0127 -77.0125 -77.0113 -77.0110 -77.0109 -77.0095 -77.0093 -77.0089
   -77.0082 -77.0073 -77.0066 -77.0059 -77.0057 -77.0048 -77.0012 -76.9981
   -76.9963 -76.9955 -76.9952 -76.9947 -76.9941 -76.9926 -76.9919 -76.9892
   -76.9883 -76.9861 -76.9855 -76.9851 -76.9830 -76.9820 -76.9817 -76.9813
   -76.9800 -76.9777 -76.9749 -76.9736 -76.9705 -76.9563 -76.9484 -76.9476
   -18.1521  -6.3839  -5.7838  -5.7754  -5.6091  -5.2387  -5.2381  -5.0857
    -4.9831  -4.9190  -4.8380  -4.7997  -4.7997  -4.7904  -4.7762  -4.7377
    -4.7377  -4.7201  -4.7200  -4.7090  -4.7085  -4.7057  -4.6955  -4.6490
    -4.6312  -4.6284  -4.6283  -4.6000  -4.5999  -4.5934  -4.5933  -4.5710
    -4.5686  -4.5479  -4.5479  -4.5328  -4.5321  -4.5239  -4.5236  -4.5113
    -4.5113  -4.4963  -4.4962  -4.4953  -4.4796  -4.4785  -4.4784  -4.4758
    -4.4757  -4.4629  -4.4626  -4.4384  -4.4378  -4.4263  -4.4257  -4.4253
    -4.4244  -4.4087  -4.4050  -4.4048  -4.3964  -4.3959  -4.3945  -4.3930
    -4.3929  -4.3648  -4.3647  -4.3547  -4.3538  -4.3343  -4.3338  -4.3325
    -4.3322  -4.3278  -4.3277  -4.3258  -4.2790  -4.2785  -4.2782  -4.2762
    -4.2755  -4.2545  -4.2540  -4.2530  -4.2526  -4.2393  -4.2390  -4.2324
    -4.2102  -4.2101  -4.2089  -4.2085  -4.2021  -4.2018  -4.2009  -4.2001
    -4.1989  -4.1781  -4.1778  -4.1727  -4.1716  -4.1705  -4.1630  -4.1625
    -4.1571  -4.1569  -4.1559  -4.1447  -4.1443  -4.1355  -4.1316  -4.1313
    -4.1257  -4.0906  -4.0866  -4.0851  -4.0803  -4.0657  -4.0654  -4.0642
    -4.0635  -4.0625  -4.0567  -4.0560  -4.0520  -4.0512  -4.0507  -4.0503
    -4.0265  -4.0246  -4.0228  -4.0217  -4.0053  -4.0051  -3.9944  -3.9860
    -3.9779  -3.9748  -3.9744  -3.9743  -3.9740  -3.9493  -3.9484  -3.9421
    -3.9417  -3.9358  -3.9342  -3.9288  -3.9241  -3.9166  -3.9166  -3.9021
    -3.9010  -3.9000  -3.8879  -3.8841  -3.8839  -3.8828  -3.8825  -3.8777
    -3.8589  -3.8588  -3.8500  -3.8496  -3.8491  -3.8459  -3.8337  -3.8336
    -3.8293  -3.8159  -3.8036  -3.8008  -3.8006  -3.7828  -3.7812  -3.7807
    -3.7785  -3.7783  -3.7750  -3.7749  -3.7741  -3.7736  -3.7702  -3.7485
    -3.7471  -3.7468  -3.7460  -3.7442  -3.7437  -3.7384  -3.7380  -3.7278
    -3.7276  -3.7245  -3.7242  -3.7231  -3.7108  -3.7091  -3.7072  -3.7069
    -3.6988  -3.6948  -3.6941  -3.6797  -3.6793  -3.6748  -3.6746  -3.6679
    -3.6649  -3.6634  -3.6627  -3.6623  -3.6620  -3.6568  -3.6558  -3.6552
    -3.6528  -3.6370  -3.6365  -3.6361  -3.6353  -3.6341  -3.6334  -3.6329
    -3.6324  -3.6303  -3.6251  -3.6040  -3.6002  -3.5991  -3.5977  -3.5967
    -3.5808  -3.5804  -3.5715  -3.5704  -3.5461  -3.5457  -3.5453  -3.5441
    -3.5426  -3.5421  -3.5390  -3.5379  -3.5373  -3.5369  -3.5358  -3.5354
    -3.5276  -3.5263  -3.5196  -3.5122  -3.5120  -3.5104  -3.5101  -3.5088
    -3.5079  -3.5061  -3.5043  -3.5022  -3.4996  -3.4992  -3.4950  -3.4828
    -3.4823  -3.4795  -3.4773  -3.4686  -3.4571  -3.4557  -3.4519  -3.4515
    -3.4512  -3.4500  -3.4454  -3.4267  -3.4256  -3.4208  -3.4175  -3.4169
    -3.4166  -3.4140  -3.4138  -3.4132  -3.4124  -3.4120  -3.4116  -3.3986
    -3.3952  -3.3934  -3.3906  -3.3904  -3.3896  -3.3883  -3.3881  -3.3881
    -3.3848  -3.3834  -3.3758  -3.3672  -3.3625  -3.3609  -3.3539  -3.3526
    -3.3524  -3.3453  -3.3451  -3.3325  -3.3268  -3.3123  -3.3123  -3.2995
    -3.2993  -3.2898  -3.2895  -3.2812  -3.2763  -3.2749  -3.2741  -3.2610
    -3.2580  -3.2414  -3.1760  -3.1747  -3.1672  -3.1670  -3.1295  -3.1289
    -3.1262  -3.0888  -2.9706  -2.9705  -2.9079  -2.6050  -2.4355  -2.2983
    -2.2793  -2.1988  -1.9324  -1.9098  -1.7957  -1.7948  -1.7642  -1.0061
    -1.0016  -0.9938  -0.8357  -0.8247  -0.7623  -0.5432  -0.2902  -0.1626
    -0.0340   0.0222   0.0240   0.0605   0.0977   0.4288   0.4462   0.5214
     0.5219   0.8655   0.8671   1.0230   1.0374   1.3230   1.3249   1.3376
     1.4824   1.5565   1.9650   1.9658   2.1254   2.2022   2.2121   2.2600
     2.2631   2.5105   2.5118   2.8118   2.8135   2.8595   2.8791   2.9400
     2.9409   2.9987   3.8069   3.8083   4.1045   4.1070   4.1943   4.2444
     4.2650   4.4063   4.4078   4.6428   4.6456   4.8275   4.8989   5.0040
     5.0531   5.0562   5.4328   5.4616   5.4879   5.4902   5.5539   5.5744
     5.6426   5.6452   5.6508   5.7556   5.7604   6.1110   6.1138   6.1425
     6.2051   6.2069   6.5162   6.6527   6.6788   6.7908   6.9072   6.9100
     7.0721   7.0726   7.0792   7.1188   7.1786   7.1854   7.2029   7.2579
     7.4093   7.4221   7.4549   7.5591   7.6883   7.7682   7.8162   7.8219
     7.8310   7.8434   7.8626   7.9875   7.9886   7.9987   8.0082   8.2431
     8.2910   8.3002   8.3714   8.3898   8.3908   8.4115   8.5456   8.6277
     8.6346   8.6855   8.7414   8.8462   8.9731   9.0280   9.0377   9.1215
     9.1379   9.1809   9.2445   9.2592   9.3349   9.4165   9.4443   9.5083
     9.5144   9.5183   9.5538   9.5906   9.6185   9.6455   9.6577   9.7488
     9.8729   9.8941   9.9693   9.9899  10.0106  10.0362  10.1434  10.1554
    10.1787  10.2041  10.2419  10.2845  10.3246  10.4108  10.4577  10.4924
    10.5225  10.5284  10.7021  10.7399  10.7411  10.8421  10.9622  10.9745
    10.9811  10.9907  10.9949  11.0062  11.0220  11.0420  11.0541  11.1377
    11.2079  11.2782  11.4304  11.4752  11.5124

     occupation numbers 
     1.0000   1.0000   1.0000   1.0000   1.0000   1.0000   1.0000   1.0000
     1.0000   1.0000   1.0000   1.0000   1.0000   1.0000   1.0000   1.0000
     1.0000   1.0000   1.0000   1.0000   1.0000   1.0000   1.0000   1.0000
     1.0000   1.0000   1.0000   1.0000   1.0000   1.0000   1.0000   1.0000
     1.0000   1.0000   1.0000   1.0000   1.0000   1.0000   1.0000   1.0000
     1.0000   1.0000   1.0000   1.0000   1.0000   1.0000   1.0000   1.0000
     1.0000   1.0000   1.0000   1.0000   1.0000   1.0000   1.0000   1.0000
     1.0000   1.0000   1.0000   1.0000   1.0000   1.0000   1.0000   1.0000
     1.0000   1.0000   1.0000   1.0000   1.0000   1.0000   1.0000   1.0000
     1.0000   1.0000   1.0000   1.0000   1.0000   1.0000   1.0000   1.0000
     1.0000   1.0000   1.0000   1.0000   1.0000   1.0000   1.0000   1.0000
     1.0000   1.0000   1.0000   1.0000   1.0000   1.0000   1.0000   1.0000
     1.0000   1.0000   1.0000   1.0000   1.0000   1.0000   1.0000   1.0000
     1.0000   1.0000   1.0000   1.0000   1.0000   1.0000   1.0000   1.0000
     1.0000   1.0000   1.0000   1.0000   1.0000   1.0000   1.0000   1.0000
     1.0000   1.0000   1.0000   1.0000   1.0000   1.0000   1.0000   1.0000
     1.0000   1.0000   1.0000   1.0000   1.0000   1.0000   1.0000   1.0000
     1.0000   1.0000   1.0000   1.0000   1.0000   1.0000   1.0000   1.0000
     1.0000   1.0000   1.0000   1.0000   1.0000   1.0000   1.0000   1.0000
     1.0000   1.0000   1.0000   1.0000   1.0000   1.0000   1.0000   1.0000
     1.0000   1.0000   1.0000   1.0000   1.0000   1.0000   1.0000   1.0000
     1.0000   1.0000   1.0000   1.0000   1.0000   1.0000   1.0000   1.0000
     1.0000   1.0000   1.0000   1.0000   1.0000   1.0000   1.0000   1.0000
     1.0000   1.0000   1.0000   1.0000   1.0000   1.0000   1.0000   1.0000
     1.0000   1.0000   1.0000   1.0000   1.0000   1.0000   1.0000   1.0000
     1.0000   1.0000   1.0000   1.0000   1.0000   1.0000   1.0000   1.0000
     1.0000   1.0000   1.0000   1.0000   1.0000   1.0000   1.0000   1.0000
     1.0000   1.0000   1.0000   1.0000   1.0000   1.0000   1.0000   1.0000
     1.0000   1.0000   1.0000   1.0000   1.0000   1.0000   1.0000   1.0000
     1.0000   1.0000   1.0000   1.0000   1.0000   1.0000   1.0000   1.0000
     1.0000   1.0000   1.0000   1.0000   1.0000   1.0000   1.0000   1.0000
     1.0000   1.0000   1.0000   1.0000   1.0000   1.0000   1.0000   1.0000
     1.0000   1.0000   1.0000   1.0000   1.0000   1.0000   1.0000   1.0000
     1.0000   1.0000   1.0000   1.0000   1.0000   1.0000   1.0000   1.0000
     1.0000   1.0000   1.0000   1.0000   1.0000   1.0000   1.0000   1.0000
     1.0000   1.0000   1.0000   1.0000   1.0000   1.0000   1.0000   1.0000
     1.0000   1.0000   1.0000   1.0000   1.0000   1.0000   1.0000   1.0000
     1.0000   1.0000   1.0000   1.0000   1.0000   1.0000   1.0000   1.0000
     1.0000   1.0000   1.0000   1.0000   1.0000   1.0000   1.0000   1.0000
     1.0000   1.0000   1.0000   1.0000   1.0000   1.0000   1.0000   1.0000
     1.0000   1.0000   1.0000   1.0000   1.0000   1.0000   1.0000   1.0000
     1.0000   1.0000   1.0000   1.0000   1.0000   1.0000   1.0000   1.0000
     1.0000   1.0000   1.0000   1.0000   1.0000   1.0000   1.0000   1.0000
     1.0000   1.0000   1.0000   1.0000   1.0000   1.0000   1.0000   1.0000
     1.0000   1.0000   1.0000   1.0000   1.0000   1.0000   1.0000   1.0000
     1.0000   1.0000   1.0000   1.0000   1.0000   1.0000   1.0000   1.0000
     1.0000   1.0000   1.0000   1.0000   1.0000   1.0000   1.0000   1.0000
     1.0000   1.0000   1.0000   1.0000   1.0000   1.0000   1.0000   1.0000
     1.0000   1.0000   1.0000   1.0000   1.0000   1.0000   1.0000   1.0000
     1.0000   1.0000   1.0000   1.0000   1.0000   1.0000   1.0000   1.0000
     1.0000   1.0000   1.0000   1.0000   1.0000   1.0000   1.0000   1.0000
     1.0000   1.0000   1.0000   1.0000   1.0000   1.0000   1.0000   1.0000
     1.0000   1.0000   1.0000   1.0000   1.0000   1.0000   1.0000   1.0000
     1.0000   1.0000   1.0000   1.0000   1.0000   1.0000   1.0000   1.0000
     1.0000   1.0000   1.0000   1.0000   1.0000   1.0000   1.0000   1.0000
     1.0000   1.0000   1.0000   1.0000   1.0000   1.0000   1.0000   1.0000
     1.0000   1.0000   1.0000   1.0000   1.0000   1.0000   1.0000   1.0000
     1.0000   1.0000   1.0000   1.0000   1.0000   1.0000   1.0000   1.0000
     1.0000   1.0000   1.0000   1.0000   1.0000   1.0000   1.0000   1.0000
     1.0000   1.0000   1.0000   1.0000   1.0000   1.0000   1.0000   1.0000
     1.0000   1.0000   1.0000   1.0000   1.0000   1.0000   1.0000   1.0000
     1.0000   1.0000   1.0000   1.0000   1.0000   1.0000   1.0000   1.0000
     1.0000   1.0000   1.0000   1.0000   1.0000   1.0000   1.0000   1.0000
     1.0000   1.0000   1.0000   1.0000   1.0000   1.0000   1.0000   1.0000
     1.0000   1.0000   1.0000   1.0000   1.0000   1.0000   1.0000   1.0000
     1.0000   1.0000   1.0000   1.0000   1.0000   1.0000   1.0000   1.0000
     1.0000   1.0000   1.0000   1.0000   1.0000   1.0000   1.0000   1.0000
     1.0000   1.0000   1.0000   1.0000   1.0000   1.0000   1.0000   1.0000
     1.0000   1.0000   1.0000   1.0000   1.0000   1.0000   1.0000   1.0000
     1.0000   1.0000   1.0000   1.0000   1.0000   1.0000   1.0000   1.0000
     1.0000   1.0000   1.0000   1.0000   1.0000   1.0000   1.0000   1.0000
     1.0000   1.0000   1.0000   1.0000   1.0000   1.0000   1.0000   1.0000
     1.0000   1.0000   1.0000   1.0000   1.0000   1.0000   1.0000   1.0000
     1.0000   1.0000   1.0000   1.0000   1.0000   1.0000   1.0000   1.0000
     1.0000   1.0000   1.0000   1.0000   1.0000   1.0000   1.0000   1.0000
     1.0000   1.0000   1.0000   1.0000   1.0000   1.0000   1.0000   1.0000
     1.0000   1.0000   1.0000   1.0000   1.0000   1.0000   1.0000   1.0000
     1.0000   1.0000   1.0000   1.0000   1.0000   1.0000   1.0000   1.0000
     1.0000   1.0000   1.0000   1.0000   1.0000   1.0000   1.0000   1.0000
     1.0000   1.0000   1.0000   1.0000   1.0000   1.0000   1.0000   1.0001
     1.0001   1.0004   0.6229   0.6189   0.0594   0.0578   0.0190   0.0092
     0.0067   0.0006   0.0005   0.0000   0.0000   0.0000   0.0000   0.0000
     0.0000   0.0000   0.0000   0.0000   0.0000   0.0000   0.0000   0.0000
     0.0000   0.0000   0.0000   0.0000   0.0000   0.0000   0.0000   0.0000
     0.0000   0.0000   0.0000   0.0000   0.0000   0.0000   0.0000   0.0000
     0.0000   0.0000   0.0000   0.0000   0.0000   0.0000   0.0000   0.0000
     0.0000   0.0000   0.0000   0.0000   0.0000   0.0000   0.0000   0.0000
     0.0000   0.0000   0.0000   0.0000   0.0000   0.0000   0.0000   0.0000
     0.0000   0.0000   0.0000   0.0000   0.0000   0.0000   0.0000   0.0000
     0.0000   0.0000   0.0000   0.0000   0.0000   0.0000   0.0000   0.0000
     0.0000   0.0000   0.0000   0.0000   0.0000   0.0000   0.0000   0.0000
     0.0000   0.0000   0.0000   0.0000   0.0000   0.0000   0.0000   0.0000
     0.0000   0.0000   0.0000   0.0000   0.0000   0.0000   0.0000   0.0000
     0.0000   0.0000   0.0000   0.0000   0.0000   0.0000   0.0000   0.0000
     0.0000   0.0000   0.0000   0.0000   0.0000   0.0000   0.0000   0.0000
     0.0000   0.0000   0.0000   0.0000   0.0000   0.0000   0.0000   0.0000
     0.0000   0.0000   0.0000   0.0000   0.0000

          k = 0.3333 0.5774 0.0000 ( 42123 PWs)   bands (ev):

  -123.1502-123.1490-123.1479-123.1475-123.1468-123.1462-123.1460-123.1458
  -123.1455-123.1452-123.1446-123.1441-123.1438-123.1425-123.1418-123.1401
  -123.1005-123.0988-123.0980-123.0971-123.0953-123.0949-123.0948-123.0942
  -123.0933-123.0930-123.0926-123.0925-123.0920-123.0911-123.0902-123.0853
  -122.9538-122.9533-122.9527-122.9520-122.9517-122.9515-122.9508-122.9505
  -122.9503-122.9501-122.9495-122.9483-122.9479-122.9476-122.9473-122.9460
  -122.9193-122.9179-122.9174-122.9169-122.9163-122.9159-122.9141-122.9139
  -122.9136-122.9128-122.9126-122.9117-122.9108-122.9000-122.8995-122.8662
   -77.2547 -77.2542 -77.2531 -77.2473 -77.2472 -77.2462 -77.2456 -77.2447
   -77.2446 -77.2396 -77.2392 -77.2380 -77.2362 -77.2355 -77.2347 -77.2346
   -77.2340 -77.2340 -77.2334 -77.2333 -77.2329 -77.2321 -77.2316 -77.2311
   -77.2302 -77.2297 -77.2294 -77.2286 -77.2286 -77.2285 -77.2282 -77.2272
   -77.2257 -77.2233 -77.2232 -77.2230 -77.2207 -77.2201 -77.2198 -77.2189
   -77.2185 -77.2181 -77.2174 -77.2169 -77.2162 -77.2105 -77.2094 -77.2090
   -77.2034 -77.2025 -77.2013 -77.1961 -77.1958 -77.1946 -77.1938 -77.1927
   -77.1926 -77.1879 -77.1874 -77.1871 -77.1860 -77.1849 -77.1843 -77.1834
   -77.1827 -77.1823 -77.1820 -77.1816 -77.1812 -77.1807 -77.1799 -77.1794
   -77.1786 -77.1777 -77.1775 -77.1772 -77.1767 -77.1762 -77.1759 -77.1757
   -77.1719 -77.1714 -77.1713 -77.1710 -77.1688 -77.1685 -77.1682 -77.1673
   -77.1667 -77.1659 -77.1655 -77.1637 -77.1635 -77.1589 -77.1567 -77.1563
   -77.0565 -77.0554 -77.0553 -77.0491 -77.0490 -77.0490 -77.0488 -77.0479
   -77.0479 -77.0473 -77.0470 -77.0469 -77.0468 -77.0465 -77.0451 -77.0445
   -77.0443 -77.0440 -77.0435 -77.0426 -77.0421 -77.0413 -77.0412 -77.0411
   -77.0407 -77.0396 -77.0386 -77.0365 -77.0354 -77.0352 -77.0301 -77.0301
   -77.0300 -77.0248 -77.0246 -77.0244 -77.0220 -77.0218 -77.0216 -77.0208
   -77.0203 -77.0200 -77.0198 -77.0191 -77.0185 -77.0184 -77.0175 -77.0167
   -77.0154 -77.0148 -77.0134 -77.0125 -77.0121 -77.0120 -77.0119 -77.0118
   -77.0114 -77.0108 -77.0107 -77.0103 -77.0095 -77.0092 -77.0084 -77.0080
   -77.0078 -77.0075 -77.0074 -77.0069 -77.0061 -77.0053 -77.0002 -76.9998
   -76.9995 -76.9968 -76.9961 -76.9957 -76.9940 -76.9920 -76.9909 -76.9892
   -76.9876 -76.9865 -76.9861 -76.9851 -76.9841 -76.9836 -76.9830 -76.9818
   -76.9791 -76.9765 -76.9743 -76.9714 -76.9699 -76.9562 -76.9480 -76.9474
   -18.1520  -5.9761  -5.9708  -5.9684  -5.7809  -5.2436  -5.2426  -5.2385
    -4.7683  -4.7673  -4.7654  -4.7392  -4.7391  -4.7388  -4.7375  -4.7370
    -4.7369  -4.7169  -4.7130  -4.7079  -4.6762  -4.6760  -4.6754  -4.6739
    -4.6731  -4.6730  -4.6374  -4.6367  -4.6360  -4.5878  -4.5876  -4.5874
    -4.5804  -4.5801  -4.5792  -4.5639  -4.5637  -4.5635  -4.5618  -4.5616
    -4.5614  -4.5226  -4.5223  -4.5211  -4.4739  -4.4737  -4.4732  -4.4705
    -4.4689  -4.4687  -4.4126  -4.4122  -4.4118  -4.4107  -4.4100  -4.4095
    -4.4073  -4.4072  -4.4072  -4.3876  -4.3874  -4.3874  -4.3871  -4.3867
    -4.3865  -4.3529  -4.3528  -4.3520  -4.3507  -4.3504  -4.3502  -4.3496
    -4.3495  -4.3490  -4.3486  -4.3445  -4.3445  -4.3443  -4.3111  -4.3088
    -4.3084  -4.2841  -4.2838  -4.2836  -4.2655  -4.2588  -4.2472  -4.2461
    -4.2444  -4.2300  -4.2299  -4.2297  -4.2071  -4.2047  -4.2046  -4.2042
    -4.1934  -4.1784  -4.1782  -4.1780  -4.1770  -4.1764  -4.1756  -4.1739
    -4.1716  -4.1713  -4.1664  -4.1661  -4.1651  -4.1366  -4.1230  -4.1221
    -4.1215  -4.1203  -4.1006  -4.0998  -4.0984  -4.0874  -4.0872  -4.0869
    -4.0635  -4.0633  -4.0626  -4.0403  -4.0396  -4.0384  -4.0370  -4.0359
    -4.0349  -4.0172  -4.0166  -4.0158  -4.0144  -4.0123  -4.0113  -3.9966
    -3.9965  -3.9960  -3.9944  -3.9744  -3.9738  -3.9737  -3.9615  -3.9424
    -3.9419  -3.9415  -3.9368  -3.9362  -3.9353  -3.9322  -3.9280  -3.9270
    -3.8932  -3.8816  -3.8804  -3.8792  -3.8783  -3.8776  -3.8771  -3.8667
    -3.8660  -3.8656  -3.8642  -3.8638  -3.8625  -3.8418  -3.8414  -3.8413
    -3.8401  -3.8398  -3.8396  -3.8393  -3.8378  -3.8189  -3.8186  -3.8180
    -3.8174  -3.8167  -3.8163  -3.8021  -3.8016  -3.7748  -3.7746  -3.7744
    -3.7498  -3.7489  -3.7486  -3.7283  -3.7056  -3.7045  -3.7039  -3.6991
    -3.6956  -3.6938  -3.6736  -3.6731  -3.6730  -3.6715  -3.6712  -3.6705
    -3.6687  -3.6684  -3.6671  -3.6601  -3.6600  -3.6592  -3.6576  -3.6573
    -3.6557  -3.6512  -3.6508  -3.6503  -3.6501  -3.6359  -3.6354  -3.6352
    -3.6336  -3.6333  -3.6329  -3.6224  -3.6205  -3.6198  -3.6193  -3.6189
    -3.6160  -3.6095  -3.6087  -3.6084  -3.6075  -3.6063  -3.6055  -3.5461
    -3.5448  -3.5423  -3.5330  -3.5308  -3.5304  -3.5106  -3.5105  -3.5103
    -3.5100  -3.5098  -3.5095  -3.5090  -3.5088  -3.5074  -3.5061  -3.5034
    -3.5017  -3.4998  -3.4980  -3.4978  -3.4974  -3.4962  -3.4928  -3.4924
    -3.4921  -3.4904  -3.4902  -3.4898  -3.4890  -3.4880  -3.4858  -3.4800
    -3.4790  -3.4783  -3.4515  -3.4513  -3.4498  -3.4493  -3.4468  -3.4459
    -3.4400  -3.4397  -3.4392  -3.4386  -3.4376  -3.4375  -3.4308  -3.4306
    -3.4284  -3.4283  -3.4168  -3.4164  -3.4162  -3.4135  -3.4117  -3.4089
    -3.4084  -3.3934  -3.3933  -3.3916  -3.3869  -3.3855  -3.3835  -3.3785
    -3.3779  -3.3775  -3.3735  -3.3720  -3.3704  -3.3701  -3.3696  -3.3685
    -3.3680  -3.3678  -3.3636  -3.3568  -3.3519  -3.3500  -3.3434  -3.3426
    -3.3422  -3.3127  -3.3094  -3.3073  -3.2492  -3.2490  -3.2480  -3.2477
    -3.2471  -3.2468  -3.2117  -3.2111  -3.2084  -3.2081  -3.2024  -3.2018
    -2.9909  -2.9907  -2.9905  -2.5939  -2.5774  -2.5748  -2.4012  -2.3908
    -2.3900  -2.1848  -1.5230  -1.5223  -1.5215  -1.5198  -1.5183  -1.5176
    -1.0030  -0.9929  -0.9874  -0.7269  -0.6886  -0.6880  -0.6867  -0.6855
    -0.6842  -0.6829  -0.6824  -0.6733  -0.0603   0.7572   0.7591   0.7598
     0.7644   0.7672   0.7829   0.8572   0.8600   0.8930   1.8517   1.8566
     1.9030   2.0616   2.0633   2.0638   2.4676   2.4690   2.4718   2.4936
     2.4959   2.4974   2.5010   2.5023   2.5211   2.9100   2.9115   2.9126
     3.1396   3.1416   3.1442   4.0238   4.0280   4.0506   4.2060   4.2731
     4.3389   4.5988   4.6140   4.6480   4.9454   4.9477   4.9490   5.0146
     5.1080   5.1776   5.1797   5.1885   5.2584   5.9203   5.9245   5.9288
     5.9345   5.9351   5.9649   6.1934   6.1963   6.1984   6.2508   6.3892
     6.3896   6.3911   6.3916   6.3919   6.3941   6.4604   6.4836   6.5265
     6.6211   6.7565   6.8392   6.8946   6.9021   6.9460   6.9502   6.9630
     7.1811   7.1826   7.1837   7.1842   7.1858   7.1881   7.3949   7.4627
     7.4880   7.5211   7.5852   7.6534   7.9783   8.1635   8.2113   8.2331
     8.2459   8.2481   8.3123   8.3967   8.4752   8.5682   8.6309   8.6594
     8.6766   8.6777   8.6800   8.6820   8.6873   8.6990   8.9949   9.0476
     9.0593   9.0672   9.1148   9.2297   9.2571   9.2791   9.3034   9.3533
     9.3683   9.4210   9.4421   9.4489   9.4814   9.8474   9.8479   9.8484
     9.9514  10.2185  10.2523  10.3519  10.3599  10.4057  10.4874  10.4994
    10.5089  10.5296  10.5518  10.5653  10.6112  10.6155  10.6475  10.7486
[...]
     atom    7 type  1   force =     0.00000000    0.00000000   -0.00000000
     atom    8 type  1   force =    -0.00000000    0.00000000    0.00000000
     atom    9 type  1   force =     0.00000000    0.00000000    0.00000000
     atom   10 type  1   force =    -0.00000000    0.00000000    0.00000000
     atom   11 type  1   force =    -0.00000000    0.00000000    0.00000000
     atom   12 type  1   force =     0.00000000   -0.00000000    0.00000000
     atom   13 type  1   force =     0.00000000   -0.00000000    0.00000000
     atom   14 type  1   force =    -0.00000000   -0.00000000    0.00000000
     atom   15 type  1   force =     0.00000000   -0.00000000    0.00000000
     atom   16 type  1   force =    -0.00000000   -0.00000000    0.00000000
     atom   17 type  1   force =     0.00000000   -0.00000000    0.00000000
     atom   18 type  1   force =    -0.00000000   -0.00000000   -0.00000000
     atom   19 type  1   force =     0.00000000    0.00000000   -0.00000000
     atom   20 type  1   force =    -0.00000000   -0.00000000   -0.00000000
     atom   21 type  1   force =     0.00000000    0.00000000    0.00000000
     atom   22 type  1   force =    -0.00000000    0.00000000    0.00000000
     atom   23 type  1   force =     0.00000000    0.00000000   -0.00000000
     atom   24 type  1   force =    -0.00000000    0.00000000    0.00000000
     atom   25 type  1   force =     0.00000000    0.00000000    0.00000000
     atom   26 type  1   force =    -0.00000000    0.00000000    0.00000000
     atom   27 type  1   force =     0.00000000    0.00000000   -0.00000000
     atom   28 type  1   force =    -0.00000000   -0.00000000    0.00000000
     atom   29 type  1   force =     0.00000000   -0.00000000    0.00000000
     atom   30 type  1   force =    -0.00000000   -0.00000000    0.00000000
     atom   31 type  1   force =     0.00000000   -0.00000000    0.00000000
     atom   32 type  1   force =    -0.00000000   -0.00000000    0.00000000
     atom   33 type  1   force =     0.00000000   -0.00000000    0.00000000
     atom   34 type  1   force =    -0.00000000   -0.00000000    0.00000000
     atom   35 type  1   force =     0.00006217   -0.00013316   -0.00016754
     atom   36 type  1   force =    -0.00006927   -0.00005310   -0.00013863
     atom   37 type  1   force =     0.00000000    0.00000000    0.00000000
     atom   38 type  1   force =    -0.00000000    0.00000000    0.00000000
     atom   39 type  1   force =     0.00005858   -0.00000613   -0.00016892
     atom   40 type  1   force =    -0.00004362    0.00005779   -0.00014979
     atom   41 type  1   force =     0.00000000    0.00000000    0.00000000
     atom   42 type  1   force =    -0.00000000    0.00000000    0.00000000
     atom   43 type  1   force =    -0.00009327    0.00011746   -0.00024815
     atom   44 type  1   force =     0.00006152    0.00005688   -0.00025637
     atom   45 type  1   force =     0.00000000   -0.00000000    0.00000000
     atom   46 type  1   force =    -0.00000000   -0.00000000    0.00000000
     atom   47 type  1   force =    -0.00006527    0.00000932   -0.00020994
     atom   48 type  1   force =     0.00006359   -0.00005467   -0.00026259
     atom   49 type  1   force =     0.00000000   -0.00000000    0.00000000
     atom   50 type  1   force =    -0.00000000   -0.00000000    0.00000000
     atom   51 type  1   force =     0.00004704   -0.00002200   -0.00016808
     atom   52 type  1   force =    -0.00004001   -0.00016729   -0.00013051
     atom   53 type  1   force =    -0.00000000    0.00000000    0.00000000
     atom   54 type  1   force =    -0.00000000    0.00000000    0.00000000
     atom   55 type  1   force =     0.00015007    0.00005802   -0.00019684
     atom   56 type  1   force =    -0.00015823    0.00001130   -0.00012138
     atom   57 type  1   force =     0.00000000    0.00000000    0.00000000
     atom   58 type  1   force =    -0.00000000    0.00000000    0.00000000
     atom   59 type  1   force =     0.00016699    0.00007524   -0.00030052
     atom   60 type  1   force =    -0.00014082    0.00007563   -0.00018127
     atom   61 type  1   force =     0.00000000   -0.00000000    0.00000000
     atom   62 type  1   force =    -0.00000000   -0.00000000    0.00000000
     atom   63 type  1   force =     0.00002017    0.00010053   -0.00027925
     atom   64 type  1   force =    -0.00001965   -0.00012199   -0.00019671
     atom   65 type  2   force =     0.00000734   -0.00005547    0.00004563
     atom   66 type  3   force =     0.00000607   -0.00000147    0.00000438
     atom   67 type  3   force =     0.00000228   -0.00000365    0.00000528

     Total force =     0.002971     Total SCF correction =     0.000964
     SCF correction compared to forces is large: reduce conv_thr to get better values


     Computing stress (Cartesian axis) and pressure


     negative rho (up, down):  1.316E-02 0.000E+00
          total   stress  (Ry/bohr**3)                   (kbar)     P=     -307.91
  -0.00209061   0.00000075   0.00000055         -307.54        0.11        0.08
   0.00000075  -0.00208983   0.00000003            0.11     -307.42        0.00
   0.00000055   0.00000003  -0.00209890            0.08        0.00     -308.76

     kinetic stress (kbar)  16837.48     -6.14     -5.16
                               -6.14  16831.44      2.50
                               -5.16      2.50  16938.03

     local   stress (kbar)**********    -11.75    -23.35
                              -11.75**********     20.05
                              -23.35     20.051548374.61

     nonloc. stress (kbar)  -1995.12      0.09     -0.22
                                0.09  -1995.04      0.12
                               -0.22      0.12  -2058.27

     hartree stress (kbar) 801263.84      1.15      7.22
                                1.15 801265.72     -7.48
                                7.22     -7.48-726952.33

     exc-cor stress (kbar)  -8394.13      0.07      0.07
                                0.07  -8394.05     -0.03
                                0.07     -0.03  -8405.08

     corecor stress (kbar)     -3.91      0.01      0.01
                                0.01     -3.90     -0.00
                                0.01     -0.00     -4.03

     ewald   stress (kbar) 721610.24     16.69     21.52
                               16.69 721627.72    -15.15
                               21.52    -15.15-828201.68

     hubbard stress (kbar)      0.00      0.00      0.00
                                0.00      0.00      0.00
                                0.00      0.00      0.00

     DFT-D   stress (kbar)      0.00      0.00      0.00
                                0.00      0.00      0.00
                                0.00      0.00      0.00

     XDM     stress (kbar)      0.00      0.00      0.00
                                0.00      0.00      0.00
                                0.00      0.00      0.00

     dft-nl  stress (kbar)      0.00      0.00      0.00
                                0.00      0.00      0.00
                                0.00      0.00      0.00

     TS-vdW  stress (kbar)      0.00      0.00      0.00
                                0.00      0.00      0.00
                                0.00      0.00      0.00

     MDB     stress (kbar)      0.00      0.00      0.00
                                0.00      0.00      0.00
                                0.00      0.00      0.00

     3D-RISM stress (kbar)      0.00      0.00      0.00
                                0.00      0.00      0.00
                                0.00      0.00      0.00

     Energy error            =      2.0E-05 Ry
     Gradient error          =      1.1E-03 Ry/Bohr

     number of scf cycles    =  16
     number of bfgs steps    =  15

     energy             old  =  -29579.5813261362 Ry
     energy             new  =  -29579.5813465157 Ry

     CASE: energy            _new < energy            _old

     new trust radius        =       0.0053319904 bohr
     new conv_thr            =       0.0000000150 Ry


ATOMIC_POSITIONS (angstrom)
Zn              -0.0000000130        1.5094013740        1.2182902590    0   0   0
Zn               5.2287196980        1.5094013740        1.2182902590    0   0   0
Zn               0.0011120427        1.5098156786        6.1721139700    0   0   0
Zn               5.2276298567        1.5096812409        6.1878303447    0   0   0
Zn              -1.3071799410        3.7735034240        1.2182902590    0   0   0
Zn               3.9215397700        3.7735034240        1.2182902590    0   0   0
Zn              -1.3069300877        3.7744055475        6.1790147181    0   0   0
Zn               3.9211654507        3.7735432858        6.1841575930    0   0   0
Zn              -2.6143598690        6.0376054730        1.2182902590    0   0   0
Zn               2.6143598420        6.0376054730        1.2182902590    0   0   0
Zn              -2.6142664897        6.0378510255        6.1861027382    0   0   0
Zn               2.6141756116        6.0366437837        6.1776090524    0   0   0
Zn              -3.9215397970        8.3017075230        1.2182902590    0   0   0
Zn               1.3071799140        8.3017075230        1.2182902590    0   0   0
Zn              -3.9206627632        8.3013971165        6.1799331037    0   0   0
Zn               1.3061892394        8.3010083570        6.1815705960    0   0   0
Zn               2.6143598430        1.5094013740        1.2182902590    0   0   0
Zn               7.8430795540        1.5094013740        1.2182902590    0   0   0
Zn               2.6139064777        1.5091536489        6.1808539610    0   0   0
Zn               7.8434993133        1.5104311852        6.1795685079    0   0   0
Zn               1.3071799150        3.7735034240        1.2182902590    0   0   0
Zn               6.5358996260        3.7735034240        1.2182902590    0   0   0
Zn               1.3068490933        3.7733862370        6.1747897063    0   0   0
Zn               6.5361293872        3.7744930338        6.1877720625    0   0   0
Zn              -0.0000000130        6.0376054730        1.2182902590    0   0   0
Zn               5.2287196980        6.0376054730        1.2182902590    0   0   0
Zn              -0.0010277368        6.0371123597        6.1810339429    0   0   0
Zn               5.2296452053        6.0375740856        6.1834586640    0   0   0
Zn              -1.3071799410        8.3017075230        1.2182902590    0   0   0
Zn               3.9215397700        8.3017075230        1.2182902590    0   0   0
Zn              -1.3082407216        8.3010985074        6.1862800640    0   0   0
Zn               3.9229243575        8.3012795558        6.1747242960    0   0   0
Zn               1.3071799410        0.7547006760        3.6548707760    0   0   0
Zn               6.5358996520        0.7547006760        3.6548707760    0   0   0
Zn               1.3067145165        0.7547497875        8.6986553601
Zn               6.5369387208        0.7524804765        8.7040858950
Zn               0.0000000130        3.0188027250        3.6548707760    0   0   0
Zn               5.2287197240        3.0188027250        3.6548707760    0   0   0
Zn               0.0032674878        3.0233383128        8.6635020672
Zn               5.2293761011        3.0183908361        8.7060711654
Zn              -1.3071799150        5.2829047750        3.6548707760    0   0   0
Zn               3.9215397960        5.2829047750        3.6548707760    0   0   0
Zn              -1.2986775083        5.2811985670        8.6973430393
Zn               3.9152171372        5.2820252976        8.6695864690
Zn              -2.6143598430        7.5470068250        3.6548707760    0   0   0
Zn               2.6143598680        7.5470068250        3.6548707760    0   0   0
Zn              -2.6124503658        7.5459741773        8.7028834881
Zn               2.6104352648        7.5385269283        8.6783278313
Zn               3.9215397970        0.7547006760        3.6548707760    0   0   0
Zn               9.1502595080        0.7547006760        3.6548707760    0   0   0
Zn               3.9218346173        0.7524228838        8.7067509206
Zn               9.1508308109        0.7533245632        8.6998108334
Zn               2.6143598690        3.0188027250        3.6548707760    0   0   0
Zn               7.8430795800        3.0188027250        3.6548707760    0   0   0
Zn               2.6115122015        3.0227240897        8.6652818796
Zn               7.8447400028        3.0183068163        8.7034399502
Zn               1.3071799410        5.2829047750        3.6548707760    0   0   0
Zn               6.5358996520        5.2829047750        3.6548707760    0   0   0
Zn               1.3073822476        5.2780227366        8.9699934976
Zn               6.5376233459        5.2836822033        8.7072529712
Zn               0.0000000130        7.5470068250        3.6548707760    0   0   0
Zn               5.2287197240        7.5470068250        3.6548707760    0   0   0
Zn               0.0052140794        7.5378757978        8.6999389319
Zn               5.2283250107        7.5471172473        8.6996299669
O                1.3331834292        5.1553329743       11.7756560261
H                2.2185214453        5.4984830051       12.0235577012
H                1.3863175146        4.1961209877       11.9777799273



     Writing config-only to output data dir ./tmp/Zn002_optimized_topsite_H2O.save/ :
     XML data file
     NEW-OLD atomic charge density approx. for the potential

     Check: negative core charge=   -0.000010

     negative rho (up, down):  1.316E-02 0.000E+00

     total cpu time spent up to now is    39192.3 secs

     Self-consistent Calculation

     iteration #  1     ecut=    30.00 Ry     beta= 0.70
     Davidson diagonalization with overlap

---- Real-time Memory Report at c_bands before calling an iterative solver
           388 MiB given to the printing process from OS
             0 MiB allocation reported by mallinfo(arena+hblkhd)
        138056 MiB available memory on the node where the printing process lives
------------------
     ethr =  1.00E-06,  avg # of iterations =  2.0

     Threshold (ethr) on eigenvalues was too large:
     Diagonalizing with lowered threshold

     Davidson diagonalization with overlap

---- Real-time Memory Report at c_bands before calling an iterative solver
           388 MiB given to the printing process from OS
             0 MiB allocation reported by mallinfo(arena+hblkhd)
        137911 MiB available memory on the node where the printing process lives
------------------
     ethr =  4.91E-10,  avg # of iterations =  4.0

     negative rho (up, down):  1.315E-02 0.000E+00

     total cpu time spent up to now is    39700.5 secs

     total energy              =  -29579.58136179 Ry
     estimated scf accuracy    <       0.00000661 Ry

     iteration #  2     ecut=    30.00 Ry     beta= 0.70
     Davidson diagonalization with overlap

---- Real-time Memory Report at c_bands before calling an iterative solver
           388 MiB given to the printing process from OS
             0 MiB allocation reported by mallinfo(arena+hblkhd)
        137909 MiB available memory on the node where the printing process lives
------------------
     ethr =  5.13E-10,  avg # of iterations =  3.0

     negative rho (up, down):  1.315E-02 0.000E+00

     total cpu time spent up to now is    39921.2 secs

     total energy              =  -29579.58135933 Ry
     estimated scf accuracy    <       0.00001355 Ry

     iteration #  3     ecut=    30.00 Ry     beta= 0.70
     Davidson diagonalization with overlap

---- Real-time Memory Report at c_bands before calling an iterative solver
           388 MiB given to the printing process from OS
             0 MiB allocation reported by mallinfo(arena+hblkhd)
        137858 MiB available memory on the node where the printing process lives
------------------
     ethr =  5.13E-10,  avg # of iterations =  3.0

     negative rho (up, down):  1.315E-02 0.000E+00

     total cpu time spent up to now is    40145.3 secs

     total energy              =  -29579.58135921 Ry
     estimated scf accuracy    <       0.00004207 Ry

     iteration #  4     ecut=    30.00 Ry     beta= 0.70
     Davidson diagonalization with overlap

---- Real-time Memory Report at c_bands before calling an iterative solver
           388 MiB given to the printing process from OS
             0 MiB allocation reported by mallinfo(arena+hblkhd)
        137849 MiB available memory on the node where the printing process lives
------------------
     ethr =  5.13E-10,  avg # of iterations =  2.0

     negative rho (up, down):  1.315E-02 0.000E+00

     total cpu time spent up to now is    40360.2 secs

     total energy              =  -29579.58136103 Ry
     estimated scf accuracy    <       0.00002937 Ry

     iteration #  5     ecut=    30.00 Ry     beta= 0.70
     Davidson diagonalization with overlap

---- Real-time Memory Report at c_bands before calling an iterative solver
           388 MiB given to the printing process from OS
             0 MiB allocation reported by mallinfo(arena+hblkhd)
        137840 MiB available memory on the node where the printing process lives
------------------
     ethr =  5.13E-10,  avg # of iterations =  2.0

     negative rho (up, down):  1.315E-02 0.000E+00

     total cpu time spent up to now is    40573.3 secs

     total energy              =  -29579.58136301 Ry
     estimated scf accuracy    <       0.00000339 Ry

     iteration #  6     ecut=    30.00 Ry     beta= 0.70
     Davidson diagonalization with overlap

---- Real-time Memory Report at c_bands before calling an iterative solver
           388 MiB given to the printing process from OS
             0 MiB allocation reported by mallinfo(arena+hblkhd)
        137830 MiB available memory on the node where the printing process lives
------------------
     ethr =  2.63E-10,  avg # of iterations =  2.0

     negative rho (up, down):  1.315E-02 0.000E+00

     total cpu time spent up to now is    40788.0 secs

     total energy              =  -29579.58136331 Ry
     estimated scf accuracy    <       0.00000082 Ry

     iteration #  7     ecut=    30.00 Ry     beta= 0.70
     Davidson diagonalization with overlap

---- Real-time Memory Report at c_bands before calling an iterative solver
           388 MiB given to the printing process from OS
             0 MiB allocation reported by mallinfo(arena+hblkhd)
        137821 MiB available memory on the node where the printing process lives
------------------
     ethr =  6.37E-11,  avg # of iterations =  2.0

     negative rho (up, down):  1.315E-02 0.000E+00

     total cpu time spent up to now is    41002.9 secs

     total energy              =  -29579.58136342 Ry
     estimated scf accuracy    <       0.00000003 Ry

     iteration #  8     ecut=    30.00 Ry     beta= 0.70
     Davidson diagonalization with overlap

---- Real-time Memory Report at c_bands before calling an iterative solver
           388 MiB given to the printing process from OS
             0 MiB allocation reported by mallinfo(arena+hblkhd)
        137813 MiB available memory on the node where the printing process lives
------------------
     ethr =  2.15E-12,  avg # of iterations =  2.0

     negative rho (up, down):  1.315E-02 0.000E+00

     total cpu time spent up to now is    41237.7 secs

     total energy              =  -29579.58136342 Ry
     estimated scf accuracy    <       0.00000002 Ry

     iteration #  9     ecut=    30.00 Ry     beta= 0.70
     Davidson diagonalization with overlap

---- Real-time Memory Report at c_bands before calling an iterative solver
           388 MiB given to the printing process from OS
             0 MiB allocation reported by mallinfo(arena+hblkhd)
        137804 MiB available memory on the node where the printing process lives
------------------
