--------------------------------------------------------------------------
By default, for Open MPI 4.0 and later, infiniband ports on a device
are not used by default.  The intent is to use UCX for these devices.
You can override this policy by setting the btl_openib_allow_ib MCA parameter
to true.

  Local host:              psid09
  Local adapter:           mlx4_0
  Local port:              1

--------------------------------------------------------------------------
--------------------------------------------------------------------------
WARNING: There was an error initializing an OpenFabrics device.

  Local host:   psid09
  Local device: mlx4_0
--------------------------------------------------------------------------

     Program PWSCF v.7.3.1 starts on 24Mar2025 at 17:50: 4 

     This program is part of the open-source Quantum ESPRESSO suite
     for quantum simulation of materials; please cite
         "P. Giannozzi et al., J. Phys.:Condens. Matter 21 395502 (2009);
         "P. Giannozzi et al., J. Phys.:Condens. Matter 29 465901 (2017);
         "P. Giannozzi et al., J. Chem. Phys. 152 154105 (2020);
          URL http://www.quantum-espresso.org", 
     in publications or presentations arising from this work. More details at
     http://www.quantum-espresso.org/quote

     Parallel version (MPI), running on    33 processors

     MPI processes distributed on     1 nodes
     115823 MiB available memory on the printing compute node when the environment starts

     Waiting for input...
     Reading input from standard input

     Current dimensions of program PWSCF are:
     Max number of different atomic species (ntypx) = 10
     Max number of k-points (npk) =  40000
     Max angular momentum in pseudopotentials (lmaxx) =  4
     Message from routine input:
     WARNING: "startingwfc" set to atomic+random may spoil restart
     Message from routine input:
     WARNING: "startingpot" set to atomic may spoil restart
     Message from routine iosys:
     restart disabled: needed files not found
     file O.pbe-n-kjpaw_psl.0.1.UPF: wavefunction(s)  2P renormalized

     Atomic positions and unit cell read from directory:
     ./tmp/Zn002_optimized_topsite_H2O_scf.save/
     Message from routine qexsd_readschema :
     xml data file ./tmp/Zn002_optimized_topsite_H2O_scf.save/data-file-schema.xml no
     Nothing found: using input atomic positions and unit cell


     R & G space division:  proc/nbgrp/npool/nimage =      33
     Subspace diagonalization in iterative solution of the eigenvalue problem:
     one sub-group per band group will be used
     custom distributed-memory algorithm (size of sub-group:  5*  5 procs)


     Parallelization info
     --------------------
     sticks:   dense  smooth     PW     G-vecs:    dense   smooth      PW
     Min          98      98     26                10212    10212    1424
     Max          99      99     27                10224    10224    1433
     Sum        3241    3241    859               337189   337189   47187

     Using Slab Decomposition



     bravais-lattice index     =            0
     lattice parameter (alat)  =      19.7617  a.u.
     unit-cell volume          =   15176.5939 (a.u.)^3
     number of atoms/cell      =           67
     number of atomic types    =            3
     number of electrons       =      1288.00
     number of Kohn-Sham states=          773
     kinetic-energy cutoff     =      30.0000  Ry
     charge density cutoff     =     120.0000  Ry
     scf convergence threshold =      1.0E-08
     mixing beta               =       0.7000
     number of iterations used =            8  plain     mixing
     Exchange-correlation= PBE
                           (   1   4   3   4   0   0   0)

     celldm(1)=  19.761696  celldm(2)=   0.000000  celldm(3)=   0.000000
     celldm(4)=   0.000000  celldm(5)=   0.000000  celldm(6)=   0.000000

     crystal axes: (cart. coord. in units of alat)
               a(1) = (   1.000000   0.000000   0.000000 )  
               a(2) = (  -0.500000   0.866025   0.000000 )  
               a(3) = (   0.000000   0.000000   2.270759 )  

     reciprocal axes: (cart. coord. in units 2 pi/alat)
               b(1) = (  1.000000  0.577350 -0.000000 )  
               b(2) = (  0.000000  1.154701  0.000000 )  
               b(3) = (  0.000000 -0.000000  0.440381 )  


     PseudoPot. # 1 for Zn read from file:
     /home/ys/qepseudo/SSSP_1.3.0_PBE_efficiency/Zn_pbe_v1.uspp.F.UPF
     MD5 check sum: df62231357ef9e81f77b2b3087fa5675
     Pseudo is Ultrasoft, Zval = 20.0
     Generated by new atomic code, or converted to UPF format
     Using radial grid of  943 points,  6 beta functions with: 
                l(1) =   0
                l(2) =   0
                l(3) =   1
                l(4) =   1
                l(5) =   2
                l(6) =   2
     Q(r) pseudized with  8 coefficients,  rinner =    1.100   1.100   1.100
                                                       1.100   1.100

     PseudoPot. # 2 for O  read from file:
     /home/ys/qepseudo/SSSP_1.3.0_PBE_efficiency/O.pbe-n-kjpaw_psl.0.1.UPF
     MD5 check sum: 0234752ac141de4415c5fc33072bef88
     Pseudo is Projector augmented-wave + core cor, Zval =  6.0
     Generated using "atomic" code by A. Dal Corso  v.5.0.99 svn rev. 10869
     Shape of augmentation charge: BESSEL
     Using radial grid of 1095 points,  4 beta functions with: 
                l(1) =   0
                l(2) =   0
                l(3) =   1
                l(4) =   1
     Q(r) pseudized with 0 coefficients 


     PseudoPot. # 3 for H  read from file:
     /home/ys/qepseudo/SSSP_1.3.0_PBE_efficiency/H.pbe-rrkjus_psl.1.0.0.UPF
     MD5 check sum: f52b6d4d1c606e5624b1dc7b2218f220
     Pseudo is Ultrasoft, Zval =  1.0
     Generated using "atomic" code by A. Dal Corso  v.5.1
     Using radial grid of  929 points,  2 beta functions with: 
                l(1) =   0
                l(2) =   0
     Q(r) pseudized with 0 coefficients 


     atomic species   valence    mass     pseudopotential
     Zn               20.00    65.38000     Zn( 1.00)
     O                 6.00    16.00000     O ( 1.00)
     H                 1.00     1.00800     H ( 1.00)

     No symmetry found


                                    s                        frac. trans.

      isym =  1     identity                                     

 cryst.   s( 1) = (     1          0          0      )
                  (     0          1          0      )
                  (     0          0          1      )

 cart.    s( 1) = (  1.0000000  0.0000000  0.0000000 )
                  (  0.0000000  1.0000000  0.0000000 )
                  (  0.0000000  0.0000000  1.0000000 )


   Cartesian axes

     site n.     atom                  positions (alat units)
         1        Zn     tau(   1) = (  -0.0000000   0.1443376   0.1164999  )
         2        Zn     tau(   2) = (   0.5000000   0.1443376   0.1164999  )
         3        Zn     tau(   3) = (  -0.0000260   0.1441947   0.5712039  )
         4        Zn     tau(   4) = (   0.5000554   0.1442490   0.5714873  )
         5        Zn     tau(   5) = (  -0.1250000   0.3608439   0.1164999  )
         6        Zn     tau(   6) = (   0.3750000   0.3608439   0.1164999  )
         7        Zn     tau(   7) = (  -0.1245433   0.3611688   0.5722961  )
         8        Zn     tau(   8) = (   0.3745778   0.3610474   0.5719271  )
         9        Zn     tau(   9) = (  -0.2500000   0.5773503   0.1164999  )
        10        Zn     tau(  10) = (   0.2500000   0.5773503   0.1164999  )
        11        Zn     tau(  11) = (  -0.2499886   0.5773720   0.5713334  )
        12        Zn     tau(  12) = (   0.2494203   0.5771042   0.5721571  )
        13        Zn     tau(  13) = (  -0.3750000   0.7938566   0.1164999  )
        14        Zn     tau(  14) = (   0.1250000   0.7938566   0.1164999  )
        15        Zn     tau(  15) = (  -0.3749429   0.7938228   0.5719796  )
        16        Zn     tau(  16) = (   0.1249263   0.7932436   0.5725182  )
        17        Zn     tau(  17) = (   0.2500000   0.1443376   0.1164999  )
        18        Zn     tau(  18) = (   0.7500000   0.1443376   0.1164999  )
        19        Zn     tau(  19) = (   0.2500610   0.1441321   0.5711183  )
        20        Zn     tau(  20) = (   0.7499342   0.1443027   0.5713543  )
        21        Zn     tau(  21) = (   0.1250000   0.3608439   0.1164999  )
        22        Zn     tau(  22) = (   0.6250000   0.3608439   0.1164999  )
        23        Zn     tau(  23) = (   0.1249439   0.3614496   0.5720736  )
        24        Zn     tau(  24) = (   0.6250503   0.3607594   0.5714971  )
        25        Zn     tau(  25) = (  -0.0000000   0.5773503   0.1164999  )
        26        Zn     tau(  26) = (   0.5000000   0.5773503   0.1164999  )
        27        Zn     tau(  27) = (   0.0004409   0.5771072   0.5721628  )
        28        Zn     tau(  28) = (   0.5001534   0.5773883   0.5712101  )
        29        Zn     tau(  29) = (  -0.1250000   0.7938566   0.1164999  )
        30        Zn     tau(  30) = (   0.3750000   0.7938566   0.1164999  )
        31        Zn     tau(  31) = (  -0.1250030   0.7938418   0.5713530  )
        32        Zn     tau(  32) = (   0.3750573   0.7939133   0.5713092  )
        33        Zn     tau(  33) = (   0.1250000   0.0721688   0.3494996  )
        34        Zn     tau(  34) = (   0.6250000   0.0721688   0.3494996  )
        35        Zn     tau(  35) = (   0.1250464   0.0722549   0.8162060  )
        36        Zn     tau(  36) = (   0.6250727   0.0719749   0.8160242  )
        37        Zn     tau(  37) = (   0.0000000   0.2886751   0.3494996  )
        38        Zn     tau(  38) = (   0.5000000   0.2886751   0.3494996  )
        39        Zn     tau(  39) = (   0.0007943   0.2898874   0.8099720  )
        40        Zn     tau(  40) = (   0.4999958   0.2885922   0.8162311  )
        41        Zn     tau(  41) = (  -0.1250000   0.5051815   0.3494996  )
        42        Zn     tau(  42) = (   0.3750000   0.5051815   0.3494996  )
        43        Zn     tau(  43) = (  -0.1234399   0.5051077   0.8117790  )
        44        Zn     tau(  44) = (   0.3735979   0.5050821   0.8096427  )
        45        Zn     tau(  45) = (  -0.2500000   0.7216878   0.3494996  )
        46        Zn     tau(  46) = (   0.2500000   0.7216878   0.3494996  )
        47        Zn     tau(  47) = (  -0.2497247   0.7215152   0.8158446  )
        48        Zn     tau(  48) = (   0.2491907   0.7201629   0.8109335  )
        49        Zn     tau(  49) = (   0.3750000   0.0721688   0.3494996  )
        50        Zn     tau(  50) = (   0.8750000   0.0721688   0.3494996  )
        51        Zn     tau(  51) = (   0.3750978   0.0718738   0.8142790  )
        52        Zn     tau(  52) = (   0.8750764   0.0719843   0.8143674  )
        53        Zn     tau(  53) = (   0.2500000   0.2886751   0.3494996  )
        54        Zn     tau(  54) = (   0.7500000   0.2886751   0.3494996  )
        55        Zn     tau(  55) = (   0.2493680   0.2897524   0.8093725  )
        56        Zn     tau(  56) = (   0.7501315   0.2885928   0.8161008  )
        57        Zn     tau(  57) = (   0.1250000   0.5051815   0.3494996  )
        58        Zn     tau(  58) = (   0.6250000   0.5051815   0.3494996  )
        59        Zn     tau(  59) = (   0.1247267   0.5051803   0.8611321  )
        60        Zn     tau(  60) = (   0.6252000   0.5051754   0.8143139  )
        61        Zn     tau(  61) = (   0.0000000   0.7216878   0.3494996  )
        62        Zn     tau(  62) = (   0.5000000   0.7216878   0.3494996  )
        63        Zn     tau(  63) = (   0.0008118   0.7202436   0.8120159  )
        64        Zn     tau(  64) = (   0.4999149   0.7215824   0.8160586  )
        65        O      tau(  65) = (   0.1268510   0.4971885   1.0966985  )
        66        H      tau(  66) = (   0.2106782   0.5293171   1.1241029  )
        67        H      tau(  67) = (   0.1284392   0.4058406   1.1183117  )

   Crystallographic axes

     site n.     atom                  positions (cryst. coord.)
         1        Zn     tau(   1) = (  0.0833333  0.1666667  0.0513044  )
         2        Zn     tau(   2) = (  0.5833333  0.1666667  0.0513044  )
         3        Zn     tau(   3) = (  0.0832248  0.1665016  0.2515476  )
         4        Zn     tau(   4) = (  0.5833376  0.1665644  0.2516724  )
         5        Zn     tau(   5) = (  0.0833333  0.4166667  0.0513044  )
         6        Zn     tau(   6) = (  0.5833333  0.4166667  0.0513044  )
         7        Zn     tau(   7) = (  0.0839776  0.4170419  0.2520286  )
         8        Zn     tau(   8) = (  0.5830286  0.4169016  0.2518661  )
         9        Zn     tau(   9) = (  0.0833333  0.6666667  0.0513044  )
        10        Zn     tau(  10) = (  0.5833333  0.6666667  0.0513044  )
        11        Zn     tau(  11) = (  0.0833573  0.6666918  0.2516046  )
        12        Zn     tau(  12) = (  0.5826115  0.6663825  0.2519674  )
        13        Zn     tau(  13) = (  0.0833333  0.9166667  0.0513044  )
        14        Zn     tau(  14) = (  0.5833333  0.9166667  0.0513044  )
        15        Zn     tau(  15) = (  0.0833709  0.9166276  0.2518892  )
        16        Zn     tau(  16) = (  0.5829057  0.9159588  0.2521264  )
        17        Zn     tau(  17) = (  0.3333333  0.1666667  0.0513044  )
        18        Zn     tau(  18) = (  0.8333333  0.1666667  0.0513044  )
        19        Zn     tau(  19) = (  0.3332757  0.1664294  0.2515099  )
        20        Zn     tau(  20) = (  0.8332474  0.1666264  0.2516138  )
        21        Zn     tau(  21) = (  0.3333333  0.4166667  0.0513044  )
        22        Zn     tau(  22) = (  0.8333333  0.4166667  0.0513044  )
        23        Zn     tau(  23) = (  0.3336269  0.4173661  0.2519306  )
        24        Zn     tau(  24) = (  0.8333348  0.4165691  0.2516767  )
        25        Zn     tau(  25) = (  0.3333333  0.6666667  0.0513044  )
        26        Zn     tau(  26) = (  0.8333333  0.6666667  0.0513044  )
        27        Zn     tau(  27) = (  0.3336339  0.6663860  0.2519699  )
        28        Zn     tau(  28) = (  0.8335087  0.6667105  0.2515503  )
        29        Zn     tau(  29) = (  0.3333333  0.9166667  0.0513044  )
        30        Zn     tau(  30) = (  0.8333333  0.9166667  0.0513044  )
        31        Zn     tau(  31) = (  0.3333218  0.9166495  0.2516133  )
        32        Zn     tau(  32) = (  0.8334233  0.9167321  0.2515939  )
        33        Zn     tau(  33) = (  0.1666667  0.0833333  0.1539131  )
        34        Zn     tau(  34) = (  0.6666667  0.0833333  0.1539131  )
        35        Zn     tau(  35) = (  0.1667628  0.0834327  0.3594420  )
        36        Zn     tau(  36) = (  0.6666274  0.0831094  0.3593619  )
        37        Zn     tau(  37) = (  0.1666667  0.3333333  0.1539131  )
        38        Zn     tau(  38) = (  0.6666667  0.3333333  0.1539131  )
        39        Zn     tau(  39) = (  0.1681609  0.3347332  0.3566966  )
        40        Zn     tau(  40) = (  0.6666146  0.3332376  0.3594530  )
        41        Zn     tau(  41) = (  0.1666667  0.5833333  0.1539131  )
        42        Zn     tau(  42) = (  0.6666667  0.5833333  0.1539131  )
        43        Zn     tau(  43) = (  0.1681841  0.5832482  0.3574924  )
        44        Zn     tau(  44) = (  0.6652072  0.5832186  0.3565516  )
        45        Zn     tau(  45) = (  0.1666667  0.8333333  0.1539131  )
        46        Zn     tau(  46) = (  0.6666667  0.8333333  0.1539131  )
        47        Zn     tau(  47) = (  0.1668423  0.8331340  0.3592828  )
        48        Zn     tau(  48) = (  0.6649769  0.8315725  0.3571201  )
        49        Zn     tau(  49) = (  0.4166667  0.0833333  0.1539131  )
        50        Zn     tau(  50) = (  0.9166667  0.0833333  0.1539131  )
        51        Zn     tau(  51) = (  0.4165942  0.0829927  0.3585933  )
        52        Zn     tau(  52) = (  0.9166365  0.0831203  0.3586323  )
        53        Zn     tau(  53) = (  0.4166667  0.3333333  0.1539131  )
        54        Zn     tau(  54) = (  0.9166667  0.3333333  0.1539131  )
        55        Zn     tau(  55) = (  0.4166566  0.3345772  0.3564326  )
        56        Zn     tau(  56) = (  0.9167506  0.3332382  0.3593956  )
        57        Zn     tau(  57) = (  0.4166667  0.5833333  0.1539131  )
        58        Zn     tau(  58) = (  0.9166667  0.5833333  0.1539131  )
        59        Zn     tau(  59) = (  0.4163927  0.5833319  0.3792266  )
        60        Zn     tau(  60) = (  0.9168631  0.5833263  0.3586087  )
        61        Zn     tau(  61) = (  0.4166667  0.8333333  0.1539131  )
        62        Zn     tau(  62) = (  0.9166667  0.8333333  0.1539131  )
        63        Zn     tau(  63) = (  0.4166447  0.8316657  0.3575967  )
        64        Zn     tau(  64) = (  0.9165207  0.8332116  0.3593770  )
        65        O      tau(  65) = (  0.4139029  0.5741038  0.4829657  )
        66        H      tau(  66) = (  0.5162796  0.6112027  0.4950341  )
        67        H      tau(  67) = (  0.3627514  0.4686243  0.4924837  )

     number of k points=     5  Marzari-Vanderbilt smearing, width (Ry)=  0.0200
                       cart. coord. in units 2pi/alat
        k(    1) = (   0.0000000   0.0000000   0.0000000), wk =   0.2222222
        k(    2) = (   0.0000000   0.3849002   0.0000000), wk =   0.4444444
        k(    3) = (   0.3333333   0.1924501   0.0000000), wk =   0.4444444
        k(    4) = (   0.3333333   0.5773503   0.0000000), wk =   0.4444444
        k(    5) = (   0.3333333  -0.1924501   0.0000000), wk =   0.4444444

                       cryst. coord.
        k(    1) = (   0.0000000   0.0000000   0.0000000), wk =   0.2222222
        k(    2) = (   0.0000000   0.3333333   0.0000000), wk =   0.4444444
        k(    3) = (   0.3333333   0.0000000   0.0000000), wk =   0.4444444
        k(    4) = (   0.3333333   0.3333333   0.0000000), wk =   0.4444444
        k(    5) = (   0.3333333  -0.3333333   0.0000000), wk =   0.4444444

     Dense  grid:   337189 G-vectors     FFT dimensions: (  72,  72, 160)

     Dynamical RAM for                 wfc:      15.05 MB

     Dynamical RAM for     wfc (w. buffer):      90.30 MB

     Dynamical RAM for           str. fact:       0.47 MB

     Dynamical RAM for           local pot:       0.00 MB

     Dynamical RAM for          nlocal pot:      22.66 MB

     Dynamical RAM for                qrad:       2.64 MB

     Dynamical RAM for          rho,v,vnew:       1.06 MB

     Dynamical RAM for               rhoin:       0.35 MB

     Dynamical RAM for            rho*nmix:       2.50 MB

     Dynamical RAM for           G-vectors:       0.66 MB

     Dynamical RAM for          h,s,v(r/c):       4.37 MB

     Dynamical RAM for          <psi|beta>:      13.73 MB

     Dynamical RAM for                 psi:      30.10 MB

     Dynamical RAM for                hpsi:      30.10 MB

     Dynamical RAM for                spsi:      30.10 MB

     Dynamical RAM for      wfcinit/wfcrot:      48.71 MB

     Dynamical RAM for           addusdens:      38.99 MB

     Dynamical RAM for          addusforce:      58.98 MB

     Dynamical RAM for         addusstress:      31.35 MB

     Estimated static dynamical RAM per process >     119.77 MB

     Estimated max dynamical RAM per process >     230.66 MB

     Estimated total dynamical RAM >       7.43 GB

     Check: negative core charge=   -0.000010
     Cannot read rho : file not found

     Initial potential from superposition of free atoms

     starting charge    1287.9910, renormalised to    1288.0000

     negative rho (up, down):  6.568E-03 0.000E+00
     Starting wfcs are  838 randomized atomic wfcs
[psid09:159989] 32 more processes have sent help message help-mpi-btl-openib.txt / ib port not selected
[psid09:159989] Set MCA parameter "orte_base_help_aggregate" to 0 to see all help / error messages
[psid09:159989] 32 more processes have sent help message help-mpi-btl-openib.txt / error in device init
     Checking if some PAW data can be deallocated... 
       PAW data deallocated on   32 nodes for type:  2

     total cpu time spent up to now is       65.1 secs

     Self-consistent Calculation

     iteration #  1     ecut=    30.00 Ry     beta= 0.70
     Davidson diagonalization with overlap

---- Real-time Memory Report at c_bands before calling an iterative solver
           200 MiB given to the printing process from OS
             0 MiB allocation reported by mallinfo(arena+hblkhd)
        111409 MiB available memory on the node where the printing process lives
------------------
     ethr =  1.00E-05,  avg # of iterations = 11.4

     negative rho (up, down):  1.020E-02 0.000E+00

     total cpu time spent up to now is      733.1 secs

     total energy              =  -29577.79678882 Ry
     estimated scf accuracy    <       3.34728006 Ry

     iteration #  2     ecut=    30.00 Ry     beta= 0.70
     Davidson diagonalization with overlap

---- Real-time Memory Report at c_bands before calling an iterative solver
           273 MiB given to the printing process from OS
             0 MiB allocation reported by mallinfo(arena+hblkhd)
        109866 MiB available memory on the node where the printing process lives
------------------
     ethr =  2.60E-04,  avg # of iterations =  4.0

     negative rho (up, down):  1.082E-02 0.000E+00

     total cpu time spent up to now is     1064.7 secs

     total energy              =  -29578.44042087 Ry
     estimated scf accuracy    <       5.75913773 Ry

     iteration #  3     ecut=    30.00 Ry     beta= 0.70
     Davidson diagonalization with overlap

---- Real-time Memory Report at c_bands before calling an iterative solver
           277 MiB given to the printing process from OS
             0 MiB allocation reported by mallinfo(arena+hblkhd)
        109736 MiB available memory on the node where the printing process lives
------------------
     ethr =  2.60E-04,  avg # of iterations =  7.6

     negative rho (up, down):  1.085E-02 0.000E+00

     total cpu time spent up to now is     1370.4 secs

     total energy              =  -29579.29219124 Ry
     estimated scf accuracy    <       1.78645984 Ry

     iteration #  4     ecut=    30.00 Ry     beta= 0.70
     Davidson diagonalization with overlap

---- Real-time Memory Report at c_bands before calling an iterative solver
           277 MiB given to the printing process from OS
             0 MiB allocation reported by mallinfo(arena+hblkhd)
        109722 MiB available memory on the node where the printing process lives
------------------
     ethr =  1.39E-04,  avg # of iterations =  3.0

     negative rho (up, down):  1.151E-02 0.000E+00

     total cpu time spent up to now is     1599.9 secs

     total energy              =  -29579.45485206 Ry
     estimated scf accuracy    <       0.48775871 Ry

     iteration #  5     ecut=    30.00 Ry     beta= 0.70
     Davidson diagonalization with overlap

---- Real-time Memory Report at c_bands before calling an iterative solver
           278 MiB given to the printing process from OS
             0 MiB allocation reported by mallinfo(arena+hblkhd)
        109704 MiB available memory on the node where the printing process lives
------------------
     ethr =  3.79E-05,  avg # of iterations = 12.8

     negative rho (up, down):  1.250E-02 0.000E+00

     total cpu time spent up to now is     1873.2 secs

     total energy              =  -29579.33814438 Ry
     estimated scf accuracy    <       3.97231271 Ry

     iteration #  6     ecut=    30.00 Ry     beta= 0.70
     Davidson diagonalization with overlap

---- Real-time Memory Report at c_bands before calling an iterative solver
           278 MiB given to the printing process from OS
             0 MiB allocation reported by mallinfo(arena+hblkhd)
        109676 MiB available memory on the node where the printing process lives
------------------
     ethr =  3.79E-05,  avg # of iterations =  8.2

     negative rho (up, down):  1.276E-02 0.000E+00

     total cpu time spent up to now is     2123.4 secs

     total energy              =  -29579.54164749 Ry
     estimated scf accuracy    <       0.02849080 Ry

     iteration #  7     ecut=    30.00 Ry     beta= 0.70
     Davidson diagonalization with overlap

---- Real-time Memory Report at c_bands before calling an iterative solver
           279 MiB given to the printing process from OS
             0 MiB allocation reported by mallinfo(arena+hblkhd)
        109653 MiB available memory on the node where the printing process lives
------------------
     c_bands:  1 eigenvalues not converged
     c_bands:  1 eigenvalues not converged
     c_bands:  1 eigenvalues not converged
     ethr =  2.21E-06,  avg # of iterations = 17.4

     negative rho (up, down):  1.290E-02 0.000E+00

     total cpu time spent up to now is     2412.5 secs

     total energy              =  -29579.54533517 Ry
     estimated scf accuracy    <       0.00429718 Ry

     iteration #  8     ecut=    30.00 Ry     beta= 0.70
     Davidson diagonalization with overlap

---- Real-time Memory Report at c_bands before calling an iterative solver
           280 MiB given to the printing process from OS
             0 MiB allocation reported by mallinfo(arena+hblkhd)
        109646 MiB available memory on the node where the printing process lives
------------------
     ethr =  3.34E-07,  avg # of iterations =  2.2

     negative rho (up, down):  1.303E-02 0.000E+00

     total cpu time spent up to now is     2629.3 secs

     total energy              =  -29579.54600414 Ry
     estimated scf accuracy    <       0.00110335 Ry

     iteration #  9     ecut=    30.00 Ry     beta= 0.70
     Davidson diagonalization with overlap

---- Real-time Memory Report at c_bands before calling an iterative solver
           280 MiB given to the printing process from OS
             0 MiB allocation reported by mallinfo(arena+hblkhd)
        109633 MiB available memory on the node where the printing process lives
------------------
     ethr =  8.57E-08,  avg # of iterations =  2.0

     negative rho (up, down):  1.307E-02 0.000E+00

     total cpu time spent up to now is     2842.9 secs

     total energy              =  -29579.54612397 Ry
     estimated scf accuracy    <       0.00036977 Ry

     iteration # 10     ecut=    30.00 Ry     beta= 0.70
     Davidson diagonalization with overlap

---- Real-time Memory Report at c_bands before calling an iterative solver
           281 MiB given to the printing process from OS
             0 MiB allocation reported by mallinfo(arena+hblkhd)
        109618 MiB available memory on the node where the printing process lives
------------------
     ethr =  2.87E-08,  avg # of iterations =  2.0

     negative rho (up, down):  1.311E-02 0.000E+00

     total cpu time spent up to now is     3056.9 secs

     total energy              =  -29579.54617676 Ry
     estimated scf accuracy    <       0.00002122 Ry

     iteration # 11     ecut=    30.00 Ry     beta= 0.70
     Davidson diagonalization with overlap

---- Real-time Memory Report at c_bands before calling an iterative solver
           281 MiB given to the printing process from OS
             0 MiB allocation reported by mallinfo(arena+hblkhd)
        109603 MiB available memory on the node where the printing process lives
------------------
     ethr =  1.65E-09,  avg # of iterations =  2.8

     negative rho (up, down):  1.312E-02 0.000E+00

     total cpu time spent up to now is     3320.1 secs

     total energy              =  -29579.54617992 Ry
     estimated scf accuracy    <       0.00000979 Ry

     iteration # 12     ecut=    30.00 Ry     beta= 0.70
     Davidson diagonalization with overlap

---- Real-time Memory Report at c_bands before calling an iterative solver
           281 MiB given to the printing process from OS
             0 MiB allocation reported by mallinfo(arena+hblkhd)
        109601 MiB available memory on the node where the printing process lives
------------------
     ethr =  7.60E-10,  avg # of iterations =  2.0

     negative rho (up, down):  1.312E-02 0.000E+00

     total cpu time spent up to now is     3553.5 secs

     total energy              =  -29579.54618172 Ry
     estimated scf accuracy    <       0.00000078 Ry

     iteration # 13     ecut=    30.00 Ry     beta= 0.70
     Davidson diagonalization with overlap

---- Real-time Memory Report at c_bands before calling an iterative solver
           281 MiB given to the printing process from OS
             0 MiB allocation reported by mallinfo(arena+hblkhd)
        109603 MiB available memory on the node where the printing process lives
------------------
     ethr =  6.02E-11,  avg # of iterations =  2.0

     negative rho (up, down):  1.313E-02 0.000E+00

     total cpu time spent up to now is     3808.0 secs

     total energy              =  -29579.54618188 Ry
     estimated scf accuracy    <       0.00000037 Ry

     iteration # 14     ecut=    30.00 Ry     beta= 0.70
     Davidson diagonalization with overlap

---- Real-time Memory Report at c_bands before calling an iterative solver
           281 MiB given to the printing process from OS
             0 MiB allocation reported by mallinfo(arena+hblkhd)
        109602 MiB available memory on the node where the printing process lives
------------------
     ethr =  2.84E-11,  avg # of iterations =  2.0

     negative rho (up, down):  1.313E-02 0.000E+00

     total cpu time spent up to now is     4023.6 secs

     total energy              =  -29579.54618192 Ry
     estimated scf accuracy    <       0.00000032 Ry

     iteration # 15     ecut=    30.00 Ry     beta= 0.70
     Davidson diagonalization with overlap

---- Real-time Memory Report at c_bands before calling an iterative solver
           281 MiB given to the printing process from OS
             0 MiB allocation reported by mallinfo(arena+hblkhd)
        109600 MiB available memory on the node where the printing process lives
------------------
     ethr =  2.52E-11,  avg # of iterations =  2.0

     negative rho (up, down):  1.313E-02 0.000E+00

     total cpu time spent up to now is     4235.9 secs

     total energy              =  -29579.54618195 Ry
     estimated scf accuracy    <       0.00000018 Ry

     iteration # 16     ecut=    30.00 Ry     beta= 0.70
     Davidson diagonalization with overlap

---- Real-time Memory Report at c_bands before calling an iterative solver
           281 MiB given to the printing process from OS
             0 MiB allocation reported by mallinfo(arena+hblkhd)
        109600 MiB available memory on the node where the printing process lives
------------------
     ethr =  1.36E-11,  avg # of iterations =  1.2

     negative rho (up, down):  1.313E-02 0.000E+00

     total cpu time spent up to now is     4416.9 secs

     total energy              =  -29579.54618195 Ry
     estimated scf accuracy    <       0.00000015 Ry

     iteration # 17     ecut=    30.00 Ry     beta= 0.70
     Davidson diagonalization with overlap

---- Real-time Memory Report at c_bands before calling an iterative solver
           281 MiB given to the printing process from OS
             0 MiB allocation reported by mallinfo(arena+hblkhd)
        109597 MiB available memory on the node where the printing process lives
------------------
     ethr =  1.19E-11,  avg # of iterations =  1.2

     negative rho (up, down):  1.313E-02 0.000E+00

     total cpu time spent up to now is     4598.0 secs

     total energy              =  -29579.54618196 Ry
     estimated scf accuracy    <       0.00000002 Ry

     iteration # 18     ecut=    30.00 Ry     beta= 0.70
     Davidson diagonalization with overlap

---- Real-time Memory Report at c_bands before calling an iterative solver
           281 MiB given to the printing process from OS
             0 MiB allocation reported by mallinfo(arena+hblkhd)
        109598 MiB available memory on the node where the printing process lives
------------------
     ethr =  1.23E-12,  avg # of iterations =  2.0

     negative rho (up, down):  1.313E-02 0.000E+00

     total cpu time spent up to now is     4810.2 secs

     End of self-consistent calculation

          k = 0.0000 0.0000 0.0000 ( 42115 PWs)   bands (ev):

  -123.2106-123.2079-123.2077-123.2075-123.2072-123.2069-123.2065-123.2059
  -123.2058-123.2055-123.2051-123.2040-123.2029-123.2019-123.2011-123.1987
  -123.1682-123.1664-123.1652-123.1649-123.1634-123.1624-123.1613-123.1605
  -123.1603-123.1560-123.1552-123.1546-123.1537-123.1311-123.1291-123.1224
  -122.9016-122.9000-122.8991-122.8978-122.8959-122.8958-122.8957-122.8954
  -122.8953-122.8952-122.8949-122.8946-122.8940-122.8939-122.8939-122.8935
  -122.8720-122.8707-122.8691-122.8655-122.8535-122.8523-122.8519-122.8517
  -122.8502-122.8488-122.8482-122.8481-122.8472-122.8462-122.8453-122.6960
   -77.3189 -77.3187 -77.3186 -77.3101 -77.3101 -77.3087 -77.3087 -77.3082
   -77.3082 -77.2951 -77.2929 -77.2925 -77.2921 -77.2919 -77.2916 -77.2911
   -77.2906 -77.2901 -77.2899 -77.2896 -77.2884 -77.2878 -77.2873 -77.2869
   -77.2869 -77.2865 -77.2864 -77.2860 -77.2855 -77.2849 -77.2842 -77.2840
   -77.2836 -77.2834 -77.2834 -77.2832 -77.2831 -77.2826 -77.2821 -77.2804
   -77.2802 -77.2798 -77.2789 -77.2784 -77.2774 -77.2767 -77.2754 -77.2753
   -77.2736 -77.2721 -77.2712 -77.2651 -77.2641 -77.2639 -77.2613 -77.2594
   -77.2568 -77.2513 -77.2498 -77.2488 -77.2483 -77.2471 -77.2455 -77.2445
   -77.2442 -77.2441 -77.2438 -77.2426 -77.2420 -77.2415 -77.2407 -77.2404
   -77.2398 -77.2394 -77.2393 -77.2391 -77.2386 -77.2374 -77.2373 -77.2357
   -77.2345 -77.2337 -77.2316 -77.2314 -77.2303 -77.2298 -77.2297 -77.2206
   -77.2153 -77.2147 -77.2130 -77.2121 -77.2062 -77.2054 -77.2022 -77.1995
   -77.0076 -77.0065 -77.0065 -76.9983 -76.9978 -76.9975 -76.9968 -76.9964
   -76.9963 -76.9931 -76.9925 -76.9914 -76.9891 -76.9882 -76.9878 -76.9878
   -76.9877 -76.9876 -76.9874 -76.9874 -76.9870 -76.9860 -76.9859 -76.9857
   -76.9856 -76.9755 -76.9753 -76.9746 -76.9743 -76.9741 -76.9732 -76.9726
   -76.9725 -76.9713 -76.9711 -76.9705 -76.9703 -76.9700 -76.9698 -76.9693
   -76.9671 -76.9667 -76.9666 -76.9663 -76.9659 -76.9655 -76.9652 -76.9651
   -76.9650 -76.9648 -76.9638 -76.9628 -76.9628 -76.9610 -76.9606 -76.9588
   -76.9576 -76.9540 -76.9518 -76.9498 -76.9485 -76.9476 -76.9469 -76.9451
   -76.9443 -76.9439 -76.9435 -76.9431 -76.9426 -76.9425 -76.9416 -76.9406
   -76.9402 -76.9396 -76.9377 -76.9352 -76.9334 -76.9325 -76.9303 -76.9277
   -76.9273 -76.9258 -76.9249 -76.9242 -76.9224 -76.9220 -76.9218 -76.9208
   -76.9206 -76.9200 -76.9182 -76.9174 -76.9169 -76.7889 -76.7874 -76.7865
   -18.8851  -6.8506  -6.4973  -5.7372  -5.2594  -5.2591  -5.2552  -5.2547
    -5.2542  -5.2353  -5.1116  -5.0386  -4.9676  -4.9675  -4.9667  -4.9120
    -4.9119  -4.9107  -4.7618  -4.7607  -4.7603  -4.7518  -4.7514  -4.7491
    -4.7487  -4.7483  -4.7363  -4.6078  -4.6064  -4.6058  -4.6041  -4.6023
    -4.6022  -4.5682  -4.5678  -4.5664  -4.5655  -4.5650  -4.5633  -4.5547
    -4.5545  -4.5533  -4.5247  -4.5238  -4.5232  -4.5195  -4.5193  -4.5183
    -4.4983  -4.4893  -4.4893  -4.4821  -4.4819  -4.4804  -4.4800  -4.4796
    -4.4773  -4.4674  -4.4619  -4.4616  -4.4393  -4.4390  -4.4350  -4.4165
    -4.4163  -4.3983  -4.3454  -4.3453  -4.3416  -4.3365  -4.3360  -4.3338
    -4.3208  -4.3161  -4.3154  -4.3150  -4.3145  -4.3113  -4.2972  -4.2655
    -4.2628  -4.2624  -4.2587  -4.2579  -4.2578  -4.2457  -4.2432  -4.2425
    -4.2346  -4.2340  -4.2334  -4.1921  -4.1839  -4.1833  -4.1797  -4.1789
    -4.1766  -4.1766  -4.1755  -4.1750  -4.1721  -4.1713  -4.1500  -4.1490
    -4.1489  -4.1472  -4.1471  -4.1470  -4.1212  -4.1211  -4.0961  -4.0921
    -4.0899  -4.0869  -4.0861  -4.0839  -4.0758  -4.0750  -4.0609  -4.0589
    -4.0534  -4.0531  -4.0464  -4.0448  -4.0445  -4.0418  -4.0392  -4.0380
    -4.0374  -4.0317  -4.0299  -4.0143  -4.0141  -4.0095  -4.0064  -4.0020
    -3.9890  -3.9872  -3.9635  -3.9633  -3.9623  -3.9609  -3.9558  -3.9553
    -3.9530  -3.9526  -3.9526  -3.9497  -3.9491  -3.9488  -3.9442  -3.9435
    -3.9336  -3.8902  -3.8856  -3.8852  -3.8849  -3.8838  -3.8833  -3.8657
    -3.8620  -3.8618  -3.8614  -3.8594  -3.8591  -3.8554  -3.8553  -3.8174
    -3.7986  -3.7973  -3.7864  -3.7857  -3.7842  -3.7827  -3.7820  -3.7812
    -3.7801  -3.7798  -3.7797  -3.7791  -3.7784  -3.7781  -3.7778  -3.7777
    -3.7687  -3.7674  -3.7666  -3.7618  -3.7582  -3.7570  -3.7473  -3.7468
    -3.7302  -3.7196  -3.7195  -3.7194  -3.7193  -3.7190  -3.7189  -3.7168
    -3.7140  -3.7128  -3.7079  -3.7070  -3.6994  -3.6986  -3.6954  -3.6951
    -3.6934  -3.6930  -3.6907  -3.6900  -3.6893  -3.6872  -3.6860  -3.6853
    -3.6767  -3.6763  -3.6704  -3.6694  -3.6672  -3.6556  -3.6548  -3.6494
    -3.6487  -3.6458  -3.6446  -3.6438  -3.6315  -3.6309  -3.6142  -3.5805
    -3.5789  -3.5785  -3.5773  -3.5764  -3.5742  -3.5736  -3.5718  -3.5713
    -3.5658  -3.5640  -3.5625  -3.5611  -3.5607  -3.5571  -3.5568  -3.5474
    -3.5470  -3.5359  -3.5291  -3.5288  -3.5287  -3.5247  -3.5245  -3.5006
    -3.4976  -3.4974  -3.4850  -3.4755  -3.4708  -3.4355  -3.4354  -3.4348
    -3.4339  -3.4338  -3.4336  -3.4319  -3.4264  -3.4262  -3.4260  -3.4254
    -3.4119  -3.4113  -3.4090  -3.4058  -3.4055  -3.4049  -3.4003  -3.3995
    -3.3933  -3.3918  -3.3773  -3.3734  -3.3717  -3.3695  -3.3661  -3.3659
    -3.3631  -3.3626  -3.3625  -3.3618  -3.3595  -3.3592  -3.3331  -3.3330
    -3.3330  -3.3318  -3.3316  -3.3309  -3.3308  -3.3216  -3.3211  -3.3191
    -3.3157  -3.3152  -3.3120  -3.2956  -3.2883  -3.2877  -3.2844  -3.2824
    -3.2819  -3.2809  -3.2807  -3.2795  -3.2781  -3.2781  -3.2733  -3.2475
    -3.2458  -3.2443  -3.2427  -3.2413  -3.2027  -3.0287  -3.0207  -3.0200
    -3.0199  -2.9818  -2.9812  -2.9798  -2.9326  -2.9319  -2.9277  -2.9217
    -2.9165  -2.7334  -1.7543  -1.6542  -1.6435  -1.6433  -1.6379  -1.6251
    -1.1190  -0.7980  -0.3170  -0.3162  -0.3154  -0.3026  -0.3015  -0.2833
     0.4844   0.4923   0.5014   0.5100   0.5108   0.5448   0.7841   0.7848
     0.7958   0.8276   0.8307   0.8599   0.9657   0.9659   0.9744   1.1314
     1.5715   1.5725   1.5994   2.0807   2.0810   2.0885   2.0914   2.1028
     2.1130   2.1186   2.1423   2.1453   2.3826   2.4216   2.4283   3.3711
     3.3827   3.4150   3.4185   3.4198   3.4796   3.9706   3.9743   4.0102
     4.0114   4.0118   4.0152   4.2958   4.4188   4.4202   4.4571   4.6919
     4.6925   4.7341   5.7167   5.7168   5.7379   5.7550   6.0887   6.1184
     6.1326   6.1453   6.1683   6.2051   6.5793   6.5802   6.5947   6.8762
     6.9156   7.2139   7.2195   7.2301   7.2364   7.2388   7.2406   7.2544
     7.2566   7.2802   7.2931   7.2968   7.3773   7.3859   7.3860   7.3912
     7.3958   7.4066   7.4071   7.5535   7.5821   7.9263   8.0302   8.0378
     8.0848   8.3956   8.3966   8.4103   8.4259   8.4283   8.4297   8.4419
     8.4476   8.4888   8.4937   8.4993   8.5026   8.5230   8.5409   8.5580
     8.5843   8.6153   8.6621   8.6759   8.6984   8.7323   8.7489   8.7552
     8.7682   8.8312   8.8640   8.8849   8.9092   8.9334   9.4662   9.5234
     9.5580   9.5702   9.5918   9.6069   9.7665   9.7722   9.7837   9.8073
     9.8240   9.8277   9.8630   9.8676   9.8981   9.9031   9.9195   9.9424
    10.0131  10.0557  10.0914  10.1438  10.1564  10.4066  10.4594  10.4767
    10.4835  10.5085  10.5342  10.6320  10.6842  10.7039  10.7307  10.9066
    11.0705  11.0805  11.0831  11.0855  11.0936  11.0999  11.1007  11.3149
    11.4408  11.4835  11.5084  11.5215  11.5435

     occupation numbers 
     1.0000   1.0000   1.0000   1.0000   1.0000   1.0000   1.0000   1.0000
     1.0000   1.0000   1.0000   1.0000   1.0000   1.0000   1.0000   1.0000
     1.0000   1.0000   1.0000   1.0000   1.0000   1.0000   1.0000   1.0000
     1.0000   1.0000   1.0000   1.0000   1.0000   1.0000   1.0000   1.0000
     1.0000   1.0000   1.0000   1.0000   1.0000   1.0000   1.0000   1.0000
     1.0000   1.0000   1.0000   1.0000   1.0000   1.0000   1.0000   1.0000
     1.0000   1.0000   1.0000   1.0000   1.0000   1.0000   1.0000   1.0000
     1.0000   1.0000   1.0000   1.0000   1.0000   1.0000   1.0000   1.0000
     1.0000   1.0000   1.0000   1.0000   1.0000   1.0000   1.0000   1.0000
     1.0000   1.0000   1.0000   1.0000   1.0000   1.0000   1.0000   1.0000
     1.0000   1.0000   1.0000   1.0000   1.0000   1.0000   1.0000   1.0000
     1.0000   1.0000   1.0000   1.0000   1.0000   1.0000   1.0000   1.0000
     1.0000   1.0000   1.0000   1.0000   1.0000   1.0000   1.0000   1.0000
     1.0000   1.0000   1.0000   1.0000   1.0000   1.0000   1.0000   1.0000
     1.0000   1.0000   1.0000   1.0000   1.0000   1.0000   1.0000   1.0000
     1.0000   1.0000   1.0000   1.0000   1.0000   1.0000   1.0000   1.0000
     1.0000   1.0000   1.0000   1.0000   1.0000   1.0000   1.0000   1.0000
     1.0000   1.0000   1.0000   1.0000   1.0000   1.0000   1.0000   1.0000
     1.0000   1.0000   1.0000   1.0000   1.0000   1.0000   1.0000   1.0000
     1.0000   1.0000   1.0000   1.0000   1.0000   1.0000   1.0000   1.0000
     1.0000   1.0000   1.0000   1.0000   1.0000   1.0000   1.0000   1.0000
     1.0000   1.0000   1.0000   1.0000   1.0000   1.0000   1.0000   1.0000
     1.0000   1.0000   1.0000   1.0000   1.0000   1.0000   1.0000   1.0000
     1.0000   1.0000   1.0000   1.0000   1.0000   1.0000   1.0000   1.0000
     1.0000   1.0000   1.0000   1.0000   1.0000   1.0000   1.0000   1.0000
     1.0000   1.0000   1.0000   1.0000   1.0000   1.0000   1.0000   1.0000
     1.0000   1.0000   1.0000   1.0000   1.0000   1.0000   1.0000   1.0000
     1.0000   1.0000   1.0000   1.0000   1.0000   1.0000   1.0000   1.0000
     1.0000   1.0000   1.0000   1.0000   1.0000   1.0000   1.0000   1.0000
     1.0000   1.0000   1.0000   1.0000   1.0000   1.0000   1.0000   1.0000
     1.0000   1.0000   1.0000   1.0000   1.0000   1.0000   1.0000   1.0000
     1.0000   1.0000   1.0000   1.0000   1.0000   1.0000   1.0000   1.0000
     1.0000   1.0000   1.0000   1.0000   1.0000   1.0000   1.0000   1.0000
     1.0000   1.0000   1.0000   1.0000   1.0000   1.0000   1.0000   1.0000
     1.0000   1.0000   1.0000   1.0000   1.0000   1.0000   1.0000   1.0000
     1.0000   1.0000   1.0000   1.0000   1.0000   1.0000   1.0000   1.0000
     1.0000   1.0000   1.0000   1.0000   1.0000   1.0000   1.0000   1.0000
     1.0000   1.0000   1.0000   1.0000   1.0000   1.0000   1.0000   1.0000
     1.0000   1.0000   1.0000   1.0000   1.0000   1.0000   1.0000   1.0000
     1.0000   1.0000   1.0000   1.0000   1.0000   1.0000   1.0000   1.0000
     1.0000   1.0000   1.0000   1.0000   1.0000   1.0000   1.0000   1.0000
     1.0000   1.0000   1.0000   1.0000   1.0000   1.0000   1.0000   1.0000
     1.0000   1.0000   1.0000   1.0000   1.0000   1.0000   1.0000   1.0000
     1.0000   1.0000   1.0000   1.0000   1.0000   1.0000   1.0000   1.0000
     1.0000   1.0000   1.0000   1.0000   1.0000   1.0000   1.0000   1.0000
     1.0000   1.0000   1.0000   1.0000   1.0000   1.0000   1.0000   1.0000
     1.0000   1.0000   1.0000   1.0000   1.0000   1.0000   1.0000   1.0000
     1.0000   1.0000   1.0000   1.0000   1.0000   1.0000   1.0000   1.0000
     1.0000   1.0000   1.0000   1.0000   1.0000   1.0000   1.0000   1.0000
     1.0000   1.0000   1.0000   1.0000   1.0000   1.0000   1.0000   1.0000
     1.0000   1.0000   1.0000   1.0000   1.0000   1.0000   1.0000   1.0000
     1.0000   1.0000   1.0000   1.0000   1.0000   1.0000   1.0000   1.0000
     1.0000   1.0000   1.0000   1.0000   1.0000   1.0000   1.0000   1.0000
     1.0000   1.0000   1.0000   1.0000   1.0000   1.0000   1.0000   1.0000
     1.0000   1.0000   1.0000   1.0000   1.0000   1.0000   1.0000   1.0000
     1.0000   1.0000   1.0000   1.0000   1.0000   1.0000   1.0000   1.0000
     1.0000   1.0000   1.0000   1.0000   1.0000   1.0000   1.0000   1.0000
     1.0000   1.0000   1.0000   1.0000   1.0000   1.0000   1.0000   1.0000
     1.0000   1.0000   1.0000   1.0000   1.0000   1.0000   1.0000   1.0000
     1.0000   1.0000   1.0000   1.0000   1.0000   1.0000   1.0000   1.0000
     1.0000   1.0000   1.0000   1.0000   1.0000   1.0000   1.0000   1.0000
     1.0000   1.0000   1.0000   1.0000   1.0000   1.0000   1.0000   1.0000
     1.0000   1.0000   1.0000   1.0000   1.0000   1.0000   1.0000   1.0000
     1.0000   1.0000   1.0000   1.0000   1.0000   1.0000   1.0000   1.0000
     1.0000   1.0000   1.0000   1.0000   1.0000   1.0000   1.0000   1.0000
     1.0000   1.0000   1.0000   1.0000   1.0000   1.0000   1.0000   1.0000
     1.0000   1.0000   1.0000   1.0000   1.0000   1.0000   1.0000   1.0000
     1.0000   1.0000   1.0000   1.0000   1.0000   1.0000   1.0000   1.0000
     1.0000   1.0000   1.0000   1.0000   1.0000   1.0000   1.0000   1.0000
     1.0000   1.0000   1.0000   1.0000   1.0000   1.0000   1.0000   1.0000
     1.0000   1.0000   1.0000   1.0000   1.0000   1.0000   1.0000   1.0000
     1.0000   1.0000   1.0000   1.0000   1.0000   1.0000   1.0000   1.0000
     1.0000   1.0000   1.0000   1.0000   1.0000   1.0000   1.0000   1.0000
     1.0000   1.0000   1.0000   1.0000   1.0000   1.0000   1.0000   1.0000
     1.0000   1.0000   1.0000   1.0000   1.0000   1.0000   1.0000   1.0000
     1.0000   1.0000   1.0000   1.0000   1.0000   1.0000   1.0000   1.0000
     1.0000   1.0000   1.0000   1.0000   1.0000   1.0000   1.0000   1.0000
     1.0000   1.0000   1.0000   1.0000   1.0000   1.0000   1.0000   1.0000
     1.0000   1.0000   1.0000   1.0000   1.0000   1.0000   1.0000   1.0000
     1.0000   1.0000   1.0000   1.0000   1.0000   1.0000   1.0000   1.0292
     1.0325   1.0424   1.0435   1.0440   1.0644   0.3637   0.3550   0.2748
     0.2721   0.2714   0.2645   0.0115   0.0015   0.0015   0.0008   0.0000
     0.0000   0.0000   0.0000   0.0000   0.0000   0.0000   0.0000   0.0000
     0.0000   0.0000   0.0000   0.0000   0.0000   0.0000   0.0000   0.0000
     0.0000   0.0000   0.0000   0.0000   0.0000   0.0000   0.0000   0.0000
     0.0000   0.0000   0.0000   0.0000   0.0000   0.0000   0.0000   0.0000
     0.0000   0.0000   0.0000   0.0000   0.0000   0.0000   0.0000   0.0000
     0.0000   0.0000   0.0000   0.0000   0.0000   0.0000   0.0000   0.0000
     0.0000   0.0000   0.0000   0.0000   0.0000   0.0000   0.0000   0.0000
     0.0000   0.0000   0.0000   0.0000   0.0000   0.0000   0.0000   0.0000
     0.0000   0.0000   0.0000   0.0000   0.0000   0.0000   0.0000   0.0000
     0.0000   0.0000   0.0000   0.0000   0.0000   0.0000   0.0000   0.0000
     0.0000   0.0000   0.0000   0.0000   0.0000   0.0000   0.0000   0.0000
     0.0000   0.0000   0.0000   0.0000   0.0000   0.0000   0.0000   0.0000
     0.0000   0.0000   0.0000   0.0000   0.0000   0.0000   0.0000   0.0000
     0.0000   0.0000   0.0000   0.0000   0.0000   0.0000   0.0000   0.0000
     0.0000   0.0000   0.0000   0.0000   0.0000

          k = 0.0000 0.3849 0.0000 ( 42150 PWs)   bands (ev):

  -123.2094-123.2081-123.2079-123.2077-123.2074-123.2072-123.2067-123.2062
  -123.2060-123.2057-123.2054-123.2043-123.2032-123.2020-123.2014-123.1989
  -123.1682-123.1664-123.1654-123.1650-123.1636-123.1625-123.1613-123.1608
  -123.1607-123.1560-123.1556-123.1549-123.1539-123.1313-123.1293-123.1226
  -122.9010-122.9003-122.8993-122.8972-122.8962-122.8960-122.8958-122.8957
  -122.8956-122.8955-122.8953-122.8948-122.8944-122.8942-122.8941-122.8940
  -122.8720-122.8710-122.8693-122.8657-122.8532-122.8525-122.8521-122.8520
  -122.8502-122.8490-122.8485-122.8483-122.8475-122.8465-122.8455-122.6962
   -77.3178 -77.3177 -77.3142 -77.3111 -77.3108 -77.3102 -77.3098 -77.3036
   -77.3034 -77.2987 -77.2953 -77.2952 -77.2945 -77.2941 -77.2939 -77.2930
   -77.2929 -77.2927 -77.2920 -77.2916 -77.2911 -77.2905 -77.2900 -77.2898
   -77.2896 -77.2893 -77.2890 -77.2880 -77.2875 -77.2863 -77.2856 -77.2854
   -77.2850 -77.2835 -77.2834 -77.2831 -77.2821 -77.2815 -77.2802 -77.2790
   -77.2784 -77.2772 -77.2770 -77.2763 -77.2754 -77.2750 -77.2731 -77.2728
   -77.2721 -77.2713 -77.2686 -77.2664 -77.2641 -77.2632 -77.2602 -77.2581
   -77.2565 -77.2517 -77.2513 -77.2503 -77.2492 -77.2489 -77.2484 -77.2483
   -77.2473 -77.2459 -77.2456 -77.2453 -77.2447 -77.2442 -77.2434 -77.2433
   -77.2419 -77.2403 -77.2394 -77.2387 -77.2386 -77.2381 -77.2372 -77.2366
   -77.2348 -77.2341 -77.2310 -77.2302 -77.2299 -77.2282 -77.2276 -77.2215
   -77.2155 -77.2149 -77.2138 -77.2127 -77.2074 -77.2062 -77.2012 -77.1989
   -77.0062 -77.0054 -77.0023 -76.9996 -76.9986 -76.9982 -76.9978 -76.9937
   -76.9930 -76.9918 -76.9916 -76.9915 -76.9896 -76.9895 -76.9892 -76.9885
   -76.9878 -76.9876 -76.9873 -76.9869 -76.9869 -76.9864 -76.9863 -76.9857
   -76.9853 -76.9846 -76.9836 -76.9829 -76.9811 -76.9809 -76.9775 -76.9770
   -76.9734 -76.9730 -76.9722 -76.9717 -76.9711 -76.9696 -76.9690 -76.9668
   -76.9665 -76.9657 -76.9654 -76.9651 -76.9649 -76.9643 -76.9640 -76.9636
   -76.9634 -76.9625 -76.9624 -76.9618 -76.9616 -76.9607 -76.9592 -76.9580
   -76.9576 -76.9535 -76.9517 -76.9492 -76.9480 -76.9473 -76.9470 -76.9458
   -76.9453 -76.9448 -76.9442 -76.9436 -76.9435 -76.9430 -76.9422 -76.9416
   -76.9414 -76.9402 -76.9395 -76.9390 -76.9374 -76.9357 -76.9348 -76.9308
   -76.9294 -76.9275 -76.9261 -76.9248 -76.9238 -76.9223 -76.9215 -76.9202
   -76.9190 -76.9176 -76.9165 -76.9155 -76.9154 -76.7897 -76.7879 -76.7867
   -18.8851  -6.6402  -6.4981  -6.0385  -5.5473  -5.5065  -5.4932  -5.0579
    -4.9883  -4.9448  -4.9322  -4.9147  -4.9080  -4.9044  -4.9019  -4.9011
    -4.8769  -4.8420  -4.8413  -4.7980  -4.7433  -4.7336  -4.7275  -4.7249
    -4.7236  -4.7224  -4.7142  -4.7121  -4.6821  -4.6799  -4.6636  -4.6632
    -4.6596  -4.6589  -4.6358  -4.6159  -4.6141  -4.6012  -4.5833  -4.5825
    -4.5820  -4.5794  -4.5632  -4.5616  -4.5614  -4.5547  -4.5526  -4.5493
    -4.5269  -4.5078  -4.5039  -4.4917  -4.4891  -4.4814  -4.4773  -4.4715
    -4.4619  -4.4535  -4.4532  -4.4321  -4.4192  -4.4175  -4.4029  -4.4016
    -4.3949  -4.3894  -4.3866  -4.3860  -4.3836  -4.3609  -4.3547  -4.3431
    -4.3410  -4.3303  -4.3173  -4.3168  -4.3126  -4.3060  -4.3050  -4.3010
    -4.2980  -4.2849  -4.2801  -4.2736  -4.2657  -4.2624  -4.2582  -4.2559
    -4.2501  -4.2450  -4.2437  -4.2264  -4.2167  -4.2095  -4.2053  -4.1978
    -4.1970  -4.1925  -4.1887  -4.1848  -4.1823  -4.1786  -4.1697  -4.1639
    -4.1603  -4.1545  -4.1468  -4.1451  -4.1430  -4.1400  -4.1379  -4.1333
    -4.1286  -4.1228  -4.1195  -4.1052  -4.1018  -4.0988  -4.0804  -4.0762
    -4.0740  -4.0720  -4.0672  -4.0522  -4.0460  -4.0446  -4.0348  -4.0270
    -4.0220  -4.0162  -4.0115  -4.0098  -4.0048  -4.0032  -4.0005  -3.9916
    -3.9835  -3.9779  -3.9740  -3.9699  -3.9692  -3.9659  -3.9586  -3.9583
    -3.9411  -3.9407  -3.9369  -3.9340  -3.9333  -3.9297  -3.9294  -3.9287
    -3.9262  -3.9238  -3.9214  -3.9163  -3.9005  -3.8943  -3.8930  -3.8891
    -3.8864  -3.8815  -3.8780  -3.8750  -3.8708  -3.8635  -3.8543  -3.8474
    -3.8460  -3.8433  -3.8399  -3.8357  -3.8292  -3.8184  -3.8177  -3.8102
    -3.8090  -3.8080  -3.8056  -3.8019  -3.7887  -3.7872  -3.7705  -3.7638
    -3.7621  -3.7530  -3.7395  -3.7380  -3.7374  -3.7341  -3.7288  -3.7253
    -3.7205  -3.7109  -3.7102  -3.7098  -3.7082  -3.7057  -3.7021  -3.6945
    -3.6919  -3.6886  -3.6852  -3.6842  -3.6763  -3.6738  -3.6668  -3.6663
    -3.6623  -3.6585  -3.6570  -3.6550  -3.6516  -3.6492  -3.6460  -3.6448
    -3.6404  -3.6359  -3.6350  -3.6322  -3.6298  -3.6287  -3.6207  -3.6146
    -3.6103  -3.5975  -3.5947  -3.5902  -3.5781  -3.5727  -3.5705  -3.5621
    -3.5561  -3.5519  -3.5475  -3.5421  -3.5419  -3.5401  -3.5390  -3.5351
    -3.5337  -3.5327  -3.5309  -3.5295  -3.5239  -3.5216  -3.5154  -3.5056
    -3.5030  -3.5004  -3.4994  -3.4983  -3.4948  -3.4931  -3.4926  -3.4872
    -3.4858  -3.4806  -3.4778  -3.4766  -3.4719  -3.4707  -3.4590  -3.4509
    -3.4467  -3.4452  -3.4369  -3.4360  -3.4298  -3.4291  -3.4228  -3.4200
    -3.4166  -3.4141  -3.4085  -3.4045  -3.3993  -3.3949  -3.3921  -3.3896
    -3.3880  -3.3839  -3.3823  -3.3820  -3.3762  -3.3755  -3.3718  -3.3694
    -3.3687  -3.3676  -3.3661  -3.3638  -3.3584  -3.3566  -3.3554  -3.3539
    -3.3512  -3.3488  -3.3461  -3.3397  -3.3378  -3.3343  -3.3334  -3.3283
    -3.3250  -3.3211  -3.3197  -3.3193  -3.3089  -3.3039  -3.2916  -3.2874
    -3.2861  -3.2851  -3.2580  -3.2576  -3.2511  -3.2398  -3.2290  -3.2183
    -3.2158  -3.1783  -3.1372  -3.1165  -3.1158  -3.1095  -3.0769  -3.0724
    -3.0703  -3.0391  -3.0327  -3.0308  -2.9860  -2.8230  -2.7338  -2.4566
    -2.1927  -2.1666  -1.9997  -1.9652  -1.9454  -1.9334  -1.6650  -1.2120
    -0.9478  -0.9197  -0.8889  -0.8670  -0.8240  -0.6988  -0.3251  -0.2817
    -0.1593  -0.1554   0.1603   0.1730   0.1942   0.3268   0.3303   0.3874
     0.4064   0.9596   0.9645   1.2264   1.2302   1.3778   1.4013   1.4143
     1.4532   1.7505   1.7630   1.7792   2.1933   2.2218   2.2247   2.3919
     2.4046   2.4874   2.5002   2.8171   2.8197   2.8775   2.9029   2.9332
     2.9809   3.0887   3.8896   3.9119   4.0645   4.0685   4.2341   4.2529
     4.3207   4.3428   4.5014   4.7138   4.7369   4.9201   4.9794   5.1048
     5.1950   5.2130   5.3858   5.3913   5.6258   5.6369   5.6531   5.7058
     5.7206   5.7273   5.7498   5.7604   5.7886   6.1135   6.2290   6.2470
     6.3111   6.3248   6.5451   6.7569   6.8684   6.8720   6.8995   6.9093
     6.9299   6.9442   7.1057   7.1453   7.1926   7.2238   7.2908   7.3527
     7.4725   7.5340   7.5771   7.5874   7.7070   7.7342   7.8101   7.8494
     7.8563   7.9651   7.9729   8.0418   8.0706   8.1019   8.1187   8.2624
     8.2775   8.2818   8.3054   8.3314   8.3873   8.5243   8.5679   8.7318
     8.7865   8.8007   8.8036   8.8594   9.0040   9.1247   9.1414   9.1707
     9.1961   9.2082   9.3136   9.3579   9.3814   9.3873   9.3924   9.5189
     9.5207   9.5254   9.5460   9.5630   9.5943   9.6507   9.6972   9.8004
     9.8380   9.8403   9.8687   9.9045  10.0203  10.0634  10.1822  10.2126
    10.2710  10.2899  10.3159  10.3855  10.4258  10.4314  10.4548  10.4663
    10.5452  10.5532  10.6074  10.6272  10.6983  10.8519  10.9601  10.9649
    11.0148  11.0650  11.0902  11.1019  11.1296  11.1563  11.2194  11.2452
    11.2743  11.3024  11.4317  11.5089  11.5537

     occupation numbers 
     1.0000   1.0000   1.0000   1.0000   1.0000   1.0000   1.0000   1.0000
     1.0000   1.0000   1.0000   1.0000   1.0000   1.0000   1.0000   1.0000
     1.0000   1.0000   1.0000   1.0000   1.0000   1.0000   1.0000   1.0000
     1.0000   1.0000   1.0000   1.0000   1.0000   1.0000   1.0000   1.0000
     1.0000   1.0000   1.0000   1.0000   1.0000   1.0000   1.0000   1.0000
     1.0000   1.0000   1.0000   1.0000   1.0000   1.0000   1.0000   1.0000
     1.0000   1.0000   1.0000   1.0000   1.0000   1.0000   1.0000   1.0000
     1.0000   1.0000   1.0000   1.0000   1.0000   1.0000   1.0000   1.0000
     1.0000   1.0000   1.0000   1.0000   1.0000   1.0000   1.0000   1.0000
     1.0000   1.0000   1.0000   1.0000   1.0000   1.0000   1.0000   1.0000
     1.0000   1.0000   1.0000   1.0000   1.0000   1.0000   1.0000   1.0000
     1.0000   1.0000   1.0000   1.0000   1.0000   1.0000   1.0000   1.0000
     1.0000   1.0000   1.0000   1.0000   1.0000   1.0000   1.0000   1.0000
     1.0000   1.0000   1.0000   1.0000   1.0000   1.0000   1.0000   1.0000
     1.0000   1.0000   1.0000   1.0000   1.0000   1.0000   1.0000   1.0000
     1.0000   1.0000   1.0000   1.0000   1.0000   1.0000   1.0000   1.0000
     1.0000   1.0000   1.0000   1.0000   1.0000   1.0000   1.0000   1.0000
     1.0000   1.0000   1.0000   1.0000   1.0000   1.0000   1.0000   1.0000
     1.0000   1.0000   1.0000   1.0000   1.0000   1.0000   1.0000   1.0000
     1.0000   1.0000   1.0000   1.0000   1.0000   1.0000   1.0000   1.0000
     1.0000   1.0000   1.0000   1.0000   1.0000   1.0000   1.0000   1.0000
     1.0000   1.0000   1.0000   1.0000   1.0000   1.0000   1.0000   1.0000
     1.0000   1.0000   1.0000   1.0000   1.0000   1.0000   1.0000   1.0000
     1.0000   1.0000   1.0000   1.0000   1.0000   1.0000   1.0000   1.0000
     1.0000   1.0000   1.0000   1.0000   1.0000   1.0000   1.0000   1.0000
     1.0000   1.0000   1.0000   1.0000   1.0000   1.0000   1.0000   1.0000
     1.0000   1.0000   1.0000   1.0000   1.0000   1.0000   1.0000   1.0000
     1.0000   1.0000   1.0000   1.0000   1.0000   1.0000   1.0000   1.0000
     1.0000   1.0000   1.0000   1.0000   1.0000   1.0000   1.0000   1.0000
     1.0000   1.0000   1.0000   1.0000   1.0000   1.0000   1.0000   1.0000
     1.0000   1.0000   1.0000   1.0000   1.0000   1.0000   1.0000   1.0000
     1.0000   1.0000   1.0000   1.0000   1.0000   1.0000   1.0000   1.0000
     1.0000   1.0000   1.0000   1.0000   1.0000   1.0000   1.0000   1.0000
     1.0000   1.0000   1.0000   1.0000   1.0000   1.0000   1.0000   1.0000
     1.0000   1.0000   1.0000   1.0000   1.0000   1.0000   1.0000   1.0000
     1.0000   1.0000   1.0000   1.0000   1.0000   1.0000   1.0000   1.0000
     1.0000   1.0000   1.0000   1.0000   1.0000   1.0000   1.0000   1.0000
     1.0000   1.0000   1.0000   1.0000   1.0000   1.0000   1.0000   1.0000
     1.0000   1.0000   1.0000   1.0000   1.0000   1.0000   1.0000   1.0000
     1.0000   1.0000   1.0000   1.0000   1.0000   1.0000   1.0000   1.0000
     1.0000   1.0000   1.0000   1.0000   1.0000   1.0000   1.0000   1.0000
     1.0000   1.0000   1.0000   1.0000   1.0000   1.0000   1.0000   1.0000
     1.0000   1.0000   1.0000   1.0000   1.0000   1.0000   1.0000   1.0000
     1.0000   1.0000   1.0000   1.0000   1.0000   1.0000   1.0000   1.0000
     1.0000   1.0000   1.0000   1.0000   1.0000   1.0000   1.0000   1.0000
     1.0000   1.0000   1.0000   1.0000   1.0000   1.0000   1.0000   1.0000
     1.0000   1.0000   1.0000   1.0000   1.0000   1.0000   1.0000   1.0000
     1.0000   1.0000   1.0000   1.0000   1.0000   1.0000   1.0000   1.0000
     1.0000   1.0000   1.0000   1.0000   1.0000   1.0000   1.0000   1.0000
     1.0000   1.0000   1.0000   1.0000   1.0000   1.0000   1.0000   1.0000
     1.0000   1.0000   1.0000   1.0000   1.0000   1.0000   1.0000   1.0000
     1.0000   1.0000   1.0000   1.0000   1.0000   1.0000   1.0000   1.0000
     1.0000   1.0000   1.0000   1.0000   1.0000   1.0000   1.0000   1.0000
     1.0000   1.0000   1.0000   1.0000   1.0000   1.0000   1.0000   1.0000
     1.0000   1.0000   1.0000   1.0000   1.0000   1.0000   1.0000   1.0000
     1.0000   1.0000   1.0000   1.0000   1.0000   1.0000   1.0000   1.0000
     1.0000   1.0000   1.0000   1.0000   1.0000   1.0000   1.0000   1.0000
     1.0000   1.0000   1.0000   1.0000   1.0000   1.0000   1.0000   1.0000
     1.0000   1.0000   1.0000   1.0000   1.0000   1.0000   1.0000   1.0000
     1.0000   1.0000   1.0000   1.0000   1.0000   1.0000   1.0000   1.0000
     1.0000   1.0000   1.0000   1.0000   1.0000   1.0000   1.0000   1.0000
     1.0000   1.0000   1.0000   1.0000   1.0000   1.0000   1.0000   1.0000
     1.0000   1.0000   1.0000   1.0000   1.0000   1.0000   1.0000   1.0000
     1.0000   1.0000   1.0000   1.0000   1.0000   1.0000   1.0000   1.0000
     1.0000   1.0000   1.0000   1.0000   1.0000   1.0000   1.0000   1.0000
     1.0000   1.0000   1.0000   1.0000   1.0000   1.0000   1.0000   1.0000
     1.0000   1.0000   1.0000   1.0000   1.0000   1.0000   1.0000   1.0000
     1.0000   1.0000   1.0000   1.0000   1.0000   1.0000   1.0000   1.0000
     1.0000   1.0000   1.0000   1.0000   1.0000   1.0000   1.0000   1.0000
     1.0000   1.0000   1.0000   1.0000   1.0000   1.0000   1.0000   1.0000
     1.0000   1.0000   1.0000   1.0000   1.0000   1.0000   1.0000   1.0000
     1.0000   1.0000   1.0000   1.0000   1.0000   1.0000   1.0000   1.0000
     1.0000   1.0000   1.0000   1.0000   1.0000   1.0000   1.0000   1.0000
     1.0000   1.0000   1.0000   1.0000   1.0000   1.0000   1.0000   1.0000
     1.0000   1.0000   1.0000   1.0000   1.0000   1.0000   1.0000   1.0000
     1.0000   1.0000   1.0000   1.0000   1.0000   1.0000   1.0000   1.0000
     1.0000   1.0000   1.0000   1.0000   1.0000   1.0000   1.0000   1.0000
     1.0000   1.0000   1.0000   1.0000   1.0000   1.0000   1.0000   1.0000
     1.0000   1.0000   1.0000   1.0000   1.0000   1.0000   1.0000   1.0000
     1.0000   1.0000   1.0000   1.0000   1.0000   1.0000   1.0000   1.0000
     1.0001   1.0006   0.5772   0.5159   0.1759   0.1697   0.0272   0.0211
     0.0079   0.0056   0.0003   0.0000   0.0000   0.0000   0.0000   0.0000
     0.0000   0.0000   0.0000   0.0000   0.0000   0.0000   0.0000   0.0000
     0.0000   0.0000   0.0000   0.0000   0.0000   0.0000   0.0000   0.0000
     0.0000   0.0000   0.0000   0.0000   0.0000   0.0000   0.0000   0.0000
     0.0000   0.0000   0.0000   0.0000   0.0000   0.0000   0.0000   0.0000
     0.0000   0.0000   0.0000   0.0000   0.0000   0.0000   0.0000   0.0000
     0.0000   0.0000   0.0000   0.0000   0.0000   0.0000   0.0000   0.0000
     0.0000   0.0000   0.0000   0.0000   0.0000   0.0000   0.0000   0.0000
     0.0000   0.0000   0.0000   0.0000   0.0000   0.0000   0.0000   0.0000
     0.0000   0.0000   0.0000   0.0000   0.0000   0.0000   0.0000   0.0000
     0.0000   0.0000   0.0000   0.0000   0.0000   0.0000   0.0000   0.0000
     0.0000   0.0000   0.0000   0.0000   0.0000   0.0000   0.0000   0.0000
     0.0000   0.0000   0.0000   0.0000   0.0000   0.0000   0.0000   0.0000
     0.0000   0.0000   0.0000   0.0000   0.0000   0.0000   0.0000   0.0000
     0.0000   0.0000   0.0000   0.0000   0.0000   0.0000   0.0000   0.0000
     0.0000   0.0000   0.0000   0.0000   0.0000

          k = 0.3333 0.1925 0.0000 ( 42150 PWs)   bands (ev):

  -123.2094-123.2081-123.2079-123.2076-123.2074-123.2072-123.2067-123.2062
  -123.2060-123.2057-123.2054-123.2043-123.2032-123.2020-123.2014-123.1989
  -123.1682-123.1664-123.1654-123.1650-123.1637-123.1625-123.1614-123.1608
  -123.1607-123.1560-123.1556-123.1549-123.1539-123.1313-123.1293-123.1226
  -122.9010-122.9003-122.8993-122.8972-122.8962-122.8960-122.8958-122.8957
  -122.8956-122.8955-122.8953-122.8948-122.8944-122.8942-122.8941-122.8940
  -122.8720-122.8710-122.8693-122.8657-122.8532-122.8524-122.8522-122.8520
  -122.8502-122.8490-122.8485-122.8482-122.8475-122.8465-122.8455-122.6962
   -77.3178 -77.3177 -77.3142 -77.3112 -77.3109 -77.3102 -77.3098 -77.3036
   -77.3034 -77.2987 -77.2953 -77.2951 -77.2946 -77.2941 -77.2938 -77.2930
   -77.2930 -77.2927 -77.2921 -77.2918 -77.2909 -77.2903 -77.2901 -77.2898
   -77.2896 -77.2895 -77.2890 -77.2885 -77.2871 -77.2860 -77.2857 -77.2855
   -77.2853 -77.2835 -77.2834 -77.2831 -77.2821 -77.2815 -77.2801 -77.2791
   -77.2784 -77.2770 -77.2767 -77.2763 -77.2757 -77.2750 -77.2731 -77.2728
   -77.2720 -77.2712 -77.2687 -77.2663 -77.2644 -77.2631 -77.2603 -77.2579
   -77.2565 -77.2517 -77.2514 -77.2501 -77.2493 -77.2489 -77.2485 -77.2482
   -77.2470 -77.2460 -77.2456 -77.2453 -77.2447 -77.2441 -77.2436 -77.2433
   -77.2417 -77.2401 -77.2395 -77.2393 -77.2382 -77.2378 -77.2372 -77.2367
   -77.2349 -77.2341 -77.2310 -77.2303 -77.2298 -77.2280 -77.2277 -77.2215
   -77.2159 -77.2149 -77.2135 -77.2126 -77.2073 -77.2062 -77.2012 -77.1989
   -77.0062 -77.0054 -77.0023 -76.9996 -76.9986 -76.9982 -76.9977 -76.9937
   -76.9930 -76.9918 -76.9916 -76.9915 -76.9896 -76.9895 -76.9892 -76.9885
   -76.9879 -76.9877 -76.9873 -76.9869 -76.9868 -76.9864 -76.9863 -76.9857
   -76.9853 -76.9846 -76.9837 -76.9829 -76.9811 -76.9809 -76.9775 -76.9770
   -76.9734 -76.9730 -76.9721 -76.9717 -76.9710 -76.9696 -76.9690 -76.9668
   -76.9665 -76.9657 -76.9655 -76.9651 -76.9649 -76.9643 -76.9639 -76.9636
   -76.9632 -76.9627 -76.9624 -76.9618 -76.9617 -76.9607 -76.9602 -76.9575
   -76.9568 -76.9535 -76.9521 -76.9493 -76.9479 -76.9470 -76.9467 -76.9459
   -76.9453 -76.9448 -76.9441 -76.9435 -76.9435 -76.9431 -76.9422 -76.9417
   -76.9413 -76.9404 -76.9394 -76.9390 -76.9376 -76.9359 -76.9351 -76.9305
   -76.9293 -76.9274 -76.9260 -76.9249 -76.9236 -76.9224 -76.9216 -76.9202
   -76.9192 -76.9179 -76.9164 -76.9156 -76.9150 -76.7897 -76.7879 -76.7867
   -18.8851  -6.6402  -6.4981  -6.0385  -5.5474  -5.5063  -5.4933  -5.0579
    -4.9883  -4.9448  -4.9322  -4.9147  -4.9079  -4.9045  -4.9019  -4.9011
    -4.8769  -4.8420  -4.8413  -4.7980  -4.7434  -4.7335  -4.7274  -4.7249
    -4.7236  -4.7225  -4.7141  -4.7122  -4.6821  -4.6799  -4.6637  -4.6633
    -4.6595  -4.6589  -4.6358  -4.6159  -4.6141  -4.6013  -4.5832  -4.5825
    -4.5820  -4.5794  -4.5632  -4.5615  -4.5613  -4.5547  -4.5526  -4.5494
    -4.5269  -4.5077  -4.5040  -4.4917  -4.4891  -4.4813  -4.4774  -4.4714
    -4.4621  -4.4535  -4.4531  -4.4319  -4.4193  -4.4174  -4.4028  -4.4018
    -4.3950  -4.3894  -4.3865  -4.3858  -4.3836  -4.3609  -4.3547  -4.3433
    -4.3409  -4.3303  -4.3174  -4.3168  -4.3127  -4.3059  -4.3050  -4.3010
    -4.2980  -4.2850  -4.2801  -4.2734  -4.2657  -4.2622  -4.2582  -4.2560
    -4.2501  -4.2451  -4.2438  -4.2264  -4.2167  -4.2095  -4.2054  -4.1978
    -4.1970  -4.1922  -4.1888  -4.1848  -4.1824  -4.1786  -4.1699  -4.1638
    -4.1604  -4.1545  -4.1467  -4.1451  -4.1430  -4.1398  -4.1380  -4.1334
    -4.1285  -4.1228  -4.1195  -4.1051  -4.1017  -4.0988  -4.0805  -4.0761
    -4.0738  -4.0721  -4.0671  -4.0525  -4.0461  -4.0446  -4.0347  -4.0268
    -4.0221  -4.0164  -4.0118  -4.0097  -4.0048  -4.0030  -4.0004  -3.9916
    -3.9833  -3.9779  -3.9739  -3.9696  -3.9692  -3.9658  -3.9589  -3.9584
    -3.9411  -3.9407  -3.9370  -3.9340  -3.9333  -3.9298  -3.9294  -3.9287
    -3.9263  -3.9238  -3.9212  -3.9163  -3.9006  -3.8944  -3.8929  -3.8890
    -3.8865  -3.8813  -3.8780  -3.8750  -3.8709  -3.8633  -3.8543  -3.8476
    -3.8460  -3.8433  -3.8400  -3.8357  -3.8290  -3.8184  -3.8176  -3.8103
    -3.8090  -3.8080  -3.8057  -3.8018  -3.7889  -3.7873  -3.7705  -3.7638
    -3.7622  -3.7529  -3.7394  -3.7380  -3.7374  -3.7340  -3.7288  -3.7253
    -3.7206  -3.7111  -3.7101  -3.7098  -3.7081  -3.7057  -3.7021  -3.6944
    -3.6918  -3.6885  -3.6853  -3.6843  -3.6764  -3.6739  -3.6669  -3.6664
    -3.6625  -3.6584  -3.6569  -3.6552  -3.6517  -3.6491  -3.6459  -3.6448
    -3.6404  -3.6360  -3.6351  -3.6321  -3.6298  -3.6287  -3.6205  -3.6144
    -3.6102  -3.5973  -3.5948  -3.5903  -3.5780  -3.5726  -3.5708  -3.5621
    -3.5558  -3.5517  -3.5477  -3.5422  -3.5419  -3.5402  -3.5391  -3.5352
    -3.5337  -3.5326  -3.5309  -3.5296  -3.5238  -3.5214  -3.5155  -3.5056
    -3.5030  -3.5004  -3.4994  -3.4983  -3.4949  -3.4932  -3.4924  -3.4871
    -3.4858  -3.4806  -3.4779  -3.4766  -3.4720  -3.4708  -3.4591  -3.4510
    -3.4467  -3.4452  -3.4368  -3.4360  -3.4298  -3.4289  -3.4229  -3.4198
    -3.4166  -3.4141  -3.4085  -3.4046  -3.3993  -3.3950  -3.3921  -3.3896
    -3.3880  -3.3840  -3.3824  -3.3819  -3.3762  -3.3754  -3.3719  -3.3694
    -3.3687  -3.3675  -3.3660  -3.3639  -3.3584  -3.3567  -3.3555  -3.3539
    -3.3512  -3.3488  -3.3461  -3.3398  -3.3379  -3.3344  -3.3335  -3.3283
    -3.3252  -3.3210  -3.3196  -3.3192  -3.3089  -3.3040  -3.2911  -3.2873
    -3.2861  -3.2850  -3.2580  -3.2576  -3.2510  -3.2398  -3.2290  -3.2184
    -3.2159  -3.1783  -3.1372  -3.1165  -3.1159  -3.1099  -3.0768  -3.0724
    -3.0704  -3.0391  -3.0328  -3.0308  -2.9858  -2.8228  -2.7337  -2.4569
    -2.1933  -2.1661  -1.9999  -1.9647  -1.9454  -1.9334  -1.6650  -1.2120
    -0.9478  -0.9197  -0.8890  -0.8670  -0.8241  -0.6988  -0.3253  -0.2819
    -0.1593  -0.1554   0.1603   0.1735   0.1938   0.3269   0.3303   0.3874
     0.4062   0.9594   0.9649   1.2260   1.2307   1.3777   1.4014   1.4147
     1.4527   1.7504   1.7631   1.7791   2.1930   2.2219   2.2251   2.3918
     2.4046   2.4871   2.5005   2.8175   2.8195   2.8775   2.9029   2.9330
     2.9811   3.0887   3.8899   3.9118   4.0645   4.0682   4.2344   4.2530
     4.3202   4.3430   4.5015   4.7141   4.7375   4.9197   4.9795   5.1049
     5.1949   5.2127   5.3857   5.3915   5.6253   5.6372   5.6519   5.7055
     5.7202   5.7274   5.7472   5.7600   5.7915   6.1162   6.2292   6.2469
     6.3113   6.3248   6.5446   6.7534   6.8684   6.8719   6.8975   6.9074
     6.9305   6.9452   7.1057   7.1428   7.1930   7.2254   7.2920   7.3527
     7.4705   7.5495   7.5764   7.5874   7.7074   7.7346   7.8070   7.8483
     7.8559   7.9641   7.9726   8.0420   8.0705   8.1019   8.1189   8.2580
     8.2755   8.2876   8.3072   8.3305   8.3966   8.5246   8.5417   8.7412
     8.7870   8.8008   8.8040   8.8594   9.0046   9.1263   9.1432   9.1636
     9.1964   9.2068   9.3146   9.3568   9.3817   9.3889   9.3946   9.5187
     9.5216   9.5251   9.5439   9.5548   9.6028   9.6529   9.6981   9.7938
     9.8389   9.8405   9.8699   9.9157  10.0103  10.0650  10.1887  10.2035
    10.2700  10.2953  10.3166  10.3820  10.4262  10.4328  10.4534  10.4669
    10.5448  10.5531  10.6070  10.6271  10.6970  10.8607  10.9557  10.9716
    11.0154  11.0686  11.0906  11.1005  11.1291  11.1654  11.2170  11.2468
    11.2767  11.3028  11.4321  11.5066  11.5571

     occupation numbers 
     1.0000   1.0000   1.0000   1.0000   1.0000   1.0000   1.0000   1.0000
     1.0000   1.0000   1.0000   1.0000   1.0000   1.0000   1.0000   1.0000
     1.0000   1.0000   1.0000   1.0000   1.0000   1.0000   1.0000   1.0000
     1.0000   1.0000   1.0000   1.0000   1.0000   1.0000   1.0000   1.0000
     1.0000   1.0000   1.0000   1.0000   1.0000   1.0000   1.0000   1.0000
     1.0000   1.0000   1.0000   1.0000   1.0000   1.0000   1.0000   1.0000
     1.0000   1.0000   1.0000   1.0000   1.0000   1.0000   1.0000   1.0000
     1.0000   1.0000   1.0000   1.0000   1.0000   1.0000   1.0000   1.0000
     1.0000   1.0000   1.0000   1.0000   1.0000   1.0000   1.0000   1.0000
     1.0000   1.0000   1.0000   1.0000   1.0000   1.0000   1.0000   1.0000
     1.0000   1.0000   1.0000   1.0000   1.0000   1.0000   1.0000   1.0000
     1.0000   1.0000   1.0000   1.0000   1.0000   1.0000   1.0000   1.0000
     1.0000   1.0000   1.0000   1.0000   1.0000   1.0000   1.0000   1.0000
     1.0000   1.0000   1.0000   1.0000   1.0000   1.0000   1.0000   1.0000
     1.0000   1.0000   1.0000   1.0000   1.0000   1.0000   1.0000   1.0000
     1.0000   1.0000   1.0000   1.0000   1.0000   1.0000   1.0000   1.0000
     1.0000   1.0000   1.0000   1.0000   1.0000   1.0000   1.0000   1.0000
     1.0000   1.0000   1.0000   1.0000   1.0000   1.0000   1.0000   1.0000
     1.0000   1.0000   1.0000   1.0000   1.0000   1.0000   1.0000   1.0000
     1.0000   1.0000   1.0000   1.0000   1.0000   1.0000   1.0000   1.0000
     1.0000   1.0000   1.0000   1.0000   1.0000   1.0000   1.0000   1.0000
     1.0000   1.0000   1.0000   1.0000   1.0000   1.0000   1.0000   1.0000
     1.0000   1.0000   1.0000   1.0000   1.0000   1.0000   1.0000   1.0000
     1.0000   1.0000   1.0000   1.0000   1.0000   1.0000   1.0000   1.0000
     1.0000   1.0000   1.0000   1.0000   1.0000   1.0000   1.0000   1.0000
     1.0000   1.0000   1.0000   1.0000   1.0000   1.0000   1.0000   1.0000
     1.0000   1.0000   1.0000   1.0000   1.0000   1.0000   1.0000   1.0000
     1.0000   1.0000   1.0000   1.0000   1.0000   1.0000   1.0000   1.0000
     1.0000   1.0000   1.0000   1.0000   1.0000   1.0000   1.0000   1.0000
     1.0000   1.0000   1.0000   1.0000   1.0000   1.0000   1.0000   1.0000
     1.0000   1.0000   1.0000   1.0000   1.0000   1.0000   1.0000   1.0000
     1.0000   1.0000   1.0000   1.0000   1.0000   1.0000   1.0000   1.0000
     1.0000   1.0000   1.0000   1.0000   1.0000   1.0000   1.0000   1.0000
     1.0000   1.0000   1.0000   1.0000   1.0000   1.0000   1.0000   1.0000
     1.0000   1.0000   1.0000   1.0000   1.0000   1.0000   1.0000   1.0000
     1.0000   1.0000   1.0000   1.0000   1.0000   1.0000   1.0000   1.0000
     1.0000   1.0000   1.0000   1.0000   1.0000   1.0000   1.0000   1.0000
     1.0000   1.0000   1.0000   1.0000   1.0000   1.0000   1.0000   1.0000
     1.0000   1.0000   1.0000   1.0000   1.0000   1.0000   1.0000   1.0000
     1.0000   1.0000   1.0000   1.0000   1.0000   1.0000   1.0000   1.0000
     1.0000   1.0000   1.0000   1.0000   1.0000   1.0000   1.0000   1.0000
     1.0000   1.0000   1.0000   1.0000   1.0000   1.0000   1.0000   1.0000
     1.0000   1.0000   1.0000   1.0000   1.0000   1.0000   1.0000   1.0000
     1.0000   1.0000   1.0000   1.0000   1.0000   1.0000   1.0000   1.0000
     1.0000   1.0000   1.0000   1.0000   1.0000   1.0000   1.0000   1.0000
     1.0000   1.0000   1.0000   1.0000   1.0000   1.0000   1.0000   1.0000
     1.0000   1.0000   1.0000   1.0000   1.0000   1.0000   1.0000   1.0000
     1.0000   1.0000   1.0000   1.0000   1.0000   1.0000   1.0000   1.0000
     1.0000   1.0000   1.0000   1.0000   1.0000   1.0000   1.0000   1.0000
     1.0000   1.0000   1.0000   1.0000   1.0000   1.0000   1.0000   1.0000
     1.0000   1.0000   1.0000   1.0000   1.0000   1.0000   1.0000   1.0000
     1.0000   1.0000   1.0000   1.0000   1.0000   1.0000   1.0000   1.0000
     1.0000   1.0000   1.0000   1.0000   1.0000   1.0000   1.0000   1.0000
     1.0000   1.0000   1.0000   1.0000   1.0000   1.0000   1.0000   1.0000
     1.0000   1.0000   1.0000   1.0000   1.0000   1.0000   1.0000   1.0000
     1.0000   1.0000   1.0000   1.0000   1.0000   1.0000   1.0000   1.0000
     1.0000   1.0000   1.0000   1.0000   1.0000   1.0000   1.0000   1.0000
     1.0000   1.0000   1.0000   1.0000   1.0000   1.0000   1.0000   1.0000
     1.0000   1.0000   1.0000   1.0000   1.0000   1.0000   1.0000   1.0000
     1.0000   1.0000   1.0000   1.0000   1.0000   1.0000   1.0000   1.0000
     1.0000   1.0000   1.0000   1.0000   1.0000   1.0000   1.0000   1.0000
     1.0000   1.0000   1.0000   1.0000   1.0000   1.0000   1.0000   1.0000
     1.0000   1.0000   1.0000   1.0000   1.0000   1.0000   1.0000   1.0000
     1.0000   1.0000   1.0000   1.0000   1.0000   1.0000   1.0000   1.0000
     1.0000   1.0000   1.0000   1.0000   1.0000   1.0000   1.0000   1.0000
     1.0000   1.0000   1.0000   1.0000   1.0000   1.0000   1.0000   1.0000
     1.0000   1.0000   1.0000   1.0000   1.0000   1.0000   1.0000   1.0000
     1.0000   1.0000   1.0000   1.0000   1.0000   1.0000   1.0000   1.0000
     1.0000   1.0000   1.0000   1.0000   1.0000   1.0000   1.0000   1.0000
     1.0000   1.0000   1.0000   1.0000   1.0000   1.0000   1.0000   1.0000
     1.0000   1.0000   1.0000   1.0000   1.0000   1.0000   1.0000   1.0000
     1.0000   1.0000   1.0000   1.0000   1.0000   1.0000   1.0000   1.0000
     1.0000   1.0000   1.0000   1.0000   1.0000   1.0000   1.0000   1.0000
     1.0000   1.0000   1.0000   1.0000   1.0000   1.0000   1.0000   1.0000
     1.0000   1.0000   1.0000   1.0000   1.0000   1.0000   1.0000   1.0000
     1.0000   1.0000   1.0000   1.0000   1.0000   1.0000   1.0000   1.0000
     1.0000   1.0000   1.0000   1.0000   1.0000   1.0000   1.0000   1.0000
     1.0000   1.0000   1.0000   1.0000   1.0000   1.0000   1.0000   1.0000
     1.0000   1.0000   1.0000   1.0000   1.0000   1.0000   1.0000   1.0000
     1.0000   1.0000   1.0000   1.0000   1.0000   1.0000   1.0000   1.0000
     1.0001   1.0006   0.5764   0.5162   0.1758   0.1701   0.0271   0.0211
     0.0079   0.0056   0.0003   0.0000   0.0000   0.0000   0.0000   0.0000
     0.0000   0.0000   0.0000   0.0000   0.0000   0.0000   0.0000   0.0000
     0.0000   0.0000   0.0000   0.0000   0.0000   0.0000   0.0000   0.0000
     0.0000   0.0000   0.0000   0.0000   0.0000   0.0000   0.0000   0.0000
     0.0000   0.0000   0.0000   0.0000   0.0000   0.0000   0.0000   0.0000
     0.0000   0.0000   0.0000   0.0000   0.0000   0.0000   0.0000   0.0000
     0.0000   0.0000   0.0000   0.0000   0.0000   0.0000   0.0000   0.0000
     0.0000   0.0000   0.0000   0.0000   0.0000   0.0000   0.0000   0.0000
     0.0000   0.0000   0.0000   0.0000   0.0000   0.0000   0.0000   0.0000
     0.0000   0.0000   0.0000   0.0000   0.0000   0.0000   0.0000   0.0000
     0.0000   0.0000   0.0000   0.0000   0.0000   0.0000   0.0000   0.0000
     0.0000   0.0000   0.0000   0.0000   0.0000   0.0000   0.0000   0.0000
     0.0000   0.0000   0.0000   0.0000   0.0000   0.0000   0.0000   0.0000
     0.0000   0.0000   0.0000   0.0000   0.0000   0.0000   0.0000   0.0000
     0.0000   0.0000   0.0000   0.0000   0.0000   0.0000   0.0000   0.0000
     0.0000   0.0000   0.0000   0.0000   0.0000

          k = 0.3333 0.5774 0.0000 ( 42123 PWs)   bands (ev):

  -123.2087-123.2084-123.2081-123.2077-123.2075-123.2072-123.2067-123.2061
  -123.2060-123.2056-123.2053-123.2042-123.2031-123.2020-123.2013-123.1988
  -123.1681-123.1663-123.1653-123.1651-123.1636-123.1624-123.1614-123.1607
  -123.1606-123.1560-123.1555-123.1547-123.1539-123.1312-123.1293-123.1226
  -122.9009-122.9003-122.8992-122.8967-122.8966-122.8963-122.8958-122.8957
  -122.8956-122.8955-122.8950-122.8947-122.8945-122.8942-122.8939-122.8936
  -122.8719-122.8709-122.8692-122.8656-122.8529-122.8525-122.8521-122.8520
  -122.8502-122.8490-122.8484-122.8483-122.8473-122.8464-122.8454-122.6961
   -77.3156 -77.3143 -77.3142 -77.3079 -77.3078 -77.3068 -77.3061 -77.3054
   -77.3053 -77.3000 -77.2997 -77.2955 -77.2953 -77.2949 -77.2946 -77.2941
   -77.2940 -77.2929 -77.2928 -77.2916 -77.2907 -77.2904 -77.2901 -77.2895
   -77.2891 -77.2890 -77.2888 -77.2886 -77.2879 -77.2871 -77.2862 -77.2845
   -77.2838 -77.2835 -77.2834 -77.2827 -77.2814 -77.2812 -77.2811 -77.2803
   -77.2796 -77.2791 -77.2781 -77.2769 -77.2767 -77.2717 -77.2703 -77.2699
   -77.2696 -77.2682 -77.2670 -77.2635 -77.2618 -77.2614 -77.2599 -77.2581
   -77.2575 -77.2522 -77.2515 -77.2504 -77.2500 -77.2491 -77.2487 -77.2484
   -77.2481 -77.2471 -77.2467 -77.2458 -77.2452 -77.2440 -77.2437 -77.2427
   -77.2412 -77.2403 -77.2395 -77.2385 -77.2378 -77.2375 -77.2370 -77.2368
   -77.2356 -77.2331 -77.2322 -77.2314 -77.2298 -77.2278 -77.2271 -77.2193
   -77.2164 -77.2150 -77.2130 -77.2120 -77.2076 -77.2059 -77.2007 -77.1985
   -77.0032 -77.0029 -77.0017 -76.9958 -76.9956 -76.9945 -76.9944 -76.9942
   -76.9938 -76.9932 -76.9928 -76.9917 -76.9906 -76.9902 -76.9899 -76.9888
   -76.9882 -76.9881 -76.9880 -76.9869 -76.9867 -76.9867 -76.9863 -76.9856
   -76.9850 -76.9848 -76.9836 -76.9829 -76.9828 -76.9819 -76.9771 -76.9770
   -76.9767 -76.9723 -76.9712 -76.9711 -76.9699 -76.9693 -76.9685 -76.9681
   -76.9675 -76.9672 -76.9669 -76.9664 -76.9661 -76.9655 -76.9646 -76.9642
   -76.9625 -76.9612 -76.9606 -76.9585 -76.9583 -76.9578 -76.9575 -76.9573
   -76.9551 -76.9522 -76.9514 -76.9494 -76.9484 -76.9479 -76.9465 -76.9460
   -76.9456 -76.9452 -76.9445 -76.9441 -76.9434 -76.9424 -76.9421 -76.9421
   -76.9409 -76.9406 -76.9397 -76.9389 -76.9375 -76.9347 -76.9341 -76.9321
   -76.9309 -76.9275 -76.9265 -76.9257 -76.9239 -76.9235 -76.9217 -76.9203
   -76.9196 -76.9180 -76.9147 -76.9140 -76.9131 -76.7893 -76.7877 -76.7866
   -18.8851  -6.4977  -6.2392  -6.2362  -6.2194  -5.2074  -5.2056  -5.1823
    -4.8581  -4.8566  -4.8562  -4.8556  -4.8552  -4.8550  -4.8460  -4.8443
    -4.8439  -4.7967  -4.7963  -4.7924  -4.7798  -4.7789  -4.7771  -4.7765
    -4.7732  -4.7702  -4.7436  -4.7426  -4.7412  -4.6971  -4.6962  -4.6919
    -4.6917  -4.6913  -4.6683  -4.6611  -4.6603  -4.6593  -4.6565  -4.6547
    -4.6486  -4.6401  -4.6346  -4.6339  -4.5121  -4.5115  -4.5103  -4.5014
    -4.4668  -4.4663  -4.4660  -4.4459  -4.4456  -4.4451  -4.4442  -4.4442
    -4.4436  -4.4330  -4.4327  -4.4300  -4.4160  -4.4121  -4.4109  -4.4093
    -4.4091  -4.4058  -4.4045  -4.3996  -4.3955  -4.3953  -4.3911  -4.3516
    -4.3506  -4.3498  -4.3390  -4.3369  -4.3353  -4.3293  -4.3253  -4.3245
    -4.3224  -4.3106  -4.3027  -4.2996  -4.2995  -4.2950  -4.2638  -4.2564
    -4.2511  -4.2505  -4.2493  -4.2481  -4.2477  -4.2421  -4.2326  -4.2306
    -4.2297  -4.2036  -4.2035  -4.2025  -4.2009  -4.1974  -4.1955  -4.1920
    -4.1898  -4.1874  -4.1655  -4.1642  -4.1614  -4.1562  -4.1531  -4.1525
    -4.1401  -4.1373  -4.1022  -4.1004  -4.0929  -4.0459  -4.0431  -4.0416
    -4.0197  -4.0195  -4.0130  -4.0126  -4.0124  -4.0109  -4.0101  -4.0088
    -4.0083  -4.0082  -4.0069  -4.0014  -3.9992  -3.9950  -3.9922  -3.9911
    -3.9828  -3.9821  -3.9803  -3.9777  -3.9712  -3.9702  -3.9612  -3.9607
    -3.9590  -3.9534  -3.9525  -3.9348  -3.9345  -3.9342  -3.9311  -3.9307
[...]
     atom   42 type  1   force =     0.00000000    0.00000000    0.00000000
     atom   43 type  1   force =     0.00000000    0.00000000    0.00000000
     atom   44 type  1   force =     0.00000000    0.00000000    0.00000000
     atom   45 type  1   force =     0.00000000    0.00000000    0.00000000
     atom   46 type  1   force =     0.00000000    0.00000000    0.00000000
     atom   47 type  1   force =     0.00000000    0.00000000    0.00000000
     atom   48 type  1   force =     0.00000000    0.00000000    0.00000000
     atom   49 type  1   force =     0.00000000    0.00000000    0.00000000
     atom   50 type  1   force =     0.00000000    0.00000000    0.00000000
     atom   51 type  1   force =     0.00000000    0.00000000    0.00000000
     atom   52 type  1   force =     0.00000000    0.00000000    0.00000000
     atom   53 type  1   force =     0.00000000    0.00000000    0.00000000
     atom   54 type  1   force =     0.00000000    0.00000000    0.00000000
     atom   55 type  1   force =     0.00000000    0.00000000    0.00000000
     atom   56 type  1   force =     0.00000000    0.00000000    0.00000000
     atom   57 type  1   force =     0.00000000    0.00000000    0.00000000
     atom   58 type  1   force =     0.00000000    0.00000000    0.00000000
     atom   59 type  1   force =     0.00000000    0.00000000    0.00000000
     atom   60 type  1   force =     0.00000000    0.00000000    0.00000000
     atom   61 type  1   force =     0.00000000    0.00000000    0.00000000
     atom   62 type  1   force =     0.00000000    0.00000000    0.00000000
     atom   63 type  1   force =     0.00000000    0.00000000    0.00000000
     atom   64 type  1   force =     0.00000000    0.00000000    0.00000000
     atom   65 type  2   force =    -0.01811067    0.01217241   -0.00824038
     atom   66 type  3   force =     0.00000000    0.00000000    0.00000000
     atom   67 type  3   force =     0.00000000    0.00000000    0.00000000
     The Hubbard contrib.    to forces
     atom    1 type  1   force =     0.00000000    0.00000000    0.00000000
     atom    2 type  1   force =     0.00000000    0.00000000    0.00000000
     atom    3 type  1   force =     0.00000000    0.00000000    0.00000000
     atom    4 type  1   force =     0.00000000    0.00000000    0.00000000
     atom    5 type  1   force =     0.00000000    0.00000000    0.00000000
     atom    6 type  1   force =     0.00000000    0.00000000    0.00000000
     atom    7 type  1   force =     0.00000000    0.00000000    0.00000000
     atom    8 type  1   force =     0.00000000    0.00000000    0.00000000
     atom    9 type  1   force =     0.00000000    0.00000000    0.00000000
     atom   10 type  1   force =     0.00000000    0.00000000    0.00000000
     atom   11 type  1   force =     0.00000000    0.00000000    0.00000000
     atom   12 type  1   force =     0.00000000    0.00000000    0.00000000
     atom   13 type  1   force =     0.00000000    0.00000000    0.00000000
     atom   14 type  1   force =     0.00000000    0.00000000    0.00000000
     atom   15 type  1   force =     0.00000000    0.00000000    0.00000000
     atom   16 type  1   force =     0.00000000    0.00000000    0.00000000
     atom   17 type  1   force =     0.00000000    0.00000000    0.00000000
     atom   18 type  1   force =     0.00000000    0.00000000    0.00000000
     atom   19 type  1   force =     0.00000000    0.00000000    0.00000000
     atom   20 type  1   force =     0.00000000    0.00000000    0.00000000
     atom   21 type  1   force =     0.00000000    0.00000000    0.00000000
     atom   22 type  1   force =     0.00000000    0.00000000    0.00000000
     atom   23 type  1   force =     0.00000000    0.00000000    0.00000000
     atom   24 type  1   force =     0.00000000    0.00000000    0.00000000
     atom   25 type  1   force =     0.00000000    0.00000000    0.00000000
     atom   26 type  1   force =     0.00000000    0.00000000    0.00000000
     atom   27 type  1   force =     0.00000000    0.00000000    0.00000000
     atom   28 type  1   force =     0.00000000    0.00000000    0.00000000
     atom   29 type  1   force =     0.00000000    0.00000000    0.00000000
     atom   30 type  1   force =     0.00000000    0.00000000    0.00000000
     atom   31 type  1   force =     0.00000000    0.00000000    0.00000000
     atom   32 type  1   force =     0.00000000    0.00000000    0.00000000
     atom   33 type  1   force =     0.00000000    0.00000000    0.00000000
     atom   34 type  1   force =     0.00000000    0.00000000    0.00000000
     atom   35 type  1   force =     0.00000000    0.00000000    0.00000000
     atom   36 type  1   force =     0.00000000    0.00000000    0.00000000
     atom   37 type  1   force =     0.00000000    0.00000000    0.00000000
     atom   38 type  1   force =     0.00000000    0.00000000    0.00000000
     atom   39 type  1   force =     0.00000000    0.00000000    0.00000000
     atom   40 type  1   force =     0.00000000    0.00000000    0.00000000
     atom   41 type  1   force =     0.00000000    0.00000000    0.00000000
     atom   42 type  1   force =     0.00000000    0.00000000    0.00000000
     atom   43 type  1   force =     0.00000000    0.00000000    0.00000000
     atom   44 type  1   force =     0.00000000    0.00000000    0.00000000
     atom   45 type  1   force =     0.00000000    0.00000000    0.00000000
     atom   46 type  1   force =     0.00000000    0.00000000    0.00000000
     atom   47 type  1   force =     0.00000000    0.00000000    0.00000000
     atom   48 type  1   force =     0.00000000    0.00000000    0.00000000
     atom   49 type  1   force =     0.00000000    0.00000000    0.00000000
     atom   50 type  1   force =     0.00000000    0.00000000    0.00000000
     atom   51 type  1   force =     0.00000000    0.00000000    0.00000000
     atom   52 type  1   force =     0.00000000    0.00000000    0.00000000
     atom   53 type  1   force =     0.00000000    0.00000000    0.00000000
     atom   54 type  1   force =     0.00000000    0.00000000    0.00000000
     atom   55 type  1   force =     0.00000000    0.00000000    0.00000000
     atom   56 type  1   force =     0.00000000    0.00000000    0.00000000
     atom   57 type  1   force =     0.00000000    0.00000000    0.00000000
     atom   58 type  1   force =     0.00000000    0.00000000    0.00000000
     atom   59 type  1   force =     0.00000000    0.00000000    0.00000000
     atom   60 type  1   force =     0.00000000    0.00000000    0.00000000
     atom   61 type  1   force =     0.00000000    0.00000000    0.00000000
     atom   62 type  1   force =     0.00000000    0.00000000    0.00000000
     atom   63 type  1   force =     0.00000000    0.00000000    0.00000000
     atom   64 type  1   force =     0.00000000    0.00000000    0.00000000
     atom   65 type  2   force =     0.00000000    0.00000000    0.00000000
     atom   66 type  3   force =     0.00000000    0.00000000    0.00000000
     atom   67 type  3   force =     0.00000000    0.00000000    0.00000000
     The SCF correction term to forces
     atom    1 type  1   force =     0.00000055   -0.00001114    0.00002846
     atom    2 type  1   force =     0.00000285    0.00001903    0.00003698
     atom    3 type  1   force =     0.00000281   -0.00008489   -0.00001952
     atom    4 type  1   force =     0.00000160    0.00007146   -0.00001271
     atom    5 type  1   force =    -0.00002168   -0.00002477    0.00001204
     atom    6 type  1   force =     0.00002119   -0.00001599    0.00002565
     atom    7 type  1   force =    -0.00008349   -0.00009766   -0.00004699
     atom    8 type  1   force =     0.00009195   -0.00006026   -0.00002510
     atom    9 type  1   force =    -0.00003032    0.00000048    0.00001442
     atom   10 type  1   force =     0.00002656   -0.00000382    0.00000357
     atom   11 type  1   force =    -0.00012803    0.00001358   -0.00002727
     atom   12 type  1   force =     0.00011366    0.00000488   -0.00004993
     atom   13 type  1   force =    -0.00000292    0.00000515    0.00003442
     atom   14 type  1   force =     0.00000753    0.00003325    0.00000880
     atom   15 type  1   force =    -0.00003546    0.00002786   -0.00000098
     atom   16 type  1   force =     0.00003739    0.00012426   -0.00004504
     atom   17 type  1   force =     0.00000640   -0.00000426    0.00003176
     atom   18 type  1   force =    -0.00001016    0.00000925    0.00003486
     atom   19 type  1   force =     0.00001263   -0.00003474   -0.00001586
     atom   20 type  1   force =    -0.00001696    0.00001576   -0.00001428
     atom   21 type  1   force =     0.00001381   -0.00002667    0.00000648
     atom   22 type  1   force =    -0.00001228   -0.00001380    0.00003688
     atom   23 type  1   force =     0.00004713   -0.00011154   -0.00005164
     atom   24 type  1   force =    -0.00005575   -0.00004091   -0.00001377
     atom   25 type  1   force =    -0.00000546   -0.00000024   -0.00001267
     atom   26 type  1   force =     0.00001053   -0.00000500    0.00002755
     atom   27 type  1   force =    -0.00002697    0.00000902   -0.00006790
     atom   28 type  1   force =     0.00004224    0.00000309   -0.00001441
     atom   29 type  1   force =    -0.00001826    0.00002778    0.00001448
     atom   30 type  1   force =     0.00001270    0.00001026    0.00002443
     atom   31 type  1   force =    -0.00008167    0.00010861   -0.00002643
     atom   32 type  1   force =     0.00008027    0.00005075   -0.00001672
     atom   33 type  1   force =    -0.00000175   -0.00001651    0.00003030
     atom   34 type  1   force =     0.00000366    0.00006359    0.00001269
     atom   35 type  1   force =    -0.00000505   -0.00003662   -0.00002563
     atom   36 type  1   force =     0.00000651    0.00008896   -0.00001511
     atom   37 type  1   force =    -0.00000931   -0.00006822   -0.00001134
     atom   38 type  1   force =     0.00001288   -0.00000981    0.00003100
     atom   39 type  1   force =    -0.00000330   -0.00009814    0.00003487
     atom   40 type  1   force =     0.00001823   -0.00001334   -0.00003694
     atom   41 type  1   force =    -0.00005637   -0.00002718   -0.00003572
     atom   42 type  1   force =     0.00006243   -0.00002129    0.00000495
     atom   43 type  1   force =    -0.00007849   -0.00002650    0.00005396
     atom   44 type  1   force =     0.00007961   -0.00002362    0.00002165
     atom   45 type  1   force =    -0.00006173    0.00003793    0.00000204
     atom   46 type  1   force =     0.00005155    0.00004374   -0.00001537
     atom   47 type  1   force =    -0.00009387    0.00005637   -0.00000545
     atom   48 type  1   force =     0.00008198    0.00005368    0.00003795
     atom   49 type  1   force =    -0.00001352    0.00004806    0.00001626
     atom   50 type  1   force =     0.00001144    0.00000207    0.00002626
     atom   51 type  1   force =    -0.00002257    0.00005571   -0.00002169
     atom   52 type  1   force =     0.00002065   -0.00000600   -0.00002114
     atom   53 type  1   force =     0.00004190   -0.00005105    0.00000666
     atom   54 type  1   force =    -0.00004622   -0.00003357    0.00001445
     atom   55 type  1   force =     0.00005411   -0.00006323    0.00001915
     atom   56 type  1   force =    -0.00006756   -0.00004870   -0.00001564
     atom   57 type  1   force =     0.00003286   -0.00002763   -0.00004619
     atom   58 type  1   force =    -0.00004084   -0.00001672    0.00001480
     atom   59 type  1   force =     0.00004873   -0.00003541    0.00009496
     atom   60 type  1   force =    -0.00005331   -0.00001101   -0.00001872
     atom   61 type  1   force =    -0.00001190    0.00006042   -0.00003757
     atom   62 type  1   force =     0.00002153    0.00001685    0.00002800
     atom   63 type  1   force =    -0.00002301    0.00008013    0.00005449
     atom   64 type  1   force =     0.00003477    0.00002844   -0.00002267
     atom   65 type  2   force =     0.00000550   -0.00000409    0.00000592
     atom   66 type  3   force =     0.00000046   -0.00000050    0.00000048
     atom   67 type  3   force =     0.00000062   -0.00000031    0.00000050

     Total force =     0.066096     Total SCF correction =     0.000586


     Computing stress (Cartesian axis) and pressure


     negative rho (up, down):  1.313E-02 0.000E+00
          total   stress  (Ry/bohr**3)                   (kbar)     P=     -303.15
  -0.00206440   0.00000070   0.00000079         -303.68        0.10        0.12
   0.00000070  -0.00206379  -0.00000022            0.10     -303.59       -0.03
   0.00000079  -0.00000022  -0.00205415            0.12       -0.03     -302.18

     kinetic stress (kbar)  16843.14     -6.78     -5.79
                               -6.78  16836.97      2.83
                               -5.79      2.83  16938.25

     local   stress (kbar)**********    -17.10    -38.31
                              -17.10**********     35.05
                              -38.31     35.051607789.05

     nonloc. stress (kbar)  -1993.32      0.06     -0.21
                                0.06  -1993.29      0.10
                               -0.21      0.10  -2048.14

     hartree stress (kbar) 830971.61      3.16     13.10
                                3.16 830975.46    -13.60
                               13.10    -13.60-756637.33

     exc-cor stress (kbar)  -8395.58      0.08      0.08
                                0.08  -8395.51     -0.04
                                0.08     -0.04  -8405.56

     corecor stress (kbar)     -3.91      0.01      0.01
                                0.01     -3.90     -0.01
                                0.01     -0.01     -4.04

     ewald   stress (kbar) 751350.37     20.67     31.24
                               20.67 751370.37    -24.37
                               31.24    -24.37-857934.40

     hubbard stress (kbar)      0.00      0.00      0.00
                                0.00      0.00      0.00
                                0.00      0.00      0.00

     DFT-D   stress (kbar)      0.00      0.00      0.00
                                0.00      0.00      0.00
                                0.00      0.00      0.00

     XDM     stress (kbar)      0.00      0.00      0.00
                                0.00      0.00      0.00
                                0.00      0.00      0.00

     dft-nl  stress (kbar)      0.00      0.00      0.00
                                0.00      0.00      0.00
                                0.00      0.00      0.00

     TS-vdW  stress (kbar)      0.00      0.00      0.00
                                0.00      0.00      0.00
                                0.00      0.00      0.00

     MDB     stress (kbar)      0.00      0.00      0.00
                                0.00      0.00      0.00
                                0.00      0.00      0.00

     3D-RISM stress (kbar)      0.00      0.00      0.00
                                0.00      0.00      0.00
                                0.00      0.00      0.00


     Writing all to output data dir ./tmp/Zn002_optimized_topsite_H2O_scf.save/ :
     XML data file, charge density, pseudopotentials, collected wavefunctions

     init_run     :     64.47s CPU     64.98s WALL (       1 calls)
     electrons    :   4700.29s CPU   4745.10s WALL (       1 calls)
     forces       :     55.46s CPU     55.80s WALL (       1 calls)
     stress       :    151.76s CPU    152.32s WALL (       1 calls)

     Called by init_run:
     wfcinit      :     64.00s CPU     64.49s WALL (       1 calls)
     wfcinit:atom :      0.03s CPU      0.05s WALL (       5 calls)
     wfcinit:wfcr :     63.50s CPU     63.92s WALL (       5 calls)
     potinit      :      0.05s CPU      0.06s WALL (       1 calls)
     hinit0       :      0.03s CPU      0.04s WALL (       1 calls)

     Called by electrons:
     c_bands      :   4422.21s CPU   4465.39s WALL (      18 calls)
     sum_band     :    271.31s CPU    272.87s WALL (      18 calls)
     v_of_rho     :      0.31s CPU      0.33s WALL (      19 calls)
     v_h          :      0.01s CPU      0.02s WALL (      19 calls)
     v_xc         :      0.33s CPU      0.35s WALL (      21 calls)
     newd         :      6.05s CPU      6.09s WALL (      19 calls)
     PAW_pot      :      0.64s CPU      0.64s WALL (      19 calls)
     mix_rho      :      0.09s CPU      0.09s WALL (      18 calls)

     Called by c_bands:
     init_us_2    :      3.20s CPU      3.22s WALL (     195 calls)
     cegterg      :   4415.87s CPU   4458.97s WALL (      90 calls)

     Called by sum_band:
     sum_band:wei :      0.08s CPU      0.08s WALL (      18 calls)
     sum_band:loo :    266.21s CPU    267.73s WALL (      18 calls)
     sum_band:buf :      0.66s CPU      0.66s WALL (      90 calls)
     sum_band:ini :      1.48s CPU      1.49s WALL (      90 calls)
     sum_band:cal :    240.28s CPU    241.61s WALL (      90 calls)
     sum_band:bec :      3.29s CPU      3.30s WALL (      90 calls)
     addusdens    :      4.63s CPU      4.65s WALL (      18 calls)
                                        0.00s GPU  (      18 calls)
     addusd:skk   :      0.06s CPU      0.06s WALL (      54 calls)
                                        0.00s GPU  (      54 calls)

     Called by *egterg:
     cdiaghg      :    552.46s CPU    574.79s WALL (     519 calls)
     cegterg:over :    693.86s CPU    696.39s WALL (     429 calls)
     cegterg:upda :    288.58s CPU    290.29s WALL (     429 calls)
     cegterg:last :    992.23s CPU    999.86s WALL (     186 calls)
     cdiaghg:chol :     39.40s CPU     39.50s WALL (     519 calls)
     cdiaghg:inve :      5.99s CPU      6.01s WALL (     519 calls)
     cdiaghg:para :    177.87s CPU    180.43s WALL (    1038 calls)
     h_psi        :   1232.54s CPU   1239.09s WALL (     524 calls)
     s_psi        :    531.62s CPU    532.88s WALL (     524 calls)
     g_psi        :      0.45s CPU      0.46s WALL (     429 calls)

     Called by h_psi:
     h_psi:calbec :    590.43s CPU    593.76s WALL (     524 calls)
     vloc_psi     :     99.60s CPU    100.49s WALL (     524 calls)
     add_vuspsi   :    541.33s CPU    542.95s WALL (     524 calls)

     General routines
     calbec       :    897.63s CPU    902.69s WALL (     639 calls)
     fft          :      0.45s CPU      0.48s WALL (     234 calls)
     ffts         :      0.01s CPU      0.01s WALL (      18 calls)
     fftw         :    111.75s CPU    112.76s WALL (  410544 calls)

     Parallel routines

     PAW routines
     PAW_pot      :      0.64s CPU      0.64s WALL (      19 calls)

     PWSCF        :      1h22m CPU      1h23m WALL


   This run was terminated on:  19:13:48  24Mar2025            

=------------------------------------------------------------------------------=
   JOB DONE.
=------------------------------------------------------------------------------=
Note: The following floating-point exceptions are signalling: IEEE_DENORMAL
Note: The following floating-point exceptions are signalling: IEEE_DENORMAL
Note: The following floating-point exceptions are signalling: IEEE_DENORMAL
Note: The following floating-point exceptions are signalling: IEEE_DENORMAL
Note: The following floating-point exceptions are signalling: IEEE_DENORMAL
Note: The following floating-point exceptions are signalling: IEEE_DENORMAL
Note: The following floating-point exceptions are signalling: IEEE_DENORMAL
Note: The following floating-point exceptions are signalling: IEEE_DENORMAL
Note: The following floating-point exceptions are signalling: IEEE_DENORMAL
Note: The following floating-point exceptions are signalling: IEEE_DENORMAL
Note: The following floating-point exceptions are signalling: IEEE_DENORMAL
Note: The following floating-point exceptions are signalling: IEEE_DENORMAL
