--------------------------------------------------------------------------
By default, for Open MPI 4.0 and later, infiniband ports on a device
are not used by default.  The intent is to use UCX for these devices.
You can override this policy by setting the btl_openib_allow_ib MCA parameter
to true.

  Local host:              psid09
  Local adapter:           mlx4_0
  Local port:              1

--------------------------------------------------------------------------
--------------------------------------------------------------------------
WARNING: There was an error initializing an OpenFabrics device.

  Local host:   psid09
  Local device: mlx4_0
--------------------------------------------------------------------------

     Program PWSCF v.7.3.1 starts on 20Mar2025 at 14:22:46 

     This program is part of the open-source Quantum ESPRESSO suite
     for quantum simulation of materials; please cite
         "P. Giannozzi et al., J. Phys.:Condens. Matter 21 395502 (2009);
         "P. Giannozzi et al., J. Phys.:Condens. Matter 29 465901 (2017);
         "P. Giannozzi et al., J. Chem. Phys. 152 154105 (2020);
          URL http://www.quantum-espresso.org", 
     in publications or presentations arising from this work. More details at
     http://www.quantum-espresso.org/quote

     Parallel version (MPI), running on    15 processors

     MPI processes distributed on     1 nodes
     121666 MiB available memory on the printing compute node when the environment starts

     Waiting for input...
     Reading input from standard input
Warning: card &CELL ignored
Warning: card   CELL_DOFREE = 'ALL' ignored
Warning: card / ignored

     Current dimensions of program PWSCF are:
     Max number of different atomic species (ntypx) = 10
     Max number of k-points (npk) =  40000
     Max angular momentum in pseudopotentials (lmaxx) =  4
     file O.pbe-n-kjpaw_psl.0.1.UPF: wavefunction(s)  2P renormalized

     R & G space division:  proc/nbgrp/npool/nimage =      15
     Subspace diagonalization in iterative solution of the eigenvalue problem:
     one sub-group per band group will be used
     custom distributed-memory algorithm (size of sub-group:  3*  3 procs)


     Parallelization info
     --------------------
     sticks:   dense  smooth     PW     G-vecs:    dense   smooth      PW
     Min         255     255     72                24932    24932    3702
     Max         256     256     73                24937    24937    3707
     Sum        3835    3835   1083               374027   374027   55577

     Using Slab Decomposition



     bravais-lattice index     =            0
     lattice parameter (alat)  =      20.9009  a.u.
     unit-cell volume          =   16846.7507 (a.u.)^3
     number of atoms/cell      =           67
     number of atomic types    =            3
     number of electrons       =      1288.00
     number of Kohn-Sham states=          773
     kinetic-energy cutoff     =      30.0000  Ry
     charge density cutoff     =     120.0000  Ry
     scf convergence threshold =      7.3E-07
     mixing beta               =       0.7000
     number of iterations used =            8  plain     mixing
     energy convergence thresh.=      1.0E-05
     force convergence thresh. =      5.0E-04
     Exchange-correlation= SLA  PW   PBX  PBC
                           (   1   4   3   4   0   0   0)
     nstep                     =          100


     celldm(1)=  20.900943  celldm(2)=   0.000000  celldm(3)=   0.000000
     celldm(4)=   0.000000  celldm(5)=   0.000000  celldm(6)=   0.000000

     crystal axes: (cart. coord. in units of alat)
               a(1) = (   1.000000   0.000000   0.000000 )  
               a(2) = (  -0.223489   0.918700   0.000000 )  
               a(3) = (  -4.200249  -1.021781   2.008375 )  

     reciprocal axes: (cart. coord. in units 2 pi/alat)
               b(1) = (  1.000000  0.243267  2.215131 )  
               b(2) = ( -0.000000  1.088495  0.553783 )  
               b(3) = (  0.000000 -0.000000  0.497915 )  


     PseudoPot. # 1 for Zn read from file:
     /home/ys/qepseudo/SSSP_1.3.0_PBE_efficiency/Zn_pbe_v1.uspp.F.UPF
     MD5 check sum: df62231357ef9e81f77b2b3087fa5675
     Pseudo is Ultrasoft, Zval = 20.0
     Generated by new atomic code, or converted to UPF format
     Using radial grid of  943 points,  6 beta functions with: 
                l(1) =   0
                l(2) =   0
                l(3) =   1
                l(4) =   1
                l(5) =   2
                l(6) =   2
     Q(r) pseudized with  8 coefficients,  rinner =    1.100   1.100   1.100
                                                       1.100   1.100

     PseudoPot. # 2 for H  read from file:
     /home/ys/qepseudo/SSSP_1.3.0_PBE_efficiency/H.pbe-rrkjus_psl.1.0.0.UPF
     MD5 check sum: f52b6d4d1c606e5624b1dc7b2218f220
     Pseudo is Ultrasoft, Zval =  1.0
     Generated using "atomic" code by A. Dal Corso  v.5.1
     Using radial grid of  929 points,  2 beta functions with: 
                l(1) =   0
                l(2) =   0
     Q(r) pseudized with 0 coefficients 


     PseudoPot. # 3 for O  read from file:
     /home/ys/qepseudo/SSSP_1.3.0_PBE_efficiency/O.pbe-n-kjpaw_psl.0.1.UPF
     MD5 check sum: 0234752ac141de4415c5fc33072bef88
     Pseudo is Projector augmented-wave + core cor, Zval =  6.0
     Generated using "atomic" code by A. Dal Corso  v.5.0.99 svn rev. 10869
     Shape of augmentation charge: BESSEL
     Using radial grid of 1095 points,  4 beta functions with: 
                l(1) =   0
                l(2) =   0
                l(3) =   1
                l(4) =   1
     Q(r) pseudized with 0 coefficients 


     atomic species   valence    mass     pseudopotential
     Zn               20.00    65.38000     Zn( 1.00)
     H                 1.00     1.00800     H ( 1.00)
     O                 6.00    16.00000     O ( 1.00)

     No symmetry found


                                    s                        frac. trans.

      isym =  1     identity                                     

 cryst.   s( 1) = (     1          0          0      )
                  (     0          1          0      )
                  (     0          0          1      )

 cart.    s( 1) = (  1.0000000  0.0000000  0.0000000 )
                  (  0.0000000  1.0000000  0.0000000 )
                  (  0.0000000  0.0000000  1.0000000 )


   Cartesian axes

     site n.     atom                  positions (alat units)
         1        Zn     tau(   1) = (  -0.0970639   0.0980210   0.1082939  )
         2        Zn     tau(   2) = (  -0.2088085   0.5573710   0.1082939  )
         3        Zn     tau(   3) = (  -0.4853192   0.0035714   0.2939406  )
         4        Zn     tau(   4) = (  -0.5970639   0.4629214   0.2939406  )
         5        Zn     tau(   5) = (  -0.8778168  -0.0917986   0.5024637  )
         6        Zn     tau(   6) = (  -0.9895264   0.3675466   0.5024137  )
         7        Zn     tau(   7) = (  -1.2406027  -0.1798552   0.6910406  )
         8        Zn     tau(   8) = (  -1.3522669   0.2794611   0.6910199  )
         9        Zn     tau(   9) = (  -0.1529362   0.3276960   0.1082939  )
        10        Zn     tau(  10) = (  -0.2646808   0.7870460   0.1082939  )
        11        Zn     tau(  11) = (  -0.5411915   0.2332464   0.2939406  )
        12        Zn     tau(  12) = (  -0.6529362   0.6925964   0.2939406  )
        13        Zn     tau(  13) = (  -0.9336469   0.1378867   0.5024624  )
        14        Zn     tau(  14) = (  -1.0454415   0.5972109   0.5024147  )
        15        Zn     tau(  15) = (  -1.2963824   0.0498229   0.6909782  )
        16        Zn     tau(  16) = (  -1.4082339   0.5091311   0.6910822  )
        17        Zn     tau(  17) = (   0.4029361   0.0980210   0.1082939  )
        18        Zn     tau(  18) = (   0.2911915   0.5573710   0.1082939  )
        19        Zn     tau(  19) = (   0.0146808   0.0035714   0.2939406  )
        20        Zn     tau(  20) = (  -0.0970639   0.4629214   0.2939406  )
        21        Zn     tau(  21) = (  -0.3778584  -0.0918024   0.5025944  )
        22        Zn     tau(  22) = (  -0.4896087   0.3675192   0.5025659  )
        23        Zn     tau(  23) = (  -0.7409254  -0.1799822   0.6911262  )
        24        Zn     tau(  24) = (  -0.8527216   0.2793980   0.6911899  )
        25        Zn     tau(  25) = (   0.3470638   0.3276960   0.1082939  )
        26        Zn     tau(  26) = (   0.2353192   0.7870460   0.1082939  )
        27        Zn     tau(  27) = (  -0.0411915   0.2332464   0.2939406  )
        28        Zn     tau(  28) = (  -0.1529362   0.6925964   0.2939406  )
        29        Zn     tau(  29) = (  -0.4337391   0.1378295   0.5025928  )
        30        Zn     tau(  30) = (  -0.5454721   0.5972380   0.5025679  )
        31        Zn     tau(  31) = (  -0.7968526   0.0496773   0.6911857  )
        32        Zn     tau(  32) = (  -0.9085381   0.5090884   0.6911313  )
        33        Zn     tau(  33) = (   0.1529362   0.0372043   0.0773528  )
        34        Zn     tau(  34) = (   0.0411915   0.4965543   0.0773528  )
        35        Zn     tau(  35) = (  -0.2353192  -0.0572454   0.2629995  )
        36        Zn     tau(  36) = (  -0.3470638   0.4021046   0.2629995  )
        37        Zn     tau(  37) = (  -0.6280951  -0.1529585   0.4553783  )
        38        Zn     tau(  38) = (  -0.7398296   0.3064181   0.4553934  )
        39        Zn     tau(  39) = (  -1.0052352  -0.2442836   0.6603749  )
        40        Zn     tau(  40) = (  -1.1168712   0.2151081   0.6603799  )
        41        Zn     tau(  41) = (   0.0970639   0.2668793   0.0773528  )
        42        Zn     tau(  42) = (  -0.0146808   0.7262293   0.0773528  )
        43        Zn     tau(  43) = (  -0.2911915   0.1724296   0.2629995  )
        44        Zn     tau(  44) = (  -0.4029361   0.6317796   0.2629995  )
        45        Zn     tau(  45) = (  -0.6839755   0.0767104   0.4553893  )
        46        Zn     tau(  46) = (  -0.7956904   0.5360988   0.4553814  )
        47        Zn     tau(  47) = (  -1.0610488  -0.0145857   0.6603978  )
        48        Zn     tau(  48) = (  -1.1728037   0.4447627   0.6603571  )
        49        Zn     tau(  49) = (   0.6529362   0.0372043   0.0773528  )
        50        Zn     tau(  50) = (   0.5411915   0.4965543   0.0773528  )
        51        Zn     tau(  51) = (   0.2646808  -0.0572454   0.2629995  )
        52        Zn     tau(  52) = (   0.1529362   0.4021046   0.2629995  )
        53        Zn     tau(  53) = (  -0.1280445  -0.1528982   0.4553743  )
        54        Zn     tau(  54) = (  -0.2397657   0.3063891   0.4553297  )
        55        Zn     tau(  55) = (  -0.5055002  -0.2443167   0.6603316  )
        56        Zn     tau(  56) = (  -0.6173111   0.2149623   0.6603566  )
        57        Zn     tau(  57) = (   0.5970639   0.2668793   0.0773528  )
        58        Zn     tau(  58) = (   0.4853192   0.7262293   0.0773528  )
        59        Zn     tau(  59) = (   0.2088085   0.1724296   0.2629995  )
        60        Zn     tau(  60) = (   0.0970639   0.6317796   0.2629995  )
        61        Zn     tau(  61) = (  -0.1838756   0.0767547   0.4553744  )
        62        Zn     tau(  62) = (  -0.2956772   0.5360837   0.4553280  )
        63        Zn     tau(  63) = (  -0.5614277  -0.0146977   0.6603020  )
        64        Zn     tau(  64) = (  -0.6731294   0.4446946   0.6603871  )
        65        O      tau(  65) = (  -0.5731746   0.2548495   0.9349643  )
        66        H      tau(  66) = (  -0.6365662   0.3099340   0.9627707  )
        67        H      tau(  67) = (  -0.5948076   0.1773920   0.9718512  )

   Crystallographic axes

     site n.     atom                  positions (cryst. coord.)
         1        Zn     tau(   1) = (  0.1666667  0.1666667  0.0539212  )
         2        Zn     tau(   2) = (  0.1666667  0.6666667  0.0539212  )
         3        Zn     tau(   3) = (  0.1666667  0.1666667  0.1463574  )
         4        Zn     tau(   4) = (  0.1666667  0.6666667  0.1463574  )
         5        Zn     tau(   5) = (  0.2128747  0.1783335  0.2501842  )
         6        Zn     tau(   6) = (  0.2127978  0.6783005  0.2501593  )
         7        Zn     tau(   7) = (  0.2463902  0.1869149  0.3440795  )
         8        Zn     tau(   8) = (  0.2464166  0.6868668  0.3440692  )
         9        Zn     tau(   9) = (  0.1666667  0.4166667  0.0539212  )
        10        Zn     tau(  10) = (  0.1666667  0.9166667  0.0539212  )
        11        Zn     tau(  11) = (  0.1666667  0.4166667  0.1463574  )
        12        Zn     tau(  12) = (  0.1666667  0.9166667  0.1463574  )
        13        Zn     tau(  13) = (  0.2129167  0.4283440  0.2501836  )
        14        Zn     tau(  14) = (  0.2127547  0.9282895  0.2501598  )
        15        Zn     tau(  15) = (  0.2463452  0.4368838  0.3440484  )
        16        Zn     tau(  16) = (  0.2464587  0.9368959  0.3441002  )
        17        Zn     tau(  17) = (  0.6666667  0.1666667  0.0539212  )
        18        Zn     tau(  18) = (  0.6666667  0.6666667  0.0539212  )
        19        Zn     tau(  19) = (  0.6666667  0.1666667  0.1463574  )
        20        Zn     tau(  20) = (  0.6666667  0.6666667  0.1463574  )
        21        Zn     tau(  21) = (  0.7131217  0.1784017  0.2502493  )
        22        Zn     tau(  22) = (  0.7130461  0.6783550  0.2502351  )
        23        Zn     tau(  23) = (  0.7462263  0.1868242  0.3441221  )
        24        Zn     tau(  24) = (  0.7463231  0.6868923  0.3441538  )
        25        Zn     tau(  25) = (  0.6666667  0.4166667  0.0539212  )
        26        Zn     tau(  26) = (  0.6666667  0.9166667  0.0539212  )
        27        Zn     tau(  27) = (  0.6666667  0.4166667  0.1463574  )
        28        Zn     tau(  28) = (  0.6666667  0.9166667  0.1463574  )
        29        Zn     tau(  29) = (  0.7130994  0.4283539  0.2502485  )
        30        Zn     tau(  30) = (  0.7130701  0.9284039  0.2502361  )
        31        Zn     tau(  31) = (  0.7462994  0.4368403  0.3441517  )
        32        Zn     tau(  32) = (  0.7462528  0.9368766  0.3441246  )
        33        Zn     tau(  33) = (  0.3333333  0.0833333  0.0385151  )
        34        Zn     tau(  34) = (  0.3333333  0.5833333  0.0385151  )
        35        Zn     tau(  35) = (  0.3333333  0.0833333  0.1309514  )
        36        Zn     tau(  36) = (  0.3333333  0.5833333  0.1309514  )
        37        Zn     tau(  37) = (  0.3434179  0.0856861  0.2267397  )
        38        Zn     tau(  38) = (  0.3434679  0.5857235  0.2267472  )
        39        Zn     tau(  39) = (  0.3981557  0.0998028  0.3288105  )
        40        Zn     tau(  40) = (  0.3982858  0.5998511  0.3288131  )
        41        Zn     tau(  41) = (  0.3333333  0.3333333  0.0385151  )
        42        Zn     tau(  42) = (  0.3333333  0.8333333  0.0385151  )
        43        Zn     tau(  43) = (  0.3333333  0.3333333  0.1309514  )
        44        Zn     tau(  44) = (  0.3333333  0.8333333  0.1309514  )
        45        Zn     tau(  45) = (  0.3434327  0.3356857  0.2267452  )
        46        Zn     tau(  46) = (  0.3434542  0.8357230  0.2267412  )
        47        Zn     tau(  47) = (  0.3982709  0.3498405  0.3288220  )
        48        Zn     tau(  48) = (  0.3981701  0.8498162  0.3288017  )
        49        Zn     tau(  49) = (  0.8333333  0.0833333  0.0385151  )
        50        Zn     tau(  50) = (  0.8333333  0.5833333  0.0385151  )
        51        Zn     tau(  51) = (  0.8333333  0.0833333  0.1309514  )
        52        Zn     tau(  52) = (  0.8333333  0.5833333  0.1309514  )
        53        Zn     tau(  53) = (  0.8434743  0.0857495  0.2267377  )
        54        Zn     tau(  54) = (  0.8433836  0.5856566  0.2267155  )
        55        Zn     tau(  55) = (  0.8977868  0.0997428  0.3287890  )
        56        Zn     tau(  56) = (  0.8977586  0.5996794  0.3288014  )
        57        Zn     tau(  57) = (  0.8333333  0.3333333  0.0385151  )
        58        Zn     tau(  58) = (  0.8333333  0.8333333  0.0385151  )
        59        Zn     tau(  59) = (  0.8333333  0.3333333  0.1309514  )
        60        Zn     tau(  60) = (  0.8333333  0.8333333  0.1309514  )
        61        Zn     tau(  61) = (  0.8435104  0.3357256  0.2267377  )
        62        Zn     tau(  62) = (  0.8433456  0.8356770  0.2267147  )
        63        Zn     tau(  63) = (  0.8976524  0.3496655  0.3287743  )
        64        Zn     tau(  64) = (  0.8978942  0.8497587  0.3288166  )
        65        O      tau(  65) = (  1.5598905  0.7951695  0.4655327  )
        66        H      tau(  66) = (  1.5714940  0.8705273  0.4793780  )
        67        H      tau(  67) = (  1.6011240  0.7312847  0.4838993  )

     number of k points=     5  Marzari-Vanderbilt smearing, width (Ry)=  0.0200
                       cart. coord. in units 2pi/alat
        k(    1) = (   0.0000000   0.0000000   0.0000000), wk =   0.2222222
        k(    2) = (   0.0000000   0.3628315   0.1845943), wk =   0.4444444
        k(    3) = (   0.3333333   0.0810890   0.7383771), wk =   0.4444444
        k(    4) = (   0.3333333   0.4439205   0.9229714), wk =   0.4444444
        k(    5) = (   0.3333333  -0.2817426   0.5537829), wk =   0.4444444

                       cryst. coord.
        k(    1) = (   0.0000000   0.0000000   0.0000000), wk =   0.2222222
        k(    2) = (   0.0000000   0.3333333   0.0000000), wk =   0.4444444
        k(    3) = (   0.3333333   0.0000000   0.0000000), wk =   0.4444444
        k(    4) = (   0.3333333   0.3333333   0.0000000), wk =   0.4444444
        k(    5) = (   0.3333333  -0.3333333   0.0000000), wk =   0.4444444

     Dense  grid:   374027 G-vectors     FFT dimensions: (  75,  72, 360)

     Dynamical RAM for                 wfc:      36.75 MB

     Dynamical RAM for     wfc (w. buffer):     220.52 MB

     Dynamical RAM for           str. fact:       1.14 MB

     Dynamical RAM for           local pot:       0.00 MB

     Dynamical RAM for          nlocal pot:      55.34 MB

     Dynamical RAM for                qrad:       2.64 MB

     Dynamical RAM for          rho,v,vnew:       4.11 MB

     Dynamical RAM for               rhoin:       1.37 MB

     Dynamical RAM for            rho*nmix:       6.09 MB

     Dynamical RAM for           G-vectors:       1.62 MB

     Dynamical RAM for          h,s,v(r/c):      12.14 MB

     Dynamical RAM for          <psi|beta>:      13.73 MB

     Dynamical RAM for                 psi:      73.51 MB

     Dynamical RAM for                hpsi:      73.51 MB

     Dynamical RAM for                spsi:      73.51 MB

     Dynamical RAM for      wfcinit/wfcrot:      95.77 MB

     Dynamical RAM for           addusdens:      95.13 MB

     Dynamical RAM for          addusforce:     143.51 MB

     Dynamical RAM for         addusstress:      76.48 MB

     Estimated static dynamical RAM per process >     293.21 MB

     Estimated max dynamical RAM per process >     545.69 MB

     Estimated total dynamical RAM >       7.99 GB

     Check: negative core charge=   -0.000010

     Initial potential from superposition of free atoms

     starting charge    1287.9910, renormalised to    1288.0000

     negative rho (up, down):  6.938E-03 0.000E+00
     Starting wfcs are  838 randomized atomic wfcs
[psid09:73606] 14 more processes have sent help message help-mpi-btl-openib.txt / ib port not selected
[psid09:73606] Set MCA parameter "orte_base_help_aggregate" to 0 to see all help / error messages
[psid09:73606] 14 more processes have sent help message help-mpi-btl-openib.txt / error in device init
     Checking if some PAW data can be deallocated... 
       PAW data deallocated on   14 nodes for type:  3

     total cpu time spent up to now is      172.2 secs

     Self-consistent Calculation

     iteration #  1     ecut=    30.00 Ry     beta= 0.70
     Davidson diagonalization with overlap

---- Real-time Memory Report at c_bands before calling an iterative solver
           394 MiB given to the printing process from OS
             0 MiB allocation reported by mallinfo(arena+hblkhd)
        111972 MiB available memory on the node where the printing process lives
------------------
     ethr =  1.00E-02,  avg # of iterations =  7.2

     Threshold (ethr) on eigenvalues was too large:
     Diagonalizing with lowered threshold

     Davidson diagonalization with overlap

---- Real-time Memory Report at c_bands before calling an iterative solver
           593 MiB given to the printing process from OS
             0 MiB allocation reported by mallinfo(arena+hblkhd)
        111268 MiB available memory on the node where the printing process lives
------------------
     ethr =  2.10E-04,  avg # of iterations =  3.0

     negative rho (up, down):  1.063E-02 0.000E+00

     total cpu time spent up to now is     1409.2 secs

     total energy              =  -29577.47434053 Ry
     estimated scf accuracy    <       2.89566799 Ry

     iteration #  2     ecut=    30.00 Ry     beta= 0.70
     Davidson diagonalization with overlap

---- Real-time Memory Report at c_bands before calling an iterative solver
           593 MiB given to the printing process from OS
             0 MiB allocation reported by mallinfo(arena+hblkhd)
        111175 MiB available memory on the node where the printing process lives
------------------
     ethr =  2.25E-04,  avg # of iterations =  6.6

     negative rho (up, down):  1.116E-02 0.000E+00

     total cpu time spent up to now is     2288.1 secs

     total energy              =  -29577.70179670 Ry
     estimated scf accuracy    <       5.90190799 Ry

     iteration #  3     ecut=    30.00 Ry     beta= 0.70
     Davidson diagonalization with overlap

---- Real-time Memory Report at c_bands before calling an iterative solver
           601 MiB given to the printing process from OS
             0 MiB allocation reported by mallinfo(arena+hblkhd)
        113195 MiB available memory on the node where the printing process lives
------------------
     ethr =  2.25E-04,  avg # of iterations =  9.0

     negative rho (up, down):  1.131E-02 0.000E+00

     total cpu time spent up to now is     3109.6 secs

     total energy              =  -29577.44981459 Ry
     estimated scf accuracy    <      32.40940785 Ry

     iteration #  4     ecut=    30.00 Ry     beta= 0.70
     Davidson diagonalization with overlap

---- Real-time Memory Report at c_bands before calling an iterative solver
           601 MiB given to the printing process from OS
             0 MiB allocation reported by mallinfo(arena+hblkhd)
        110906 MiB available memory on the node where the printing process lives
------------------
     ethr =  2.25E-04,  avg # of iterations =  6.4

     negative rho (up, down):  1.222E-02 0.000E+00

     total cpu time spent up to now is     3708.8 secs

     total energy              =  -29578.91514392 Ry
     estimated scf accuracy    <       0.25068911 Ry

     iteration #  5     ecut=    30.00 Ry     beta= 0.70
     Davidson diagonalization with overlap

---- Real-time Memory Report at c_bands before calling an iterative solver
           601 MiB given to the printing process from OS
             0 MiB allocation reported by mallinfo(arena+hblkhd)
        111391 MiB available memory on the node where the printing process lives
------------------
     ethr =  1.95E-05,  avg # of iterations = 15.4

     negative rho (up, down):  1.352E-02 0.000E+00

     total cpu time spent up to now is     4407.4 secs

     total energy              =  -29578.92364758 Ry
     estimated scf accuracy    <       0.53917152 Ry

     iteration #  6     ecut=    30.00 Ry     beta= 0.70
     Davidson diagonalization with overlap

---- Real-time Memory Report at c_bands before calling an iterative solver
           601 MiB given to the printing process from OS
             0 MiB allocation reported by mallinfo(arena+hblkhd)
        111364 MiB available memory on the node where the printing process lives
------------------
     ethr =  1.95E-05,  avg # of iterations = 15.4

     negative rho (up, down):  1.389E-02 0.000E+00

     total cpu time spent up to now is     5067.3 secs

     total energy              =  -29578.97285034 Ry
     estimated scf accuracy    <       0.04704118 Ry

     iteration #  7     ecut=    30.00 Ry     beta= 0.70
     Davidson diagonalization with overlap

---- Real-time Memory Report at c_bands before calling an iterative solver
           601 MiB given to the printing process from OS
             0 MiB allocation reported by mallinfo(arena+hblkhd)
        110975 MiB available memory on the node where the printing process lives
------------------
     c_bands:  1 eigenvalues not converged
     ethr =  3.65E-06,  avg # of iterations = 12.2

     negative rho (up, down):  1.399E-02 0.000E+00

     total cpu time spent up to now is     5703.8 secs

     total energy              =  -29578.97854923 Ry
     estimated scf accuracy    <       0.01937035 Ry

     iteration #  8     ecut=    30.00 Ry     beta= 0.70
     Davidson diagonalization with overlap

---- Real-time Memory Report at c_bands before calling an iterative solver
           602 MiB given to the printing process from OS
             0 MiB allocation reported by mallinfo(arena+hblkhd)
        112894 MiB available memory on the node where the printing process lives
------------------
     ethr =  1.50E-06,  avg # of iterations =  8.4

     negative rho (up, down):  1.403E-02 0.000E+00

     total cpu time spent up to now is     6295.7 secs

     total energy              =  -29578.98069693 Ry
     estimated scf accuracy    <       0.00383740 Ry

     iteration #  9     ecut=    30.00 Ry     beta= 0.70
     Davidson diagonalization with overlap

---- Real-time Memory Report at c_bands before calling an iterative solver
           602 MiB given to the printing process from OS
             0 MiB allocation reported by mallinfo(arena+hblkhd)
        110733 MiB available memory on the node where the printing process lives
------------------
     ethr =  2.98E-07,  avg # of iterations =  2.0

     negative rho (up, down):  1.407E-02 0.000E+00

     total cpu time spent up to now is     6840.9 secs

     total energy              =  -29578.98117000 Ry
     estimated scf accuracy    <       0.00180772 Ry

     iteration # 10     ecut=    30.00 Ry     beta= 0.70
     Davidson diagonalization with overlap

---- Real-time Memory Report at c_bands before calling an iterative solver
           602 MiB given to the printing process from OS
             0 MiB allocation reported by mallinfo(arena+hblkhd)
        112124 MiB available memory on the node where the printing process lives
------------------
     ethr =  1.40E-07,  avg # of iterations =  2.0

     negative rho (up, down):  1.407E-02 0.000E+00

     total cpu time spent up to now is     7383.6 secs

     total energy              =  -29578.98133862 Ry
     estimated scf accuracy    <       0.00030479 Ry

     iteration # 11     ecut=    30.00 Ry     beta= 0.70
     Davidson diagonalization with overlap

---- Real-time Memory Report at c_bands before calling an iterative solver
           603 MiB given to the printing process from OS
             0 MiB allocation reported by mallinfo(arena+hblkhd)
        110694 MiB available memory on the node where the printing process lives
------------------
     ethr =  2.37E-08,  avg # of iterations =  2.0

     negative rho (up, down):  1.407E-02 0.000E+00

     total cpu time spent up to now is     7931.8 secs

     total energy              =  -29578.98137270 Ry
     estimated scf accuracy    <       0.00012908 Ry

     iteration # 12     ecut=    30.00 Ry     beta= 0.70
     Davidson diagonalization with overlap

---- Real-time Memory Report at c_bands before calling an iterative solver
           603 MiB given to the printing process from OS
             0 MiB allocation reported by mallinfo(arena+hblkhd)
        111778 MiB available memory on the node where the printing process lives
------------------
     ethr =  1.00E-08,  avg # of iterations =  2.0

     negative rho (up, down):  1.408E-02 0.000E+00

     total cpu time spent up to now is     8476.8 secs

     total energy              =  -29578.98138818 Ry
     estimated scf accuracy    <       0.00006261 Ry

     iteration # 13     ecut=    30.00 Ry     beta= 0.70
     Davidson diagonalization with overlap

---- Real-time Memory Report at c_bands before calling an iterative solver
           603 MiB given to the printing process from OS
             0 MiB allocation reported by mallinfo(arena+hblkhd)
        110691 MiB available memory on the node where the printing process lives
------------------
     ethr =  4.86E-09,  avg # of iterations =  2.0

     negative rho (up, down):  1.408E-02 0.000E+00

     total cpu time spent up to now is     9019.5 secs

     total energy              =  -29578.98139406 Ry
     estimated scf accuracy    <       0.00002301 Ry

     iteration # 14     ecut=    30.00 Ry     beta= 0.70
     Davidson diagonalization with overlap

---- Real-time Memory Report at c_bands before calling an iterative solver
           603 MiB given to the printing process from OS
             0 MiB allocation reported by mallinfo(arena+hblkhd)
        113952 MiB available memory on the node where the printing process lives
------------------
     ethr =  1.79E-09,  avg # of iterations =  2.0

     negative rho (up, down):  1.408E-02 0.000E+00

     total cpu time spent up to now is     9561.3 secs

     total energy              =  -29578.98139608 Ry
     estimated scf accuracy    <       0.00001279 Ry

     iteration # 15     ecut=    30.00 Ry     beta= 0.70
     Davidson diagonalization with overlap

---- Real-time Memory Report at c_bands before calling an iterative solver
           603 MiB given to the printing process from OS
             0 MiB allocation reported by mallinfo(arena+hblkhd)
        111277 MiB available memory on the node where the printing process lives
------------------
     ethr =  9.93E-10,  avg # of iterations =  1.0

     negative rho (up, down):  1.408E-02 0.000E+00

     total cpu time spent up to now is    10007.4 secs

     total energy              =  -29578.98139662 Ry
     estimated scf accuracy    <       0.00001384 Ry

     iteration # 16     ecut=    30.00 Ry     beta= 0.70
     Davidson diagonalization with overlap

---- Real-time Memory Report at c_bands before calling an iterative solver
           603 MiB given to the printing process from OS
             0 MiB allocation reported by mallinfo(arena+hblkhd)
        110686 MiB available memory on the node where the printing process lives
------------------
     ethr =  9.93E-10,  avg # of iterations =  1.2

     negative rho (up, down):  1.408E-02 0.000E+00

     total cpu time spent up to now is    10472.4 secs

     total energy              =  -29578.98139724 Ry
     estimated scf accuracy    <       0.00000177 Ry

     iteration # 17     ecut=    30.00 Ry     beta= 0.70
     Davidson diagonalization with overlap

---- Real-time Memory Report at c_bands before calling an iterative solver
           603 MiB given to the printing process from OS
             0 MiB allocation reported by mallinfo(arena+hblkhd)
        110761 MiB available memory on the node where the printing process lives
------------------
     ethr =  1.37E-10,  avg # of iterations =  2.0

     negative rho (up, down):  1.408E-02 0.000E+00

     total cpu time spent up to now is    11017.4 secs

     End of self-consistent calculation

          k = 0.0000 0.0000 0.0000 ( 46769 PWs)   bands (ev):

  -123.9895-123.9889-123.9885-123.9883-123.9882-123.9880-123.9876-123.9872
  -123.9493-123.9484-123.9481-123.9475-123.9470-123.9468-123.9460-123.9456
  -123.8878-123.8871-123.8865-123.8860-123.8858-123.8853-123.8848-123.8840
  -123.8447-123.8437-123.8418-123.8416-123.8413-123.8410-123.8398-123.8394
  -123.8163-123.8144-123.8131-123.8129-123.8125-123.8120-123.8116-123.8114
  -123.7230-123.7211-123.7200-123.7191-123.7181-123.7173-123.7168-123.7164
  -123.6906-123.6889-123.6884-123.6883-123.6881-123.6860-123.6857-123.6845
  -123.6080-123.6074-123.6069-123.6058-123.6050-123.6045-123.6018-123.6014
   -78.0949 -78.0943 -78.0819 -78.0795 -78.0789 -78.0788 -78.0785 -78.0781
   -78.0781 -78.0775 -78.0756 -78.0754 -78.0744 -78.0722 -78.0720 -78.0712
   -78.0709 -78.0705 -78.0703 -78.0702 -78.0702 -78.0698 -78.0625 -78.0619
   -78.0560 -78.0547 -78.0428 -78.0391 -78.0384 -78.0376 -78.0375 -78.0373
   -78.0367 -78.0365 -78.0360 -78.0354 -78.0337 -78.0328 -78.0320 -78.0316
   -78.0315 -78.0313 -78.0308 -78.0307 -78.0300 -78.0296 -78.0233 -78.0220
   -77.9925 -77.9906 -77.9803 -77.9774 -77.9772 -77.9761 -77.9752 -77.9749
   -77.9748 -77.9742 -77.9739 -77.9737 -77.9736 -77.9730 -77.9726 -77.9722
   -77.9712 -77.9708 -77.9706 -77.9699 -77.9681 -77.9679 -77.9607 -77.9588
   -77.9473 -77.9448 -77.9386 -77.9340 -77.9331 -77.9313 -77.9309 -77.9306
   -77.9304 -77.9295 -77.9291 -77.9289 -77.9283 -77.9276 -77.9270 -77.9269
   -77.9269 -77.9266 -77.9257 -77.9254 -77.9225 -77.9222 -77.9172 -77.9151
   -77.9149 -77.9137 -77.9136 -77.9133 -77.9130 -77.9126 -77.9126 -77.9124
   -77.9121 -77.9116 -77.9011 -77.8979 -77.8967 -77.8960 -77.8954 -77.8947
   -77.8945 -77.8937 -77.8934 -77.8928 -77.8898 -77.8891 -77.8808 -77.8805
   -77.8237 -77.8206 -77.8204 -77.8192 -77.8168 -77.8163 -77.8153 -77.8148
   -77.8139 -77.8136 -77.8092 -77.8075 -77.8060 -77.8048 -77.8038 -77.8035
   -77.8029 -77.8018 -77.8012 -77.8007 -77.7982 -77.7978 -77.7911 -77.7903
   -77.7891 -77.7888 -77.7884 -77.7880 -77.7878 -77.7874 -77.7867 -77.7860
   -77.7855 -77.7842 -77.7786 -77.7751 -77.7738 -77.7732 -77.7731 -77.7713
   -77.7709 -77.7693 -77.7686 -77.7671 -77.7641 -77.7630 -77.7548 -77.7543
   -77.7122 -77.7107 -77.7103 -77.7091 -77.7088 -77.7079 -77.7060 -77.7053
   -77.7037 -77.7004 -77.6951 -77.6928 -77.6926 -77.6912 -77.6899 -77.6897
   -77.6878 -77.6868 -77.6837 -77.6832 -77.6782 -77.6779 -77.6713 -77.6677
   -18.8494  -7.1547  -6.4751  -6.1412  -6.0849  -6.0325  -5.8288  -5.8286
    -5.6400  -5.6076  -5.5438  -5.5389  -5.5192  -5.5135  -5.5129  -5.5078
    -5.5075  -5.4919  -5.4607  -5.4605  -5.4215  -5.4211  -5.3754  -5.3637
    -5.3637  -5.3631  -5.3508  -5.3506  -5.3393  -5.3363  -5.3359  -5.3226
    -5.3083  -5.3082  -5.2830  -5.2829  -5.2732  -5.2683  -5.2681  -5.2581
    -5.2561  -5.2554  -5.2256  -5.2254  -5.2204  -5.2203  -5.2077  -5.2071
    -5.2063  -5.2011  -5.2008  -5.1866  -5.1864  -5.1813  -5.1651  -5.1622
    -5.1619  -5.1489  -5.1485  -5.1484  -5.1481  -5.1346  -5.1343  -5.1183
    -5.1179  -5.1135  -5.1134  -5.0817  -5.0816  -5.0806  -5.0805  -5.0805
    -5.0801  -5.0650  -5.0644  -5.0625  -5.0412  -5.0363  -5.0362  -5.0190
    -5.0177  -5.0170  -5.0168  -5.0114  -5.0112  -4.9977  -4.9975  -4.9909
    -4.9826  -4.9734  -4.9732  -4.9696  -4.9696  -4.9687  -4.9522  -4.9474
    -4.9473  -4.9435  -4.9370  -4.9365  -4.9296  -4.9293  -4.9180  -4.9067
    -4.9066  -4.9027  -4.9026  -4.8928  -4.8920  -4.8919  -4.8903  -4.8713
    -4.8711  -4.8555  -4.8552  -4.8545  -4.8543  -4.8446  -4.8367  -4.8363
    -4.8294  -4.8292  -4.8055  -4.8008  -4.8002  -4.7995  -4.7994  -4.7944
    -4.7849  -4.7791  -4.7789  -4.7588  -4.7584  -4.7498  -4.7487  -4.7427
    -4.7409  -4.7406  -4.7398  -4.7397  -4.7176  -4.7169  -4.7090  -4.7088
    -4.7069  -4.7050  -4.6964  -4.6963  -4.6891  -4.6889  -4.6852  -4.6850
    -4.6762  -4.6721  -4.6635  -4.6634  -4.6624  -4.6623  -4.6509  -4.6503
    -4.6402  -4.6401  -4.6330  -4.6329  -4.6315  -4.6312  -4.6147  -4.6145
    -4.6122  -4.6121  -4.6117  -4.6113  -4.5965  -4.5965  -4.5892  -4.5891
    -4.5840  -4.5836  -4.5822  -4.5730  -4.5699  -4.5667  -4.5665  -4.5497
    -4.5495  -4.5424  -4.5422  -4.5379  -4.5359  -4.5356  -4.5235  -4.5175
    -4.5152  -4.5151  -4.5082  -4.5074  -4.4956  -4.4868  -4.4865  -4.4822
    -4.4819  -4.4793  -4.4756  -4.4755  -4.4662  -4.4661  -4.4660  -4.4656
    -4.4623  -4.4620  -4.4618  -4.4503  -4.4418  -4.4417  -4.4407  -4.4406
    -4.4320  -4.4315  -4.4258  -4.4254  -4.4246  -4.4238  -4.4222  -4.4198
    -4.4196  -4.4189  -4.4186  -4.4080  -4.4075  -4.4067  -4.3981  -4.3946
    -4.3905  -4.3902  -4.3842  -4.3840  -4.3817  -4.3814  -4.3744  -4.3741
    -4.3679  -4.3647  -4.3611  -4.3611  -4.3574  -4.3572  -4.3536  -4.3524
    -4.3437  -4.3329  -4.3326  -4.3279  -4.3243  -4.3240  -4.3237  -4.3148
    -4.3140  -4.3137  -4.2992  -4.2990  -4.2987  -4.2957  -4.2956  -4.2954
    -4.2941  -4.2918  -4.2912  -4.2842  -4.2644  -4.2640  -4.2624  -4.2619
    -4.2618  -4.2614  -4.2605  -4.2602  -4.2487  -4.2481  -4.2440  -4.2437
    -4.2434  -4.2394  -4.2346  -4.2340  -4.2318  -4.2152  -4.2139  -4.2091
    -4.2073  -4.2072  -4.1983  -4.1930  -4.1927  -4.1921  -4.1918  -4.1836
    -4.1697  -4.1695  -4.1687  -4.1654  -4.1652  -4.1648  -4.1637  -4.1615
    -4.1516  -4.1500  -4.1499  -4.1395  -4.1394  -4.1316  -4.1316  -4.1187
    -4.1185  -4.1162  -4.1037  -4.1029  -4.0764  -4.0724  -4.0621  -4.0506
    -4.0355  -4.0344  -4.0179  -4.0175  -3.9986  -3.9980  -3.9954  -3.9860
    -3.9297  -3.9281  -3.8927  -3.7562  -3.7475  -3.7458  -3.2932  -3.1677
    -3.1607  -2.9509  -2.9250  -2.8897  -2.1337  -1.8706  -1.8642  -1.8570
    -1.8522  -1.8018  -1.1836  -1.1666  -1.1592  -1.0833  -0.9754  -0.9719
    -0.8240  -0.5620  -0.5552  -0.5519  -0.4339  -0.4334  -0.0472   0.0539
     0.1582   0.1636   0.1663   0.1726   0.4946   0.5092   0.5115   0.5959
     0.5978   0.7369   0.7373   0.7820   1.4170   1.4274   1.4983   1.5255
     1.5266   1.6066   1.6076   1.9474   2.1941   2.1953   2.3302   2.3334
     2.3758   2.3790   2.4154   2.7017   2.7138   2.7423   2.7473   2.8325
     2.8339   2.9055   3.3529   3.4138   3.4421   3.5557   3.5640   3.8828
     3.8833   4.0311   4.0495   4.0879   4.6874   4.6985   4.9145   4.9421
     4.9460   4.9703   4.9904   5.0109   5.0186   5.0790   5.1133   5.1167
     5.1508   5.1597   5.5143   5.5351   5.5428   5.6124   5.6525   5.7445
     5.8906   5.8949   6.2225   6.2361   6.2410   6.2814   6.2866   6.4286
     6.5269   6.5273   6.6547   6.7570   6.8294   6.8538   6.9122   6.9150
     7.0869   7.1207   7.1447   7.1577   7.1789   7.2110   7.2394   7.3460
     7.3723   7.3896   7.4952   7.5302   7.5678   7.6269   7.6296   7.6509
     7.6625   7.6639   7.6731   7.7084   7.7662   7.7844   7.8138   7.9141
     8.0677   8.0746   8.0758   8.0916   8.1000   8.1532   8.1663   8.2503
     8.2738   8.3431   8.3460   8.4214   8.4404   8.4442   8.4515   8.5179
     8.5477   8.5829   8.5919   8.7676   8.8221   8.8946   8.9013   8.9760
     8.9775   9.0022   9.0567   9.1547   9.2417   9.2991   9.3316   9.3736
     9.4578   9.5123   9.5629   9.5678   9.5732   9.6071   9.6194   9.6321
     9.6631   9.6869   9.6925   9.8577   9.9640  10.0037  10.0803  10.1249
    10.1432  10.1629  10.1829  10.2455  10.2549

     occupation numbers 
     1.0000   1.0000   1.0000   1.0000   1.0000   1.0000   1.0000   1.0000
     1.0000   1.0000   1.0000   1.0000   1.0000   1.0000   1.0000   1.0000
     1.0000   1.0000   1.0000   1.0000   1.0000   1.0000   1.0000   1.0000
     1.0000   1.0000   1.0000   1.0000   1.0000   1.0000   1.0000   1.0000
     1.0000   1.0000   1.0000   1.0000   1.0000   1.0000   1.0000   1.0000
     1.0000   1.0000   1.0000   1.0000   1.0000   1.0000   1.0000   1.0000
     1.0000   1.0000   1.0000   1.0000   1.0000   1.0000   1.0000   1.0000
     1.0000   1.0000   1.0000   1.0000   1.0000   1.0000   1.0000   1.0000
     1.0000   1.0000   1.0000   1.0000   1.0000   1.0000   1.0000   1.0000
     1.0000   1.0000   1.0000   1.0000   1.0000   1.0000   1.0000   1.0000
     1.0000   1.0000   1.0000   1.0000   1.0000   1.0000   1.0000   1.0000
     1.0000   1.0000   1.0000   1.0000   1.0000   1.0000   1.0000   1.0000
     1.0000   1.0000   1.0000   1.0000   1.0000   1.0000   1.0000   1.0000
     1.0000   1.0000   1.0000   1.0000   1.0000   1.0000   1.0000   1.0000
     1.0000   1.0000   1.0000   1.0000   1.0000   1.0000   1.0000   1.0000
     1.0000   1.0000   1.0000   1.0000   1.0000   1.0000   1.0000   1.0000
     1.0000   1.0000   1.0000   1.0000   1.0000   1.0000   1.0000   1.0000
     1.0000   1.0000   1.0000   1.0000   1.0000   1.0000   1.0000   1.0000
     1.0000   1.0000   1.0000   1.0000   1.0000   1.0000   1.0000   1.0000
     1.0000   1.0000   1.0000   1.0000   1.0000   1.0000   1.0000   1.0000
     1.0000   1.0000   1.0000   1.0000   1.0000   1.0000   1.0000   1.0000
     1.0000   1.0000   1.0000   1.0000   1.0000   1.0000   1.0000   1.0000
     1.0000   1.0000   1.0000   1.0000   1.0000   1.0000   1.0000   1.0000
     1.0000   1.0000   1.0000   1.0000   1.0000   1.0000   1.0000   1.0000
     1.0000   1.0000   1.0000   1.0000   1.0000   1.0000   1.0000   1.0000
     1.0000   1.0000   1.0000   1.0000   1.0000   1.0000   1.0000   1.0000
     1.0000   1.0000   1.0000   1.0000   1.0000   1.0000   1.0000   1.0000
     1.0000   1.0000   1.0000   1.0000   1.0000   1.0000   1.0000   1.0000
     1.0000   1.0000   1.0000   1.0000   1.0000   1.0000   1.0000   1.0000
     1.0000   1.0000   1.0000   1.0000   1.0000   1.0000   1.0000   1.0000
     1.0000   1.0000   1.0000   1.0000   1.0000   1.0000   1.0000   1.0000
     1.0000   1.0000   1.0000   1.0000   1.0000   1.0000   1.0000   1.0000
     1.0000   1.0000   1.0000   1.0000   1.0000   1.0000   1.0000   1.0000
     1.0000   1.0000   1.0000   1.0000   1.0000   1.0000   1.0000   1.0000
     1.0000   1.0000   1.0000   1.0000   1.0000   1.0000   1.0000   1.0000
     1.0000   1.0000   1.0000   1.0000   1.0000   1.0000   1.0000   1.0000
     1.0000   1.0000   1.0000   1.0000   1.0000   1.0000   1.0000   1.0000
     1.0000   1.0000   1.0000   1.0000   1.0000   1.0000   1.0000   1.0000
     1.0000   1.0000   1.0000   1.0000   1.0000   1.0000   1.0000   1.0000
     1.0000   1.0000   1.0000   1.0000   1.0000   1.0000   1.0000   1.0000
     1.0000   1.0000   1.0000   1.0000   1.0000   1.0000   1.0000   1.0000
     1.0000   1.0000   1.0000   1.0000   1.0000   1.0000   1.0000   1.0000
     1.0000   1.0000   1.0000   1.0000   1.0000   1.0000   1.0000   1.0000
     1.0000   1.0000   1.0000   1.0000   1.0000   1.0000   1.0000   1.0000
     1.0000   1.0000   1.0000   1.0000   1.0000   1.0000   1.0000   1.0000
     1.0000   1.0000   1.0000   1.0000   1.0000   1.0000   1.0000   1.0000
     1.0000   1.0000   1.0000   1.0000   1.0000   1.0000   1.0000   1.0000
     1.0000   1.0000   1.0000   1.0000   1.0000   1.0000   1.0000   1.0000
     1.0000   1.0000   1.0000   1.0000   1.0000   1.0000   1.0000   1.0000
     1.0000   1.0000   1.0000   1.0000   1.0000   1.0000   1.0000   1.0000
     1.0000   1.0000   1.0000   1.0000   1.0000   1.0000   1.0000   1.0000
     1.0000   1.0000   1.0000   1.0000   1.0000   1.0000   1.0000   1.0000
     1.0000   1.0000   1.0000   1.0000   1.0000   1.0000   1.0000   1.0000
     1.0000   1.0000   1.0000   1.0000   1.0000   1.0000   1.0000   1.0000
     1.0000   1.0000   1.0000   1.0000   1.0000   1.0000   1.0000   1.0000
     1.0000   1.0000   1.0000   1.0000   1.0000   1.0000   1.0000   1.0000
     1.0000   1.0000   1.0000   1.0000   1.0000   1.0000   1.0000   1.0000
     1.0000   1.0000   1.0000   1.0000   1.0000   1.0000   1.0000   1.0000
     1.0000   1.0000   1.0000   1.0000   1.0000   1.0000   1.0000   1.0000
     1.0000   1.0000   1.0000   1.0000   1.0000   1.0000   1.0000   1.0000
     1.0000   1.0000   1.0000   1.0000   1.0000   1.0000   1.0000   1.0000
     1.0000   1.0000   1.0000   1.0000   1.0000   1.0000   1.0000   1.0000
     1.0000   1.0000   1.0000   1.0000   1.0000   1.0000   1.0000   1.0000
     1.0000   1.0000   1.0000   1.0000   1.0000   1.0000   1.0000   1.0000
     1.0000   1.0000   1.0000   1.0000   1.0000   1.0000   1.0000   1.0000
     1.0000   1.0000   1.0000   1.0000   1.0000   1.0000   1.0000   1.0000
     1.0000   1.0000   1.0000   1.0000   1.0000   1.0000   1.0000   1.0000
     1.0000   1.0000   1.0000   1.0000   1.0000   1.0000   1.0000   1.0000
     1.0000   1.0000   1.0000   1.0000   1.0000   1.0000   1.0000   1.0000
     1.0000   1.0000   1.0000   1.0000   1.0000   1.0000   1.0000   1.0000
     1.0000   1.0000   1.0000   1.0000   1.0000   1.0000   1.0000   1.0000
     1.0000   1.0000   1.0000   1.0000   1.0000   1.0000   1.0000   1.0000
     1.0000   1.0000   1.0000   1.0000   1.0000   1.0000   1.0000   1.0000
     1.0000   1.0000   1.0000   1.0000   1.0000   1.0000   1.0000   1.0000
     1.0000   1.0000   1.0000   1.0000   1.0000   1.0000   1.0000   1.0000
     1.0000   1.0000   1.0000   1.0000   1.0000   1.0000   1.0000   1.0000
     1.0000   1.0000   1.0000   1.0000   1.0000   1.0000   1.0000   1.0000
     1.0000   1.0000   1.0000   1.0000   1.0000   1.0000   1.0000   1.0000
     1.0000   1.0000   1.0000   1.0000   1.0000   1.0000   1.0000   1.0000
     1.0000   1.0000   1.0000   1.0024   1.0430   1.0434   1.0823   1.0826
     1.0806   1.0799   1.0652   0.4822   0.4500   0.3774   0.3652   0.1909
     0.1884   0.0950   0.0001   0.0000   0.0000   0.0000   0.0000   0.0000
     0.0000   0.0000   0.0000   0.0000   0.0000   0.0000   0.0000   0.0000
     0.0000   0.0000   0.0000   0.0000   0.0000   0.0000   0.0000   0.0000
     0.0000   0.0000   0.0000   0.0000   0.0000   0.0000   0.0000   0.0000
     0.0000   0.0000   0.0000   0.0000   0.0000   0.0000   0.0000   0.0000
     0.0000   0.0000   0.0000   0.0000   0.0000   0.0000   0.0000   0.0000
     0.0000   0.0000   0.0000   0.0000   0.0000   0.0000   0.0000   0.0000
     0.0000   0.0000   0.0000   0.0000   0.0000   0.0000   0.0000   0.0000
     0.0000   0.0000   0.0000   0.0000   0.0000   0.0000   0.0000   0.0000
     0.0000   0.0000   0.0000   0.0000   0.0000   0.0000   0.0000   0.0000
     0.0000   0.0000   0.0000   0.0000   0.0000   0.0000   0.0000   0.0000
     0.0000   0.0000   0.0000   0.0000   0.0000   0.0000   0.0000   0.0000
     0.0000   0.0000   0.0000   0.0000   0.0000   0.0000   0.0000   0.0000
     0.0000   0.0000   0.0000   0.0000   0.0000   0.0000   0.0000   0.0000
     0.0000   0.0000   0.0000   0.0000   0.0000   0.0000   0.0000   0.0000
     0.0000   0.0000   0.0000   0.0000   0.0000

          k = 0.0000 0.3628 0.1846 ( 46763 PWs)   bands (ev):

  -123.9896-123.9889-123.9884-123.9883-123.9880-123.9879-123.9876-123.9871
  -123.9493-123.9486-123.9480-123.9473-123.9470-123.9468-123.9460-123.9455
  -123.8879-123.8872-123.8866-123.8859-123.8856-123.8852-123.8849-123.8840
  -123.8447-123.8437-123.8421-123.8414-123.8411-123.8409-123.8398-123.8394
  -123.8163-123.8144-123.8133-123.8127-123.8126-123.8119-123.8115-123.8115
  -123.7230-123.7211-123.7200-123.7190-123.7181-123.7173-123.7168-123.7163
  -123.6907-123.6889-123.6885-123.6882-123.6881-123.6860-123.6856-123.6845
  -123.6081-123.6074-123.6070-123.6058-123.6049-123.6045-123.6018-123.6014
   -78.0925 -78.0916 -78.0827 -78.0821 -78.0815 -78.0805 -78.0792 -78.0787
   -78.0778 -78.0775 -78.0773 -78.0768 -78.0744 -78.0735 -78.0715 -78.0708
   -78.0702 -78.0698 -78.0696 -78.0677 -78.0673 -78.0667 -78.0658 -78.0620
   -78.0537 -78.0522 -78.0435 -78.0432 -78.0421 -78.0405 -78.0383 -78.0376
   -78.0367 -78.0364 -78.0358 -78.0349 -78.0339 -78.0331 -78.0319 -78.0311
   -78.0306 -78.0301 -78.0293 -78.0284 -78.0277 -78.0271 -78.0267 -78.0219
   -77.9899 -77.9880 -77.9805 -77.9799 -77.9782 -77.9780 -77.9769 -77.9763
   -77.9752 -77.9746 -77.9742 -77.9741 -77.9735 -77.9730 -77.9726 -77.9718
   -77.9710 -77.9705 -77.9699 -77.9677 -77.9657 -77.9640 -77.9636 -77.9597
   -77.9450 -77.9425 -77.9383 -77.9360 -77.9350 -77.9333 -77.9323 -77.9311
   -77.9304 -77.9300 -77.9290 -77.9287 -77.9281 -77.9277 -77.9275 -77.9271
   -77.9262 -77.9260 -77.9254 -77.9247 -77.9207 -77.9186 -77.9180 -77.9171
   -77.9154 -77.9138 -77.9134 -77.9130 -77.9130 -77.9123 -77.9115 -77.9111
   -77.9106 -77.9096 -77.9011 -77.9004 -77.9000 -77.8991 -77.8967 -77.8954
   -77.8947 -77.8938 -77.8927 -77.8909 -77.8866 -77.8860 -77.8843 -77.8809
   -77.8213 -77.8207 -77.8191 -77.8179 -77.8170 -77.8163 -77.8151 -77.8143
   -77.8136 -77.8131 -77.8107 -77.8092 -77.8079 -77.8077 -77.8061 -77.8036
   -77.8029 -77.8014 -77.8009 -77.7987 -77.7968 -77.7937 -77.7929 -77.7905
   -77.7890 -77.7884 -77.7883 -77.7879 -77.7876 -77.7856 -77.7851 -77.7849
   -77.7841 -77.7835 -77.7793 -77.7768 -77.7752 -77.7743 -77.7735 -77.7727
   -77.7720 -77.7707 -77.7692 -77.7677 -77.7609 -77.7602 -77.7583 -77.7545
   -77.7118 -77.7107 -77.7101 -77.7087 -77.7078 -77.7073 -77.7052 -77.7047
   -77.7013 -77.6978 -77.6962 -77.6940 -77.6926 -77.6912 -77.6909 -77.6891
   -77.6886 -77.6875 -77.6870 -77.6862 -77.6770 -77.6746 -77.6734 -77.6689
   -18.8494  -6.9875  -6.5057  -6.4754  -6.0897  -5.9344  -5.8326  -5.8278
    -5.5684  -5.5541  -5.5368  -5.4839  -5.4825  -5.4745  -5.4728  -5.4699
    -5.4545  -5.4385  -5.4383  -5.4373  -5.4251  -5.4140  -5.4014  -5.4010
    -5.3963  -5.3923  -5.3819  -5.3552  -5.3528  -5.3466  -5.3353  -5.3273
    -5.3233  -5.3074  -5.3072  -5.3052  -5.3045  -5.3025  -5.3002  -5.3000
    -5.2942  -5.2845  -5.2649  -5.2524  -5.2336  -5.2314  -5.2293  -5.2290
    -5.2182  -5.2169  -5.1967  -5.1935  -5.1905  -5.1887  -5.1723  -5.1719
    -5.1627  -5.1598  -5.1510  -5.1508  -5.1504  -5.1400  -5.1311  -5.1226
    -5.1197  -5.1078  -5.1047  -5.1044  -5.1039  -5.1030  -5.0996  -5.0837
    -5.0640  -5.0621  -5.0562  -5.0527  -5.0502  -5.0469  -5.0447  -5.0418
    -5.0404  -5.0258  -5.0208  -5.0172  -5.0137  -5.0063  -5.0045  -5.0008
    -5.0007  -4.9959  -4.9938  -4.9889  -4.9844  -4.9795  -4.9690  -4.9672
    -4.9552  -4.9551  -4.9489  -4.9230  -4.9228  -4.9212  -4.9178  -4.9147
    -4.9128  -4.9051  -4.8963  -4.8959  -4.8954  -4.8936  -4.8930  -4.8742
    -4.8720  -4.8718  -4.8715  -4.8579  -4.8547  -4.8499  -4.8481  -4.8451
    -4.8443  -4.8385  -4.8234  -4.8213  -4.8204  -4.8197  -4.8172  -4.7918
    -4.7910  -4.7885  -4.7822  -4.7809  -4.7759  -4.7738  -4.7573  -4.7486
    -4.7449  -4.7439  -4.7415  -4.7409  -4.7403  -4.7327  -4.7247  -4.7224
    -4.7184  -4.7068  -4.7053  -4.7051  -4.6984  -4.6966  -4.6949  -4.6895
    -4.6887  -4.6883  -4.6806  -4.6740  -4.6659  -4.6592  -4.6579  -4.6553
    -4.6542  -4.6398  -4.6393  -4.6344  -4.6266  -4.6230  -4.6172  -4.6161
    -4.6102  -4.6051  -4.6017  -4.5965  -4.5876  -4.5859  -4.5819  -4.5812
    -4.5782  -4.5679  -4.5661  -4.5624  -4.5615  -4.5567  -4.5540  -4.5516
    -4.5483  -4.5470  -4.5403  -4.5347  -4.5330  -4.5222  -4.5219  -4.5160
    -4.5158  -4.5130  -4.5112  -4.5108  -4.5068  -4.4951  -4.4915  -4.4913
    -4.4888  -4.4845  -4.4793  -4.4771  -4.4723  -4.4715  -4.4690  -4.4653
    -4.4650  -4.4585  -4.4497  -4.4488  -4.4473  -4.4467  -4.4424  -4.4364
    -4.4309  -4.4281  -4.4257  -4.4213  -4.4184  -4.4122  -4.4119  -4.4113
    -4.4065  -4.3997  -4.3958  -4.3898  -4.3883  -4.3816  -4.3801  -4.3740
    -4.3639  -4.3628  -4.3607  -4.3600  -4.3587  -4.3580  -4.3466  -4.3453
    -4.3451  -4.3446  -4.3359  -4.3339  -4.3300  -4.3279  -4.3255  -4.3171
    -4.3165  -4.3154  -4.3146  -4.3105  -4.3087  -4.3062  -4.3024  -4.2978
    -4.2930  -4.2913  -4.2867  -4.2851  -4.2824  -4.2776  -4.2768  -4.2760
    -4.2738  -4.2706  -4.2699  -4.2601  -4.2598  -4.2585  -4.2547  -4.2543
    -4.2539  -4.2463  -4.2458  -4.2415  -4.2393  -4.2348  -4.2326  -4.2321
    -4.2183  -4.2165  -4.2163  -4.2104  -4.2100  -4.2057  -4.2020  -4.2006
    -4.1984  -4.1937  -4.1928  -4.1918  -4.1865  -4.1854  -4.1800  -4.1786
    -4.1747  -4.1739  -4.1723  -4.1697  -4.1692  -4.1642  -4.1571  -4.1545
    -4.1543  -4.1531  -4.1484  -4.1414  -4.1399  -4.1380  -4.1334  -4.1314
    -4.1251  -4.1247  -4.1198  -4.1122  -4.1018  -4.0965  -4.0944  -4.0786
    -4.0781  -4.0752  -4.0742  -4.0540  -4.0516  -4.0494  -4.0326  -3.9886
    -3.9762  -3.7970  -3.7374  -3.7105  -3.5701  -3.4767  -3.3816  -3.1192
    -2.9341  -2.8218  -2.7593  -2.6118  -2.3284  -2.3219  -2.1355  -2.0608
    -1.7546  -1.6698  -1.5326  -1.3748  -1.3141  -1.2754  -1.0620  -0.9260
    -0.8025  -0.7245  -0.6034  -0.5607  -0.3608  -0.3302  -0.2449  -0.2240
    -0.2017  -0.0203   0.0380   0.4791   0.5469   0.5961   0.5987   0.6906
     0.8313   0.8359   0.8420   1.0328   1.1839   1.4504   1.4940   1.5208
     1.6336   1.6662   1.7058   1.7670   1.7770   1.9126   1.9755   2.3050
     2.4756   2.5655   2.6663   2.7200   2.8079   2.9646   2.9996   3.1109
     3.3661   3.4558   3.6319   3.6932   3.7478   3.8076   3.9060   4.0047
     4.0222   4.1077   4.2816   4.3262   4.3985   4.6551   4.7262   4.7577
     4.8224   4.8716   4.9239   5.0227   5.0318   5.1317   5.1582   5.1932
     5.3982   5.4083   5.4726   5.4990   5.5088   5.5918   5.6749   5.8087
     5.9401   6.0305   6.0409   6.0671   6.1178   6.1630   6.1972   6.2236
     6.2475   6.3358   6.3563   6.4439   6.4765   6.4972   6.5097   6.6346
     6.6601   6.6950   6.9112   6.9347   6.9450   6.9607   7.0304   7.0700
     7.0853   7.1093   7.2228   7.2888   7.2990   7.3719   7.4072   7.4735
     7.5456   7.5706   7.5782   7.5874   7.6620   7.7380   7.7583   7.8409
     7.9461   7.9725   8.0089   8.1383   8.1504   8.1974   8.2426   8.3096
     8.3307   8.4022   8.4046   8.4616   8.5027   8.5188   8.6522   8.7072
     8.7578   8.7810   8.8070   8.8347   8.8759   8.9340   8.9879   8.9984
     9.0352   9.2147   9.2502   9.2605   9.3254   9.3297   9.3622   9.3955
     9.5160   9.5704   9.6814   9.6915   9.7275   9.7404   9.7736   9.8115
     9.8445   9.8867   9.9740   9.9897  10.0227  10.0887  10.1321  10.1878
    10.2024  10.2574  10.3031  10.3398  10.3612

     occupation numbers 
     1.0000   1.0000   1.0000   1.0000   1.0000   1.0000   1.0000   1.0000
     1.0000   1.0000   1.0000   1.0000   1.0000   1.0000   1.0000   1.0000
     1.0000   1.0000   1.0000   1.0000   1.0000   1.0000   1.0000   1.0000
     1.0000   1.0000   1.0000   1.0000   1.0000   1.0000   1.0000   1.0000
     1.0000   1.0000   1.0000   1.0000   1.0000   1.0000   1.0000   1.0000
     1.0000   1.0000   1.0000   1.0000   1.0000   1.0000   1.0000   1.0000
     1.0000   1.0000   1.0000   1.0000   1.0000   1.0000   1.0000   1.0000
     1.0000   1.0000   1.0000   1.0000   1.0000   1.0000   1.0000   1.0000
     1.0000   1.0000   1.0000   1.0000   1.0000   1.0000   1.0000   1.0000
     1.0000   1.0000   1.0000   1.0000   1.0000   1.0000   1.0000   1.0000
     1.0000   1.0000   1.0000   1.0000   1.0000   1.0000   1.0000   1.0000
     1.0000   1.0000   1.0000   1.0000   1.0000   1.0000   1.0000   1.0000
     1.0000   1.0000   1.0000   1.0000   1.0000   1.0000   1.0000   1.0000
     1.0000   1.0000   1.0000   1.0000   1.0000   1.0000   1.0000   1.0000
     1.0000   1.0000   1.0000   1.0000   1.0000   1.0000   1.0000   1.0000
     1.0000   1.0000   1.0000   1.0000   1.0000   1.0000   1.0000   1.0000
     1.0000   1.0000   1.0000   1.0000   1.0000   1.0000   1.0000   1.0000
     1.0000   1.0000   1.0000   1.0000   1.0000   1.0000   1.0000   1.0000
     1.0000   1.0000   1.0000   1.0000   1.0000   1.0000   1.0000   1.0000
     1.0000   1.0000   1.0000   1.0000   1.0000   1.0000   1.0000   1.0000
     1.0000   1.0000   1.0000   1.0000   1.0000   1.0000   1.0000   1.0000
     1.0000   1.0000   1.0000   1.0000   1.0000   1.0000   1.0000   1.0000
     1.0000   1.0000   1.0000   1.0000   1.0000   1.0000   1.0000   1.0000
     1.0000   1.0000   1.0000   1.0000   1.0000   1.0000   1.0000   1.0000
     1.0000   1.0000   1.0000   1.0000   1.0000   1.0000   1.0000   1.0000
     1.0000   1.0000   1.0000   1.0000   1.0000   1.0000   1.0000   1.0000
     1.0000   1.0000   1.0000   1.0000   1.0000   1.0000   1.0000   1.0000
     1.0000   1.0000   1.0000   1.0000   1.0000   1.0000   1.0000   1.0000
     1.0000   1.0000   1.0000   1.0000   1.0000   1.0000   1.0000   1.0000
     1.0000   1.0000   1.0000   1.0000   1.0000   1.0000   1.0000   1.0000
     1.0000   1.0000   1.0000   1.0000   1.0000   1.0000   1.0000   1.0000
     1.0000   1.0000   1.0000   1.0000   1.0000   1.0000   1.0000   1.0000
     1.0000   1.0000   1.0000   1.0000   1.0000   1.0000   1.0000   1.0000
     1.0000   1.0000   1.0000   1.0000   1.0000   1.0000   1.0000   1.0000
     1.0000   1.0000   1.0000   1.0000   1.0000   1.0000   1.0000   1.0000
     1.0000   1.0000   1.0000   1.0000   1.0000   1.0000   1.0000   1.0000
     1.0000   1.0000   1.0000   1.0000   1.0000   1.0000   1.0000   1.0000
     1.0000   1.0000   1.0000   1.0000   1.0000   1.0000   1.0000   1.0000
     1.0000   1.0000   1.0000   1.0000   1.0000   1.0000   1.0000   1.0000
     1.0000   1.0000   1.0000   1.0000   1.0000   1.0000   1.0000   1.0000
     1.0000   1.0000   1.0000   1.0000   1.0000   1.0000   1.0000   1.0000
     1.0000   1.0000   1.0000   1.0000   1.0000   1.0000   1.0000   1.0000
     1.0000   1.0000   1.0000   1.0000   1.0000   1.0000   1.0000   1.0000
     1.0000   1.0000   1.0000   1.0000   1.0000   1.0000   1.0000   1.0000
     1.0000   1.0000   1.0000   1.0000   1.0000   1.0000   1.0000   1.0000
     1.0000   1.0000   1.0000   1.0000   1.0000   1.0000   1.0000   1.0000
     1.0000   1.0000   1.0000   1.0000   1.0000   1.0000   1.0000   1.0000
     1.0000   1.0000   1.0000   1.0000   1.0000   1.0000   1.0000   1.0000
     1.0000   1.0000   1.0000   1.0000   1.0000   1.0000   1.0000   1.0000
     1.0000   1.0000   1.0000   1.0000   1.0000   1.0000   1.0000   1.0000
     1.0000   1.0000   1.0000   1.0000   1.0000   1.0000   1.0000   1.0000
     1.0000   1.0000   1.0000   1.0000   1.0000   1.0000   1.0000   1.0000
     1.0000   1.0000   1.0000   1.0000   1.0000   1.0000   1.0000   1.0000
     1.0000   1.0000   1.0000   1.0000   1.0000   1.0000   1.0000   1.0000
     1.0000   1.0000   1.0000   1.0000   1.0000   1.0000   1.0000   1.0000
     1.0000   1.0000   1.0000   1.0000   1.0000   1.0000   1.0000   1.0000
     1.0000   1.0000   1.0000   1.0000   1.0000   1.0000   1.0000   1.0000
     1.0000   1.0000   1.0000   1.0000   1.0000   1.0000   1.0000   1.0000
     1.0000   1.0000   1.0000   1.0000   1.0000   1.0000   1.0000   1.0000
     1.0000   1.0000   1.0000   1.0000   1.0000   1.0000   1.0000   1.0000
     1.0000   1.0000   1.0000   1.0000   1.0000   1.0000   1.0000   1.0000
     1.0000   1.0000   1.0000   1.0000   1.0000   1.0000   1.0000   1.0000
     1.0000   1.0000   1.0000   1.0000   1.0000   1.0000   1.0000   1.0000
     1.0000   1.0000   1.0000   1.0000   1.0000   1.0000   1.0000   1.0000
     1.0000   1.0000   1.0000   1.0000   1.0000   1.0000   1.0000   1.0000
     1.0000   1.0000   1.0000   1.0000   1.0000   1.0000   1.0000   1.0000
     1.0000   1.0000   1.0000   1.0000   1.0000   1.0000   1.0000   1.0000
     1.0000   1.0000   1.0000   1.0000   1.0000   1.0000   1.0000   1.0000
     1.0000   1.0000   1.0000   1.0000   1.0000   1.0000   1.0000   1.0000
     1.0000   1.0000   1.0000   1.0000   1.0000   1.0000   1.0000   1.0000
     1.0000   1.0000   1.0000   1.0000   1.0000   1.0000   1.0000   1.0000
     1.0000   1.0000   1.0000   1.0000   1.0000   1.0000   1.0000   1.0000
     1.0000   1.0000   1.0000   1.0000   1.0000   1.0000   1.0000   1.0000
     1.0000   1.0000   1.0000   1.0000   1.0000   1.0000   1.0000   1.0000
     1.0000   1.0000   1.0000   1.0000   1.0000   1.0000   1.0000   1.0000
     1.0000   1.0000   1.0000   1.0000   1.0000   1.0000   1.0000   1.0000
     1.0000   1.0000   1.0000   1.0000   1.0000   1.0000   1.0000   1.0000
     1.0000   1.0000   1.0000   1.0000   1.0000   1.0000   1.0000   1.0000
     1.0000   1.0000   1.0000   1.0000   1.0000   1.0000   1.0000   1.0000
     1.0000   1.0000   1.0000   1.0001   1.0001   1.0014   1.0037   1.0781
     1.0090   0.8441   0.5790   0.4338   0.2343   0.0489   0.0317   0.0065
     0.0000   0.0000   0.0000   0.0000   0.0000   0.0000   0.0000   0.0000
     0.0000   0.0000   0.0000   0.0000   0.0000   0.0000   0.0000   0.0000
     0.0000   0.0000   0.0000   0.0000   0.0000   0.0000   0.0000   0.0000
     0.0000   0.0000   0.0000   0.0000   0.0000   0.0000   0.0000   0.0000
     0.0000   0.0000   0.0000   0.0000   0.0000   0.0000   0.0000   0.0000
     0.0000   0.0000   0.0000   0.0000   0.0000   0.0000   0.0000   0.0000
     0.0000   0.0000   0.0000   0.0000   0.0000   0.0000   0.0000   0.0000
     0.0000   0.0000   0.0000   0.0000   0.0000   0.0000   0.0000   0.0000
     0.0000   0.0000   0.0000   0.0000   0.0000   0.0000   0.0000   0.0000
     0.0000   0.0000   0.0000   0.0000   0.0000   0.0000   0.0000   0.0000
     0.0000   0.0000   0.0000   0.0000   0.0000   0.0000   0.0000   0.0000
     0.0000   0.0000   0.0000   0.0000   0.0000   0.0000   0.0000   0.0000
     0.0000   0.0000   0.0000   0.0000   0.0000   0.0000   0.0000   0.0000
     0.0000   0.0000   0.0000   0.0000   0.0000   0.0000   0.0000   0.0000
     0.0000   0.0000   0.0000   0.0000   0.0000   0.0000   0.0000   0.0000
     0.0000   0.0000   0.0000   0.0000   0.0000

          k = 0.3333 0.0811 0.7384 ( 46775 PWs)   bands (ev):

  -123.9894-123.9888-123.9885-123.9884-123.9882-123.9881-123.9877-123.9872
  -123.9492-123.9485-123.9480-123.9475-123.9471-123.9468-123.9461-123.9456
  -123.8877-123.8872-123.8865-123.8860-123.8857-123.8853-123.8849-123.8841
  -123.8447-123.8437-123.8418-123.8415-123.8413-123.8411-123.8398-123.8395
  -123.8163-123.8144-123.8131-123.8129-123.8126-123.8121-123.8117-123.8115
  -123.7230-123.7211-123.7201-123.7190-123.7181-123.7173-123.7169-123.7164
  -123.6906-123.6889-123.6885-123.6883-123.6881-123.6861-123.6858-123.6845
  -123.6080-123.6074-123.6070-123.6058-123.6049-123.6046-123.6019-123.6015
   -78.0953 -78.0947 -78.0811 -78.0798 -78.0794 -78.0790 -78.0789 -78.0784
   -78.0779 -78.0773 -78.0758 -78.0747 -78.0741 -78.0739 -78.0720 -78.0713
   -78.0711 -78.0707 -78.0707 -78.0703 -78.0698 -78.0686 -78.0628 -78.0622
   -78.0566 -78.0554 -78.0413 -78.0396 -78.0386 -78.0379 -78.0378 -78.0373
   -78.0371 -78.0367 -78.0358 -78.0354 -78.0346 -78.0337 -78.0329 -78.0320
   -78.0312 -78.0312 -78.0309 -78.0302 -78.0294 -78.0285 -78.0237 -78.0224
   -77.9928 -77.9910 -77.9788 -77.9775 -77.9769 -77.9761 -77.9754 -77.9752
   -77.9748 -77.9743 -77.9738 -77.9735 -77.9734 -77.9730 -77.9729 -77.9721
   -77.9718 -77.9713 -77.9706 -77.9694 -77.9684 -77.9675 -77.9609 -77.9591
   -77.9480 -77.9455 -77.9365 -77.9345 -77.9331 -77.9317 -77.9315 -77.9308
   -77.9308 -77.9297 -77.9294 -77.9286 -77.9280 -77.9278 -77.9271 -77.9270
   -77.9267 -77.9265 -77.9260 -77.9249 -77.9242 -77.9220 -77.9173 -77.9153
   -77.9152 -77.9140 -77.9135 -77.9133 -77.9133 -77.9129 -77.9128 -77.9126
   -77.9119 -77.9116 -77.9000 -77.8976 -77.8964 -77.8960 -77.8954 -77.8949
   -77.8947 -77.8945 -77.8930 -77.8916 -77.8913 -77.8889 -77.8813 -77.8810
   -77.8241 -77.8209 -77.8205 -77.8193 -77.8168 -77.8164 -77.8154 -77.8148
   -77.8142 -77.8134 -77.8086 -77.8075 -77.8060 -77.8046 -77.8039 -77.8033
   -77.8029 -77.8022 -77.8016 -77.7997 -77.7992 -77.7976 -77.7907 -77.7906
   -77.7890 -77.7886 -77.7882 -77.7881 -77.7878 -77.7877 -77.7872 -77.7860
   -77.7850 -77.7839 -77.7775 -77.7754 -77.7740 -77.7739 -77.7731 -77.7716
   -77.7712 -77.7693 -77.7678 -77.7672 -77.7656 -77.7630 -77.7553 -77.7547
   -77.7116 -77.7107 -77.7102 -77.7087 -77.7084 -77.7077 -77.7059 -77.7051
   -77.7041 -77.7009 -77.6947 -77.6934 -77.6930 -77.6918 -77.6904 -77.6897
   -77.6878 -77.6865 -77.6843 -77.6834 -77.6798 -77.6777 -77.6717 -77.6681
   -18.8494  -7.0157  -6.6219  -6.4759  -5.9794  -5.8775  -5.7512  -5.7390
    -5.7263  -5.6511  -5.6238  -5.5355  -5.5340  -5.5205  -5.5199  -5.5194
    -5.5060  -5.4572  -5.4571  -5.4360  -5.4358  -5.4195  -5.3943  -5.3936
    -5.3659  -5.3642  -5.3611  -5.3375  -5.3294  -5.3181  -5.3135  -5.3085
    -5.2855  -5.2801  -5.2799  -5.2777  -5.2742  -5.2681  -5.2644  -5.2569
    -5.2417  -5.2409  -5.2368  -5.2320  -5.2155  -5.2133  -5.2065  -5.2062
    -5.2027  -5.1973  -5.1967  -5.1907  -5.1837  -5.1817  -5.1651  -5.1549
    -5.1515  -5.1513  -5.1512  -5.1506  -5.1488  -5.1393  -5.1281  -5.1196
    -5.1165  -5.1164  -5.1151  -5.0922  -5.0919  -5.0891  -5.0862  -5.0795
    -5.0716  -5.0676  -5.0560  -5.0548  -5.0466  -5.0457  -5.0352  -5.0271
    -5.0261  -5.0219  -5.0205  -5.0152  -5.0108  -5.0104  -5.0091  -5.0022
    -4.9991  -4.9943  -4.9863  -4.9778  -4.9702  -4.9636  -4.9633  -4.9539
    -4.9527  -4.9383  -4.9321  -4.9272  -4.9218  -4.9202  -4.9178  -4.9058
    -4.8999  -4.8932  -4.8926  -4.8923  -4.8911  -4.8849  -4.8845  -4.8826
    -4.8691  -4.8623  -4.8547  -4.8524  -4.8508  -4.8469  -4.8457  -4.8452
    -4.8448  -4.8275  -4.8180  -4.8077  -4.7928  -4.7889  -4.7870  -4.7832
    -4.7819  -4.7601  -4.7595  -4.7590  -4.7546  -4.7472  -4.7455  -4.7389
    -4.7381  -4.7343  -4.7218  -4.7194  -4.7189  -4.7157  -4.7150  -4.6995
    -4.6975  -4.6940  -4.6932  -4.6901  -4.6892  -4.6889  -4.6885  -4.6880
    -4.6801  -4.6791  -4.6670  -4.6652  -4.6612  -4.6550  -4.6535  -4.6512
    -4.6500  -4.6394  -4.6360  -4.6306  -4.6286  -4.6281  -4.6191  -4.6173
    -4.6154  -4.6135  -4.6132  -4.6084  -4.6075  -4.6071  -4.6071  -4.6012
    -4.5990  -4.5973  -4.5957  -4.5932  -4.5867  -4.5757  -4.5706  -4.5689
    -4.5588  -4.5587  -4.5441  -4.5382  -4.5335  -4.5235  -4.5232  -4.5201
    -4.5180  -4.5146  -4.5102  -4.5086  -4.5070  -4.4923  -4.4892  -4.4828
    -4.4798  -4.4784  -4.4779  -4.4758  -4.4752  -4.4734  -4.4656  -4.4642
    -4.4627  -4.4567  -4.4565  -4.4562  -4.4557  -4.4553  -4.4513  -4.4427
    -4.4419  -4.4383  -4.4375  -4.4343  -4.4296  -4.4291  -4.4222  -4.4199
    -4.4191  -4.4147  -4.4100  -4.4094  -4.4059  -4.4017  -4.3934  -4.3931
    -4.3889  -4.3874  -4.3802  -4.3796  -4.3750  -4.3747  -4.3745  -4.3741
    -4.3630  -4.3608  -4.3599  -4.3581  -4.3562  -4.3554  -4.3553  -4.3549
    -4.3518  -4.3503  -4.3327  -4.3291  -4.3266  -4.3258  -4.3184  -4.3182
    -4.3101  -4.3044  -4.3031  -4.3029  -4.3024  -4.3023  -4.2965  -4.2911
    -4.2908  -4.2816  -4.2658  -4.2652  -4.2645  -4.2640  -4.2603  -4.2562
    -4.2495  -4.2456  -4.2448  -4.2438  -4.2432  -4.2420  -4.2418  -4.2412
    -4.2388  -4.2316  -4.2311  -4.2271  -4.2181  -4.2112  -4.2105  -4.2083
    -4.2053  -4.1930  -4.1917  -4.1909  -4.1855  -4.1843  -4.1830  -4.1779
    -4.1756  -4.1662  -4.1661  -4.1658  -4.1647  -4.1637  -4.1633  -4.1627
    -4.1585  -4.1563  -4.1559  -4.1398  -4.1395  -4.1332  -4.1284  -4.1262
    -4.1255  -4.1178  -4.1175  -4.1003  -4.0988  -4.0758  -4.0743  -4.0600
    -4.0536  -4.0401  -4.0388  -3.9934  -3.9931  -3.9927  -3.9892  -3.9222
    -3.9207  -3.8458  -3.8062  -3.7721  -3.6234  -3.4279  -3.4068  -3.1667
    -3.0338  -2.9355  -2.7924  -2.6918  -2.6017  -2.3675  -2.3542  -1.9245
    -1.7585  -1.6710  -1.6298  -1.5539  -1.1691  -1.0133  -0.8839  -0.7835
    -0.7595  -0.7565  -0.5508  -0.4773  -0.2908  -0.1678  -0.0201   0.0176
     0.0181   0.3077   0.3089   0.3614   0.5635   0.6636   0.7828   0.8258
     0.8424   0.8429   0.8977   1.0595   1.0690   1.0697   1.2311   1.4834
     1.4970   1.5570   1.7022   1.7996   1.8000   1.9515   2.1888   2.2847
     2.3646   2.3693   2.3926   2.8386   2.9530   2.9941   3.0717   3.1872
     3.2545   3.2594   3.3562   3.3968   3.6637   3.6692   3.7284   3.8653
     3.9751   4.0112   4.0486   4.0811   4.2273   4.3472   4.3919   4.3977
     4.4669   4.7971   4.8056   4.9547   4.9628   4.9762   5.0113   5.0764
     5.3471   5.3761   5.4878   5.4906   5.7303   5.7327   5.7815   5.8281
     5.8734   6.0346   6.2496   6.2751   6.2934   6.3177   6.4034   6.4341
     6.4428   6.4909   6.5024   6.5575   6.5842   6.6172   6.6586   6.7064
     6.7080   6.8768   6.9464   6.9861   7.0468   7.1838   7.2010   7.2061
     7.2317   7.3128   7.3483   7.3870   7.5205   7.5884   7.6040   7.6334
     7.6588   7.7019   7.7197   7.7476   7.7870   7.8131   7.9089   7.9500
     7.9553   8.0442   8.1011   8.1277   8.1814   8.2050   8.2179   8.2838
     8.3919   8.6206   8.6509   8.6720   8.6947   8.7009   8.7167   8.7622
     8.7715   8.8155   8.8220   8.8709   8.9203   8.9927   9.0923   9.1304
     9.1514   9.2475   9.2554   9.2934   9.3433   9.3622   9.4089   9.4327
     9.4404   9.4762   9.4912   9.5283   9.5411   9.5489   9.5840   9.6597
     9.6665   9.6941   9.7439   9.7735   9.8255   9.8709   9.8907   9.9647
     9.9863  10.0436  10.0632  10.1643  10.1873

     occupation numbers 
     1.0000   1.0000   1.0000   1.0000   1.0000   1.0000   1.0000   1.0000
     1.0000   1.0000   1.0000   1.0000   1.0000   1.0000   1.0000   1.0000
     1.0000   1.0000   1.0000   1.0000   1.0000   1.0000   1.0000   1.0000
     1.0000   1.0000   1.0000   1.0000   1.0000   1.0000   1.0000   1.0000
     1.0000   1.0000   1.0000   1.0000   1.0000   1.0000   1.0000   1.0000
     1.0000   1.0000   1.0000   1.0000   1.0000   1.0000   1.0000   1.0000
     1.0000   1.0000   1.0000   1.0000   1.0000   1.0000   1.0000   1.0000
     1.0000   1.0000   1.0000   1.0000   1.0000   1.0000   1.0000   1.0000
     1.0000   1.0000   1.0000   1.0000   1.0000   1.0000   1.0000   1.0000
     1.0000   1.0000   1.0000   1.0000   1.0000   1.0000   1.0000   1.0000
     1.0000   1.0000   1.0000   1.0000   1.0000   1.0000   1.0000   1.0000
     1.0000   1.0000   1.0000   1.0000   1.0000   1.0000   1.0000   1.0000
     1.0000   1.0000   1.0000   1.0000   1.0000   1.0000   1.0000   1.0000
     1.0000   1.0000   1.0000   1.0000   1.0000   1.0000   1.0000   1.0000
     1.0000   1.0000   1.0000   1.0000   1.0000   1.0000   1.0000   1.0000
     1.0000   1.0000   1.0000   1.0000   1.0000   1.0000   1.0000   1.0000
     1.0000   1.0000   1.0000   1.0000   1.0000   1.0000   1.0000   1.0000
     1.0000   1.0000   1.0000   1.0000   1.0000   1.0000   1.0000   1.0000
     1.0000   1.0000   1.0000   1.0000   1.0000   1.0000   1.0000   1.0000
     1.0000   1.0000   1.0000   1.0000   1.0000   1.0000   1.0000   1.0000
     1.0000   1.0000   1.0000   1.0000   1.0000   1.0000   1.0000   1.0000
     1.0000   1.0000   1.0000   1.0000   1.0000   1.0000   1.0000   1.0000
     1.0000   1.0000   1.0000   1.0000   1.0000   1.0000   1.0000   1.0000
     1.0000   1.0000   1.0000   1.0000   1.0000   1.0000   1.0000   1.0000
     1.0000   1.0000   1.0000   1.0000   1.0000   1.0000   1.0000   1.0000
     1.0000   1.0000   1.0000   1.0000   1.0000   1.0000   1.0000   1.0000
     1.0000   1.0000   1.0000   1.0000   1.0000   1.0000   1.0000   1.0000
     1.0000   1.0000   1.0000   1.0000   1.0000   1.0000   1.0000   1.0000
     1.0000   1.0000   1.0000   1.0000   1.0000   1.0000   1.0000   1.0000
     1.0000   1.0000   1.0000   1.0000   1.0000   1.0000   1.0000   1.0000
     1.0000   1.0000   1.0000   1.0000   1.0000   1.0000   1.0000   1.0000
     1.0000   1.0000   1.0000   1.0000   1.0000   1.0000   1.0000   1.0000
     1.0000   1.0000   1.0000   1.0000   1.0000   1.0000   1.0000   1.0000
     1.0000   1.0000   1.0000   1.0000   1.0000   1.0000   1.0000   1.0000
     1.0000   1.0000   1.0000   1.0000   1.0000   1.0000   1.0000   1.0000
     1.0000   1.0000   1.0000   1.0000   1.0000   1.0000   1.0000   1.0000
     1.0000   1.0000   1.0000   1.0000   1.0000   1.0000   1.0000   1.0000
     1.0000   1.0000   1.0000   1.0000   1.0000   1.0000   1.0000   1.0000
     1.0000   1.0000   1.0000   1.0000   1.0000   1.0000   1.0000   1.0000
     1.0000   1.0000   1.0000   1.0000   1.0000   1.0000   1.0000   1.0000
     1.0000   1.0000   1.0000   1.0000   1.0000   1.0000   1.0000   1.0000
     1.0000   1.0000   1.0000   1.0000   1.0000   1.0000   1.0000   1.0000
     1.0000   1.0000   1.0000   1.0000   1.0000   1.0000   1.0000   1.0000
     1.0000   1.0000   1.0000   1.0000   1.0000   1.0000   1.0000   1.0000
     1.0000   1.0000   1.0000   1.0000   1.0000   1.0000   1.0000   1.0000
     1.0000   1.0000   1.0000   1.0000   1.0000   1.0000   1.0000   1.0000
     1.0000   1.0000   1.0000   1.0000   1.0000   1.0000   1.0000   1.0000
     1.0000   1.0000   1.0000   1.0000   1.0000   1.0000   1.0000   1.0000
     1.0000   1.0000   1.0000   1.0000   1.0000   1.0000   1.0000   1.0000
     1.0000   1.0000   1.0000   1.0000   1.0000   1.0000   1.0000   1.0000
     1.0000   1.0000   1.0000   1.0000   1.0000   1.0000   1.0000   1.0000
     1.0000   1.0000   1.0000   1.0000   1.0000   1.0000   1.0000   1.0000
     1.0000   1.0000   1.0000   1.0000   1.0000   1.0000   1.0000   1.0000
     1.0000   1.0000   1.0000   1.0000   1.0000   1.0000   1.0000   1.0000
     1.0000   1.0000   1.0000   1.0000   1.0000   1.0000   1.0000   1.0000
     1.0000   1.0000   1.0000   1.0000   1.0000   1.0000   1.0000   1.0000
     1.0000   1.0000   1.0000   1.0000   1.0000   1.0000   1.0000   1.0000
     1.0000   1.0000   1.0000   1.0000   1.0000   1.0000   1.0000   1.0000
     1.0000   1.0000   1.0000   1.0000   1.0000   1.0000   1.0000   1.0000
     1.0000   1.0000   1.0000   1.0000   1.0000   1.0000   1.0000   1.0000
     1.0000   1.0000   1.0000   1.0000   1.0000   1.0000   1.0000   1.0000
     1.0000   1.0000   1.0000   1.0000   1.0000   1.0000   1.0000   1.0000
     1.0000   1.0000   1.0000   1.0000   1.0000   1.0000   1.0000   1.0000
     1.0000   1.0000   1.0000   1.0000   1.0000   1.0000   1.0000   1.0000
     1.0000   1.0000   1.0000   1.0000   1.0000   1.0000   1.0000   1.0000
     1.0000   1.0000   1.0000   1.0000   1.0000   1.0000   1.0000   1.0000
     1.0000   1.0000   1.0000   1.0000   1.0000   1.0000   1.0000   1.0000
     1.0000   1.0000   1.0000   1.0000   1.0000   1.0000   1.0000   1.0000
     1.0000   1.0000   1.0000   1.0000   1.0000   1.0000   1.0000   1.0000
     1.0000   1.0000   1.0000   1.0000   1.0000   1.0000   1.0000   1.0000
     1.0000   1.0000   1.0000   1.0000   1.0000   1.0000   1.0000   1.0000
     1.0000   1.0000   1.0000   1.0000   1.0000   1.0000   1.0000   1.0000
     1.0000   1.0000   1.0000   1.0000   1.0000   1.0000   1.0000   1.0000
     1.0000   1.0000   1.0000   1.0000   1.0000   1.0000   1.0000   1.0000
     1.0000   1.0000   1.0000   1.0000   1.0000   1.0000   1.0000   1.0000
     1.0000   1.0000   1.0000   1.0000   1.0000   1.0000   1.0000   1.0000
     1.0000   1.0000   1.0000   1.0000   1.0000   1.0000   1.0000   1.0000
     1.0000   1.0000   1.0000   1.0000   1.0000   1.0000   1.0000   1.0000
     1.0000   1.0000   1.0000   1.0000   1.0000   1.0000   1.0000   1.0000
     1.0000   1.0000   1.0000   1.0002   1.0002   1.0026   1.0413   1.0730
     1.0824   1.0817   1.0759   0.1809   0.0561   0.0340   0.0117   0.0018
     0.0005   0.0005   0.0001   0.0000   0.0000   0.0000   0.0000   0.0000
     0.0000   0.0000   0.0000   0.0000   0.0000   0.0000   0.0000   0.0000
     0.0000   0.0000   0.0000   0.0000   0.0000   0.0000   0.0000   0.0000
     0.0000   0.0000   0.0000   0.0000   0.0000   0.0000   0.0000   0.0000
     0.0000   0.0000   0.0000   0.0000   0.0000   0.0000   0.0000   0.0000
     0.0000   0.0000   0.0000   0.0000   0.0000   0.0000   0.0000   0.0000
     0.0000   0.0000   0.0000   0.0000   0.0000   0.0000   0.0000   0.0000
     0.0000   0.0000   0.0000   0.0000   0.0000   0.0000   0.0000   0.0000
     0.0000   0.0000   0.0000   0.0000   0.0000   0.0000   0.0000   0.0000
     0.0000   0.0000   0.0000   0.0000   0.0000   0.0000   0.0000   0.0000
     0.0000   0.0000   0.0000   0.0000   0.0000   0.0000   0.0000   0.0000
     0.0000   0.0000   0.0000   0.0000   0.0000   0.0000   0.0000   0.0000
     0.0000   0.0000   0.0000   0.0000   0.0000   0.0000   0.0000   0.0000
     0.0000   0.0000   0.0000   0.0000   0.0000   0.0000   0.0000   0.0000
     0.0000   0.0000   0.0000   0.0000   0.0000   0.0000   0.0000   0.0000
     0.0000   0.0000   0.0000   0.0000   0.0000

          k = 0.3333 0.4439 0.9230 ( 46734 PWs)   bands (ev):

  -123.9890-123.9889-123.9885-123.9883-123.9880-123.9879-123.9876-123.9871
  -123.9490-123.9485-123.9479-123.9473-123.9470-123.9467-123.9460-123.9455
  -123.8875-123.8872-123.8865-123.8859-123.8856-123.8852-123.8849-123.8840
  -123.8445-123.8436-123.8418-123.8414-123.8412-123.8410-123.8398-123.8394
  -123.8162-123.8142-123.8130-123.8128-123.8125-123.8120-123.8116-123.8114
  -123.7229-123.7210-123.7200-123.7189-123.7180-123.7172-123.7168-123.7163
  -123.6905-123.6887-123.6885-123.6883-123.6880-123.6860-123.6857-123.6844
  -123.6078-123.6074-123.6070-123.6057-123.6048-123.6045-123.6018-123.6014
   -78.0924 -78.0899 -78.0821 -78.0815 -78.0805 -78.0800 -78.0787 -78.0781
   -78.0778 -78.0776 -78.0773 -78.0770 -78.0737 -78.0725 -78.0719 -78.0714
   -78.0706 -78.0702 -78.0697 -78.0691 -78.0676 -78.0671 -78.0633 -78.0625
   -78.0535 -78.0508 -78.0434 -78.0421 -78.0407 -78.0398 -78.0379 -78.0377
   -78.0368 -78.0364 -78.0355 -78.0352 -78.0334 -78.0327 -78.0317 -78.0315
   -78.0306 -78.0302 -78.0296 -78.0292 -78.0282 -78.0275 -78.0242 -78.0226
   -77.9897 -77.9867 -77.9799 -77.9783 -77.9781 -77.9773 -77.9764 -77.9755
   -77.9747 -77.9742 -77.9740 -77.9738 -77.9734 -77.9732 -77.9728 -77.9725
   -77.9713 -77.9709 -77.9704 -77.9695 -77.9658 -77.9641 -77.9615 -77.9597
   -77.9447 -77.9412 -77.9363 -77.9350 -77.9345 -77.9333 -77.9324 -77.9314
   -77.9306 -77.9298 -77.9296 -77.9286 -77.9285 -77.9281 -77.9271 -77.9268
   -77.9265 -77.9264 -77.9250 -77.9249 -77.9207 -77.9183 -77.9166 -77.9158
   -77.9145 -77.9136 -77.9132 -77.9128 -77.9124 -77.9120 -77.9113 -77.9112
   -77.9106 -77.9084 -77.9004 -77.9001 -77.8999 -77.8978 -77.8970 -77.8958
   -77.8950 -77.8943 -77.8934 -77.8927 -77.8865 -77.8860 -77.8819 -77.8813
   -77.8208 -77.8198 -77.8186 -77.8169 -77.8164 -77.8154 -77.8148 -77.8140
   -77.8136 -77.8129 -77.8107 -77.8084 -77.8079 -77.8073 -77.8058 -77.8040
   -77.8030 -77.8018 -77.8015 -77.8003 -77.7966 -77.7936 -77.7912 -77.7901
   -77.7890 -77.7881 -77.7879 -77.7875 -77.7872 -77.7853 -77.7850 -77.7848
   -77.7834 -77.7826 -77.7774 -77.7756 -77.7750 -77.7744 -77.7738 -77.7731
   -77.7725 -77.7713 -77.7702 -77.7688 -77.7607 -77.7601 -77.7559 -77.7551
   -77.7111 -77.7104 -77.7100 -77.7087 -77.7075 -77.7072 -77.7050 -77.7047
   -77.7009 -77.6966 -77.6943 -77.6934 -77.6927 -77.6917 -77.6909 -77.6895
   -77.6891 -77.6876 -77.6874 -77.6865 -77.6770 -77.6737 -77.6724 -77.6687
   -18.8494  -6.7827  -6.5870  -6.5058  -6.4747  -5.8278  -5.7878  -5.6742
    -5.6144  -5.5833  -5.5541  -5.4976  -5.4895  -5.4756  -5.4745  -5.4707
    -5.4547  -5.4459  -5.4375  -5.4372  -5.4309  -5.4252  -5.4118  -5.4088
    -5.4014  -5.4009  -5.3820  -5.3757  -5.3654  -5.3552  -5.3351  -5.3273
    -5.3234  -5.3073  -5.3071  -5.3000  -5.2943  -5.2900  -5.2884  -5.2530
    -5.2525  -5.2513  -5.2473  -5.2433  -5.2338  -5.2271  -5.2257  -5.2176
    -5.2169  -5.2083  -5.1968  -5.1956  -5.1887  -5.1724  -5.1719  -5.1657
    -5.1598  -5.1515  -5.1512  -5.1509  -5.1500  -5.1395  -5.1372  -5.1208
    -5.1197  -5.1112  -5.1043  -5.1037  -5.1031  -5.1028  -5.1025  -5.0858
    -5.0837  -5.0775  -5.0743  -5.0620  -5.0527  -5.0503  -5.0470  -5.0333
    -5.0266  -5.0255  -5.0252  -5.0231  -5.0207  -5.0174  -5.0136  -5.0064
    -5.0045  -5.0020  -5.0006  -4.9893  -4.9892  -4.9845  -4.9796  -4.9783
    -4.9671  -4.9550  -4.9492  -4.9377  -4.9212  -4.9188  -4.9179  -4.9128
    -4.9031  -4.8956  -4.8956  -4.8930  -4.8866  -4.8847  -4.8828  -4.8740
    -4.8719  -4.8710  -4.8672  -4.8661  -4.8595  -4.8502  -4.8451  -4.8383
    -4.8327  -4.8264  -4.8212  -4.8202  -4.8197  -4.8130  -4.8106  -4.8020
    -4.7888  -4.7823  -4.7812  -4.7810  -4.7736  -4.7572  -4.7570  -4.7486
    -4.7465  -4.7410  -4.7409  -4.7404  -4.7389  -4.7326  -4.7248  -4.7225
    -4.7222  -4.7055  -4.6985  -4.6967  -4.6899  -4.6894  -4.6888  -4.6885
    -4.6773  -4.6735  -4.6735  -4.6708  -4.6689  -4.6659  -4.6657  -4.6582
    -4.6546  -4.6452  -4.6338  -4.6292  -4.6265  -4.6262  -4.6230  -4.6226
    -4.6174  -4.6102  -4.6051  -4.6018  -4.5985  -4.5980  -4.5964  -4.5932
    -4.5859  -4.5817  -4.5810  -4.5750  -4.5665  -4.5663  -4.5624  -4.5566
    -4.5542  -4.5520  -4.5518  -4.5471  -4.5428  -4.5345  -4.5332  -4.5251
    -4.5223  -4.5138  -4.5119  -4.5108  -4.5104  -4.5001  -4.4952  -4.4889
    -4.4885  -4.4865  -4.4814  -4.4812  -4.4791  -4.4695  -4.4690  -4.4687
    -4.4653  -4.4600  -4.4473  -4.4467  -4.4464  -4.4366  -4.4314  -4.4284
    -4.4276  -4.4257  -4.4214  -4.4197  -4.4183  -4.4177  -4.4121  -4.4058
[...]
     atom    5 type  1   force =     0.00000000    0.00000000    0.00000000
     atom    6 type  1   force =     0.00000000    0.00000000    0.00000000
     atom    7 type  1   force =     0.00000000    0.00000000    0.00000000
     atom    8 type  1   force =     0.00000000    0.00000000    0.00000000
     atom    9 type  1   force =     0.00000000    0.00000000    0.00000000
     atom   10 type  1   force =     0.00000000    0.00000000    0.00000000
     atom   11 type  1   force =     0.00000000    0.00000000    0.00000000
     atom   12 type  1   force =     0.00000000    0.00000000    0.00000000
     atom   13 type  1   force =     0.00000000    0.00000000    0.00000000
     atom   14 type  1   force =     0.00000000    0.00000000    0.00000000
     atom   15 type  1   force =     0.00000000    0.00000000    0.00000000
     atom   16 type  1   force =     0.00000000    0.00000000    0.00000000
     atom   17 type  1   force =     0.00000000    0.00000000    0.00000000
     atom   18 type  1   force =     0.00000000    0.00000000    0.00000000
     atom   19 type  1   force =     0.00000000    0.00000000    0.00000000
     atom   20 type  1   force =     0.00000000    0.00000000    0.00000000
     atom   21 type  1   force =     0.00000000    0.00000000    0.00000000
     atom   22 type  1   force =     0.00000000    0.00000000    0.00000000
     atom   23 type  1   force =     0.00000000    0.00000000    0.00000000
     atom   24 type  1   force =     0.00000000    0.00000000    0.00000000
     atom   25 type  1   force =     0.00000000    0.00000000    0.00000000
     atom   26 type  1   force =     0.00000000    0.00000000    0.00000000
     atom   27 type  1   force =     0.00000000    0.00000000    0.00000000
     atom   28 type  1   force =     0.00000000    0.00000000    0.00000000
     atom   29 type  1   force =     0.00000000    0.00000000    0.00000000
     atom   30 type  1   force =     0.00000000    0.00000000    0.00000000
     atom   31 type  1   force =     0.00000000    0.00000000    0.00000000
     atom   32 type  1   force =     0.00000000    0.00000000    0.00000000
     atom   33 type  1   force =     0.00000000    0.00000000    0.00000000
     atom   34 type  1   force =     0.00000000    0.00000000    0.00000000
     atom   35 type  1   force =     0.00000000    0.00000000    0.00000000
     atom   36 type  1   force =     0.00000000    0.00000000    0.00000000
     atom   37 type  1   force =     0.00000000    0.00000000    0.00000000
     atom   38 type  1   force =     0.00000000    0.00000000    0.00000000
     atom   39 type  1   force =     0.00000000    0.00000000    0.00000000
     atom   40 type  1   force =     0.00000000    0.00000000    0.00000000
     atom   41 type  1   force =     0.00000000    0.00000000    0.00000000
     atom   42 type  1   force =     0.00000000    0.00000000    0.00000000
     atom   43 type  1   force =     0.00000000    0.00000000    0.00000000
     atom   44 type  1   force =     0.00000000    0.00000000    0.00000000
     atom   45 type  1   force =     0.00000000    0.00000000    0.00000000
     atom   46 type  1   force =     0.00000000    0.00000000    0.00000000
     atom   47 type  1   force =     0.00000000    0.00000000    0.00000000
     atom   48 type  1   force =     0.00000000    0.00000000    0.00000000
     atom   49 type  1   force =     0.00000000    0.00000000    0.00000000
     atom   50 type  1   force =     0.00000000    0.00000000    0.00000000
     atom   51 type  1   force =     0.00000000    0.00000000    0.00000000
     atom   52 type  1   force =     0.00000000    0.00000000    0.00000000
     atom   53 type  1   force =     0.00000000    0.00000000    0.00000000
     atom   54 type  1   force =     0.00000000    0.00000000    0.00000000
     atom   55 type  1   force =     0.00000000    0.00000000    0.00000000
     atom   56 type  1   force =     0.00000000    0.00000000    0.00000000
     atom   57 type  1   force =     0.00000000    0.00000000    0.00000000
     atom   58 type  1   force =     0.00000000    0.00000000    0.00000000
     atom   59 type  1   force =     0.00000000    0.00000000    0.00000000
     atom   60 type  1   force =     0.00000000    0.00000000    0.00000000
     atom   61 type  1   force =     0.00000000    0.00000000    0.00000000
     atom   62 type  1   force =     0.00000000    0.00000000    0.00000000
     atom   63 type  1   force =     0.00000000    0.00000000    0.00000000
     atom   64 type  1   force =     0.00000000    0.00000000    0.00000000
     atom   65 type  3   force =     0.00000000    0.00000000    0.00000000
     atom   66 type  2   force =     0.00000000    0.00000000    0.00000000
     atom   67 type  2   force =     0.00000000    0.00000000    0.00000000
     The SCF correction term to forces
     atom    1 type  1   force =     0.00000000    0.00000000    0.00000000
     atom    2 type  1   force =     0.00000000    0.00000000    0.00000000
     atom    3 type  1   force =    -0.00000000    0.00000000    0.00000000
     atom    4 type  1   force =    -0.00000000   -0.00000000    0.00000000
     atom    5 type  1   force =     0.00000000    0.00000000   -0.00000000
     atom    6 type  1   force =     0.00000000   -0.00000000   -0.00000000
     atom    7 type  1   force =    -0.00003101   -0.00005584   -0.00002817
     atom    8 type  1   force =    -0.00002511    0.00003196   -0.00005691
     atom    9 type  1   force =     0.00000000    0.00000000    0.00000000
     atom   10 type  1   force =     0.00000000    0.00000000    0.00000000
     atom   11 type  1   force =     0.00000000   -0.00000000    0.00000000
     atom   12 type  1   force =    -0.00000000    0.00000000    0.00000000
     atom   13 type  1   force =     0.00000000   -0.00000000   -0.00000000
     atom   14 type  1   force =     0.00000000    0.00000000   -0.00000000
     atom   15 type  1   force =    -0.00000443   -0.00002177   -0.00004991
     atom   16 type  1   force =    -0.00004672    0.00001646   -0.00003046
     atom   17 type  1   force =    -0.00000000   -0.00000000    0.00000000
     atom   18 type  1   force =    -0.00000000   -0.00000000    0.00000000
     atom   19 type  1   force =     0.00000000    0.00000000   -0.00000000
     atom   20 type  1   force =     0.00000000   -0.00000000   -0.00000000
     atom   21 type  1   force =     0.00000000    0.00000000   -0.00000000
     atom   22 type  1   force =     0.00000000    0.00000000   -0.00000000
     atom   23 type  1   force =     0.00004373    0.00001034    0.00000443
     atom   24 type  1   force =     0.00002945   -0.00000846   -0.00001232
     atom   25 type  1   force =    -0.00000000   -0.00000000    0.00000000
     atom   26 type  1   force =    -0.00000000   -0.00000000    0.00000000
     atom   27 type  1   force =     0.00000000   -0.00000000   -0.00000000
     atom   28 type  1   force =     0.00000000    0.00000000   -0.00000000
     atom   29 type  1   force =     0.00000000    0.00000000   -0.00000000
     atom   30 type  1   force =     0.00000000   -0.00000000    0.00000000
     atom   31 type  1   force =     0.00000380    0.00003118   -0.00000943
     atom   32 type  1   force =     0.00006810    0.00000047   -0.00000256
     atom   33 type  1   force =     0.00000000   -0.00000000    0.00000000
     atom   34 type  1   force =     0.00000000    0.00000000    0.00000000
     atom   35 type  1   force =    -0.00000000    0.00000000    0.00000000
     atom   36 type  1   force =    -0.00000000   -0.00000000    0.00000000
     atom   37 type  1   force =     0.00000000    0.00000000   -0.00000000
     atom   38 type  1   force =     0.00000000   -0.00000000   -0.00000000
     atom   39 type  1   force =    -0.00000000   -0.00000000    0.00000000
     atom   40 type  1   force =    -0.00000000   -0.00000000   -0.00000000
     atom   41 type  1   force =     0.00000000    0.00000000    0.00000000
     atom   42 type  1   force =     0.00000000   -0.00000000    0.00000000
     atom   43 type  1   force =    -0.00000000   -0.00000000    0.00000000
     atom   44 type  1   force =    -0.00000000    0.00000000    0.00000000
     atom   45 type  1   force =     0.00000000    0.00000000   -0.00000000
     atom   46 type  1   force =     0.00000000   -0.00000000    0.00000000
     atom   47 type  1   force =    -0.00000000    0.00000000   -0.00000000
     atom   48 type  1   force =    -0.00000000   -0.00000000   -0.00000000
     atom   49 type  1   force =    -0.00000000   -0.00000000    0.00000000
     atom   50 type  1   force =    -0.00000000   -0.00000000    0.00000000
     atom   51 type  1   force =     0.00000000    0.00000000   -0.00000000
     atom   52 type  1   force =     0.00000000    0.00000000   -0.00000000
     atom   53 type  1   force =    -0.00000000    0.00000000    0.00000000
     atom   54 type  1   force =    -0.00000000   -0.00000000   -0.00000000
     atom   55 type  1   force =     0.00000000   -0.00000000   -0.00000000
     atom   56 type  1   force =    -0.00000000    0.00000000   -0.00000000
     atom   57 type  1   force =    -0.00000000   -0.00000000    0.00000000
     atom   58 type  1   force =    -0.00000000   -0.00000000    0.00000000
     atom   59 type  1   force =     0.00000000   -0.00000000   -0.00000000
     atom   60 type  1   force =     0.00000000    0.00000000   -0.00000000
     atom   61 type  1   force =    -0.00000000    0.00000000   -0.00000000
     atom   62 type  1   force =    -0.00000000   -0.00000000    0.00000000
     atom   63 type  1   force =     0.00000000   -0.00000000   -0.00000000
     atom   64 type  1   force =     0.00000000    0.00000000   -0.00000000
     atom   65 type  3   force =     0.00000367    0.00001010   -0.00000454
     atom   66 type  2   force =     0.00000263   -0.00000110   -0.00000123
     atom   67 type  2   force =     0.00000100    0.00000299   -0.00000137

     Total force =     0.003487     Total SCF correction =     0.000159


     Computing stress (Cartesian axis) and pressure


     negative rho (up, down):  1.406E-02 0.000E+00
          total   stress  (Ry/bohr**3)                   (kbar)     P=     -284.59
  -0.00200773  -0.00002375   0.00002655         -295.35       -3.49        3.91
  -0.00002375  -0.00193849   0.00000355           -3.49     -285.16        0.52
   0.00002655   0.00000355  -0.00185750            3.91        0.52     -273.25

     kinetic stress (kbar)  15196.61     11.04      0.27
                               11.04  15155.61      1.91
                                0.27      1.91  15226.95

     local   stress (kbar)**********   3412.30  -2344.81
                             3412.30**********   -565.38
                            -2344.81   -565.381202743.77

     nonloc. stress (kbar)  -1845.60     -6.78      4.79
                               -6.78  -1819.35      1.01
                                4.79      1.01  -1854.13

     hartree stress (kbar) 628113.99  -1462.51    987.70
                            -1462.51 633760.45    239.30
                              987.70    239.30-559865.55

     exc-cor stress (kbar)  -7562.79     -0.97      0.57
                               -0.97  -7559.18      0.12
                                0.57      0.12  -7565.99

     corecor stress (kbar)     -3.50     -0.01     -0.02
                               -0.01     -3.48     -0.01
                               -0.02     -0.01     -3.62

     ewald   stress (kbar) 554684.16  -1956.58   1355.40
                            -1956.58 562228.01    323.57
                             1355.40    323.57-648954.68

     hubbard stress (kbar)      0.00      0.00      0.00
                                0.00      0.00      0.00
                                0.00      0.00      0.00

     DFT-D   stress (kbar)      0.00      0.00      0.00
                                0.00      0.00      0.00
                                0.00      0.00      0.00

     XDM     stress (kbar)      0.00      0.00      0.00
                                0.00      0.00      0.00
                                0.00      0.00      0.00

     dft-nl  stress (kbar)      0.00      0.00      0.00
                                0.00      0.00      0.00
                                0.00      0.00      0.00

     TS-vdW  stress (kbar)      0.00      0.00      0.00
                                0.00      0.00      0.00
                                0.00      0.00      0.00

     MDB     stress (kbar)      0.00      0.00      0.00
                                0.00      0.00      0.00
                                0.00      0.00      0.00

     3D-RISM stress (kbar)      0.00      0.00      0.00
                                0.00      0.00      0.00
                                0.00      0.00      0.00

     Energy error            =      1.9E-05 Ry
     Gradient error          =      2.3E-03 Ry/Bohr

     number of scf cycles    =   6
     number of bfgs steps    =   5

     energy             old  =  -29578.9814472775 Ry
     energy             new  =  -29578.9814659105 Ry

     CASE: energy            _new < energy            _old

     new trust radius        =       0.0084556605 bohr
     new conv_thr            =       0.0000000137 Ry


ATOMIC_POSITIONS (angstrom)
Zn              -1.0735556040        1.0841422490        1.1977635440    0   0   0
Zn              -2.3094850350        6.1646922450        1.1977635440    0   0   0
Zn              -5.3677775260        0.0395003770        3.2510723350    0   0   0
Zn              -6.6037069570        5.1200503720        3.2510723350    0   0   0
Zn              -9.7089195560       -1.0153197644        5.5574001830    0   0   0
Zn             -10.9444612646        4.0651762061        5.5568475472    0   0   0
Zn             -13.7195048468       -1.9887301422        7.6421209111
Zn             -14.9485425352        3.0934426287        7.6445894269
Zn              -1.6915203190        3.6244172470        1.1977635440    0   0   0
Zn              -2.9274497510        8.7049672430        1.1977635440    0   0   0
Zn              -5.9857422410        2.5797753750        3.2510723350    0   0   0
Zn              -7.2216716720        7.6603253700        3.2510723350    0   0   0
Zn             -10.3264176447        1.5250682890        5.5573868096    0   0   0
Zn             -11.5628996562        6.6053331603        5.5568587833    0   0   0
Zn             -14.3359329568        0.5514616910        7.6413265575
Zn             -15.5729328500        5.6328838901        7.6412131110
Zn               4.4565957630        1.0841422490        1.1977635440    0   0   0
Zn               3.2206663320        6.1646922450        1.1977635440    0   0   0
Zn               0.1623738410        0.0395003770        3.2510723350    0   0   0
Zn              -1.0735555900        5.1200503720        3.2510723350    0   0   0
Zn              -4.1792282939       -1.0153627723        5.5588462762    0   0   0
Zn              -5.4152205082        4.0648737576        5.5585311673    0   0   0
Zn              -8.1922331659       -1.9909427637        7.6434700573
Zn              -9.4324098687        3.0891558972        7.6398479673
Zn               3.8386310480        3.6244172470        1.1977635440    0   0   0
Zn               2.6027016170        8.7049672430        1.1977635440    0   0   0
Zn              -0.4555908740        2.5797753750        3.2510723350    0   0   0
Zn              -1.6915203050        7.6603253700        3.2510723350    0   0   0
Zn              -4.7972853979        1.5244358199        5.5588288137    0   0   0
Zn              -6.0330863402        6.6056334593        5.5585535707    0   0   0
Zn              -8.8139614960        0.5522370328        7.6406080581
Zn             -10.0459251700        5.6309610858        7.6438364638
Zn               1.6915203330        0.4114908770        0.8555452480    0   0   0
Zn               0.4555909020        5.4920408730        0.8555452480    0   0   0
Zn              -2.6027015890       -0.6331509950        2.9088540390    0   0   0
Zn              -3.8386310200        4.4473990010        2.9088540390    0   0   0
Zn              -6.9469216156       -1.6917672198        5.0366214099    0   0   0
Zn              -8.1827395462        3.3890769520        5.0367887488    0   0   0
Zn             -11.1182059302       -2.7018510587        7.3039457638    0   0   0
Zn             -12.3529337251        2.3791608544        7.3040019961    0   0   0
Zn               1.0735556170        2.9517658750        0.8555452480    0   0   0
Zn              -0.1623738140        8.0323158710        0.8555452480    0   0   0
Zn              -3.2206663040        1.9071240030        2.9088540390    0   0   0
Zn              -4.4565957350        6.9876739990        2.9088540390    0   0   0
Zn              -7.5649765968        0.8484405585        5.0367436921    0   0   0
Zn              -8.8005772481        5.9294148523        5.0366560249    0   0   0
Zn             -11.7355211386       -0.1613220661        7.3041997017    0   0   0
Zn             -12.9715639520        4.9192102454        7.3037498091    0   0   0
Zn               7.2216717000        0.4114908770        0.8555452480    0   0   0
Zn               5.9857422690        5.4920408730        0.8555452480    0   0   0
Zn               2.9274497780       -0.6331509950        2.9088540390    0   0   0
Zn               1.6915203470        4.4473990010        2.9088540390    0   0   0
Zn              -1.4162111914       -1.6911008414        5.0365779004    0   0   0
Zn              -2.6518817476        3.3887563827        5.0360840250    0   0   0
Zn              -5.5909851415       -2.7022171332        7.3034669440    0   0   0
Zn              -6.8276480205        2.3775479218        7.3037436654    0   0   0
Zn               6.6037069850        2.9517658750        0.8555452480    0   0   0
Zn               5.3677775540        8.0323158710        0.8555452480    0   0   0
Zn               2.3094850630        1.9071240030        2.9088540390    0   0   0
Zn               1.0735556320        6.9876739990        2.9088540390    0   0   0
Zn              -2.0337195757        0.8489305936        5.0365785276    0   0   0
Zn              -3.2702789950        5.9292477955        5.0360658650    0   0   0
Zn              -6.2095605799       -0.1625612169        7.3031397682    0   0   0
Zn              -7.4450153871        4.9184572000        7.3040810687    0   0   0
O               -6.3359529097        2.8155669587       10.3378812265
H               -7.0386434107        3.4292263916       10.6370079121
H               -6.5761710156        1.9572970708       10.7448657218



     Writing config-only to output data dir ./tmp/Zn101_optimized_topsite_H2O.save/ :
     XML data file
     NEW-OLD atomic charge density approx. for the potential

     Check: negative core charge=   -0.000010

     negative rho (up, down):  1.407E-02 0.000E+00

     total cpu time spent up to now is    40779.1 secs

     Self-consistent Calculation

     iteration #  1     ecut=    30.00 Ry     beta= 0.70
     Davidson diagonalization with overlap

---- Real-time Memory Report at c_bands before calling an iterative solver
           604 MiB given to the printing process from OS
             0 MiB allocation reported by mallinfo(arena+hblkhd)
        111242 MiB available memory on the node where the printing process lives
------------------
     ethr =  1.00E-06,  avg # of iterations =  2.6

     Threshold (ethr) on eigenvalues was too large:
     Diagonalizing with lowered threshold

     Davidson diagonalization with overlap

---- Real-time Memory Report at c_bands before calling an iterative solver
           604 MiB given to the printing process from OS
             0 MiB allocation reported by mallinfo(arena+hblkhd)
        111147 MiB available memory on the node where the printing process lives
------------------
