--------------------------------------------------------------------------
By default, for Open MPI 4.0 and later, infiniband ports on a device
are not used by default.  The intent is to use UCX for these devices.
You can override this policy by setting the btl_openib_allow_ib MCA parameter
to true.

  Local host:              psid02
  Local adapter:           mlx5_0
  Local port:              1

--------------------------------------------------------------------------
--------------------------------------------------------------------------
WARNING: There was an error initializing an OpenFabrics device.

  Local host:   psid02
  Local device: mlx5_0
--------------------------------------------------------------------------

     Program PWSCF v.7.3.1 starts on 17Mar2025 at 17:18: 9 

     This program is part of the open-source Quantum ESPRESSO suite
     for quantum simulation of materials; please cite
         "P. Giannozzi et al., J. Phys.:Condens. Matter 21 395502 (2009);
         "P. Giannozzi et al., J. Phys.:Condens. Matter 29 465901 (2017);
         "P. Giannozzi et al., J. Chem. Phys. 152 154105 (2020);
          URL http://www.quantum-espresso.org", 
     in publications or presentations arising from this work. More details at
     http://www.quantum-espresso.org/quote

     Parallel version (MPI), running on    30 processors

     MPI processes distributed on     1 nodes
     84556 MiB available memory on the printing compute node when the environment starts

     Waiting for input...
     Reading input from standard input
Warning: card &CELL ignored
Warning: card   CELL_DOFREE = 'ALL' ignored
Warning: card / ignored

     Current dimensions of program PWSCF are:
     Max number of different atomic species (ntypx) = 10
     Max number of k-points (npk) =  40000
     Max angular momentum in pseudopotentials (lmaxx) =  4
     Found identity + (  0.0000  0.5000  0.0000) symmetry
     This is a supercell, fractional translations are disabled

     R & G space division:  proc/nbgrp/npool/nimage =      30
     Subspace diagonalization in iterative solution of the eigenvalue problem:
     one sub-group per band group will be used
     custom distributed-memory algorithm (size of sub-group:  5*  5 procs)


     Parallelization info
     --------------------
     sticks:   dense  smooth     PW     G-vecs:    dense   smooth      PW
     Min         115     115     30                11730    11730    1601
     Max         116     116     31                11734    11734    1609
     Sum        3477    3477    923               351985   351985   48189

     Using Slab Decomposition



     bravais-lattice index     =            0
     lattice parameter (alat)  =      18.4179  a.u.
     unit-cell volume          =   15858.2170 (a.u.)^3
     number of atoms/cell      =           64
     number of atomic types    =            1
     number of electrons       =      1280.00
     number of Kohn-Sham states=          768
     kinetic-energy cutoff     =      30.0000  Ry
     charge density cutoff     =     120.0000  Ry
     scf convergence threshold =      7.3E-07
     mixing beta               =       0.7000
     number of iterations used =            8  plain     mixing
     energy convergence thresh.=      1.0E-05
     force convergence thresh. =      5.0E-04
     Exchange-correlation= SLA  PW   PBE  PBE
                           (   1   4   3   4   0   0   0)
     nstep                     =          100


     celldm(1)=  18.417879  celldm(2)=   0.000000  celldm(3)=   0.000000
     celldm(4)=   0.000000  celldm(5)=   0.000000  celldm(6)=   0.000000

     crystal axes: (cart. coord. in units of alat)
               a(1) = (   1.000000   0.000000   0.000000 )  
               a(2) = (   0.000000   1.072963   0.000000 )  
               a(3) = (   0.000000  -1.365810   2.365652 )  

     reciprocal axes: (cart. coord. in units 2 pi/alat)
               b(1) = (  1.000000  0.000000 -0.000000 )  
               b(2) = ( -0.000000  0.931999  0.538090 )  
               b(3) = (  0.000000  0.000000  0.422716 )  


     PseudoPot. # 1 for Zn read from file:
     /home/ys/qepseudo/SSSP_1.3.0_PBE_efficiency/Zn_pbe_v1.uspp.F.UPF
     MD5 check sum: df62231357ef9e81f77b2b3087fa5675
     Pseudo is Ultrasoft, Zval = 20.0
     Generated by new atomic code, or converted to UPF format
     Using radial grid of  943 points,  6 beta functions with: 
                l(1) =   0
                l(2) =   0
                l(3) =   1
                l(4) =   1
                l(5) =   2
                l(6) =   2
     Q(r) pseudized with  8 coefficients,  rinner =    1.100   1.100   1.100
                                                       1.100   1.100

     atomic species   valence    mass     pseudopotential
     Zn               20.00    65.38000     Zn( 1.00)

     No symmetry found


                                    s                        frac. trans.

      isym =  1     identity                                     

 cryst.   s( 1) = (     1          0          0      )
                  (     0          1          0      )
                  (     0          0          1      )

 cart.    s( 1) = (  1.0000000  0.0000000  0.0000000 )
                  (  0.0000000  1.0000000 -0.0000000 )
                  (  0.0000000  0.0000000  1.0000000 )


   Cartesian axes

     site n.     atom                  positions (alat units)
         1        Zn     tau(   1) = (   0.1250000   0.1341203   0.0774344  )
         2        Zn     tau(   2) = (   0.1250000   0.6706017   0.0774344  )
         3        Zn     tau(   3) = (   0.1250000   0.0000000   0.3097376  )
         4        Zn     tau(   4) = (   0.1250000   0.5364813   0.3097376  )
         5        Zn     tau(   5) = (   0.1250000  -0.1341203   0.5420409  )
         6        Zn     tau(   6) = (   0.1250000   0.4023610   0.5420409  )
         7        Zn     tau(   7) = (   0.1250000  -0.2682407   0.7743441  )
         8        Zn     tau(   8) = (   0.1250000   0.2682407   0.7743441  )
         9        Zn     tau(   9) = (   0.1250000   0.4023610   0.0774344  )
        10        Zn     tau(  10) = (   0.1250000   0.9388423   0.0774344  )
        11        Zn     tau(  11) = (   0.1250000   0.2682407   0.3097376  )
        12        Zn     tau(  12) = (   0.1250000   0.8047220   0.3097376  )
        13        Zn     tau(  13) = (   0.1250000   0.1341203   0.5420409  )
        14        Zn     tau(  14) = (   0.1250000   0.6706017   0.5420409  )
        15        Zn     tau(  15) = (   0.1250000  -0.0000000   0.7743441  )
        16        Zn     tau(  16) = (   0.1250000   0.5364813   0.7743441  )
        17        Zn     tau(  17) = (   0.6250000   0.1341203   0.0774344  )
        18        Zn     tau(  18) = (   0.6250000   0.6706017   0.0774344  )
        19        Zn     tau(  19) = (   0.6250000   0.0000000   0.3097376  )
        20        Zn     tau(  20) = (   0.6250000   0.5364813   0.3097376  )
        21        Zn     tau(  21) = (   0.6250000  -0.1341203   0.5420409  )
        22        Zn     tau(  22) = (   0.6250000   0.4023610   0.5420409  )
        23        Zn     tau(  23) = (   0.6250000  -0.2682407   0.7743441  )
        24        Zn     tau(  24) = (   0.6250000   0.2682407   0.7743441  )
        25        Zn     tau(  25) = (   0.6250000   0.4023610   0.0774344  )
        26        Zn     tau(  26) = (   0.6250000   0.9388423   0.0774344  )
        27        Zn     tau(  27) = (   0.6250000   0.2682407   0.3097376  )
        28        Zn     tau(  28) = (   0.6250000   0.8047220   0.3097376  )
        29        Zn     tau(  29) = (   0.6250000   0.1341203   0.5420409  )
        30        Zn     tau(  30) = (   0.6250000   0.6706017   0.5420409  )
        31        Zn     tau(  31) = (   0.6250000  -0.0000000   0.7743441  )
        32        Zn     tau(  32) = (   0.6250000   0.5364813   0.7743441  )
        33        Zn     tau(  33) = (   0.3750000  -0.0000000   0.1548688  )
        34        Zn     tau(  34) = (   0.3750000   0.5364813   0.1548688  )
        35        Zn     tau(  35) = (   0.3750000  -0.1341203   0.3871721  )
        36        Zn     tau(  36) = (   0.3750000   0.4023610   0.3871721  )
        37        Zn     tau(  37) = (   0.3750000  -0.2682407   0.6194753  )
        38        Zn     tau(  38) = (   0.3750000   0.2682407   0.6194753  )
        39        Zn     tau(  39) = (   0.3750000  -0.4023610   0.8517785  )
        40        Zn     tau(  40) = (   0.3750000   0.1341203   0.8517785  )
        41        Zn     tau(  41) = (   0.3750000   0.2682407   0.1548688  )
        42        Zn     tau(  42) = (   0.3750000   0.8047220   0.1548688  )
        43        Zn     tau(  43) = (   0.3750000   0.1341203   0.3871721  )
        44        Zn     tau(  44) = (   0.3750000   0.6706017   0.3871721  )
        45        Zn     tau(  45) = (   0.3750000  -0.0000000   0.6194753  )
        46        Zn     tau(  46) = (   0.3750000   0.5364813   0.6194753  )
        47        Zn     tau(  47) = (   0.3750000  -0.1341203   0.8517785  )
        48        Zn     tau(  48) = (   0.3750000   0.4023610   0.8517785  )
        49        Zn     tau(  49) = (   0.8750000  -0.0000000   0.1548688  )
        50        Zn     tau(  50) = (   0.8750000   0.5364813   0.1548688  )
        51        Zn     tau(  51) = (   0.8750000  -0.1341203   0.3871721  )
        52        Zn     tau(  52) = (   0.8750000   0.4023610   0.3871721  )
        53        Zn     tau(  53) = (   0.8750000  -0.2682407   0.6194753  )
        54        Zn     tau(  54) = (   0.8750000   0.2682407   0.6194753  )
        55        Zn     tau(  55) = (   0.8750000  -0.4023610   0.8517785  )
        56        Zn     tau(  56) = (   0.8750000   0.1341203   0.8517785  )
        57        Zn     tau(  57) = (   0.8750000   0.2682407   0.1548688  )
        58        Zn     tau(  58) = (   0.8750000   0.8047220   0.1548688  )
        59        Zn     tau(  59) = (   0.8750000   0.1341203   0.3871721  )
        60        Zn     tau(  60) = (   0.8750000   0.6706017   0.3871721  )
        61        Zn     tau(  61) = (   0.8750000  -0.0000000   0.6194753  )
        62        Zn     tau(  62) = (   0.8750000   0.5364813   0.6194753  )
        63        Zn     tau(  63) = (   0.8750000  -0.1341203   0.8517785  )
        64        Zn     tau(  64) = (   0.8750000   0.4023610   0.8517785  )

   Crystallographic axes

     site n.     atom                  positions (cryst. coord.)
         1        Zn     tau(   1) = (  0.1250000  0.1666667  0.0327328  )
         2        Zn     tau(   2) = (  0.1250000  0.6666667  0.0327328  )
         3        Zn     tau(   3) = (  0.1250000  0.1666667  0.1309312  )
         4        Zn     tau(   4) = (  0.1250000  0.6666667  0.1309312  )
         5        Zn     tau(   5) = (  0.1250000  0.1666667  0.2291296  )
         6        Zn     tau(   6) = (  0.1250000  0.6666667  0.2291296  )
         7        Zn     tau(   7) = (  0.1250000  0.1666667  0.3273279  )
         8        Zn     tau(   8) = (  0.1250000  0.6666667  0.3273279  )
         9        Zn     tau(   9) = (  0.1250000  0.4166667  0.0327328  )
        10        Zn     tau(  10) = (  0.1250000  0.9166667  0.0327328  )
        11        Zn     tau(  11) = (  0.1250000  0.4166667  0.1309312  )
        12        Zn     tau(  12) = (  0.1250000  0.9166667  0.1309312  )
        13        Zn     tau(  13) = (  0.1250000  0.4166667  0.2291296  )
        14        Zn     tau(  14) = (  0.1250000  0.9166667  0.2291296  )
        15        Zn     tau(  15) = (  0.1250000  0.4166667  0.3273279  )
        16        Zn     tau(  16) = (  0.1250000  0.9166667  0.3273279  )
        17        Zn     tau(  17) = (  0.6250000  0.1666667  0.0327328  )
        18        Zn     tau(  18) = (  0.6250000  0.6666667  0.0327328  )
        19        Zn     tau(  19) = (  0.6250000  0.1666667  0.1309312  )
        20        Zn     tau(  20) = (  0.6250000  0.6666667  0.1309312  )
        21        Zn     tau(  21) = (  0.6250000  0.1666667  0.2291296  )
        22        Zn     tau(  22) = (  0.6250000  0.6666667  0.2291296  )
        23        Zn     tau(  23) = (  0.6250000  0.1666667  0.3273279  )
        24        Zn     tau(  24) = (  0.6250000  0.6666667  0.3273279  )
        25        Zn     tau(  25) = (  0.6250000  0.4166667  0.0327328  )
        26        Zn     tau(  26) = (  0.6250000  0.9166667  0.0327328  )
        27        Zn     tau(  27) = (  0.6250000  0.4166667  0.1309312  )
        28        Zn     tau(  28) = (  0.6250000  0.9166667  0.1309312  )
        29        Zn     tau(  29) = (  0.6250000  0.4166667  0.2291296  )
        30        Zn     tau(  30) = (  0.6250000  0.9166667  0.2291296  )
        31        Zn     tau(  31) = (  0.6250000  0.4166667  0.3273279  )
        32        Zn     tau(  32) = (  0.6250000  0.9166667  0.3273279  )
        33        Zn     tau(  33) = (  0.3750000  0.0833333  0.0654656  )
        34        Zn     tau(  34) = (  0.3750000  0.5833333  0.0654656  )
        35        Zn     tau(  35) = (  0.3750000  0.0833333  0.1636640  )
        36        Zn     tau(  36) = (  0.3750000  0.5833333  0.1636640  )
        37        Zn     tau(  37) = (  0.3750000  0.0833333  0.2618624  )
        38        Zn     tau(  38) = (  0.3750000  0.5833333  0.2618624  )
        39        Zn     tau(  39) = (  0.3750000  0.0833333  0.3600607  )
        40        Zn     tau(  40) = (  0.3750000  0.5833333  0.3600607  )
        41        Zn     tau(  41) = (  0.3750000  0.3333333  0.0654656  )
        42        Zn     tau(  42) = (  0.3750000  0.8333333  0.0654656  )
        43        Zn     tau(  43) = (  0.3750000  0.3333333  0.1636640  )
        44        Zn     tau(  44) = (  0.3750000  0.8333333  0.1636640  )
        45        Zn     tau(  45) = (  0.3750000  0.3333333  0.2618624  )
        46        Zn     tau(  46) = (  0.3750000  0.8333333  0.2618624  )
        47        Zn     tau(  47) = (  0.3750000  0.3333333  0.3600607  )
        48        Zn     tau(  48) = (  0.3750000  0.8333333  0.3600607  )
        49        Zn     tau(  49) = (  0.8750000  0.0833333  0.0654656  )
        50        Zn     tau(  50) = (  0.8750000  0.5833333  0.0654656  )
        51        Zn     tau(  51) = (  0.8750000  0.0833333  0.1636640  )
        52        Zn     tau(  52) = (  0.8750000  0.5833333  0.1636640  )
        53        Zn     tau(  53) = (  0.8750000  0.0833333  0.2618624  )
        54        Zn     tau(  54) = (  0.8750000  0.5833333  0.2618624  )
        55        Zn     tau(  55) = (  0.8750000  0.0833333  0.3600607  )
        56        Zn     tau(  56) = (  0.8750000  0.5833333  0.3600607  )
        57        Zn     tau(  57) = (  0.8750000  0.3333333  0.0654656  )
        58        Zn     tau(  58) = (  0.8750000  0.8333333  0.0654656  )
        59        Zn     tau(  59) = (  0.8750000  0.3333333  0.1636640  )
        60        Zn     tau(  60) = (  0.8750000  0.8333333  0.1636640  )
        61        Zn     tau(  61) = (  0.8750000  0.3333333  0.2618624  )
        62        Zn     tau(  62) = (  0.8750000  0.8333333  0.2618624  )
        63        Zn     tau(  63) = (  0.8750000  0.3333333  0.3600607  )
        64        Zn     tau(  64) = (  0.8750000  0.8333333  0.3600607  )

     number of k points=     5  Marzari-Vanderbilt smearing, width (Ry)=  0.0200
                       cart. coord. in units 2pi/alat
        k(    1) = (   0.0000000   0.0000000   0.0000000), wk =   0.2222222
        k(    2) = (   0.0000000   0.3106663   0.1793633), wk =   0.4444444
        k(    3) = (   0.3333333   0.0000000   0.0000000), wk =   0.4444444
        k(    4) = (   0.3333333   0.3106663   0.1793633), wk =   0.4444444
        k(    5) = (   0.3333333  -0.3106663  -0.1793633), wk =   0.4444444

                       cryst. coord.
        k(    1) = (   0.0000000   0.0000000   0.0000000), wk =   0.2222222
        k(    2) = (   0.0000000   0.3333333  -0.0000000), wk =   0.4444444
        k(    3) = (   0.3333333   0.0000000   0.0000000), wk =   0.4444444
        k(    4) = (   0.3333333   0.3333333  -0.0000000), wk =   0.4444444
        k(    5) = (   0.3333333  -0.3333333   0.0000000), wk =   0.4444444

     Dense  grid:   351985 G-vectors     FFT dimensions: (  72,  72, 180)

     Dynamical RAM for                 wfc:      17.18 MB

     Dynamical RAM for     wfc (w. buffer):     103.08 MB

     Dynamical RAM for           str. fact:       0.18 MB

     Dynamical RAM for           local pot:       0.00 MB

     Dynamical RAM for          nlocal pot:      25.77 MB

     Dynamical RAM for                qrad:       0.88 MB

     Dynamical RAM for          rho,v,vnew:       1.25 MB

     Dynamical RAM for               rhoin:       0.42 MB

     Dynamical RAM for            rho*nmix:       2.86 MB

     Dynamical RAM for           G-vectors:       0.76 MB

     Dynamical RAM for          h,s,v(r/c):       4.31 MB

     Dynamical RAM for          <psi|beta>:      13.50 MB

     Dynamical RAM for                 psi:      34.36 MB

     Dynamical RAM for                hpsi:      34.36 MB

     Dynamical RAM for                spsi:      34.36 MB

     Dynamical RAM for      wfcinit/wfcrot:      53.07 MB

     Dynamical RAM for           addusdens:      44.75 MB

     Dynamical RAM for          addusforce:      67.64 MB

     Dynamical RAM for         addusstress:      35.98 MB

     Estimated static dynamical RAM per process >     133.88 MB

     Estimated max dynamical RAM per process >     257.63 MB

     Estimated total dynamical RAM >       7.55 GB

     Initial potential from superposition of free atoms

     starting charge    1279.9910, renormalised to    1280.0000

     negative rho (up, down):  1.564E-03 0.000E+00
     Starting wfcs are  832 randomized atomic wfcs
[psid02:181715] 29 more processes have sent help message help-mpi-btl-openib.txt / ib port not selected
[psid02:181715] Set MCA parameter "orte_base_help_aggregate" to 0 to see all help / error messages
[psid02:181715] 29 more processes have sent help message help-mpi-btl-openib.txt / error in device init

     total cpu time spent up to now is       68.2 secs

     Self-consistent Calculation

     iteration #  1     ecut=    30.00 Ry     beta= 0.70
     Davidson diagonalization with overlap

---- Real-time Memory Report at c_bands before calling an iterative solver
           214 MiB given to the printing process from OS
             0 MiB allocation reported by mallinfo(arena+hblkhd)
         80221 MiB available memory on the node where the printing process lives
------------------
     ethr =  1.00E-02,  avg # of iterations =  7.6

     Threshold (ethr) on eigenvalues was too large:
     Diagonalizing with lowered threshold

     Davidson diagonalization with overlap

---- Real-time Memory Report at c_bands before calling an iterative solver
           297 MiB given to the printing process from OS
             0 MiB allocation reported by mallinfo(arena+hblkhd)
         78816 MiB available memory on the node where the printing process lives
------------------
     ethr =  1.96E-04,  avg # of iterations =  7.8

     negative rho (up, down):  5.666E-03 0.000E+00

     total cpu time spent up to now is      604.9 secs

     total energy              =  -29533.60950713 Ry
     estimated scf accuracy    <       2.70355258 Ry

     iteration #  2     ecut=    30.00 Ry     beta= 0.70
     Davidson diagonalization with overlap

---- Real-time Memory Report at c_bands before calling an iterative solver
           314 MiB given to the printing process from OS
             0 MiB allocation reported by mallinfo(arena+hblkhd)
         78740 MiB available memory on the node where the printing process lives
------------------
     ethr =  2.11E-04,  avg # of iterations =  4.0

     negative rho (up, down):  6.927E-03 0.000E+00

     total cpu time spent up to now is      941.5 secs

     total energy              =  -29534.26021365 Ry
     estimated scf accuracy    <       4.46081537 Ry

     iteration #  3     ecut=    30.00 Ry     beta= 0.70
     Davidson diagonalization with overlap

---- Real-time Memory Report at c_bands before calling an iterative solver
           326 MiB given to the printing process from OS
             0 MiB allocation reported by mallinfo(arena+hblkhd)
         78764 MiB available memory on the node where the printing process lives
------------------
     ethr =  2.11E-04,  avg # of iterations =  3.0

     negative rho (up, down):  7.660E-03 0.000E+00

     total cpu time spent up to now is     1214.5 secs

     total energy              =  -29534.99312450 Ry
     estimated scf accuracy    <       0.19684619 Ry

     iteration #  4     ecut=    30.00 Ry     beta= 0.70
     Davidson diagonalization with overlap

---- Real-time Memory Report at c_bands before calling an iterative solver
           326 MiB given to the printing process from OS
             0 MiB allocation reported by mallinfo(arena+hblkhd)
         78742 MiB available memory on the node where the printing process lives
------------------
     ethr =  1.54E-05,  avg # of iterations = 13.2

     negative rho (up, down):  9.210E-03 0.000E+00

     total cpu time spent up to now is     1519.4 secs

     total energy              =  -29535.01480641 Ry
     estimated scf accuracy    <       0.59123566 Ry

     iteration #  5     ecut=    30.00 Ry     beta= 0.70
     Davidson diagonalization with overlap

---- Real-time Memory Report at c_bands before calling an iterative solver
           326 MiB given to the printing process from OS
             0 MiB allocation reported by mallinfo(arena+hblkhd)
         78732 MiB available memory on the node where the printing process lives
------------------
     ethr =  1.54E-05,  avg # of iterations = 10.8

     negative rho (up, down):  9.451E-03 0.000E+00

     total cpu time spent up to now is     1787.4 secs

     total energy              =  -29535.06395235 Ry
     estimated scf accuracy    <       0.00722770 Ry

     iteration #  6     ecut=    30.00 Ry     beta= 0.70
     Davidson diagonalization with overlap

---- Real-time Memory Report at c_bands before calling an iterative solver
           326 MiB given to the printing process from OS
             0 MiB allocation reported by mallinfo(arena+hblkhd)
         78715 MiB available memory on the node where the printing process lives
------------------
     ethr =  5.65E-07,  avg # of iterations =  9.0

     negative rho (up, down):  9.473E-03 0.000E+00

     total cpu time spent up to now is     2057.3 secs

     total energy              =  -29535.06339098 Ry
     estimated scf accuracy    <       0.03732018 Ry

     iteration #  7     ecut=    30.00 Ry     beta= 0.70
     Davidson diagonalization with overlap

---- Real-time Memory Report at c_bands before calling an iterative solver
           326 MiB given to the printing process from OS
             0 MiB allocation reported by mallinfo(arena+hblkhd)
         78704 MiB available memory on the node where the printing process lives
------------------
     ethr =  5.65E-07,  avg # of iterations =  3.0

     negative rho (up, down):  9.564E-03 0.000E+00

     total cpu time spent up to now is     2287.3 secs

     total energy              =  -29535.06484848 Ry
     estimated scf accuracy    <       0.00147588 Ry

     iteration #  8     ecut=    30.00 Ry     beta= 0.70
     Davidson diagonalization with overlap

---- Real-time Memory Report at c_bands before calling an iterative solver
           326 MiB given to the printing process from OS
             0 MiB allocation reported by mallinfo(arena+hblkhd)
         78696 MiB available memory on the node where the printing process lives
------------------
     ethr =  1.15E-07,  avg # of iterations =  2.0

     negative rho (up, down):  9.579E-03 0.000E+00

     total cpu time spent up to now is     2543.2 secs

     total energy              =  -29535.06502520 Ry
     estimated scf accuracy    <       0.00003826 Ry

     iteration #  9     ecut=    30.00 Ry     beta= 0.70
     Davidson diagonalization with overlap

---- Real-time Memory Report at c_bands before calling an iterative solver
           326 MiB given to the printing process from OS
             0 MiB allocation reported by mallinfo(arena+hblkhd)
         78685 MiB available memory on the node where the printing process lives
------------------
     ethr =  2.99E-09,  avg # of iterations =  2.6

     negative rho (up, down):  9.582E-03 0.000E+00

     total cpu time spent up to now is     2821.5 secs

     total energy              =  -29535.06503457 Ry
     estimated scf accuracy    <       0.00000830 Ry

     iteration # 10     ecut=    30.00 Ry     beta= 0.70
     Davidson diagonalization with overlap

---- Real-time Memory Report at c_bands before calling an iterative solver
           326 MiB given to the printing process from OS
             0 MiB allocation reported by mallinfo(arena+hblkhd)
         78678 MiB available memory on the node where the printing process lives
------------------
     ethr =  6.49E-10,  avg # of iterations =  2.0

     negative rho (up, down):  9.580E-03 0.000E+00

     total cpu time spent up to now is     3047.7 secs

     total energy              =  -29535.06503364 Ry
     estimated scf accuracy    <       0.00000965 Ry

     iteration # 11     ecut=    30.00 Ry     beta= 0.70
     Davidson diagonalization with overlap

---- Real-time Memory Report at c_bands before calling an iterative solver
           326 MiB given to the printing process from OS
             0 MiB allocation reported by mallinfo(arena+hblkhd)
         78670 MiB available memory on the node where the printing process lives
------------------
     ethr =  6.49E-10,  avg # of iterations =  2.0

     negative rho (up, down):  9.580E-03 0.000E+00

     total cpu time spent up to now is     3271.2 secs

     total energy              =  -29535.06503483 Ry
     estimated scf accuracy    <       0.00000093 Ry

     iteration # 12     ecut=    30.00 Ry     beta= 0.70
     Davidson diagonalization with overlap

---- Real-time Memory Report at c_bands before calling an iterative solver
           326 MiB given to the printing process from OS
             0 MiB allocation reported by mallinfo(arena+hblkhd)
         78666 MiB available memory on the node where the printing process lives
------------------
     ethr =  7.27E-11,  avg # of iterations =  2.0

     negative rho (up, down):  9.580E-03 0.000E+00

     total cpu time spent up to now is     3498.9 secs

     total energy              =  -29535.06503488 Ry
     estimated scf accuracy    <       0.00000094 Ry

     iteration # 13     ecut=    30.00 Ry     beta= 0.70
     Davidson diagonalization with overlap

---- Real-time Memory Report at c_bands before calling an iterative solver
           326 MiB given to the printing process from OS
             0 MiB allocation reported by mallinfo(arena+hblkhd)
         78667 MiB available memory on the node where the printing process lives
------------------
     ethr =  7.27E-11,  avg # of iterations =  2.0

     negative rho (up, down):  9.580E-03 0.000E+00

     total cpu time spent up to now is     3722.7 secs

     End of self-consistent calculation

          k = 0.0000 0.0000 0.0000 ( 44003 PWs)   bands (ev):

  -123.7718-123.7718-123.7707-123.7703-123.7702-123.7701-123.7701-123.7700
  -123.7700-123.7695-123.7693-123.7692-123.7690-123.7689-123.7682-123.7681
  -123.7575-123.7575-123.7565-123.7564-123.7563-123.7562-123.7562-123.7557
  -123.7555-123.7555-123.7555-123.7553-123.7552-123.7550-123.7550-123.7534
  -123.4859-123.4858-123.4845-123.4844-123.4844-123.4844-123.4839-123.4838
  -123.4838-123.4837-123.4836-123.4836-123.4835-123.4834-123.4832-123.4832
  -123.4436-123.4436-123.4422-123.4422-123.4422-123.4422-123.4416-123.4414
  -123.4414-123.4413-123.4413-123.4412-123.4412-123.4411-123.4411-123.4410
   -77.8827 -77.8784 -77.8776 -77.8775 -77.8687 -77.8687 -77.8684 -77.8683
   -77.8680 -77.8679 -77.8671 -77.8663 -77.8658 -77.8658 -77.8648 -77.8648
   -77.8648 -77.8648 -77.8639 -77.8639 -77.8625 -77.8625 -77.8608 -77.8608
   -77.8607 -77.8607 -77.8587 -77.8587 -77.8559 -77.8559 -77.8549 -77.8549
   -77.8548 -77.8548 -77.8515 -77.8515 -77.8505 -77.8505 -77.8498 -77.8496
   -77.8488 -77.8485 -77.8484 -77.8483 -77.8479 -77.8478 -77.8477 -77.8476
   -77.8474 -77.8474 -77.8473 -77.8468 -77.8468 -77.8461 -77.8457 -77.8457
   -77.8454 -77.8454 -77.8454 -77.8454 -77.8450 -77.8450 -77.8438 -77.8438
   -77.8419 -77.8419 -77.8412 -77.8408 -77.8408 -77.8406 -77.8405 -77.8405
   -77.8404 -77.8381 -77.8374 -77.8374 -77.8367 -77.8367 -77.8367 -77.8367
   -77.8365 -77.8350 -77.8349 -77.8340 -77.8340 -77.8340 -77.8340 -77.8336
   -77.8325 -77.8325 -77.8323 -77.8293 -77.8292 -77.8262 -77.8234 -77.8103
   -77.5872 -77.5868 -77.5843 -77.5843 -77.5841 -77.5841 -77.5795 -77.5795
   -77.5795 -77.5795 -77.5738 -77.5737 -77.5737 -77.5737 -77.5730 -77.5728
   -77.5728 -77.5724 -77.5720 -77.5718 -77.5717 -77.5715 -77.5714 -77.5713
   -77.5713 -77.5713 -77.5713 -77.5704 -77.5701 -77.5700 -77.5699 -77.5699
   -77.5697 -77.5697 -77.5682 -77.5675 -77.5664 -77.5664 -77.5664 -77.5664
   -77.5654 -77.5654 -77.5643 -77.5643 -77.5562 -77.5562 -77.5523 -77.5523
   -77.5521 -77.5518 -77.5518 -77.5506 -77.5506 -77.5505 -77.5505 -77.5501
   -77.5500 -77.5499 -77.5496 -77.5494 -77.5480 -77.5480 -77.5478 -77.5472
   -77.5392 -77.5386 -77.5364 -77.5364 -77.5304 -77.5304 -77.5258 -77.5258
   -77.5258 -77.5258 -77.5198 -77.5198 -77.5191 -77.5191 -77.5186 -77.5185
   -77.5185 -77.5184 -77.5184 -77.5180 -77.5179 -77.5177 -77.5177 -77.5170
   -77.5169 -77.5169 -77.5159 -77.5159 -77.5084 -77.5083 -77.4987 -77.4974
    -7.2980  -6.1499  -6.0286  -6.0286  -6.0030  -6.0030  -5.5495  -5.4773
    -5.4773  -5.4646  -5.3952  -5.3926  -5.3810  -5.3810  -5.3601  -5.3601
    -5.3344  -5.3101  -5.2959  -5.2959  -5.2959  -5.2959  -5.2929  -5.2919
    -5.2919  -5.2442  -5.2366  -5.2358  -5.2357  -5.2166  -5.2166  -5.1724
    -5.1670  -5.1662  -5.1662  -5.1570  -5.1570  -5.1570  -5.1570  -5.1525
    -5.1525  -5.1248  -5.1151  -5.1151  -5.1128  -5.1128  -5.1091  -5.1091
    -5.0966  -5.0966  -5.0966  -5.0966  -5.0718  -5.0718  -5.0643  -5.0402
    -5.0228  -5.0228  -4.9937  -4.9937  -4.9753  -4.9753  -4.9753  -4.9753
    -4.9567  -4.9567  -4.9502  -4.9329  -4.9280  -4.9280  -4.9280  -4.9280
    -4.9273  -4.9210  -4.9133  -4.9133  -4.9042  -4.9042  -4.8822  -4.8822
    -4.8652  -4.8651  -4.8270  -4.8270  -4.8270  -4.8270  -4.8211  -4.8135
    -4.8135  -4.8104  -4.8104  -4.8071  -4.8071  -4.7903  -4.7903  -4.7902
    -4.7902  -4.7569  -4.7454  -4.7454  -4.7412  -4.7399  -4.7399  -4.7245
    -4.7245  -4.7105  -4.6893  -4.6893  -4.6775  -4.6769  -4.6752  -4.6725
    -4.6725  -4.6643  -4.6643  -4.6619  -4.6619  -4.6548  -4.6548  -4.6528
    -4.6452  -4.6225  -4.6210  -4.6210  -4.6104  -4.5793  -4.5769  -4.5720
    -4.5697  -4.5697  -4.5658  -4.5658  -4.5610  -4.5610  -4.5610  -4.5610
    -4.5455  -4.5455  -4.5454  -4.5454  -4.5452  -4.5384  -4.5384  -4.5308
    -4.5294  -4.5294  -4.5294  -4.5294  -4.5266  -4.5151  -4.5116  -4.5050
    -4.5050  -4.4981  -4.4923  -4.4862  -4.4728  -4.4645  -4.4645  -4.4610
    -4.4601  -4.4601  -4.4369  -4.4369  -4.4368  -4.4368  -4.4352  -4.4346
    -4.4346  -4.4265  -4.4265  -4.4114  -4.4088  -4.4055  -4.4054  -4.3931
    -4.3931  -4.3726  -4.3726  -4.3692  -4.3692  -4.3518  -4.3481  -4.3481
    -4.3337  -4.3337  -4.3329  -4.3329  -4.3329  -4.3329  -4.3200  -4.3200
    -4.3192  -4.3192  -4.2943  -4.2943  -4.2838  -4.2832  -4.2832  -4.2832
    -4.2832  -4.2801  -4.2801  -4.2773  -4.2773  -4.2741  -4.2741  -4.2570
    -4.2498  -4.2373  -4.2373  -4.2373  -4.2373  -4.2120  -4.2119  -4.2013
    -4.2012  -4.1959  -4.1959  -4.1941  -4.1934  -4.1934  -4.1903  -4.1896
    -4.1763  -4.1753  -4.1753  -4.1681  -4.1681  -4.1681  -4.1681  -4.1652
    -4.1602  -4.1602  -4.1534  -4.1513  -4.1512  -4.1490  -4.1463  -4.1463
    -4.1435  -4.1428  -4.1428  -4.1411  -4.1411  -4.1411  -4.1411  -4.1304
    -4.1170  -4.1012  -4.1012  -4.1012  -4.1012  -4.0851  -4.0786  -4.0737
    -4.0737  -4.0721  -4.0685  -4.0685  -4.0679  -4.0679  -4.0582  -4.0565
    -4.0467  -4.0467  -4.0435  -4.0435  -4.0384  -4.0230  -4.0230  -4.0181
    -4.0181  -4.0078  -4.0078  -4.0047  -4.0042  -4.0042  -4.0042  -4.0042
    -3.9980  -3.9725  -3.9725  -3.9724  -3.9724  -3.9721  -3.9721  -3.9721
    -3.9721  -3.9663  -3.9656  -3.9655  -3.9493  -3.9493  -3.9411  -3.9411
    -3.9390  -3.9389  -3.9369  -3.9369  -3.9300  -3.9267  -3.9213  -3.9213
    -3.9213  -3.9213  -3.9176  -3.9135  -3.9135  -3.9092  -3.8813  -3.8813
    -3.8336  -3.8325  -3.8278  -3.8218  -3.8204  -3.8204  -3.7985  -3.7842
    -3.7812  -3.7787  -3.7639  -3.7639  -3.7310  -3.7310  -3.6772  -3.6772
    -3.5710  -3.5710  -3.4259  -3.3091  -3.3091  -3.3091  -3.3091  -2.3847
    -2.3847  -2.3847  -2.3847  -2.1340  -2.1340  -2.0722  -2.0722  -1.1396
    -0.8623  -0.8143  -0.6199  -0.6199  -0.6199  -0.6199  -0.2358   0.0555
     0.1760   0.1760   0.3383   0.4524   0.4777   0.4777   0.5685   0.5685
     0.5803   0.5804   0.8237   1.2163   1.2447   1.2447   1.4344   1.4344
     1.4970   1.6709   1.6712   1.6712   1.7420   1.7420   1.8573   1.8573
     1.8573   1.8573   2.1019   2.1019   2.3571   2.6192   2.6192   2.8350
     2.8982   2.8982   2.9412   2.9412   3.1432   3.8092   3.8675   4.0229
     4.0229   4.0852   4.0852   4.1500   4.1500   4.2723   4.2892   4.2892
     4.2892   4.2892   4.7433   4.7433   4.9765   5.2313   5.2963   5.3755
     5.3787   5.3787   5.7127   6.0219   6.0219   6.0998   6.1033   6.1169
     6.1169   6.1758   6.1758   6.2131   6.2131   6.4558   6.6312   6.6520
     6.6520   6.8301   6.8615   6.8615   6.9869   7.0647   7.2608   7.4169
     7.4565   7.4565   7.4565   7.4565   7.5547   7.5547   7.7174   7.7865
     7.7865   7.9336   7.9338   7.9389   7.9560   7.9560   7.9560   7.9560
     8.1210   8.1825   8.1825   8.2178   8.2178   8.4993   8.6581   8.6582
     8.7192   8.7193   8.7399   8.8199   8.8207   8.8410   8.8410   8.8441
     8.8441   9.0186   9.0186   9.0186   9.0186   9.0342   9.1228   9.1228
     9.1548   9.3098   9.3098   9.3348   9.3348   9.3350   9.3350   9.3477
     9.3754   9.3755   9.4588   9.4588   9.4589   9.4589   9.4868   9.8391
     9.8391   9.8394   9.8394   9.8396   9.8396   9.8668  10.0113  10.3559
    10.3891  10.3891  10.5325  10.5325  10.5329  10.5329  10.6326  10.6335
    10.7357  10.7357  10.7358  10.7358  10.7678  10.8444  10.8447  11.0220

     occupation numbers 
     1.0000   1.0000   1.0000   1.0000   1.0000   1.0000   1.0000   1.0000
     1.0000   1.0000   1.0000   1.0000   1.0000   1.0000   1.0000   1.0000
     1.0000   1.0000   1.0000   1.0000   1.0000   1.0000   1.0000   1.0000
     1.0000   1.0000   1.0000   1.0000   1.0000   1.0000   1.0000   1.0000
     1.0000   1.0000   1.0000   1.0000   1.0000   1.0000   1.0000   1.0000
     1.0000   1.0000   1.0000   1.0000   1.0000   1.0000   1.0000   1.0000
     1.0000   1.0000   1.0000   1.0000   1.0000   1.0000   1.0000   1.0000
     1.0000   1.0000   1.0000   1.0000   1.0000   1.0000   1.0000   1.0000
     1.0000   1.0000   1.0000   1.0000   1.0000   1.0000   1.0000   1.0000
     1.0000   1.0000   1.0000   1.0000   1.0000   1.0000   1.0000   1.0000
     1.0000   1.0000   1.0000   1.0000   1.0000   1.0000   1.0000   1.0000
     1.0000   1.0000   1.0000   1.0000   1.0000   1.0000   1.0000   1.0000
     1.0000   1.0000   1.0000   1.0000   1.0000   1.0000   1.0000   1.0000
     1.0000   1.0000   1.0000   1.0000   1.0000   1.0000   1.0000   1.0000
     1.0000   1.0000   1.0000   1.0000   1.0000   1.0000   1.0000   1.0000
     1.0000   1.0000   1.0000   1.0000   1.0000   1.0000   1.0000   1.0000
     1.0000   1.0000   1.0000   1.0000   1.0000   1.0000   1.0000   1.0000
     1.0000   1.0000   1.0000   1.0000   1.0000   1.0000   1.0000   1.0000
     1.0000   1.0000   1.0000   1.0000   1.0000   1.0000   1.0000   1.0000
     1.0000   1.0000   1.0000   1.0000   1.0000   1.0000   1.0000   1.0000
     1.0000   1.0000   1.0000   1.0000   1.0000   1.0000   1.0000   1.0000
     1.0000   1.0000   1.0000   1.0000   1.0000   1.0000   1.0000   1.0000
     1.0000   1.0000   1.0000   1.0000   1.0000   1.0000   1.0000   1.0000
     1.0000   1.0000   1.0000   1.0000   1.0000   1.0000   1.0000   1.0000
     1.0000   1.0000   1.0000   1.0000   1.0000   1.0000   1.0000   1.0000
     1.0000   1.0000   1.0000   1.0000   1.0000   1.0000   1.0000   1.0000
     1.0000   1.0000   1.0000   1.0000   1.0000   1.0000   1.0000   1.0000
     1.0000   1.0000   1.0000   1.0000   1.0000   1.0000   1.0000   1.0000
     1.0000   1.0000   1.0000   1.0000   1.0000   1.0000   1.0000   1.0000
     1.0000   1.0000   1.0000   1.0000   1.0000   1.0000   1.0000   1.0000
     1.0000   1.0000   1.0000   1.0000   1.0000   1.0000   1.0000   1.0000
     1.0000   1.0000   1.0000   1.0000   1.0000   1.0000   1.0000   1.0000
     1.0000   1.0000   1.0000   1.0000   1.0000   1.0000   1.0000   1.0000
     1.0000   1.0000   1.0000   1.0000   1.0000   1.0000   1.0000   1.0000
     1.0000   1.0000   1.0000   1.0000   1.0000   1.0000   1.0000   1.0000
     1.0000   1.0000   1.0000   1.0000   1.0000   1.0000   1.0000   1.0000
     1.0000   1.0000   1.0000   1.0000   1.0000   1.0000   1.0000   1.0000
     1.0000   1.0000   1.0000   1.0000   1.0000   1.0000   1.0000   1.0000
     1.0000   1.0000   1.0000   1.0000   1.0000   1.0000   1.0000   1.0000
     1.0000   1.0000   1.0000   1.0000   1.0000   1.0000   1.0000   1.0000
     1.0000   1.0000   1.0000   1.0000   1.0000   1.0000   1.0000   1.0000
     1.0000   1.0000   1.0000   1.0000   1.0000   1.0000   1.0000   1.0000
     1.0000   1.0000   1.0000   1.0000   1.0000   1.0000   1.0000   1.0000
     1.0000   1.0000   1.0000   1.0000   1.0000   1.0000   1.0000   1.0000
     1.0000   1.0000   1.0000   1.0000   1.0000   1.0000   1.0000   1.0000
     1.0000   1.0000   1.0000   1.0000   1.0000   1.0000   1.0000   1.0000
     1.0000   1.0000   1.0000   1.0000   1.0000   1.0000   1.0000   1.0000
     1.0000   1.0000   1.0000   1.0000   1.0000   1.0000   1.0000   1.0000
     1.0000   1.0000   1.0000   1.0000   1.0000   1.0000   1.0000   1.0000
     1.0000   1.0000   1.0000   1.0000   1.0000   1.0000   1.0000   1.0000
     1.0000   1.0000   1.0000   1.0000   1.0000   1.0000   1.0000   1.0000
     1.0000   1.0000   1.0000   1.0000   1.0000   1.0000   1.0000   1.0000
     1.0000   1.0000   1.0000   1.0000   1.0000   1.0000   1.0000   1.0000
     1.0000   1.0000   1.0000   1.0000   1.0000   1.0000   1.0000   1.0000
     1.0000   1.0000   1.0000   1.0000   1.0000   1.0000   1.0000   1.0000
     1.0000   1.0000   1.0000   1.0000   1.0000   1.0000   1.0000   1.0000
     1.0000   1.0000   1.0000   1.0000   1.0000   1.0000   1.0000   1.0000
     1.0000   1.0000   1.0000   1.0000   1.0000   1.0000   1.0000   1.0000
     1.0000   1.0000   1.0000   1.0000   1.0000   1.0000   1.0000   1.0000
     1.0000   1.0000   1.0000   1.0000   1.0000   1.0000   1.0000   1.0000
     1.0000   1.0000   1.0000   1.0000   1.0000   1.0000   1.0000   1.0000
     1.0000   1.0000   1.0000   1.0000   1.0000   1.0000   1.0000   1.0000
     1.0000   1.0000   1.0000   1.0000   1.0000   1.0000   1.0000   1.0000
     1.0000   1.0000   1.0000   1.0000   1.0000   1.0000   1.0000   1.0000
     1.0000   1.0000   1.0000   1.0000   1.0000   1.0000   1.0000   1.0000
     1.0000   1.0000   1.0000   1.0000   1.0000   1.0000   1.0000   1.0000
     1.0000   1.0000   1.0000   1.0000   1.0000   1.0000   1.0000   1.0000
     1.0000   1.0000   1.0000   1.0000   1.0000   1.0000   1.0000   1.0000
     1.0000   1.0000   1.0000   1.0000   1.0000   1.0000   1.0000   1.0000
     1.0000   1.0000   1.0000   1.0000   1.0000   1.0000   1.0000   1.0000
     1.0000   1.0000   1.0000   1.0000   1.0000   1.0000   1.0000   1.0000
     1.0000   1.0000   1.0000   1.0000   1.0000   1.0000   1.0000   1.0000
     1.0000   1.0000   1.0000   1.0000   1.0000   1.0000   1.0000   1.0000
     1.0000   1.0000   1.0000   1.0000   1.0000   1.0000   1.0000   1.0000
     1.0000   1.0000   1.0000   1.0000   1.0000   1.0000   1.0000   1.0000
     1.0000   1.0000   1.0000   1.0000   1.0000   1.0000   1.0000   1.0000
     1.0000   1.0000   1.0000   1.0000   1.0000   1.0000   1.0000   1.0000
     1.0000   1.0000   1.0000   1.0000   1.0000   1.0000   1.0000   1.0000
     1.0000   1.0000   1.0000   1.0000   1.0000   1.0000   1.0000   1.0000
     1.0000   1.0000   1.0002   1.0002   1.0119   1.0818   1.0818   0.8973
     0.7471   0.7471   0.6307   0.6307   0.1640   0.0000   0.0000   0.0000
     0.0000   0.0000   0.0000   0.0000   0.0000   0.0000   0.0000   0.0000
     0.0000   0.0000   0.0000   0.0000   0.0000   0.0000   0.0000   0.0000
     0.0000   0.0000   0.0000   0.0000   0.0000   0.0000   0.0000   0.0000
     0.0000   0.0000   0.0000   0.0000   0.0000   0.0000   0.0000   0.0000
     0.0000   0.0000   0.0000   0.0000   0.0000   0.0000   0.0000   0.0000
     0.0000   0.0000   0.0000   0.0000   0.0000   0.0000   0.0000   0.0000
     0.0000   0.0000   0.0000   0.0000   0.0000   0.0000   0.0000   0.0000
     0.0000   0.0000   0.0000   0.0000   0.0000   0.0000   0.0000   0.0000
     0.0000   0.0000   0.0000   0.0000   0.0000   0.0000   0.0000   0.0000
     0.0000   0.0000   0.0000   0.0000   0.0000   0.0000   0.0000   0.0000
     0.0000   0.0000   0.0000   0.0000   0.0000   0.0000   0.0000   0.0000
     0.0000   0.0000   0.0000   0.0000   0.0000   0.0000   0.0000   0.0000
     0.0000   0.0000   0.0000   0.0000   0.0000   0.0000   0.0000   0.0000
     0.0000   0.0000   0.0000   0.0000   0.0000   0.0000   0.0000   0.0000
     0.0000   0.0000   0.0000   0.0000   0.0000   0.0000   0.0000   0.0000

          k = 0.0000 0.3107 0.1794 ( 43969 PWs)   bands (ev):

  -123.7713-123.7712-123.7709-123.7706-123.7702-123.7702-123.7699-123.7696
  -123.7695-123.7694-123.7694-123.7691-123.7691-123.7686-123.7683-123.7680
  -123.7572-123.7571-123.7564-123.7563-123.7561-123.7558-123.7557-123.7557
  -123.7556-123.7554-123.7553-123.7553-123.7552-123.7551-123.7550-123.7548
  -123.4854-123.4854-123.4845-123.4845-123.4845-123.4840-123.4839-123.4838
  -123.4838-123.4836-123.4836-123.4835-123.4834-123.4834-123.4833-123.4831
  -123.4432-123.4431-123.4423-123.4423-123.4420-123.4419-123.4416-123.4416
  -123.4416-123.4414-123.4413-123.4412-123.4411-123.4410-123.4409-123.4408
   -77.8774 -77.8762 -77.8739 -77.8738 -77.8690 -77.8683 -77.8681 -77.8676
   -77.8675 -77.8672 -77.8671 -77.8670 -77.8670 -77.8664 -77.8661 -77.8649
   -77.8649 -77.8648 -77.8648 -77.8642 -77.8635 -77.8634 -77.8632 -77.8627
   -77.8608 -77.8608 -77.8570 -77.8570 -77.8551 -77.8518 -77.8518 -77.8518
   -77.8515 -77.8514 -77.8509 -77.8506 -77.8501 -77.8500 -77.8500 -77.8493
   -77.8482 -77.8482 -77.8481 -77.8477 -77.8474 -77.8474 -77.8469 -77.8466
   -77.8464 -77.8463 -77.8463 -77.8463 -77.8462 -77.8461 -77.8461 -77.8461
   -77.8460 -77.8458 -77.8455 -77.8455 -77.8454 -77.8445 -77.8443 -77.8437
   -77.8436 -77.8433 -77.8429 -77.8427 -77.8424 -77.8423 -77.8412 -77.8412
   -77.8410 -77.8410 -77.8389 -77.8389 -77.8377 -77.8377 -77.8343 -77.8342
   -77.8335 -77.8331 -77.8328 -77.8327 -77.8326 -77.8316 -77.8315 -77.8309
   -77.8308 -77.8290 -77.8288 -77.8286 -77.8285 -77.8285 -77.8283 -77.8236
   -77.5837 -77.5835 -77.5834 -77.5827 -77.5802 -77.5802 -77.5798 -77.5798
   -77.5767 -77.5766 -77.5746 -77.5746 -77.5739 -77.5737 -77.5734 -77.5734
   -77.5731 -77.5726 -77.5726 -77.5721 -77.5721 -77.5714 -77.5712 -77.5711
   -77.5708 -77.5707 -77.5707 -77.5707 -77.5704 -77.5703 -77.5702 -77.5701
   -77.5700 -77.5699 -77.5698 -77.5698 -77.5698 -77.5697 -77.5689 -77.5684
   -77.5597 -77.5597 -77.5594 -77.5592 -77.5586 -77.5559 -77.5559 -77.5537
   -77.5536 -77.5515 -77.5515 -77.5510 -77.5506 -77.5506 -77.5505 -77.5504
   -77.5504 -77.5503 -77.5500 -77.5492 -77.5492 -77.5490 -77.5481 -77.5469
   -77.5360 -77.5339 -77.5324 -77.5323 -77.5294 -77.5294 -77.5265 -77.5259
   -77.5259 -77.5251 -77.5250 -77.5249 -77.5225 -77.5225 -77.5192 -77.5191
   -77.5190 -77.5182 -77.5180 -77.5174 -77.5168 -77.5159 -77.5157 -77.5154
   -77.5125 -77.5113 -77.5112 -77.5087 -77.5077 -77.5076 -77.5067 -77.5061
    -7.1398  -6.6814  -6.0046  -5.8999  -5.8999  -5.6164  -5.5702  -5.5702
    -5.4858  -5.4280  -5.4071  -5.3983  -5.3983  -5.3708  -5.3646  -5.3547
    -5.3547  -5.3338  -5.3338  -5.3253  -5.3134  -5.2989  -5.2907  -5.2907
    -5.2751  -5.2695  -5.2617  -5.2614  -5.2614  -5.2378  -5.2255  -5.2255
    -5.2101  -5.2079  -5.1730  -5.1729  -5.1698  -5.1580  -5.1458  -5.1392
    -5.1391  -5.1386  -5.1292  -5.1181  -5.0942  -5.0941  -5.0932  -5.0932
    -5.0847  -5.0847  -5.0807  -5.0719  -5.0719  -5.0629  -5.0615  -5.0418
    -5.0418  -5.0307  -5.0307  -5.0294  -5.0025  -4.9992  -4.9992  -4.9804
    -4.9740  -4.9619  -4.9544  -4.9544  -4.9449  -4.9442  -4.9414  -4.9289
    -4.9289  -4.9107  -4.9043  -4.9042  -4.9007  -4.9007  -4.8995  -4.8995
    -4.8872  -4.8669  -4.8614  -4.8507  -4.8507  -4.8436  -4.8275  -4.8074
    -4.8024  -4.8024  -4.7960  -4.7960  -4.7957  -4.7957  -4.7620  -4.7620
    -4.7620  -4.7619  -4.7337  -4.7332  -4.7319  -4.7281  -4.7226  -4.7001
    -4.7001  -4.6968  -4.6949  -4.6912  -4.6895  -4.6830  -4.6812  -4.6812
    -4.6794  -4.6734  -4.6678  -4.6676  -4.6657  -4.6591  -4.6555  -4.6498
    -4.6497  -4.6383  -4.6383  -4.6373  -4.6373  -4.6342  -4.6331  -4.6304
    -4.6214  -4.6137  -4.5891  -4.5777  -4.5753  -4.5648  -4.5630  -4.5525
    -4.5470  -4.5461  -4.5461  -4.5352  -4.5326  -4.5276  -4.5171  -4.5163
    -4.5163  -4.5100  -4.5082  -4.5082  -4.4929  -4.4915  -4.4907  -4.4877
    -4.4877  -4.4813  -4.4805  -4.4787  -4.4787  -4.4761  -4.4756  -4.4742
    -4.4729  -4.4590  -4.4576  -4.4576  -4.4520  -4.4502  -4.4373  -4.4349
    -4.4349  -4.4323  -4.4221  -4.4145  -4.4136  -4.4107  -4.4107  -4.4069
    -4.3958  -4.3958  -4.3943  -4.3846  -4.3819  -4.3819  -4.3631  -4.3631
    -4.3552  -4.3552  -4.3460  -4.3415  -4.3405  -4.3405  -4.3369  -4.3363
    -4.3358  -4.3348  -4.3230  -4.3230  -4.3148  -4.3148  -4.2955  -4.2955
    -4.2778  -4.2768  -4.2613  -4.2580  -4.2505  -4.2430  -4.2430  -4.2317
    -4.2251  -4.2251  -4.2238  -4.2237  -4.2236  -4.2172  -4.2172  -4.2097
    -4.2061  -4.2051  -4.2029  -4.1963  -4.1886  -4.1826  -4.1815  -4.1815
    -4.1798  -4.1798  -4.1752  -4.1638  -4.1638  -4.1572  -4.1564  -4.1342
    -4.1298  -4.1279  -4.1279  -4.1255  -4.1254  -4.1242  -4.1242  -4.1126
    -4.1083  -4.1083  -4.1082  -4.1015  -4.1002  -4.0812  -4.0812  -4.0807
    -4.0785  -4.0757  -4.0757  -4.0730  -4.0730  -4.0708  -4.0708  -4.0696
    -4.0675  -4.0628  -4.0594  -4.0578  -4.0560  -4.0531  -4.0506  -4.0479
    -4.0447  -4.0380  -4.0380  -4.0236  -4.0235  -4.0188  -4.0174  -4.0006
    -3.9931  -3.9877  -3.9877  -3.9860  -3.9794  -3.9750  -3.9750  -3.9705
    -3.9705  -3.9701  -3.9696  -3.9696  -3.9693  -3.9693  -3.9628  -3.9525
    -3.9525  -3.9511  -3.9511  -3.9472  -3.9446  -3.9421  -3.9379  -3.9322
    -3.9321  -3.9283  -3.9283  -3.9279  -3.9277  -3.9274  -3.9234  -3.9229
    -3.9228  -3.9225  -3.8984  -3.8984  -3.8893  -3.8880  -3.8860  -3.8855
    -3.8838  -3.8838  -3.8691  -3.8691  -3.8660  -3.8628  -3.8394  -3.8379
    -3.8323  -3.8206  -3.8125  -3.8124  -3.7767  -3.7766  -3.7152  -3.7152
    -3.6669  -3.4201  -3.4201  -3.2479  -3.0349  -3.0349  -2.8848  -2.8165
    -2.5245  -2.4418  -2.4418  -1.8908  -1.8908  -1.5078  -1.3915  -1.3915
    -1.3812  -1.3812  -1.1185  -1.0948  -1.0948  -0.9882  -0.5466  -0.0376
    -0.0376   0.0057   0.2382   0.4214   0.4214   0.4278   0.6410   0.6410
     0.6743   0.7155   0.9801   1.1122   1.1122   1.1916   1.2419   1.4201
     1.4243   1.6194   1.6194   1.6452   2.0199   2.0762   2.1065   2.1500
     2.5974   2.5974   2.6712   2.8096   2.8096   2.8140   2.8140   2.9361
     2.9737   2.9892   3.3316   3.3691   3.3769   3.3831   3.3831   3.5886
     3.6959   3.8784   4.0368   4.0672   4.1347   4.3428   4.3428   4.4318
     4.4530   4.5461   4.6365   4.6365   4.9467   5.1351   5.2803   5.2803
     5.4326   5.4626   5.4784   5.5347   5.5989   5.6071   5.6071   5.8711
     5.9346   5.9346   6.0094   6.1412   6.3541   6.3541   6.5104   6.5104
     6.5283   6.5376   6.6955   6.6956   6.7794   6.7794   6.8960   6.9639
     6.9639   7.0306   7.0416   7.4664   7.5108   7.5726   7.6981   7.9472
     7.9649   7.9846   8.1239   8.1325   8.1325   8.1543   8.1544   8.1984
     8.1984   8.2906   8.3376   8.3376   8.3465   8.3730   8.5148   8.5180
     8.5185   8.5465   8.5467   8.6129   8.6129   8.7066   8.7711   8.7712
     8.7912   8.8121   8.9841   9.1614   9.1920   9.1924   9.2186   9.3498
     9.3758   9.3909   9.3909   9.4776   9.5531   9.5825   9.5830   9.6538
     9.6543   9.7728   9.7729   9.8536   9.9351   9.9352  10.0259  10.0312
    10.0573  10.0576  10.1087  10.1402  10.1516  10.1543  10.2290  10.2290
    10.2785  10.3978  10.4523  10.4635  10.4635  10.6487  10.6487  10.6952
    10.7000  10.7000  10.7095  10.7129  10.7129  10.8044  10.8795  10.9071

     occupation numbers 
     1.0000   1.0000   1.0000   1.0000   1.0000   1.0000   1.0000   1.0000
     1.0000   1.0000   1.0000   1.0000   1.0000   1.0000   1.0000   1.0000
     1.0000   1.0000   1.0000   1.0000   1.0000   1.0000   1.0000   1.0000
     1.0000   1.0000   1.0000   1.0000   1.0000   1.0000   1.0000   1.0000
     1.0000   1.0000   1.0000   1.0000   1.0000   1.0000   1.0000   1.0000
     1.0000   1.0000   1.0000   1.0000   1.0000   1.0000   1.0000   1.0000
     1.0000   1.0000   1.0000   1.0000   1.0000   1.0000   1.0000   1.0000
     1.0000   1.0000   1.0000   1.0000   1.0000   1.0000   1.0000   1.0000
     1.0000   1.0000   1.0000   1.0000   1.0000   1.0000   1.0000   1.0000
     1.0000   1.0000   1.0000   1.0000   1.0000   1.0000   1.0000   1.0000
     1.0000   1.0000   1.0000   1.0000   1.0000   1.0000   1.0000   1.0000
     1.0000   1.0000   1.0000   1.0000   1.0000   1.0000   1.0000   1.0000
     1.0000   1.0000   1.0000   1.0000   1.0000   1.0000   1.0000   1.0000
     1.0000   1.0000   1.0000   1.0000   1.0000   1.0000   1.0000   1.0000
     1.0000   1.0000   1.0000   1.0000   1.0000   1.0000   1.0000   1.0000
     1.0000   1.0000   1.0000   1.0000   1.0000   1.0000   1.0000   1.0000
     1.0000   1.0000   1.0000   1.0000   1.0000   1.0000   1.0000   1.0000
     1.0000   1.0000   1.0000   1.0000   1.0000   1.0000   1.0000   1.0000
     1.0000   1.0000   1.0000   1.0000   1.0000   1.0000   1.0000   1.0000
     1.0000   1.0000   1.0000   1.0000   1.0000   1.0000   1.0000   1.0000
     1.0000   1.0000   1.0000   1.0000   1.0000   1.0000   1.0000   1.0000
     1.0000   1.0000   1.0000   1.0000   1.0000   1.0000   1.0000   1.0000
     1.0000   1.0000   1.0000   1.0000   1.0000   1.0000   1.0000   1.0000
     1.0000   1.0000   1.0000   1.0000   1.0000   1.0000   1.0000   1.0000
     1.0000   1.0000   1.0000   1.0000   1.0000   1.0000   1.0000   1.0000
     1.0000   1.0000   1.0000   1.0000   1.0000   1.0000   1.0000   1.0000
     1.0000   1.0000   1.0000   1.0000   1.0000   1.0000   1.0000   1.0000
     1.0000   1.0000   1.0000   1.0000   1.0000   1.0000   1.0000   1.0000
     1.0000   1.0000   1.0000   1.0000   1.0000   1.0000   1.0000   1.0000
     1.0000   1.0000   1.0000   1.0000   1.0000   1.0000   1.0000   1.0000
     1.0000   1.0000   1.0000   1.0000   1.0000   1.0000   1.0000   1.0000
     1.0000   1.0000   1.0000   1.0000   1.0000   1.0000   1.0000   1.0000
     1.0000   1.0000   1.0000   1.0000   1.0000   1.0000   1.0000   1.0000
     1.0000   1.0000   1.0000   1.0000   1.0000   1.0000   1.0000   1.0000
     1.0000   1.0000   1.0000   1.0000   1.0000   1.0000   1.0000   1.0000
     1.0000   1.0000   1.0000   1.0000   1.0000   1.0000   1.0000   1.0000
     1.0000   1.0000   1.0000   1.0000   1.0000   1.0000   1.0000   1.0000
     1.0000   1.0000   1.0000   1.0000   1.0000   1.0000   1.0000   1.0000
     1.0000   1.0000   1.0000   1.0000   1.0000   1.0000   1.0000   1.0000
     1.0000   1.0000   1.0000   1.0000   1.0000   1.0000   1.0000   1.0000
     1.0000   1.0000   1.0000   1.0000   1.0000   1.0000   1.0000   1.0000
     1.0000   1.0000   1.0000   1.0000   1.0000   1.0000   1.0000   1.0000
     1.0000   1.0000   1.0000   1.0000   1.0000   1.0000   1.0000   1.0000
     1.0000   1.0000   1.0000   1.0000   1.0000   1.0000   1.0000   1.0000
     1.0000   1.0000   1.0000   1.0000   1.0000   1.0000   1.0000   1.0000
     1.0000   1.0000   1.0000   1.0000   1.0000   1.0000   1.0000   1.0000
     1.0000   1.0000   1.0000   1.0000   1.0000   1.0000   1.0000   1.0000
     1.0000   1.0000   1.0000   1.0000   1.0000   1.0000   1.0000   1.0000
     1.0000   1.0000   1.0000   1.0000   1.0000   1.0000   1.0000   1.0000
     1.0000   1.0000   1.0000   1.0000   1.0000   1.0000   1.0000   1.0000
     1.0000   1.0000   1.0000   1.0000   1.0000   1.0000   1.0000   1.0000
     1.0000   1.0000   1.0000   1.0000   1.0000   1.0000   1.0000   1.0000
     1.0000   1.0000   1.0000   1.0000   1.0000   1.0000   1.0000   1.0000
     1.0000   1.0000   1.0000   1.0000   1.0000   1.0000   1.0000   1.0000
     1.0000   1.0000   1.0000   1.0000   1.0000   1.0000   1.0000   1.0000
     1.0000   1.0000   1.0000   1.0000   1.0000   1.0000   1.0000   1.0000
     1.0000   1.0000   1.0000   1.0000   1.0000   1.0000   1.0000   1.0000
     1.0000   1.0000   1.0000   1.0000   1.0000   1.0000   1.0000   1.0000
     1.0000   1.0000   1.0000   1.0000   1.0000   1.0000   1.0000   1.0000
     1.0000   1.0000   1.0000   1.0000   1.0000   1.0000   1.0000   1.0000
     1.0000   1.0000   1.0000   1.0000   1.0000   1.0000   1.0000   1.0000
     1.0000   1.0000   1.0000   1.0000   1.0000   1.0000   1.0000   1.0000
     1.0000   1.0000   1.0000   1.0000   1.0000   1.0000   1.0000   1.0000
     1.0000   1.0000   1.0000   1.0000   1.0000   1.0000   1.0000   1.0000
     1.0000   1.0000   1.0000   1.0000   1.0000   1.0000   1.0000   1.0000
     1.0000   1.0000   1.0000   1.0000   1.0000   1.0000   1.0000   1.0000
     1.0000   1.0000   1.0000   1.0000   1.0000   1.0000   1.0000   1.0000
     1.0000   1.0000   1.0000   1.0000   1.0000   1.0000   1.0000   1.0000
     1.0000   1.0000   1.0000   1.0000   1.0000   1.0000   1.0000   1.0000
     1.0000   1.0000   1.0000   1.0000   1.0000   1.0000   1.0000   1.0000
     1.0000   1.0000   1.0000   1.0000   1.0000   1.0000   1.0000   1.0000
     1.0000   1.0000   1.0000   1.0000   1.0000   1.0000   1.0000   1.0000
     1.0000   1.0000   1.0000   1.0000   1.0000   1.0000   1.0000   1.0000
     1.0000   1.0000   1.0000   1.0000   1.0000   1.0000   1.0000   1.0000
     1.0000   1.0000   1.0000   1.0000   1.0000   1.0000   1.0000   1.0000
     1.0000   1.0000   1.0000   1.0000   1.0000   1.0000   1.0000   1.0000
     1.0000   1.0000   1.0000   1.0000   1.0000   1.0000   1.0000   1.0000
     1.0000   1.0000   1.0000   1.0000   1.0000   1.0000   1.0000   1.0000
     1.0000   1.0000   1.0000   1.0000   1.0000   1.0001   1.0002   1.0005
     1.0779   1.0779   1.0802   0.9465   0.9465   0.9386   0.9386   0.6450
     0.5409   0.4985   0.0190   0.0111   0.0099   0.0090   0.0090   0.0002
     0.0000   0.0000   0.0000   0.0000   0.0000   0.0000   0.0000   0.0000
     0.0000   0.0000   0.0000   0.0000   0.0000   0.0000   0.0000   0.0000
     0.0000   0.0000   0.0000   0.0000   0.0000   0.0000   0.0000   0.0000
     0.0000   0.0000   0.0000   0.0000   0.0000   0.0000   0.0000   0.0000
     0.0000   0.0000   0.0000   0.0000   0.0000   0.0000   0.0000   0.0000
     0.0000   0.0000   0.0000   0.0000   0.0000   0.0000   0.0000   0.0000
     0.0000   0.0000   0.0000   0.0000   0.0000   0.0000   0.0000   0.0000
     0.0000   0.0000   0.0000   0.0000   0.0000   0.0000   0.0000   0.0000
     0.0000   0.0000   0.0000   0.0000   0.0000   0.0000   0.0000   0.0000
     0.0000   0.0000   0.0000   0.0000   0.0000   0.0000   0.0000   0.0000
     0.0000   0.0000   0.0000   0.0000   0.0000   0.0000   0.0000   0.0000
     0.0000   0.0000   0.0000   0.0000   0.0000   0.0000   0.0000   0.0000
     0.0000   0.0000   0.0000   0.0000   0.0000   0.0000   0.0000   0.0000
     0.0000   0.0000   0.0000   0.0000   0.0000   0.0000   0.0000   0.0000
     0.0000   0.0000   0.0000   0.0000   0.0000   0.0000   0.0000   0.0000

          k = 0.3333 0.0000 0.0000 ( 44008 PWs)   bands (ev):

  -123.7720-123.7710-123.7704-123.7702-123.7701-123.7701-123.7700-123.7699
  -123.7698-123.7696-123.7694-123.7692-123.7691-123.7690-123.7688-123.7688
  -123.7573-123.7567-123.7564-123.7562-123.7560-123.7559-123.7559-123.7558
  -123.7557-123.7557-123.7556-123.7555-123.7554-123.7553-123.7553-123.7548
  -123.4855-123.4851-123.4844-123.4843-123.4842-123.4841-123.4840-123.4840
  -123.4840-123.4839-123.4838-123.4838-123.4837-123.4837-123.4836-123.4836
  -123.4432-123.4427-123.4421-123.4420-123.4419-123.4418-123.4418-123.4418
  -123.4417-123.4417-123.4416-123.4414-123.4414-123.4412-123.4412-123.4412
   -77.8812 -77.8797 -77.8779 -77.8776 -77.8686 -77.8681 -77.8677 -77.8671
   -77.8671 -77.8669 -77.8668 -77.8668 -77.8666 -77.8666 -77.8665 -77.8655
   -77.8650 -77.8650 -77.8648 -77.8648 -77.8625 -77.8580 -77.8579 -77.8577
   -77.8576 -77.8572 -77.8571 -77.8567 -77.8567 -77.8536 -77.8534 -77.8524
   -77.8524 -77.8520 -77.8517 -77.8517 -77.8516 -77.8514 -77.8511 -77.8510
   -77.8508 -77.8508 -77.8503 -77.8498 -77.8497 -77.8497 -77.8490 -77.8490
   -77.8482 -77.8477 -77.8476 -77.8472 -77.8469 -77.8461 -77.8458 -77.8458
   -77.8458 -77.8452 -77.8451 -77.8450 -77.8444 -77.8444 -77.8440 -77.8434
   -77.8433 -77.8432 -77.8432 -77.8417 -77.8412 -77.8402 -77.8398 -77.8398
   -77.8397 -77.8397 -77.8387 -77.8387 -77.8380 -77.8373 -77.8373 -77.8373
   -77.8369 -77.8363 -77.8346 -77.8346 -77.8341 -77.8341 -77.8340 -77.8340
   -77.8313 -77.8313 -77.8307 -77.8307 -77.8261 -77.8251 -77.8243 -77.8190
   -77.5861 -77.5859 -77.5855 -77.5843 -77.5815 -77.5804 -77.5773 -77.5770
   -77.5767 -77.5763 -77.5763 -77.5762 -77.5761 -77.5760 -77.5760 -77.5749
   -77.5749 -77.5745 -77.5735 -77.5730 -77.5725 -77.5716 -77.5716 -77.5714
   -77.5712 -77.5709 -77.5709 -77.5708 -77.5708 -77.5708 -77.5707 -77.5707
   -77.5703 -77.5694 -77.5689 -77.5682 -77.5652 -77.5652 -77.5646 -77.5646
   -77.5645 -77.5644 -77.5628 -77.5628 -77.5568 -77.5549 -77.5543 -77.5523
   -77.5520 -77.5520 -77.5519 -77.5514 -77.5514 -77.5511 -77.5509 -77.5500
   -77.5497 -77.5495 -77.5495 -77.5494 -77.5491 -77.5489 -77.5489 -77.5489
   -77.5393 -77.5371 -77.5370 -77.5366 -77.5284 -77.5258 -77.5240 -77.5232
   -77.5231 -77.5231 -77.5229 -77.5225 -77.5225 -77.5216 -77.5216 -77.5213
   -77.5213 -77.5209 -77.5179 -77.5166 -77.5166 -77.5163 -77.5163 -77.5161
   -77.5161 -77.5149 -77.5149 -77.5135 -77.5085 -77.5067 -77.5029 -77.5028
    -7.1280  -6.6491  -6.0136  -5.8790  -5.8790  -5.7192  -5.6217  -5.5752
    -5.5752  -5.5561  -5.4552  -5.4430  -5.4094  -5.3923  -5.3824  -5.3780
    -5.3720  -5.3712  -5.3645  -5.3614  -5.3611  -5.3498  -5.2761  -5.2761
    -5.2305  -5.2292  -5.2292  -5.2043  -5.2035  -5.2035  -5.1855  -5.1855
    -5.1488  -5.1408  -5.1374  -5.1374  -5.1354  -5.1294  -5.1287  -5.1202
    -5.1183  -5.1183  -5.1169  -5.1169  -5.1140  -5.1082  -5.1056  -5.1056
    -5.0984  -5.0771  -5.0701  -5.0659  -5.0595  -5.0595  -5.0498  -5.0418
    -5.0418  -5.0166  -4.9862  -4.9862  -4.9780  -4.9780  -4.9706  -4.9510
    -4.9510  -4.9498  -4.9498  -4.9390  -4.9361  -4.9353  -4.9085  -4.9076
    -4.9064  -4.9064  -4.9053  -4.9043  -4.9043  -4.8982  -4.8936  -4.8671
    -4.8671  -4.8608  -4.8608  -4.8434  -4.8434  -4.8406  -4.8380  -4.8339
    -4.8339  -4.8144  -4.8060  -4.8060  -4.8008  -4.7971  -4.7966  -4.7966
    -4.7915  -4.7698  -4.7645  -4.7596  -4.7596  -4.7519  -4.7519  -4.7411
    -4.7404  -4.7345  -4.7345  -4.7183  -4.7183  -4.7020  -4.6998  -4.6944
    -4.6864  -4.6860  -4.6766  -4.6764  -4.6590  -4.6590  -4.6547  -4.6479
    -4.6479  -4.6429  -4.6429  -4.6380  -4.6286  -4.6286  -4.6243  -4.6231
    -4.6179  -4.6023  -4.5843  -4.5703  -4.5701  -4.5597  -4.5564  -4.5495
    -4.5495  -4.5446  -4.5446  -4.5321  -4.5234  -4.5234  -4.5132  -4.5112
    -4.5047  -4.4913  -4.4913  -4.4900  -4.4746  -4.4746  -4.4724  -4.4724
    -4.4657  -4.4657  -4.4653  -4.4653  -4.4550  -4.4454  -4.4403  -4.4403
    -4.4393  -4.4332  -4.4264  -4.4264  -4.4201  -4.4201  -4.4107  -4.4059
    -4.4007  -4.3921  -4.3921  -4.3889  -4.3862  -4.3797  -4.3763  -4.3763
    -4.3654  -4.3654  -4.3612  -4.3612  -4.3411  -4.3411  -4.3400  -4.3365
    -4.3355  -4.3355  -4.3274  -4.3274  -4.3235  -4.3191  -4.3191  -4.3164
    -4.3164  -4.3164  -4.2998  -4.2998  -4.2973  -4.2915  -4.2908  -4.2871
    -4.2866  -4.2736  -4.2691  -4.2624  -4.2624  -4.2615  -4.2551  -4.2427
    -4.2366  -4.2334  -4.2334  -4.2326  -4.2310  -4.2297  -4.2297  -4.2282
    -4.2282  -4.2134  -4.2089  -4.2077  -4.2077  -4.1948  -4.1875  -4.1875
    -4.1826  -4.1826  -4.1817  -4.1817  -4.1746  -4.1746  -4.1656  -4.1611
    -4.1611  -4.1573  -4.1570  -4.1543  -4.1537  -4.1473  -4.1395  -4.1395
    -4.1338  -4.1337  -4.1320  -4.1320  -4.1314  -4.1216  -4.1182  -4.1103
    -4.1103  -4.1086  -4.1025  -4.0977  -4.0960  -4.0943  -4.0929  -4.0898
    -4.0898  -4.0841  -4.0841  -4.0824  -4.0768  -4.0753  -4.0731  -4.0669
    -4.0665  -4.0558  -4.0558  -4.0542  -4.0530  -4.0530  -4.0498  -4.0387
    -4.0387  -4.0359  -4.0220  -4.0220  -4.0196  -4.0164  -4.0164  -4.0147
    -4.0087  -4.0074  -4.0027  -4.0027  -3.9925  -3.9925  -3.9726  -3.9726
    -3.9710  -3.9658  -3.9657  -3.9621  -3.9557  -3.9557  -3.9553  -3.9493
    -3.9406  -3.9275  -3.9275  -3.9266  -3.9251  -3.9251  -3.9228  -3.9213
    -3.9205  -3.9171  -3.9107  -3.9107  -3.8957  -3.8915  -3.8850  -3.8568
    -3.8568  -3.8483  -3.8439  -3.8294  -3.8240  -3.8154  -3.8104  -3.8081
    -3.7961  -3.7959  -3.7867  -3.7753  -3.7678  -3.7669  -3.7596  -3.7421
    -3.5976  -3.5976  -3.4075  -3.3415  -3.2213  -3.2213  -2.9932  -2.3621
    -2.1540  -2.1540  -1.9934  -1.9934  -1.9612  -1.5999  -1.5999  -1.0470
    -1.0034  -0.9875  -0.9875  -0.8167  -0.7130  -0.6604  -0.5703  -0.5703
    -0.2444  -0.1867  -0.1049   0.2200   0.3346   0.3346   0.3689   0.3689
     0.5534   0.5534   0.5592   0.6793   0.8771   1.0236   1.2681   1.2681
     1.3104   1.6454   1.7464   1.7843   1.7991   1.8270   2.0141   2.4234
     2.4234   2.4453   2.4525   2.4594   2.9188   2.9188   2.9682   2.9682
     3.0928   3.1376   3.4242   3.4591   3.5661   3.5661   3.7454   3.7775
     3.8238   3.8238   3.8380   4.0384   4.5611   4.5611   4.7775   4.8381
     4.8413   4.9020   4.9077   5.0654   5.0938   5.0938   5.1188   5.1188
     5.1346   5.1772   5.3868   5.3868   5.5325   5.6035   5.8027   6.2505
     6.4060   6.4729   6.4729   6.4747   6.5294   6.5294   6.5621   6.5878
     6.5878   6.6859   6.8387   6.8943   7.0390   7.0468   7.0468   7.0526
     7.0526   7.1308   7.2974   7.3696   7.4091   7.4650   7.5759   7.5759
     7.7315   7.7315   7.7531   7.7851   7.7851   7.8739   7.9540   7.9540
     8.0562   8.0666   8.1539   8.1539   8.1616   8.1719   8.1756   8.2433
     8.2433   8.3081   8.4451   8.4451   8.6738   8.7814   8.7814   8.8141
     8.8457   8.8457   8.8897   8.8897   8.9036   9.0549   9.0549   9.1390
     9.1922   9.2640   9.2640   9.3019   9.3289   9.4171   9.4733   9.4733
     9.6367   9.6526   9.6599   9.6895   9.6895   9.7926   9.7926   9.8536
     9.9501   9.9501   9.9578   9.9578  10.0391  10.0406  10.1398  10.1956
    10.3821  10.4471  10.4508  10.4508  10.4942  10.4942  10.5304  10.5304
    10.5370  10.5751  10.5751  10.6059  10.6059  10.6887  10.7493  10.9264

     occupation numbers 
     1.0000   1.0000   1.0000   1.0000   1.0000   1.0000   1.0000   1.0000
     1.0000   1.0000   1.0000   1.0000   1.0000   1.0000   1.0000   1.0000
     1.0000   1.0000   1.0000   1.0000   1.0000   1.0000   1.0000   1.0000
     1.0000   1.0000   1.0000   1.0000   1.0000   1.0000   1.0000   1.0000
     1.0000   1.0000   1.0000   1.0000   1.0000   1.0000   1.0000   1.0000
     1.0000   1.0000   1.0000   1.0000   1.0000   1.0000   1.0000   1.0000
     1.0000   1.0000   1.0000   1.0000   1.0000   1.0000   1.0000   1.0000
     1.0000   1.0000   1.0000   1.0000   1.0000   1.0000   1.0000   1.0000
     1.0000   1.0000   1.0000   1.0000   1.0000   1.0000   1.0000   1.0000
     1.0000   1.0000   1.0000   1.0000   1.0000   1.0000   1.0000   1.0000
     1.0000   1.0000   1.0000   1.0000   1.0000   1.0000   1.0000   1.0000
     1.0000   1.0000   1.0000   1.0000   1.0000   1.0000   1.0000   1.0000
     1.0000   1.0000   1.0000   1.0000   1.0000   1.0000   1.0000   1.0000
     1.0000   1.0000   1.0000   1.0000   1.0000   1.0000   1.0000   1.0000
     1.0000   1.0000   1.0000   1.0000   1.0000   1.0000   1.0000   1.0000
     1.0000   1.0000   1.0000   1.0000   1.0000   1.0000   1.0000   1.0000
     1.0000   1.0000   1.0000   1.0000   1.0000   1.0000   1.0000   1.0000
     1.0000   1.0000   1.0000   1.0000   1.0000   1.0000   1.0000   1.0000
     1.0000   1.0000   1.0000   1.0000   1.0000   1.0000   1.0000   1.0000
     1.0000   1.0000   1.0000   1.0000   1.0000   1.0000   1.0000   1.0000
     1.0000   1.0000   1.0000   1.0000   1.0000   1.0000   1.0000   1.0000
     1.0000   1.0000   1.0000   1.0000   1.0000   1.0000   1.0000   1.0000
     1.0000   1.0000   1.0000   1.0000   1.0000   1.0000   1.0000   1.0000
     1.0000   1.0000   1.0000   1.0000   1.0000   1.0000   1.0000   1.0000
     1.0000   1.0000   1.0000   1.0000   1.0000   1.0000   1.0000   1.0000
     1.0000   1.0000   1.0000   1.0000   1.0000   1.0000   1.0000   1.0000
     1.0000   1.0000   1.0000   1.0000   1.0000   1.0000   1.0000   1.0000
     1.0000   1.0000   1.0000   1.0000   1.0000   1.0000   1.0000   1.0000
     1.0000   1.0000   1.0000   1.0000   1.0000   1.0000   1.0000   1.0000
     1.0000   1.0000   1.0000   1.0000   1.0000   1.0000   1.0000   1.0000
     1.0000   1.0000   1.0000   1.0000   1.0000   1.0000   1.0000   1.0000
     1.0000   1.0000   1.0000   1.0000   1.0000   1.0000   1.0000   1.0000
     1.0000   1.0000   1.0000   1.0000   1.0000   1.0000   1.0000   1.0000
     1.0000   1.0000   1.0000   1.0000   1.0000   1.0000   1.0000   1.0000
     1.0000   1.0000   1.0000   1.0000   1.0000   1.0000   1.0000   1.0000
     1.0000   1.0000   1.0000   1.0000   1.0000   1.0000   1.0000   1.0000
     1.0000   1.0000   1.0000   1.0000   1.0000   1.0000   1.0000   1.0000
     1.0000   1.0000   1.0000   1.0000   1.0000   1.0000   1.0000   1.0000
     1.0000   1.0000   1.0000   1.0000   1.0000   1.0000   1.0000   1.0000
     1.0000   1.0000   1.0000   1.0000   1.0000   1.0000   1.0000   1.0000
     1.0000   1.0000   1.0000   1.0000   1.0000   1.0000   1.0000   1.0000
     1.0000   1.0000   1.0000   1.0000   1.0000   1.0000   1.0000   1.0000
     1.0000   1.0000   1.0000   1.0000   1.0000   1.0000   1.0000   1.0000
     1.0000   1.0000   1.0000   1.0000   1.0000   1.0000   1.0000   1.0000
     1.0000   1.0000   1.0000   1.0000   1.0000   1.0000   1.0000   1.0000
     1.0000   1.0000   1.0000   1.0000   1.0000   1.0000   1.0000   1.0000
     1.0000   1.0000   1.0000   1.0000   1.0000   1.0000   1.0000   1.0000
     1.0000   1.0000   1.0000   1.0000   1.0000   1.0000   1.0000   1.0000
     1.0000   1.0000   1.0000   1.0000   1.0000   1.0000   1.0000   1.0000
     1.0000   1.0000   1.0000   1.0000   1.0000   1.0000   1.0000   1.0000
     1.0000   1.0000   1.0000   1.0000   1.0000   1.0000   1.0000   1.0000
     1.0000   1.0000   1.0000   1.0000   1.0000   1.0000   1.0000   1.0000
     1.0000   1.0000   1.0000   1.0000   1.0000   1.0000   1.0000   1.0000
     1.0000   1.0000   1.0000   1.0000   1.0000   1.0000   1.0000   1.0000
     1.0000   1.0000   1.0000   1.0000   1.0000   1.0000   1.0000   1.0000
     1.0000   1.0000   1.0000   1.0000   1.0000   1.0000   1.0000   1.0000
     1.0000   1.0000   1.0000   1.0000   1.0000   1.0000   1.0000   1.0000
     1.0000   1.0000   1.0000   1.0000   1.0000   1.0000   1.0000   1.0000
     1.0000   1.0000   1.0000   1.0000   1.0000   1.0000   1.0000   1.0000
     1.0000   1.0000   1.0000   1.0000   1.0000   1.0000   1.0000   1.0000
     1.0000   1.0000   1.0000   1.0000   1.0000   1.0000   1.0000   1.0000
     1.0000   1.0000   1.0000   1.0000   1.0000   1.0000   1.0000   1.0000
     1.0000   1.0000   1.0000   1.0000   1.0000   1.0000   1.0000   1.0000
     1.0000   1.0000   1.0000   1.0000   1.0000   1.0000   1.0000   1.0000
     1.0000   1.0000   1.0000   1.0000   1.0000   1.0000   1.0000   1.0000
     1.0000   1.0000   1.0000   1.0000   1.0000   1.0000   1.0000   1.0000
     1.0000   1.0000   1.0000   1.0000   1.0000   1.0000   1.0000   1.0000
     1.0000   1.0000   1.0000   1.0000   1.0000   1.0000   1.0000   1.0000
     1.0000   1.0000   1.0000   1.0000   1.0000   1.0000   1.0000   1.0000
     1.0000   1.0000   1.0000   1.0000   1.0000   1.0000   1.0000   1.0000
     1.0000   1.0000   1.0000   1.0000   1.0000   1.0000   1.0000   1.0000
     1.0000   1.0000   1.0000   1.0000   1.0000   1.0000   1.0000   1.0000
     1.0000   1.0000   1.0000   1.0000   1.0000   1.0000   1.0000   1.0000
     1.0000   1.0000   1.0000   1.0000   1.0000   1.0000   1.0000   1.0000
     1.0000   1.0000   1.0000   1.0000   1.0000   1.0000   1.0000   1.0000
     1.0000   1.0000   1.0000   1.0000   1.0000   1.0000   1.0000   1.0000
     1.0000   1.0000   1.0000   1.0000   1.0000   1.0000   1.0000   1.0000
     1.0000   1.0000   1.0000   1.0000   1.0000   1.0000   1.0000   1.0000
     1.0000   1.0000   1.0000   1.0000   1.0000   1.0000   1.0000   1.0245
     1.0245   1.0301   1.0321   1.0341   0.6923   0.6923   0.5561   0.5561
     0.2512   0.1725   0.0047   0.0026   0.0004   0.0004   0.0000   0.0000
     0.0000   0.0000   0.0000   0.0000   0.0000   0.0000   0.0000   0.0000
     0.0000   0.0000   0.0000   0.0000   0.0000   0.0000   0.0000   0.0000
     0.0000   0.0000   0.0000   0.0000   0.0000   0.0000   0.0000   0.0000
     0.0000   0.0000   0.0000   0.0000   0.0000   0.0000   0.0000   0.0000
     0.0000   0.0000   0.0000   0.0000   0.0000   0.0000   0.0000   0.0000
     0.0000   0.0000   0.0000   0.0000   0.0000   0.0000   0.0000   0.0000
     0.0000   0.0000   0.0000   0.0000   0.0000   0.0000   0.0000   0.0000
     0.0000   0.0000   0.0000   0.0000   0.0000   0.0000   0.0000   0.0000
     0.0000   0.0000   0.0000   0.0000   0.0000   0.0000   0.0000   0.0000
     0.0000   0.0000   0.0000   0.0000   0.0000   0.0000   0.0000   0.0000
     0.0000   0.0000   0.0000   0.0000   0.0000   0.0000   0.0000   0.0000
     0.0000   0.0000   0.0000   0.0000   0.0000   0.0000   0.0000   0.0000
     0.0000   0.0000   0.0000   0.0000   0.0000   0.0000   0.0000   0.0000
     0.0000   0.0000   0.0000   0.0000   0.0000   0.0000   0.0000   0.0000
     0.0000   0.0000   0.0000   0.0000   0.0000   0.0000   0.0000   0.0000

          k = 0.3333 0.3107 0.1794 ( 44020 PWs)   bands (ev):

  -123.7718-123.7713-123.7707-123.7705-123.7704-123.7703-123.7699-123.7698
  -123.7695-123.7694-123.7693-123.7692-123.7692-123.7691-123.7690-123.7685
  -123.7568-123.7566-123.7565-123.7564-123.7563-123.7562-123.7560-123.7558
  -123.7558-123.7557-123.7557-123.7556-123.7555-123.7555-123.7554-123.7551
  -123.4851-123.4849-123.4846-123.4846-123.4845-123.4844-123.4843-123.4842
  -123.4842-123.4840-123.4839-123.4839-123.4838-123.4836-123.4834-123.4832
  -123.4427-123.4423-123.4423-123.4422-123.4421-123.4421-123.4420-123.4419
  -123.4419-123.4418-123.4417-123.4416-123.4415-123.4415-123.4412-123.4411
   -77.8792 -77.8765 -77.8759 -77.8752 -77.8691 -77.8685 -77.8684 -77.8683
   -77.8673 -77.8672 -77.8672 -77.8669 -77.8667 -77.8664 -77.8657 -77.8655
   -77.8655 -77.8651 -77.8648 -77.8646 -77.8638 -77.8633 -77.8622 -77.8620
   -77.8603 -77.8570 -77.8545 -77.8543 -77.8541 -77.8536 -77.8535 -77.8530
   -77.8523 -77.8520 -77.8517 -77.8517 -77.8512 -77.8511 -77.8511 -77.8509
   -77.8506 -77.8505 -77.8504 -77.8499 -77.8498 -77.8496 -77.8492 -77.8489
   -77.8479 -77.8476 -77.8475 -77.8474 -77.8470 -77.8469 -77.8464 -77.8459
   -77.8458 -77.8456 -77.8455 -77.8454 -77.8452 -77.8451 -77.8449 -77.8448
   -77.8447 -77.8437 -77.8436 -77.8432 -77.8422 -77.8419 -77.8418 -77.8415
   -77.8398 -77.8394 -77.8386 -77.8384 -77.8382 -77.8381 -77.8378 -77.8370
   -77.8366 -77.8365 -77.8363 -77.8358 -77.8351 -77.8343 -77.8330 -77.8314
   -77.8302 -77.8295 -77.8288 -77.8286 -77.8285 -77.8256 -77.8242 -77.8241
   -77.5844 -77.5831 -77.5829 -77.5825 -77.5801 -77.5793 -77.5787 -77.5783
   -77.5781 -77.5777 -77.5774 -77.5760 -77.5759 -77.5757 -77.5756 -77.5753
   -77.5751 -77.5747 -77.5740 -77.5740 -77.5733 -77.5732 -77.5727 -77.5724
   -77.5724 -77.5722 -77.5722 -77.5718 -77.5714 -77.5714 -77.5713 -77.5700
   -77.5698 -77.5697 -77.5697 -77.5695 -77.5693 -77.5689 -77.5687 -77.5686
   -77.5600 -77.5591 -77.5586 -77.5582 -77.5577 -77.5561 -77.5551 -77.5530
   -77.5527 -77.5524 -77.5519 -77.5513 -77.5512 -77.5510 -77.5509 -77.5508
   -77.5506 -77.5497 -77.5495 -77.5492 -77.5489 -77.5485 -77.5484 -77.5483
   -77.5360 -77.5353 -77.5353 -77.5339 -77.5268 -77.5263 -77.5258 -77.5253
   -77.5252 -77.5246 -77.5244 -77.5239 -77.5237 -77.5232 -77.5223 -77.5219
   -77.5218 -77.5208 -77.5207 -77.5205 -77.5203 -77.5197 -77.5192 -77.5185
   -77.5113 -77.5109 -77.5103 -77.5101 -77.5081 -77.5069 -77.5062 -77.5044
    -6.9717  -6.5217  -6.4997  -6.0834  -5.8743  -5.6103  -5.5229  -5.5161
    -5.4856  -5.4113  -5.3943  -5.3842  -5.3735  -5.3697  -5.3678  -5.3617
    -5.3615  -5.3580  -5.3357  -5.3288  -5.3286  -5.3189  -5.3188  -5.3166
    -5.3156  -5.3145  -5.3083  -5.2969  -5.2532  -5.2421  -5.2417  -5.2342
    -5.2216  -5.2099  -5.2087  -5.1916  -5.1584  -5.1388  -5.1267  -5.1087
    -5.1082  -5.1005  -5.0991  -5.0845  -5.0814  -5.0759  -5.0690  -5.0658
    -5.0631  -5.0631  -5.0504  -5.0492  -5.0453  -5.0444  -5.0382  -5.0362
    -5.0162  -5.0158  -5.0148  -5.0118  -4.9927  -4.9927  -4.9926  -4.9831
    -4.9793  -4.9622  -4.9599  -4.9582  -4.9556  -4.9292  -4.9286  -4.9256
    -4.9215  -4.9207  -4.9194  -4.9180  -4.9177  -4.9153  -4.9068  -4.8811
    -4.8769  -4.8612  -4.8575  -4.8544  -4.8501  -4.8478  -4.8442  -4.8233
    -4.8206  -4.8205  -4.8119  -4.8116  -4.8060  -4.8019  -4.7956  -4.7902
    -4.7792  -4.7757  -4.7560  -4.7525  -4.7514  -4.7494  -4.7369  -4.7270
    -4.7233  -4.7174  -4.7161  -4.7153  -4.7143  -4.7074  -4.7026  -4.6992
    -4.6988  -4.6936  -4.6877  -4.6844  -4.6704  -4.6693  -4.6672  -4.6649
    -4.6622  -4.6557  -4.6479  -4.6443  -4.6425  -4.6272  -4.6219  -4.6158
    -4.6102  -4.6082  -4.5763  -4.5732  -4.5728  -4.5706  -4.5631  -4.5568
    -4.5489  -4.5332  -4.5329  -4.5272  -4.5265  -4.5213  -4.5155  -4.5146
    -4.5112  -4.5109  -4.4995  -4.4903  -4.4895  -4.4893  -4.4851  -4.4821
    -4.4804  -4.4789  -4.4605  -4.4575  -4.4566  -4.4540  -4.4533  -4.4480
    -4.4474  -4.4334  -4.4320  -4.4312  -4.4293  -4.4290  -4.4271  -4.4229
    -4.4191  -4.4177  -4.4086  -4.4029  -4.4026  -4.3982  -4.3954  -4.3908
    -4.3834  -4.3778  -4.3765  -4.3764  -4.3630  -4.3619  -4.3618  -4.3580
    -4.3524  -4.3484  -4.3424  -4.3367  -4.3355  -4.3310  -4.3308  -4.3250
    -4.3239  -4.3170  -4.3160  -4.3069  -4.3029  -4.2853  -4.2801  -4.2792
    -4.2786  -4.2778  -4.2666  -4.2464  -4.2446  -4.2410  -4.2409  -4.2358
    -4.2330  -4.2283  -4.2269  -4.2260  -4.2246  -4.2181  -4.2173  -4.2109
    -4.2108  -4.2092  -4.1941  -4.1919  -4.1881  -4.1834  -4.1800  -4.1769
    -4.1685  -4.1675  -4.1662  -4.1634  -4.1628  -4.1610  -4.1550  -4.1533
    -4.1492  -4.1445  -4.1424  -4.1288  -4.1257  -4.1238  -4.1227  -4.1210
    -4.1190  -4.1180  -4.1162  -4.1152  -4.1152  -4.1136  -4.1095  -4.1085
    -4.0900  -4.0893  -4.0888  -4.0868  -4.0862  -4.0840  -4.0828  -4.0788
    -4.0711  -4.0689  -4.0640  -4.0573  -4.0572  -4.0554  -4.0515  -4.0484
    -4.0463  -4.0437  -4.0379  -4.0357  -4.0240  -4.0235  -4.0151  -4.0149
    -4.0092  -4.0042  -3.9995  -3.9973  -3.9969  -3.9931  -3.9887  -3.9884
    -3.9861  -3.9799  -3.9760  -3.9754  -3.9730  -3.9726  -3.9717  -3.9696
    -3.9692  -3.9688  -3.9598  -3.9555  -3.9492  -3.9471  -3.9419  -3.9348
    -3.9333  -3.9302  -3.9276  -3.9232  -3.9182  -3.9178  -3.9176  -3.9149
    -3.9100  -3.9096  -3.9063  -3.9057  -3.9008  -3.8957  -3.8922  -3.8900
    -3.8741  -3.8709  -3.8684  -3.8642  -3.8591  -3.8535  -3.8526  -3.8506
    -3.8416  -3.8294  -3.8274  -3.8256  -3.8252  -3.7953  -3.7912  -3.6878
    -3.6047  -3.2618  -3.2344  -3.1519  -2.8136  -2.8059  -2.7481  -2.6975
    -2.3937  -2.3316  -2.2717  -2.1953  -1.9422  -1.7838  -1.7299  -1.3590
    -1.3047  -1.1716  -0.9679  -0.8856  -0.8779  -0.8486  -0.6555  -0.5705
    -0.3980  -0.3950  -0.1912   0.0463   0.0556   0.1692   0.3832   0.4413
     0.5210   0.7284   1.1877   1.3076   1.3494   1.3767   1.3836   1.5027
     1.5629   1.6653   1.7246   1.8121   1.9327   2.0214   2.0549   2.2180
     2.2501   2.2638   2.2740   2.6086   2.6170   2.7777   2.9447   3.0622
     3.1363   3.2653   3.3601   3.6498   3.6533   3.6935   3.7729   3.8967
     4.0007   4.0183   4.1063   4.2197   4.3503   4.5458   4.5484   4.5627
     4.6811   4.8754   5.0175   5.0378   5.0445   5.2128   5.2856   5.3383
     5.4524   5.4983   5.5037   5.6640   5.7221   5.7358   5.8180   5.8237
     5.9396   6.1282   6.1609   6.2404   6.3564   6.3913   6.4053   6.5009
     6.5374   6.5995   6.5998   6.6833   6.7925   6.7939   6.8610   6.8756
     7.0056   7.0227   7.2053   7.2531   7.2856   7.3142   7.4096   7.4124
     7.4276   7.4442   7.5921   7.5923   7.6176   7.7281   7.7357   7.8940
     7.8952   7.9599   8.0152   8.0671   8.0680   8.2748   8.2963   8.3815
     8.3821   8.4161   8.5740   8.6570   8.7003   8.8002   8.8365   8.8504
     8.8666   8.9071   9.0104   9.0128   9.0808   9.1040   9.1997   9.2315
     9.2331   9.2333   9.2917   9.3066   9.3178   9.4228   9.4341   9.4755
     9.4941   9.6582   9.7611   9.7885   9.8333   9.8531   9.8567   9.8912
     9.9398  10.0363  10.0640  10.0658  10.2571  10.3989  10.3993  10.4130
    10.4320  10.4446  10.5737  10.5877  10.6606  10.7046  10.7078  10.7347
    10.8649  10.8818  10.8952  10.9118  10.9386  10.9401  10.9653  11.0345

     occupation numbers 
     1.0000   1.0000   1.0000   1.0000   1.0000   1.0000   1.0000   1.0000
     1.0000   1.0000   1.0000   1.0000   1.0000   1.0000   1.0000   1.0000
     1.0000   1.0000   1.0000   1.0000   1.0000   1.0000   1.0000   1.0000
     1.0000   1.0000   1.0000   1.0000   1.0000   1.0000   1.0000   1.0000
     1.0000   1.0000   1.0000   1.0000   1.0000   1.0000   1.0000   1.0000
     1.0000   1.0000   1.0000   1.0000   1.0000   1.0000   1.0000   1.0000
     1.0000   1.0000   1.0000   1.0000   1.0000   1.0000   1.0000   1.0000
     1.0000   1.0000   1.0000   1.0000   1.0000   1.0000   1.0000   1.0000
     1.0000   1.0000   1.0000   1.0000   1.0000   1.0000   1.0000   1.0000
     1.0000   1.0000   1.0000   1.0000   1.0000   1.0000   1.0000   1.0000
     1.0000   1.0000   1.0000   1.0000   1.0000   1.0000   1.0000   1.0000
     1.0000   1.0000   1.0000   1.0000   1.0000   1.0000   1.0000   1.0000
     1.0000   1.0000   1.0000   1.0000   1.0000   1.0000   1.0000   1.0000
     1.0000   1.0000   1.0000   1.0000   1.0000   1.0000   1.0000   1.0000
     1.0000   1.0000   1.0000   1.0000   1.0000   1.0000   1.0000   1.0000
     1.0000   1.0000   1.0000   1.0000   1.0000   1.0000   1.0000   1.0000
     1.0000   1.0000   1.0000   1.0000   1.0000   1.0000   1.0000   1.0000
     1.0000   1.0000   1.0000   1.0000   1.0000   1.0000   1.0000   1.0000
     1.0000   1.0000   1.0000   1.0000   1.0000   1.0000   1.0000   1.0000
     1.0000   1.0000   1.0000   1.0000   1.0000   1.0000   1.0000   1.0000
     1.0000   1.0000   1.0000   1.0000   1.0000   1.0000   1.0000   1.0000
     1.0000   1.0000   1.0000   1.0000   1.0000   1.0000   1.0000   1.0000
     1.0000   1.0000   1.0000   1.0000   1.0000   1.0000   1.0000   1.0000
     1.0000   1.0000   1.0000   1.0000   1.0000   1.0000   1.0000   1.0000
     1.0000   1.0000   1.0000   1.0000   1.0000   1.0000   1.0000   1.0000
[...]
     atom   37 type  1   force =     0.00000000    0.00000000    0.00000000
     atom   38 type  1   force =     0.00000000    0.00000000    0.00000000
     atom   39 type  1   force =     0.00000000    0.00000000    0.00000000
     atom   40 type  1   force =     0.00000000    0.00000000    0.00000000
     atom   41 type  1   force =     0.00000000    0.00000000    0.00000000
     atom   42 type  1   force =     0.00000000    0.00000000    0.00000000
     atom   43 type  1   force =     0.00000000    0.00000000    0.00000000
     atom   44 type  1   force =     0.00000000    0.00000000    0.00000000
     atom   45 type  1   force =     0.00000000    0.00000000    0.00000000
     atom   46 type  1   force =     0.00000000    0.00000000    0.00000000
     atom   47 type  1   force =     0.00000000    0.00000000    0.00000000
     atom   48 type  1   force =     0.00000000    0.00000000    0.00000000
     atom   49 type  1   force =     0.00000000    0.00000000    0.00000000
     atom   50 type  1   force =     0.00000000    0.00000000    0.00000000
     atom   51 type  1   force =     0.00000000    0.00000000    0.00000000
     atom   52 type  1   force =     0.00000000    0.00000000    0.00000000
     atom   53 type  1   force =     0.00000000    0.00000000    0.00000000
     atom   54 type  1   force =     0.00000000    0.00000000    0.00000000
     atom   55 type  1   force =     0.00000000    0.00000000    0.00000000
     atom   56 type  1   force =     0.00000000    0.00000000    0.00000000
     atom   57 type  1   force =     0.00000000    0.00000000    0.00000000
     atom   58 type  1   force =     0.00000000    0.00000000    0.00000000
     atom   59 type  1   force =     0.00000000    0.00000000    0.00000000
     atom   60 type  1   force =     0.00000000    0.00000000    0.00000000
     atom   61 type  1   force =     0.00000000    0.00000000    0.00000000
     atom   62 type  1   force =     0.00000000    0.00000000    0.00000000
     atom   63 type  1   force =     0.00000000    0.00000000    0.00000000
     atom   64 type  1   force =     0.00000000    0.00000000    0.00000000
     The SCF correction term to forces
     atom    1 type  1   force =    -0.00000000    0.00000000    0.00000000
     atom    2 type  1   force =    -0.00000000   -0.00000000    0.00000000
     atom    3 type  1   force =    -0.00000000    0.00000000    0.00000000
     atom    4 type  1   force =    -0.00000000   -0.00000000    0.00000000
     atom    5 type  1   force =    -0.00002964    0.00004862   -0.00000137
     atom    6 type  1   force =    -0.00003061   -0.00004752   -0.00002893
     atom    7 type  1   force =    -0.00002224   -0.00003541   -0.00007723
     atom    8 type  1   force =    -0.00002391    0.00003386   -0.00015255
     atom    9 type  1   force =    -0.00000000   -0.00000000    0.00000000
     atom   10 type  1   force =    -0.00000000    0.00000000   -0.00000000
     atom   11 type  1   force =    -0.00000000    0.00000000    0.00000000
     atom   12 type  1   force =    -0.00000000   -0.00000000    0.00000000
     atom   13 type  1   force =    -0.00003090    0.00013472   -0.00001081
     atom   14 type  1   force =    -0.00002974   -0.00013626   -0.00002099
     atom   15 type  1   force =    -0.00002259    0.00009500   -0.00009741
     atom   16 type  1   force =    -0.00002356   -0.00009253   -0.00013474
     atom   17 type  1   force =     0.00000000    0.00000000   -0.00000000
     atom   18 type  1   force =     0.00000000   -0.00000000   -0.00000000
     atom   19 type  1   force =     0.00000000    0.00000000    0.00000000
     atom   20 type  1   force =     0.00000000   -0.00000000    0.00000000
     atom   21 type  1   force =     0.00002855    0.00004826    0.00001464
     atom   22 type  1   force =     0.00003018   -0.00004578   -0.00001439
     atom   23 type  1   force =     0.00002184   -0.00003481   -0.00001182
     atom   24 type  1   force =     0.00002355    0.00003311   -0.00008144
     atom   25 type  1   force =     0.00000000   -0.00000000   -0.00000000
     atom   26 type  1   force =     0.00000000    0.00000000   -0.00000000
     atom   27 type  1   force =     0.00000000    0.00000000    0.00000000
     atom   28 type  1   force =     0.00000000   -0.00000000   -0.00000000
     atom   29 type  1   force =     0.00002978    0.00013102    0.00000446
     atom   30 type  1   force =     0.00002927   -0.00013385   -0.00000342
     atom   31 type  1   force =     0.00002247    0.00009131   -0.00002846
     atom   32 type  1   force =     0.00002316   -0.00008915   -0.00006503
     atom   33 type  1   force =    -0.00000000    0.00000000   -0.00000000
     atom   34 type  1   force =    -0.00000000   -0.00000000    0.00000000
     atom   35 type  1   force =    -0.00000000    0.00000000    0.00000000
     atom   36 type  1   force =    -0.00000000   -0.00000000    0.00000000
     atom   37 type  1   force =    -0.00011256   -0.00005750   -0.00000801
     atom   38 type  1   force =    -0.00011550    0.00005674   -0.00003056
     atom   39 type  1   force =    -0.00007128   -0.00008760   -0.00003894
     atom   40 type  1   force =    -0.00007078    0.00008667   -0.00006846
     atom   41 type  1   force =    -0.00000000    0.00000000    0.00000000
     atom   42 type  1   force =    -0.00000000   -0.00000000   -0.00000000
     atom   43 type  1   force =    -0.00000000    0.00000000    0.00000000
     atom   44 type  1   force =    -0.00000000   -0.00000000    0.00000000
     atom   45 type  1   force =    -0.00011357    0.00012628   -0.00000223
     atom   46 type  1   force =    -0.00011282   -0.00012731   -0.00003408
     atom   47 type  1   force =    -0.00007048    0.00004200   -0.00001453
     atom   48 type  1   force =    -0.00007197   -0.00003960   -0.00009180
     atom   49 type  1   force =     0.00000000    0.00000000   -0.00000000
     atom   50 type  1   force =     0.00000000   -0.00000000    0.00000000
     atom   51 type  1   force =     0.00000000    0.00000000    0.00000000
     atom   52 type  1   force =     0.00000000   -0.00000000    0.00000000
     atom   53 type  1   force =     0.00011411   -0.00005744   -0.00000982
     atom   54 type  1   force =     0.00011556    0.00005785   -0.00002927
     atom   55 type  1   force =     0.00007136   -0.00008922   -0.00005719
     atom   56 type  1   force =     0.00007044    0.00008932   -0.00008783
     atom   57 type  1   force =     0.00000000    0.00000000    0.00000000
     atom   58 type  1   force =     0.00000000   -0.00000000   -0.00000000
     atom   59 type  1   force =     0.00000000    0.00000000    0.00000000
     atom   60 type  1   force =     0.00000000   -0.00000000    0.00000000
     atom   61 type  1   force =     0.00011554    0.00012665   -0.00000325
     atom   62 type  1   force =     0.00011309   -0.00012820   -0.00003414
     atom   63 type  1   force =     0.00007001    0.00004282   -0.00003314
     atom   64 type  1   force =     0.00007198   -0.00004176   -0.00011171

     Total force =     0.001052     Total SCF correction =     0.000711
     SCF correction compared to forces is large: reduce conv_thr to get better values


     Computing stress (Cartesian axis) and pressure

          total   stress  (Ry/bohr**3)                   (kbar)     P=     -301.38
  -0.00217372  -0.00000000  -0.00000000         -319.77       -0.00       -0.00
  -0.00000000  -0.00202271  -0.00000032           -0.00     -297.55       -0.05
  -0.00000000  -0.00000032  -0.00194977           -0.00       -0.05     -286.82

     kinetic stress (kbar)  16017.97     -0.00     -0.00
                               -0.00  15991.06     -0.00
                               -0.00     -0.00  16051.26

     local   stress (kbar)**********     -0.00     -0.04
                               -0.00**********     -0.15
                               -0.04     -0.151322857.34

     nonloc. stress (kbar)  -1978.81     -0.00      0.00
                               -0.00  -1939.46     -0.04
                                0.00     -0.04  -1991.10

     hartree stress (kbar) 688794.72      0.00      0.02
                                0.00 696063.17      0.06
                                0.02      0.06-617396.50

     exc-cor stress (kbar)  -8012.73     -0.00      0.00
                               -0.00  -8008.23      0.00
                                0.00      0.00  -8016.23

     corecor stress (kbar)      0.00      0.00      0.00
                                0.00      0.00      0.00
                                0.00      0.00      0.00

     ewald   stress (kbar) 610469.72      0.00      0.02
                                0.00 620124.16      0.08
                                0.02      0.08-711791.59

     hubbard stress (kbar)      0.00      0.00      0.00
                                0.00      0.00      0.00
                                0.00      0.00      0.00

     DFT-D   stress (kbar)      0.00      0.00      0.00
                                0.00      0.00      0.00
                                0.00      0.00      0.00

     XDM     stress (kbar)      0.00      0.00      0.00
                                0.00      0.00      0.00
                                0.00      0.00      0.00

     dft-nl  stress (kbar)      0.00      0.00      0.00
                                0.00      0.00      0.00
                                0.00      0.00      0.00

     TS-vdW  stress (kbar)      0.00      0.00      0.00
                                0.00      0.00      0.00
                                0.00      0.00      0.00

     MDB     stress (kbar)      0.00      0.00      0.00
                                0.00      0.00      0.00
                                0.00      0.00      0.00

     3D-RISM stress (kbar)      0.00      0.00      0.00
                                0.00      0.00      0.00
                                0.00      0.00      0.00

     Energy error            =      2.7E-06 Ry
     Gradient error          =      3.0E-04 Ry/Bohr

     bfgs converged in  22 scf cycles and  21 bfgs steps
     (criteria: energy <  1.0E-05 Ry, force <  5.0E-04 Ry/Bohr)

     End of BFGS Geometry Optimization

     Final energy             =  -29535.2028667322 Ry

     File ./tmp/Zn100_2x4x4_relax_ecutrho250_ecutwfc25.bfgs deleted, as requested
Begin final coordinates

ATOMIC_POSITIONS (angstrom)
Zn               1.2182902100        1.3071799380        0.7547006810    0   0   0
Zn               1.2182902100        6.5358996490        0.7547006810    0   0   0
Zn               1.2182902100        0.0000000010        3.0188027470    0   0   0
Zn               1.2182902100        5.2287197120        3.0188027470    0   0   0
Zn               1.2185726075       -1.3073880994        5.6729282852
Zn               1.2186851431        3.9215451479        5.6720151579
Zn               1.2186874652       -2.6146512868        8.3124525080
Zn               1.2187441482        2.6147502354        8.3119490829
Zn               1.2182902100        3.9215397940        0.7547006810    0   0   0
Zn               1.2182902100        9.1502595050        0.7547006810    0   0   0
Zn               1.2182902100        2.6143598570        3.0188027470    0   0   0
Zn               1.2182902100        7.8430795680        3.0188027470    0   0   0
Zn               1.2186883199        1.3072854268        5.6723424169
Zn               1.2185625130        6.5357747424        5.6727099542
Zn               1.2187214220       -0.0003586288        8.3124656907
Zn               1.2187057638        5.2291606609        8.3118595007
Zn               6.0914510490        1.3071799380        0.7547006810    0   0   0
Zn               6.0914510490        6.5358996490        0.7547006810    0   0   0
Zn               6.0914510490        0.0000000010        3.0188027470    0   0   0
Zn               6.0914510490        5.2287197120        3.0188027470    0   0   0
Zn               6.0911338514       -1.3072242637        5.6748546444
Zn               6.0910857638        3.9213990650        5.6741431289
Zn               6.0911071145       -2.6147187100        8.3122617478
Zn               6.0909630492        2.6148257972        8.3118541494
Zn               6.0914510490        3.9215397940        0.7547006810    0   0   0
Zn               6.0914510490        9.1502595050        0.7547006810    0   0   0
Zn               6.0914510490        2.6143598570        3.0188027470    0   0   0
Zn               6.0914510490        7.8430795680        3.0188027470    0   0   0
Zn               6.0911030401        1.3076064174        5.6744400348
Zn               6.0911314819        6.5354481156        5.6746346244
Zn               6.0910519940       -0.0001550310        8.3123616547
Zn               6.0910350808        5.2289552434        8.3117181402
Zn               3.6548706290       -0.0000000190        1.5094013850    0   0   0
Zn               3.6548706290        5.2287196920        1.5094013850    0   0   0
Zn               3.6548706290       -1.3071799560        3.7735034500    0   0   0
Zn               3.6548706290        3.9215397550        3.7735034500    0   0   0
Zn               3.6546710580       -2.6147701593        6.0778389286
Zn               3.6547432516        2.6146750712        6.0771464013
Zn               3.6559778408       -3.9216886876        8.4670559092
Zn               3.6560296889        1.3071976063        8.4673307023
Zn               3.6548706290        2.6143598370        1.5094013850    0   0   0
Zn               3.6548706290        7.8430795480        1.5094013850    0   0   0
Zn               3.6548706290        1.3071799000        3.7735034500    0   0   0
Zn               3.6548706290        6.5358996110        3.7735034500    0   0   0
Zn               3.6547437702        0.0001669099        6.0773502731
Zn               3.6547864959        5.2284186199        6.0775758154
Zn               3.6559474203       -1.3076933695        8.4673694336
Zn               3.6560502897        3.9218980393        8.4670053876
Zn               8.5280314680       -0.0000000190        1.5094013850    0   0   0
Zn               8.5280314680        5.2287196920        1.5094013850    0   0   0
Zn               8.5280314680       -1.3071799560        3.7735034500    0   0   0
Zn               8.5280314680        3.9215397550        3.7735034500    0   0   0
Zn               8.5281647867       -2.6147587956        6.0779299812
Zn               8.5281732184        2.6146472247        6.0772010317
Zn               8.5269885230       -3.9215735360        8.4681201244
Zn               8.5268924990        1.3070557120        8.4683976833
Zn               8.5280314680        2.6143598370        1.5094013850    0   0   0
Zn               8.5280314680        7.8430795480        1.5094013850    0   0   0
Zn               8.5280314680        1.3071799000        3.7735034500    0   0   0
Zn               8.5280314680        6.5358996110        3.7735034500    0   0   0
Zn               8.5282171944       -0.0000137934        6.0774321744
Zn               8.5281738077        5.2286143460        6.0776528160
Zn               8.5270310305       -1.3077639996        8.4684178960
Zn               8.5268620331        3.9220020700        8.4680752259
End final coordinates



     Writing all to output data dir ./tmp/Zn100_2x4x4_relax_ecutrho250_ecutwfc25.save/ :
     XML data file, charge density, pseudopotentials, collected wavefunctions

     init_run     :     67.57s CPU     68.09s WALL (       1 calls)
     electrons    :  64983.56s CPU  65493.11s WALL (      22 calls)
     update_pot   :      0.59s CPU      0.62s WALL (      21 calls)
     forces       :   1282.12s CPU   1289.99s WALL (      22 calls)
     stress       :   3740.62s CPU   3753.58s WALL (      22 calls)

     Called by init_run:
     wfcinit      :     67.11s CPU     67.62s WALL (       1 calls)
     wfcinit:atom :      0.04s CPU      0.06s WALL (       5 calls)
     wfcinit:wfcr :     66.56s CPU     66.99s WALL (       5 calls)
     potinit      :      0.02s CPU      0.02s WALL (       1 calls)
     hinit0       :      0.02s CPU      0.02s WALL (       1 calls)

     Called by electrons:
     c_bands      :  60865.20s CPU  61349.02s WALL (     254 calls)
     sum_band     :   4027.44s CPU   4051.89s WALL (     254 calls)
     v_of_rho     :      5.11s CPU      5.45s WALL (     260 calls)
     v_h          :      0.24s CPU      0.27s WALL (     260 calls)
     v_xc         :      4.87s CPU      5.17s WALL (     260 calls)
     newd         :     92.90s CPU     93.32s WALL (     260 calls)
     mix_rho      :      0.67s CPU      0.69s WALL (     254 calls)

     Called by c_bands:
     init_us_2    :     43.94s CPU     44.09s WALL (    2765 calls)
     cegterg      :  60764.67s CPU  61247.33s WALL (    1270 calls)

     Called by sum_band:
     sum_band:wei :      0.77s CPU      0.78s WALL (     254 calls)
     sum_band:loo :   3953.81s CPU   3977.74s WALL (     254 calls)
     sum_band:buf :      9.29s CPU      9.36s WALL (    1270 calls)
     sum_band:ini :     20.58s CPU     20.64s WALL (    1270 calls)
     sum_band:cal :   3541.38s CPU   3561.98s WALL (    1270 calls)
     sum_band:bec :     47.43s CPU     47.55s WALL (    1270 calls)
     addusdens    :     68.97s CPU     69.33s WALL (     254 calls)
                                        0.00s GPU  (     254 calls)
     addusd:skk   :      0.77s CPU      0.77s WALL (     254 calls)
                                        0.00s GPU  (     254 calls)

     Called by *egterg:
     cdiaghg      :   5378.69s CPU   5599.66s WALL (    4724 calls)
     cegterg:over :   9918.50s CPU   9958.05s WALL (    3639 calls)
     cegterg:upda :   4034.03s CPU   4054.10s WALL (    3639 calls)
     cegterg:last :  15024.39s CPU  15093.60s WALL (    2679 calls)
     cdiaghg:chol :    427.91s CPU    428.98s WALL (    4724 calls)
     cdiaghg:inve :     61.23s CPU     61.39s WALL (    4724 calls)
     cdiaghg:para :   1690.52s CPU   1715.33s WALL (    9448 calls)
     h_psi        :  16667.33s CPU  16753.77s WALL (    4914 calls)
     s_psi        :   6987.49s CPU   7004.28s WALL (    4914 calls)
     g_psi        :      6.31s CPU      6.35s WALL (    3639 calls)

     Called by h_psi:
     h_psi:calbec :   8096.96s CPU   8144.25s WALL (    4914 calls)
     vloc_psi     :   1517.32s CPU   1530.16s WALL (    4914 calls)
     add_vuspsi   :   7037.12s CPU   7054.09s WALL (    4914 calls)

     General routines
     calbec       :  13211.14s CPU  13288.16s WALL (    6734 calls)
     fft          :      5.25s CPU      5.73s WALL (    3073 calls)
     ffts         :      0.26s CPU      0.30s WALL (     254 calls)
     fftw         :   1713.98s CPU   1728.96s WALL ( 5432028 calls)

     Parallel routines

     PWSCF        :     19h28m CPU     19h36m WALL


   This run was terminated on:  12:55: 8  18Mar2025            

=------------------------------------------------------------------------------=
   JOB DONE.
=------------------------------------------------------------------------------=
Note: The following floating-point exceptions are signalling: IEEE_DENORMAL
Note: The following floating-point exceptions are signalling: IEEE_DENORMAL
Note: The following floating-point exceptions are signalling: IEEE_DENORMAL
Note: The following floating-point exceptions are signalling: IEEE_DENORMAL
Note: The following floating-point exceptions are signalling: IEEE_DENORMAL
Note: The following floating-point exceptions are signalling: IEEE_DENORMAL
Note: The following floating-point exceptions are signalling: IEEE_DENORMAL
Note: The following floating-point exceptions are signalling: IEEE_DENORMAL
Note: The following floating-point exceptions are signalling: IEEE_DENORMAL
Note: The following floating-point exceptions are signalling: IEEE_DENORMAL
Note: The following floating-point exceptions are signalling: IEEE_DENORMAL
