--------------------------------------------------------------------------
WARNING: There was an error initializing an OpenFabrics device.

  Local host:   ga00
  Local device: mlx5_0
--------------------------------------------------------------------------

     Program PWSCF v.7.3.1 starts on  4Apr2025 at 23:52:49 

     This program is part of the open-source Quantum ESPRESSO suite
     for quantum simulation of materials; please cite
         "P. Giannozzi et al., J. Phys.:Condens. Matter 21 395502 (2009);
         "P. Giannozzi et al., J. Phys.:Condens. Matter 29 465901 (2017);
         "P. Giannozzi et al., J. Chem. Phys. 152 154105 (2020);
          URL http://www.quantum-espresso.org", 
     in publications or presentations arising from this work. More details at
     http://www.quantum-espresso.org/quote

     Parallel version (MPI), running on    30 processors

     MPI processes distributed on     1 nodes
     120366 MiB available memory on the printing compute node when the environment starts

     Waiting for input...
     Reading input from standard input
Warning: card &CELL ignored
Warning: card   CELL_DOFREE = 'ALL' ignored
Warning: card / ignored

     Current dimensions of program PWSCF are:
     Max number of different atomic species (ntypx) = 10
     Max number of k-points (npk) =  40000
     Max angular momentum in pseudopotentials (lmaxx) =  4
     file C.pbe-n-kjpaw_psl.1.0.0.UPF: wavefunction(s)  2S 2P renormalized

     R & G space division:  proc/nbgrp/npool/nimage =      30
     Subspace diagonalization in iterative solution of the eigenvalue problem:
     one sub-group per band group will be used
     custom distributed-memory algorithm (size of sub-group:  5*  5 procs)


     Parallelization info
     --------------------
     sticks:   dense  smooth     PW     G-vecs:    dense   smooth      PW
     Min         251     143     38                40033    17285    2384
     Max         252     144     39                40042    17296    2393
     Sum        7555    4303   1159              1201061   518755   71619

     Using Slab Decomposition



     bravais-lattice index     =            0
     lattice parameter (alat)  =      19.7617  a.u.
     unit-cell volume          =   15176.5939 (a.u.)^3
     number of atoms/cell      =           63
     number of atomic types    =            4
     number of electrons       =       997.00
     number of Kohn-Sham states=          599
     kinetic-energy cutoff     =      40.0000  Ry
     charge density cutoff     =     280.0000  Ry
     scf convergence threshold =      1.0E-06
     mixing beta               =       0.4000
     number of iterations used =            8  plain     mixing
     energy convergence thresh.=      4.0E-05
     force convergence thresh. =      8.0E-04
     Exchange-correlation= PBE
                           (   1   4   3   4   0   0   0)
     nstep                     =          100


     celldm(1)=  19.761696  celldm(2)=   0.000000  celldm(3)=   0.000000
     celldm(4)=   0.000000  celldm(5)=   0.000000  celldm(6)=   0.000000

     crystal axes: (cart. coord. in units of alat)
               a(1) = (   1.000000   0.000000   0.000000 )  
               a(2) = (  -0.500000   0.866025   0.000000 )  
               a(3) = (   0.000000   0.000000   2.270759 )  

     reciprocal axes: (cart. coord. in units 2 pi/alat)
               b(1) = (  1.000000  0.577350 -0.000000 )  
               b(2) = (  0.000000  1.154701  0.000000 )  
               b(3) = (  0.000000 -0.000000  0.440381 )  


     PseudoPot. # 1 for Zn read from file:
     /home/yongsang/Research/PSID_server_room/qe/[00]QE/qepseudo/SSSP_1.3.0_PBE_efficiency/Zn_pbe_v1.uspp.F.UPF
     MD5 check sum: df62231357ef9e81f77b2b3087fa5675
     Pseudo is Ultrasoft, Zval = 20.0
     Generated by new atomic code, or converted to UPF format
     Using radial grid of  943 points,  6 beta functions with: 
                l(1) =   0
                l(2) =   0
                l(3) =   1
                l(4) =   1
                l(5) =   2
                l(6) =   2
     Q(r) pseudized with  8 coefficients,  rinner =    1.100   1.100   1.100
                                                       1.100   1.100

     PseudoPot. # 2 for N  read from file:
     /home/yongsang/Research/PSID_server_room/qe/[00]QE/qepseudo/SSSP_1.3.0_PBE_efficiency/N.pbe-n-radius_5.UPF
     MD5 check sum: 16739722b17309cd8fe442a2ace49922
     Pseudo is Ultrasoft + core correction, Zval =  5.0
     Generated using "atomic" code by A. Dal Corso  v.5.1
     Using radial grid of 1085 points,  4 beta functions with: 
                l(1) =   0
                l(2) =   0
                l(3) =   1
                l(4) =   1
     Q(r) pseudized with 0 coefficients 


     PseudoPot. # 3 for C  read from file:
     /home/yongsang/Research/PSID_server_room/qe/[00]QE/qepseudo/SSSP_1.3.0_PBE_efficiency/C.pbe-n-kjpaw_psl.1.0.0.UPF
     MD5 check sum: 5d2aebdfa2cae82b50a7e79e9516da0f
     Pseudo is Projector augmented-wave + core cor, Zval =  4.0
     Generated using "atomic" code by A. Dal Corso  v.5.1
     Shape of augmentation charge: PSQ
     Using radial grid of 1073 points,  4 beta functions with: 
                l(1) =   0
                l(2) =   0
                l(3) =   1
                l(4) =   1
     Q(r) pseudized with 0 coefficients 


     PseudoPot. # 4 for H  read from file:
     /home/yongsang/Research/PSID_server_room/qe/[00]QE/qepseudo/SSSP_1.3.0_PBE_efficiency/H.pbe-rrkjus_psl.1.0.0.UPF
     MD5 check sum: f52b6d4d1c606e5624b1dc7b2218f220
     Pseudo is Ultrasoft, Zval =  1.0
     Generated using "atomic" code by A. Dal Corso  v.5.1
     Using radial grid of  929 points,  2 beta functions with: 
                l(1) =   0
                l(2) =   0
     Q(r) pseudized with 0 coefficients 


     atomic species   valence    mass     pseudopotential
     Zn               20.00    65.38000     Zn( 1.00)
     N                 5.00    14.00674     N ( 1.00)
     C                 4.00    12.01070     C ( 1.00)
     H                 1.00     1.00794     H ( 1.00)

     No symmetry found


                                    s                        frac. trans.

      isym =  1     identity                                     

 cryst.   s( 1) = (     1          0          0      )
                  (     0          1          0      )
                  (     0          0          1      )

 cart.    s( 1) = (  1.0000000  0.0000000  0.0000000 )
                  (  0.0000000  1.0000000  0.0000000 )
                  (  0.0000000  0.0000000  1.0000000 )


   Cartesian axes

     site n.     atom                  positions (alat units)
         1        Zn     tau(   1) = (   0.0000000   0.1443375   0.1164998  )
         2        Zn     tau(   2) = (   0.5000000   0.1443375   0.1164998  )
         3        Zn     tau(   3) = (  -0.0000499   0.1441562   0.5930126  )
         4        Zn     tau(   4) = (   0.4999768   0.1440598   0.5929798  )
         5        Zn     tau(   5) = (  -0.1250000   0.3608439   0.1164998  )
         6        Zn     tau(   6) = (   0.3750000   0.3608439   0.1164998  )
         7        Zn     tau(   7) = (  -0.1250128   0.3606880   0.5938622  )
         8        Zn     tau(   8) = (   0.3750816   0.3605818   0.5901549  )
         9        Zn     tau(   9) = (  -0.2500000   0.5773502   0.1164998  )
        10        Zn     tau(  10) = (   0.2500000   0.5773502   0.1164998  )
        11        Zn     tau(  11) = (  -0.2500557   0.5773010   0.5930873  )
        12        Zn     tau(  12) = (   0.2498461   0.5777611   0.5690006  )
        13        Zn     tau(  13) = (  -0.3750000   0.7938567   0.1164998  )
        14        Zn     tau(  14) = (   0.1250000   0.7938567   0.1164998  )
        15        Zn     tau(  15) = (  -0.3750956   0.7937092   0.5938035  )
        16        Zn     tau(  16) = (   0.1250071   0.7937671   0.5927657  )
        17        Zn     tau(  17) = (   0.2500000   0.1443375   0.1164998  )
        18        Zn     tau(  18) = (   0.7500000   0.1443375   0.1164998  )
        19        Zn     tau(  19) = (   0.2499675   0.1442893   0.5938620  )
        20        Zn     tau(  20) = (   0.7498989   0.1441620   0.5935777  )
        21        Zn     tau(  21) = (   0.1250000   0.3608439   0.1164998  )
        22        Zn     tau(  22) = (   0.6250000   0.3608439   0.1164998  )
        23        Zn     tau(  23) = (   0.1247759   0.3605782   0.5900454  )
        24        Zn     tau(  24) = (   0.6249342   0.3606883   0.5938306  )
        25        Zn     tau(  25) = (   0.0000000   0.5773502   0.1164998  )
        26        Zn     tau(  26) = (   0.5000000   0.5773502   0.1164998  )
        27        Zn     tau(  27) = (  -0.0001966   0.5771600   0.5914390  )
        28        Zn     tau(  28) = (   0.5000085   0.5771320   0.5913888  )
        29        Zn     tau(  29) = (  -0.1250000   0.7938567   0.1164998  )
        30        Zn     tau(  30) = (   0.3750000   0.7938567   0.1164998  )
        31        Zn     tau(  31) = (  -0.1249754   0.7937326   0.5936214  )
        32        Zn     tau(  32) = (   0.3749417   0.7939463   0.5919976  )
        33        Zn     tau(  33) = (   0.1250863   0.0719987   0.3549329  )
        34        Zn     tau(  34) = (   0.6247109   0.0724305   0.3553400  )
        35        Zn     tau(  35) = (  -0.0003023   0.2881651   0.3553511  )
        36        Zn     tau(  36) = (   0.5002824   0.2881015   0.3550122  )
        37        Zn     tau(  37) = (  -0.1255661   0.5051525   0.3550786  )
        38        Zn     tau(  38) = (   0.3762916   0.5044008   0.3518535  )
        39        Zn     tau(  39) = (  -0.2499926   0.7218306   0.3549053  )
        40        Zn     tau(  40) = (   0.2499333   0.7233675   0.3519747  )
        41        Zn     tau(  41) = (   0.3748060   0.0719867   0.3548153  )
        42        Zn     tau(  42) = (   0.8752270   0.0725633   0.3550895  )
        43        Zn     tau(  43) = (   0.2498815   0.2877851   0.3545638  )
        44        Zn     tau(  44) = (   0.7499983   0.2885973   0.3543649  )
        45        Zn     tau(  45) = (   0.1235184   0.5044439   0.3519742  )
        46        Zn     tau(  46) = (   0.6254711   0.5051794   0.3554334  )
        47        Zn     tau(  47) = (  -0.0006204   0.7220845   0.3549759  )
        48        Zn     tau(  48) = (   0.5006051   0.7220501   0.3549344  )
        49        C      tau(  49) = (   0.3533534   0.6053919   1.2094210  )
        50        C      tau(  50) = (   0.2536770   0.5440368   1.2739583  )
        51        C      tau(  51) = (   0.3537061   0.6106061   1.0759586  )
        52        C      tau(  52) = (   0.1535193   0.4875022   1.2059398  )
        53        C      tau(  53) = (   0.2528989   0.5532374   1.0106343  )
        54        C      tau(  54) = (   0.1523317   0.4917175   1.0724313  )
        55        N      tau(  55) = (   0.2519762   0.5592294   0.8696514  )
        56        H      tau(  56) = (   0.4312722   0.6489776   1.2631997  )
        57        H      tau(  57) = (   0.2543173   0.5398253   1.3781548  )
        58        H      tau(  58) = (   0.3425633   0.5572280   0.8288693  )
        59        H      tau(  59) = (   0.4309347   0.6581191   1.0240146  )
        60        H      tau(  60) = (   0.0763124   0.4396297   1.2570234  )
        61        H      tau(  61) = (   0.2038114   0.4837605   0.8265985  )
        62        H      tau(  62) = (   0.0748468   0.4477119   1.0177891  )
        63        H      tau(  63) = (   0.2092607   0.6408513   0.8320093  )

     --------------------------------------------
     DFT-D3 Dispersion Correction (3-body terms):
     --------------------------------------------
       Reference C6 values for interpolation: 

         atom   Coordination number   C6
         H          0.912             6.05
         H          0.000            15.18
         C          0.000            98.23
         C          0.987            86.49
         C          1.998            58.72
         C          2.999            51.56
         C          3.984            36.41
         N          0.000            50.54
         N          0.994            44.25
         N          2.014            39.35
         N          2.990            31.16
         Zn         0.000           681.04
         Zn         1.942           306.91

       Values used:

         atom   Coordination number  R0_AB[au]  C6      C8
         Zn         6.705            3.053    306.91  23930.67
         Zn         6.707            3.053    306.91  23930.67
         Zn         6.735            3.053    306.91  23930.67
         Zn         6.733            3.053    306.91  23930.67
         Zn         6.707            3.053    306.91  23930.67
         Zn         6.745            3.053    306.91  23930.67
         Zn         6.688            3.053    306.91  23930.67
         Zn         6.773            3.053    306.91  23930.67
         Zn         6.704            3.053    306.91  23930.67
         Zn         6.779            3.053    306.91  23930.67
         Zn         6.730            3.053    306.91  23930.67
         Zn         7.441            3.053    306.91  23930.67
         Zn         6.713            3.053    306.91  23930.67
         Zn         6.739            3.053    306.91  23930.67
         Zn         6.695            3.053    306.91  23930.67
         Zn         6.698            3.053    306.91  23930.67
         Zn         6.719            3.053    306.91  23930.67
         Zn         6.707            3.053    306.91  23930.67
         Zn         6.688            3.053    306.91  23930.67
         Zn         6.700            3.053    306.91  23930.67
         Zn         6.741            3.053    306.91  23930.67
         Zn         6.706            3.053    306.91  23930.67
         Zn         6.787            3.053    306.91  23930.67
         Zn         6.688            3.053    306.91  23930.67
         Zn         6.740            3.053    306.91  23930.67
         Zn         6.737            3.053    306.91  23930.67
         Zn         6.738            3.053    306.91  23930.67
         Zn         6.741            3.053    306.91  23930.67
         Zn         6.714            3.053    306.91  23930.67
         Zn         6.741            3.053    306.91  23930.67
         Zn         6.703            3.053    306.91  23930.67
         Zn         6.720            3.053    306.91  23930.67
         Zn         8.245            3.053    306.91  23930.67
         Zn         8.258            3.053    306.91  23930.67
         Zn         8.285            3.053    306.91  23930.67
         Zn         8.280            3.053    306.91  23930.67
         Zn         8.266            3.053    306.91  23930.67
         Zn         8.532            3.053    306.91  23930.67
         Zn         8.246            3.053    306.91  23930.67
         Zn         8.506            3.053    306.91  23930.67
         Zn         8.247            3.053    306.91  23930.67
         Zn         8.266            3.053    306.91  23930.67
         Zn         8.306            3.053    306.91  23930.67
         Zn         8.230            3.053    306.91  23930.67
         Zn         8.535            3.053    306.91  23930.67
         Zn         8.265            3.053    306.91  23930.67
         Zn         8.267            3.053    306.91  23930.67
         Zn         8.271            3.053    306.91  23930.67
         C          3.136            2.750     50.64   1464.61
         C          3.130            2.750     50.69   1465.92
         C          3.152            2.750     50.52   1461.04
         C          3.136            2.750     50.64   1464.62
         C          3.169            2.750     50.37   1456.86
         C          3.152            2.750     50.52   1461.05
         N          4.083            2.478     31.16    687.49
         H          1.003            2.062      6.18     74.69
         H          1.003            2.062      6.18     74.69
         H          1.012            2.062      6.17     74.60
         H          1.003            2.062      6.18     74.69
         H          1.003            2.062      6.18     74.69
         H          1.012            2.062      6.17     74.59
         H          1.003            2.062      6.18     74.69
         H          1.010            2.062      6.17     74.61

         Molecular C6 ( Ry / a.u.^6 ) =    824367.86


   Crystallographic axes

     site n.     atom                  positions (cryst. coord.)
         1        Zn     tau(   1) = (  0.0833333  0.1666666  0.0513044  )
         2        Zn     tau(   2) = (  0.5833333  0.1666666  0.0513044  )
         3        Zn     tau(   3) = (  0.0831787  0.1664572  0.2611517  )
         4        Zn     tau(   4) = (  0.5831498  0.1663459  0.2611373  )
         5        Zn     tau(   5) = (  0.0833333  0.4166666  0.0513044  )
         6        Zn     tau(   6) = (  0.5833333  0.4166666  0.0513044  )
         7        Zn     tau(   7) = (  0.0832305  0.4164866  0.2615259  )
         8        Zn     tau(   8) = (  0.5832636  0.4163640  0.2598932  )
         9        Zn     tau(   9) = (  0.0833333  0.6666666  0.0513044  )
        10        Zn     tau(  10) = (  0.5833333  0.6666666  0.0513044  )
        11        Zn     tau(  11) = (  0.0832492  0.6666098  0.2611846  )
        12        Zn     tau(  12) = (  0.5834166  0.6671410  0.2505773  )
        13        Zn     tau(  13) = (  0.0833333  0.9166667  0.0513044  )
        14        Zn     tau(  14) = (  0.5833334  0.9166667  0.0513044  )
        15        Zn     tau(  15) = (  0.0831527  0.9164965  0.2615000  )
        16        Zn     tau(  16) = (  0.5832888  0.9165633  0.2610430  )
        17        Zn     tau(  17) = (  0.3333333  0.1666666  0.0513044  )
        18        Zn     tau(  18) = (  0.8333334  0.1666666  0.0513044  )
        19        Zn     tau(  19) = (  0.3332729  0.1666109  0.2615258  )
        20        Zn     tau(  20) = (  0.8331309  0.1664639  0.2614006  )
        21        Zn     tau(  21) = (  0.3333333  0.4166666  0.0513044  )
        22        Zn     tau(  22) = (  0.8333333  0.4166666  0.0513044  )
        23        Zn     tau(  23) = (  0.3329558  0.4163599  0.2598450  )
        24        Zn     tau(  24) = (  0.8331777  0.4164869  0.2615120  )
        25        Zn     tau(  25) = (  0.3333333  0.6666666  0.0513044  )
        26        Zn     tau(  26) = (  0.8333333  0.6666666  0.0513044  )
        27        Zn     tau(  27) = (  0.3330269  0.6664470  0.2604587  )
        28        Zn     tau(  28) = (  0.8332158  0.6664146  0.2604367  )
        29        Zn     tau(  29) = (  0.3333334  0.9166667  0.0513044  )
        30        Zn     tau(  30) = (  0.8333334  0.9166667  0.0513044  )
        31        Zn     tau(  31) = (  0.3332864  0.9165235  0.2614199  )
        32        Zn     tau(  32) = (  0.8333268  0.9167702  0.2607047  )
        33        Zn     tau(  33) = (  0.1666548  0.0831370  0.1563059  )
        34        Zn     tau(  34) = (  0.6665286  0.0836355  0.1564852  )
        35        Zn     tau(  35) = (  0.1660699  0.3327444  0.1564900  )
        36        Zn     tau(  36) = (  0.6666179  0.3326710  0.1563408  )
        37        Zn     tau(  37) = (  0.1660838  0.5832998  0.1563700  )
        38        Zn     tau(  38) = (  0.6675075  0.5824319  0.1549497  )
        39        Zn     tau(  39) = (  0.1667565  0.8334981  0.1562937  )
        40        Zn     tau(  40) = (  0.6675698  0.8352729  0.1550031  )
        41        Zn     tau(  41) = (  0.4163676  0.0831231  0.1562541  )
        42        Zn     tau(  42) = (  0.9171214  0.0837888  0.1563748  )
        43        Zn     tau(  43) = (  0.4160343  0.3323056  0.1561433  )
        44        Zn     tau(  44) = (  0.9166201  0.3332435  0.1560557  )
        45        Zn     tau(  45) = (  0.4147592  0.5824816  0.1550029  )
        46        Zn     tau(  46) = (  0.9171365  0.5833310  0.1565262  )
        47        Zn     tau(  47) = (  0.4162753  0.8337914  0.1563248  )
        48        Zn     tau(  48) = (  0.9174809  0.8337516  0.1563065  )
        49        C      tau(  49) = (  0.7028766  0.6990464  0.5326065  )
        50        C      tau(  50) = (  0.5677767  0.6281995  0.5610276  )
        51        C      tau(  51) = (  0.7062397  0.7050672  0.4738322  )
        52        C      tau(  52) = (  0.4349788  0.5629191  0.5310735  )
        53        C      tau(  53) = (  0.5723107  0.6388236  0.4450646  )
        54        C      tau(  54) = (  0.4362249  0.5677865  0.4722788  )
        55        N      tau(  55) = (  0.5748474  0.6457425  0.3829783  )
        56        H      tau(  56) = (  0.8059596  0.7493748  0.5562897  )
        57        H      tau(  57) = (  0.5659856  0.6233366  0.6069138  )
        58        H      tau(  58) = (  0.6642790  0.6434314  0.3650187  )
        59        H      tau(  59) = (  0.8109000  0.7599305  0.4509570  )
        60        H      tau(  60) = (  0.3301327  0.5076407  0.5535698  )
        61        H      tau(  61) = (  0.4831107  0.5585985  0.3640186  )
        62        H      tau(  62) = (  0.3333334  0.5169732  0.4482154  )
        63        H      tau(  63) = (  0.5792564  0.7399913  0.3664015  )

     number of k points=     5  Marzari-Vanderbilt smearing, width (Ry)=  0.0200
                       cart. coord. in units 2pi/alat
        k(    1) = (   0.0000000   0.0000000   0.0000000), wk =   0.2222222
        k(    2) = (   0.0000000   0.3849002   0.0000000), wk =   0.4444444
        k(    3) = (   0.3333333   0.1924501   0.0000000), wk =   0.4444444
        k(    4) = (   0.3333333   0.5773503   0.0000000), wk =   0.4444444
        k(    5) = (   0.3333333  -0.1924501   0.0000000), wk =   0.4444444

                       cryst. coord.
        k(    1) = (   0.0000000   0.0000000   0.0000000), wk =   0.2222222
        k(    2) = (   0.0000000   0.3333333   0.0000000), wk =   0.4444444
        k(    3) = (   0.3333333   0.0000000   0.0000000), wk =   0.4444444
        k(    4) = (   0.3333333   0.3333333   0.0000000), wk =   0.4444444
        k(    5) = (   0.3333333  -0.3333333   0.0000000), wk =   0.4444444

     Dense  grid:  1201061 G-vectors     FFT dimensions: ( 108, 108, 240)

     Smooth grid:   518755 G-vectors     FFT dimensions: (  80,  80, 192)

     Dynamical RAM for                 wfc:      19.75 MB

     Dynamical RAM for     wfc (w. buffer):     118.51 MB

     Dynamical RAM for           str. fact:       2.44 MB

     Dynamical RAM for           local pot:       0.00 MB

     Dynamical RAM for          nlocal pot:      30.86 MB

     Dynamical RAM for                qrad:       5.37 MB

     Dynamical RAM for          rho,v,vnew:       3.97 MB

     Dynamical RAM for               rhoin:       1.32 MB

     Dynamical RAM for            rho*nmix:       9.77 MB

     Dynamical RAM for           G-vectors:       2.42 MB

     Dynamical RAM for          h,s,v(r/c):       2.61 MB

     Dynamical RAM for          <psi|beta>:       8.56 MB

     Dynamical RAM for                 psi:      39.50 MB

     Dynamical RAM for                hpsi:      39.50 MB

     Dynamical RAM for                spsi:      39.50 MB

     Dynamical RAM for      wfcinit/wfcrot:      53.50 MB

     Dynamical RAM for           addusdens:     142.95 MB

     Dynamical RAM for          addusforce:     200.86 MB

     Dynamical RAM for         addusstress:     122.79 MB

     Estimated static dynamical RAM per process >     171.52 MB

     Estimated max dynamical RAM per process >     382.16 MB

     Estimated total dynamical RAM >      11.20 GB

     Initial potential from superposition of free atoms

     starting charge     996.9929, renormalised to     997.0000

     negative rho (up, down):  2.011E-03 0.000E+00
     Starting wfcs are  660 randomized atomic wfcs
[ga00:3687718] 29 more processes have sent help message help-mpi-btl-openib.txt / error in device init
[ga00:3687718] Set MCA parameter "orte_base_help_aggregate" to 0 to see all help / error messages
     Checking if some PAW data can be deallocated... 
       PAW data deallocated on   26 nodes for type:  3

     total cpu time spent up to now is       27.0 secs

     Self-consistent Calculation

     iteration #  1     ecut=    40.00 Ry     beta= 0.40
     Davidson diagonalization with overlap

---- Real-time Memory Report at c_bands before calling an iterative solver
           412 MiB given to the printing process from OS
             0 MiB allocation reported by mallinfo(arena+hblkhd)
        114509 MiB available memory on the node where the printing process lives
------------------
     ethr =  1.00E-02,  avg # of iterations =  8.4

     negative rho (up, down):  2.462E-03 0.000E+00

     total cpu time spent up to now is      133.6 secs

     total energy              =  -22290.56977657 Ry
     estimated scf accuracy    <      10.17627192 Ry

     iteration #  2     ecut=    40.00 Ry     beta= 0.40
     Davidson diagonalization with overlap

---- Real-time Memory Report at c_bands before calling an iterative solver
           522 MiB given to the printing process from OS
             0 MiB allocation reported by mallinfo(arena+hblkhd)
        113302 MiB available memory on the node where the printing process lives
------------------
     ethr =  1.02E-03,  avg # of iterations = 10.0

     negative rho (up, down):  3.470E-03 0.000E+00

     total cpu time spent up to now is      240.0 secs

     total energy              =  -22279.99107649 Ry
     estimated scf accuracy    <     215.28595624 Ry

     iteration #  3     ecut=    40.00 Ry     beta= 0.40
     Davidson diagonalization with overlap

---- Real-time Memory Report at c_bands before calling an iterative solver
           541 MiB given to the printing process from OS
             0 MiB allocation reported by mallinfo(arena+hblkhd)
        113304 MiB available memory on the node where the printing process lives
------------------
     ethr =  1.02E-03,  avg # of iterations =  8.2

     negative rho (up, down):  3.514E-03 0.000E+00

     total cpu time spent up to now is      366.4 secs

     total energy              =  -22294.19601071 Ry
     estimated scf accuracy    <      10.04739042 Ry

     iteration #  4     ecut=    40.00 Ry     beta= 0.40
     Davidson diagonalization with overlap

---- Real-time Memory Report at c_bands before calling an iterative solver
           545 MiB given to the printing process from OS
             0 MiB allocation reported by mallinfo(arena+hblkhd)
        113280 MiB available memory on the node where the printing process lives
------------------
     ethr =  1.01E-03,  avg # of iterations =  3.8

     negative rho (up, down):  3.484E-03 0.000E+00

     total cpu time spent up to now is      451.7 secs

     total energy              =  -22295.03542283 Ry
     estimated scf accuracy    <       3.71046773 Ry

     iteration #  5     ecut=    40.00 Ry     beta= 0.40
     Davidson diagonalization with overlap

---- Real-time Memory Report at c_bands before calling an iterative solver
           546 MiB given to the printing process from OS
             0 MiB allocation reported by mallinfo(arena+hblkhd)
        113132 MiB available memory on the node where the printing process lives
------------------
     ethr =  3.72E-04,  avg # of iterations =  2.2

     negative rho (up, down):  3.505E-03 0.000E+00

     total cpu time spent up to now is      532.6 secs

     total energy              =  -22295.26040338 Ry
     estimated scf accuracy    <       0.26088837 Ry

     iteration #  6     ecut=    40.00 Ry     beta= 0.40
     Davidson diagonalization with overlap

---- Real-time Memory Report at c_bands before calling an iterative solver
           548 MiB given to the printing process from OS
             0 MiB allocation reported by mallinfo(arena+hblkhd)
        112977 MiB available memory on the node where the printing process lives
------------------
     ethr =  2.62E-05,  avg # of iterations = 14.2

     negative rho (up, down):  3.701E-03 0.000E+00

     total cpu time spent up to now is      639.0 secs

     total energy              =  -22295.27578341 Ry
     estimated scf accuracy    <       0.06507191 Ry

     iteration #  7     ecut=    40.00 Ry     beta= 0.40
     Davidson diagonalization with overlap

---- Real-time Memory Report at c_bands before calling an iterative solver
           548 MiB given to the printing process from OS
             0 MiB allocation reported by mallinfo(arena+hblkhd)
        112947 MiB available memory on the node where the printing process lives
------------------
     c_bands:  1 eigenvalues not converged
     ethr =  6.53E-06,  avg # of iterations = 11.0

     negative rho (up, down):  3.716E-03 0.000E+00

     total cpu time spent up to now is      738.6 secs

     total energy              =  -22295.28169086 Ry
     estimated scf accuracy    <       0.00523352 Ry

     iteration #  8     ecut=    40.00 Ry     beta= 0.40
     Davidson diagonalization with overlap

---- Real-time Memory Report at c_bands before calling an iterative solver
           555 MiB given to the printing process from OS
             0 MiB allocation reported by mallinfo(arena+hblkhd)
        112881 MiB available memory on the node where the printing process lives
------------------
     ethr =  5.25E-07,  avg # of iterations =  4.8

     negative rho (up, down):  3.735E-03 0.000E+00

     total cpu time spent up to now is      824.3 secs

     total energy              =  -22295.28196298 Ry
     estimated scf accuracy    <       0.00254566 Ry

     iteration #  9     ecut=    40.00 Ry     beta= 0.40
     Davidson diagonalization with overlap

---- Real-time Memory Report at c_bands before calling an iterative solver
           556 MiB given to the printing process from OS
             0 MiB allocation reported by mallinfo(arena+hblkhd)
        112885 MiB available memory on the node where the printing process lives
------------------
     ethr =  2.55E-07,  avg # of iterations =  2.2

     negative rho (up, down):  3.761E-03 0.000E+00

     total cpu time spent up to now is      904.3 secs

     total energy              =  -22295.28224734 Ry
     estimated scf accuracy    <       0.00082072 Ry

     iteration # 10     ecut=    40.00 Ry     beta= 0.40
     Davidson diagonalization with overlap

---- Real-time Memory Report at c_bands before calling an iterative solver
           556 MiB given to the printing process from OS
             0 MiB allocation reported by mallinfo(arena+hblkhd)
        112858 MiB available memory on the node where the printing process lives
------------------
     ethr =  8.23E-08,  avg # of iterations =  3.4

     negative rho (up, down):  3.771E-03 0.000E+00

     total cpu time spent up to now is      985.4 secs

     total energy              =  -22295.28227671 Ry
     estimated scf accuracy    <       0.00019070 Ry

     iteration # 11     ecut=    40.00 Ry     beta= 0.40
     Davidson diagonalization with overlap

---- Real-time Memory Report at c_bands before calling an iterative solver
           557 MiB given to the printing process from OS
             0 MiB allocation reported by mallinfo(arena+hblkhd)
        112857 MiB available memory on the node where the printing process lives
------------------
     ethr =  1.91E-08,  avg # of iterations =  1.4

     negative rho (up, down):  3.782E-03 0.000E+00

     total cpu time spent up to now is     1055.8 secs

     total energy              =  -22295.28222534 Ry
     estimated scf accuracy    <       0.00009758 Ry

     iteration # 12     ecut=    40.00 Ry     beta= 0.40
     Davidson diagonalization with overlap

---- Real-time Memory Report at c_bands before calling an iterative solver
           557 MiB given to the printing process from OS
             0 MiB allocation reported by mallinfo(arena+hblkhd)
        113005 MiB available memory on the node where the printing process lives
------------------
     c_bands:  1 eigenvalues not converged
     ethr =  9.79E-09,  avg # of iterations = 11.4

     negative rho (up, down):  3.783E-03 0.000E+00

     total cpu time spent up to now is     1148.3 secs

     total energy              =  -22295.28224163 Ry
     estimated scf accuracy    <       0.00001173 Ry

     iteration # 13     ecut=    40.00 Ry     beta= 0.40
     Davidson diagonalization with overlap

---- Real-time Memory Report at c_bands before calling an iterative solver
           557 MiB given to the printing process from OS
             0 MiB allocation reported by mallinfo(arena+hblkhd)
        113007 MiB available memory on the node where the printing process lives
------------------
     c_bands:  1 eigenvalues not converged
     ethr =  1.18E-09,  avg # of iterations =  5.6

     negative rho (up, down):  3.784E-03 0.000E+00

     total cpu time spent up to now is     1233.8 secs

     total energy              =  -22295.28224241 Ry
     estimated scf accuracy    <       0.00000546 Ry

     iteration # 14     ecut=    40.00 Ry     beta= 0.40
     Davidson diagonalization with overlap

---- Real-time Memory Report at c_bands before calling an iterative solver
           557 MiB given to the printing process from OS
             0 MiB allocation reported by mallinfo(arena+hblkhd)
        112965 MiB available memory on the node where the printing process lives
------------------
     ethr =  5.47E-10,  avg # of iterations =  2.2

     negative rho (up, down):  3.785E-03 0.000E+00

     total cpu time spent up to now is     1314.4 secs

     total energy              =  -22295.28224283 Ry
     estimated scf accuracy    <       0.00000298 Ry

     iteration # 15     ecut=    40.00 Ry     beta= 0.40
     Davidson diagonalization with overlap

---- Real-time Memory Report at c_bands before calling an iterative solver
           557 MiB given to the printing process from OS
             0 MiB allocation reported by mallinfo(arena+hblkhd)
        112987 MiB available memory on the node where the printing process lives
------------------
     ethr =  2.99E-10,  avg # of iterations =  2.0

     negative rho (up, down):  3.785E-03 0.000E+00

     total cpu time spent up to now is     1393.8 secs

     total energy              =  -22295.28224308 Ry
     estimated scf accuracy    <       0.00000257 Ry

     iteration # 16     ecut=    40.00 Ry     beta= 0.40
     Davidson diagonalization with overlap

---- Real-time Memory Report at c_bands before calling an iterative solver
           557 MiB given to the printing process from OS
             0 MiB allocation reported by mallinfo(arena+hblkhd)
        112979 MiB available memory on the node where the printing process lives
------------------
     ethr =  2.58E-10,  avg # of iterations =  1.0

     negative rho (up, down):  3.787E-03 0.000E+00

     total cpu time spent up to now is     1458.4 secs

     End of self-consistent calculation

          k = 0.0000 0.0000 0.0000 ( 64855 PWs)   bands (ev):

  -123.9980-123.9970-123.9950-123.9725-123.9707-123.9702-123.9693-123.9691
  -123.9684-123.9680-123.9673-123.9669-123.9659-123.9649-123.9646-123.9624
  -123.9601-123.8394-123.8348-123.8318-123.8273-123.8240-123.8228-123.8008
  -123.7998-123.7995-123.7979-123.7970-123.7969-123.7963-123.7960-123.7955
  -123.7700-123.7658-123.7652-123.7650-123.7642-123.7639-123.7638-123.7635
  -123.7629-123.7626-123.7624-123.7621-123.7620-123.7618-123.7615-123.7615
   -78.1581 -78.1540 -78.1532 -78.1460 -78.1458 -78.1450 -78.1443 -78.1431
   -78.1417 -78.1348 -78.1337 -78.1333 -78.1293 -78.1290 -78.1271 -78.1245
   -78.1240 -78.1236 -78.1205 -78.1199 -78.1195 -78.1188 -78.1185 -78.1175
   -78.1173 -78.1172 -78.1170 -78.1165 -78.1163 -78.1161 -78.1153 -78.1150
   -78.1140 -78.1137 -78.1135 -78.1129 -78.1125 -78.1124 -78.1118 -78.1115
   -78.1096 -78.1096 -78.1092 -78.1084 -78.1057 -78.1051 -78.1050 -78.1026
   -78.1026 -78.1013 -78.1010 -77.9963 -77.9926 -77.9904 -77.9888 -77.9874
   -77.9856 -77.9851 -77.9817 -77.9813 -77.9798 -77.9792 -77.9785 -77.9762
   -77.9732 -77.9719 -77.9689 -77.9670 -77.9624 -77.9585 -77.9583 -77.9580
   -77.9575 -77.9571 -77.9557 -77.9548 -77.9546 -77.9539 -77.9537 -77.9531
   -77.9513 -77.9493 -77.9485 -77.9459 -77.9456 -77.9449 -77.9445 -77.9438
   -77.9381 -77.9375 -77.9373 -77.9344 -77.9341 -77.9332 -77.9298 -77.9295
   -77.9294 -77.9292 -77.9279 -77.9277 -77.9241 -77.9232 -77.9231 -77.9229
   -77.9227 -77.9223 -77.9222 -77.9221 -77.9218 -77.9218 -77.9216 -77.9214
   -77.9210 -77.9208 -77.9208 -77.9206 -77.9204 -77.9201 -77.9201 -77.9198
   -77.9197 -77.9115 -77.9115 -77.9107 -77.9105 -77.9103 -77.9097 -77.9089
   -77.9087 -77.9085 -77.9085 -77.9080 -77.9076 -77.9020 -77.9016 -77.9016
   -77.8978 -77.8976 -77.8972 -77.8965 -77.8964 -77.8963 -77.8922 -77.8922
   -20.1304 -16.6886 -14.0568 -13.9029 -10.7976 -10.6525  -9.0807  -8.7974
    -8.7078  -7.4579  -7.2955  -6.3140  -6.3103  -6.0470  -6.0026  -5.9562
    -5.9185  -5.9176  -5.9077  -5.9065  -5.8975  -5.8134  -5.8089  -5.8089
    -5.7486  -5.6417  -5.6415  -5.6323  -5.5861  -5.5859  -5.5827  -5.5147
    -5.4990  -5.4983  -5.4923  -5.4909  -5.4875  -5.4541  -5.4449  -5.4446
    -5.4425  -5.4404  -5.4404  -5.4373  -5.4371  -5.4338  -5.3755  -5.3752
    -5.3717  -5.3578  -5.3552  -5.3544  -5.3334  -5.3299  -5.3296  -5.3264
    -5.3263  -5.3260  -5.2707  -5.2702  -5.2387  -5.2361  -5.2358  -5.2162
    -5.2152  -5.2151  -5.2149  -5.2008  -5.1821  -5.1816  -5.1794  -5.1715
    -5.1706  -5.1659  -5.1313  -5.1311  -5.1227  -5.1223  -5.1214  -5.1152
    -5.0949  -5.0948  -5.0887  -5.0882  -5.0821  -5.0787  -5.0663  -5.0600
    -5.0599  -5.0568  -5.0562  -5.0561  -5.0407  -5.0332  -5.0320  -5.0289
    -5.0288  -5.0246  -5.0198  -5.0179  -5.0169  -5.0148  -5.0140  -4.9970
    -4.9958  -4.9947  -4.9908  -4.9903  -4.9847  -4.9197  -4.9193  -4.9136
    -4.9129  -4.9071  -4.9069  -4.8643  -4.8641  -4.8300  -4.8287  -4.8225
    -4.8047  -4.8046  -4.7915  -4.7905  -4.7876  -4.7872  -4.7849  -4.7832
    -4.7809  -4.7808  -4.7795  -4.7462  -4.7449  -4.7345  -4.7341  -4.7325
    -4.7235  -4.7213  -4.7202  -4.7177  -4.7134  -4.7129  -4.7097  -4.7052
    -4.7044  -4.7020  -4.6848  -4.6845  -4.6833  -4.6829  -4.6826  -4.6826
    -4.6814  -4.6812  -4.6783  -4.6751  -4.6750  -4.6738  -4.6498  -4.6488
    -4.6478  -4.6451  -4.6445  -4.6426  -4.6397  -4.6365  -4.6360  -4.6356
    -4.6351  -4.6339  -4.6330  -4.6305  -4.6303  -4.6295  -4.6256  -4.6252
    -4.6234  -4.6186  -4.6149  -4.6144  -4.5615  -4.5223  -4.5217  -4.5187
    -4.5182  -4.5146  -4.5142  -4.5137  -4.5120  -4.5067  -4.4990  -4.4977
    -4.4970  -4.4923  -4.4909  -4.4808  -4.4795  -4.4707  -4.4620  -4.4617
    -4.4613  -4.4611  -4.4605  -4.4601  -4.4593  -4.4590  -4.4535  -4.4425
    -4.4408  -4.4403  -4.4070  -4.4069  -4.4045  -4.4022  -4.4021  -4.4016
    -4.3847  -4.3846  -4.3816  -4.3809  -4.3760  -4.3756  -4.3751  -4.3719
    -4.3716  -4.3644  -4.3640  -4.3639  -4.3296  -4.3289  -4.3287  -4.3270
    -4.3269  -4.3188  -4.3178  -4.3177  -4.3172  -4.3168  -4.3167  -4.2773
    -4.2772  -4.2701  -4.2660  -4.2659  -4.2658  -4.2610  -4.2607  -4.2159
    -4.2150  -4.2148  -4.2148  -4.2126  -4.2125  -4.1894  -4.1879  -4.1878
    -4.0765  -4.0306  -4.0305  -4.0208  -3.9726  -3.9726  -3.9722  -3.8104
    -3.3464  -3.3451  -3.3436  -3.3248  -3.3242  -3.3184  -2.5040  -1.8476
    -1.8456  -1.0895  -1.0875  -1.0859  -1.0836  -1.0803  -1.0800  -0.9769
    -0.9712  -0.9695  -0.9577  -0.9551  -0.9529   0.2037   0.3059   0.3097
     0.3105   0.4204   0.4217   0.4339   0.4353   0.4381   0.4428   1.0420
     1.0431   1.0439   1.3363   1.3368   1.3475   2.4177   2.4230   2.4272
     2.4739   2.4756   2.4805   2.4886   2.5035   2.5044   2.5270   2.5312
     2.5507   3.2256   3.2501   3.3472   3.3566   3.3604   3.6072   4.2460
     4.2538   4.2571   4.4994   4.9514   4.9967   5.0204   5.1139   5.2070
     5.2339   5.2936   5.4405   5.4908   5.5797   5.9115   5.9625   6.0263
     6.1258   6.1898   6.2152   6.3094   6.3183   6.3258   6.3420   6.3606
     6.3915   6.5484   6.5501   6.5738   6.5776   6.5824   6.5892   6.5916
     6.6268   6.7206   6.7257   6.7373   6.7527   6.7552   6.7592   6.7596
     6.7945   6.8726   6.9983   7.0677   7.1690   7.2255   7.2548   7.3643
     7.4139   7.6254   7.6483   7.7694   7.7749   7.8077   7.9192   7.9517
     7.9668   8.0209   8.0528   8.0712   8.0763   8.0834   8.0902   8.0947
     8.1084   8.1211   8.1683   8.1931   8.2166   8.2209   8.2329   8.2342
     8.2690   8.2910   8.3146   8.4010   8.4177   8.5754   8.7595   8.7808
     8.8342   8.9616   9.0401   9.0991   9.1223   9.1754   9.1891

     occupation numbers 
     1.0000   1.0000   1.0000   1.0000   1.0000   1.0000   1.0000   1.0000
     1.0000   1.0000   1.0000   1.0000   1.0000   1.0000   1.0000   1.0000
     1.0000   1.0000   1.0000   1.0000   1.0000   1.0000   1.0000   1.0000
     1.0000   1.0000   1.0000   1.0000   1.0000   1.0000   1.0000   1.0000
     1.0000   1.0000   1.0000   1.0000   1.0000   1.0000   1.0000   1.0000
     1.0000   1.0000   1.0000   1.0000   1.0000   1.0000   1.0000   1.0000
     1.0000   1.0000   1.0000   1.0000   1.0000   1.0000   1.0000   1.0000
     1.0000   1.0000   1.0000   1.0000   1.0000   1.0000   1.0000   1.0000
     1.0000   1.0000   1.0000   1.0000   1.0000   1.0000   1.0000   1.0000
     1.0000   1.0000   1.0000   1.0000   1.0000   1.0000   1.0000   1.0000
     1.0000   1.0000   1.0000   1.0000   1.0000   1.0000   1.0000   1.0000
     1.0000   1.0000   1.0000   1.0000   1.0000   1.0000   1.0000   1.0000
     1.0000   1.0000   1.0000   1.0000   1.0000   1.0000   1.0000   1.0000
     1.0000   1.0000   1.0000   1.0000   1.0000   1.0000   1.0000   1.0000
     1.0000   1.0000   1.0000   1.0000   1.0000   1.0000   1.0000   1.0000
     1.0000   1.0000   1.0000   1.0000   1.0000   1.0000   1.0000   1.0000
     1.0000   1.0000   1.0000   1.0000   1.0000   1.0000   1.0000   1.0000
     1.0000   1.0000   1.0000   1.0000   1.0000   1.0000   1.0000   1.0000
     1.0000   1.0000   1.0000   1.0000   1.0000   1.0000   1.0000   1.0000
     1.0000   1.0000   1.0000   1.0000   1.0000   1.0000   1.0000   1.0000
     1.0000   1.0000   1.0000   1.0000   1.0000   1.0000   1.0000   1.0000
     1.0000   1.0000   1.0000   1.0000   1.0000   1.0000   1.0000   1.0000
     1.0000   1.0000   1.0000   1.0000   1.0000   1.0000   1.0000   1.0000
     1.0000   1.0000   1.0000   1.0000   1.0000   1.0000   1.0000   1.0000
     1.0000   1.0000   1.0000   1.0000   1.0000   1.0000   1.0000   1.0000
     1.0000   1.0000   1.0000   1.0000   1.0000   1.0000   1.0000   1.0000
     1.0000   1.0000   1.0000   1.0000   1.0000   1.0000   1.0000   1.0000
     1.0000   1.0000   1.0000   1.0000   1.0000   1.0000   1.0000   1.0000
     1.0000   1.0000   1.0000   1.0000   1.0000   1.0000   1.0000   1.0000
     1.0000   1.0000   1.0000   1.0000   1.0000   1.0000   1.0000   1.0000
     1.0000   1.0000   1.0000   1.0000   1.0000   1.0000   1.0000   1.0000
     1.0000   1.0000   1.0000   1.0000   1.0000   1.0000   1.0000   1.0000
     1.0000   1.0000   1.0000   1.0000   1.0000   1.0000   1.0000   1.0000
     1.0000   1.0000   1.0000   1.0000   1.0000   1.0000   1.0000   1.0000
     1.0000   1.0000   1.0000   1.0000   1.0000   1.0000   1.0000   1.0000
     1.0000   1.0000   1.0000   1.0000   1.0000   1.0000   1.0000   1.0000
     1.0000   1.0000   1.0000   1.0000   1.0000   1.0000   1.0000   1.0000
     1.0000   1.0000   1.0000   1.0000   1.0000   1.0000   1.0000   1.0000
     1.0000   1.0000   1.0000   1.0000   1.0000   1.0000   1.0000   1.0000
     1.0000   1.0000   1.0000   1.0000   1.0000   1.0000   1.0000   1.0000
     1.0000   1.0000   1.0000   1.0000   1.0000   1.0000   1.0000   1.0000
     1.0000   1.0000   1.0000   1.0000   1.0000   1.0000   1.0000   1.0000
     1.0000   1.0000   1.0000   1.0000   1.0000   1.0000   1.0000   1.0000
     1.0000   1.0000   1.0000   1.0000   1.0000   1.0000   1.0000   1.0000
     1.0000   1.0000   1.0000   1.0000   1.0000   1.0000   1.0000   1.0000
     1.0000   1.0000   1.0000   1.0000   1.0000   1.0000   1.0000   1.0000
     1.0000   1.0000   1.0000   1.0000   1.0000   1.0000   1.0000   1.0000
     1.0000   1.0000   1.0000   1.0000   1.0000   1.0000   1.0000   1.0000
     1.0000   1.0000   1.0000   1.0000   1.0000   1.0000   1.0000   1.0000
     1.0000   1.0000   1.0000   1.0000   1.0000   1.0000   1.0000   1.0000
     1.0000   1.0000   1.0000   1.0000   1.0000   1.0000   1.0000   1.0000
     1.0000   1.0000   1.0000   1.0000   1.0000   1.0000   1.0000   1.0000
     1.0000   1.0000   1.0000   1.0000   1.0000   1.0000   1.0000   1.0000
     1.0000   1.0000   1.0000   1.0000   1.0000   1.0000   1.0000   1.0000
     1.0000   1.0000   1.0000   1.0000   1.0000   1.0000   1.0000   1.0000
     1.0000   1.0000   1.0000   1.0000   1.0000   1.0000   1.0000   1.0000
     1.0000   1.0000   1.0000   1.0000   1.0000   1.0000   1.0000   1.0000
     1.0000   1.0000   1.0000   1.0000   1.0000   1.0000   1.0000   1.0000
     1.0000   1.0000   1.0000   1.0000   1.0000   1.0000   1.0000   1.0000
     1.0000   1.0000   1.0000   1.0000   1.0000   1.0000   1.0000   1.0000
     1.0000   1.0000   1.0000   1.0000   1.0000   1.0000   1.0000   1.0000
     1.0000   1.0000   1.0000   1.0000   1.0000   0.8033   0.7900   0.7793
     0.6552   0.6504   0.6370   0.6146   0.5733   0.5709   0.5086   0.4974
     0.4454   0.0000   0.0000   0.0000   0.0000   0.0000   0.0000   0.0000
     0.0000   0.0000   0.0000   0.0000   0.0000   0.0000   0.0000   0.0000
     0.0000   0.0000   0.0000   0.0000   0.0000   0.0000   0.0000   0.0000
     0.0000   0.0000   0.0000   0.0000   0.0000   0.0000   0.0000   0.0000
     0.0000   0.0000   0.0000   0.0000   0.0000   0.0000   0.0000   0.0000
     0.0000   0.0000   0.0000   0.0000   0.0000   0.0000   0.0000   0.0000
     0.0000   0.0000   0.0000   0.0000   0.0000   0.0000   0.0000   0.0000
     0.0000   0.0000   0.0000   0.0000   0.0000   0.0000   0.0000   0.0000
     0.0000   0.0000   0.0000   0.0000   0.0000   0.0000   0.0000   0.0000
     0.0000   0.0000   0.0000   0.0000   0.0000   0.0000   0.0000   0.0000
     0.0000   0.0000   0.0000   0.0000   0.0000   0.0000   0.0000   0.0000
     0.0000   0.0000   0.0000   0.0000   0.0000   0.0000   0.0000

          k = 0.0000 0.3849 0.0000 ( 64840 PWs)   bands (ev):

  -123.9980-123.9970-123.9950-123.9725-123.9707-123.9701-123.9695-123.9690
  -123.9684-123.9681-123.9674-123.9669-123.9659-123.9649-123.9646-123.9624
  -123.9601-123.8394-123.8348-123.8318-123.8273-123.8240-123.8228-123.8007
  -123.7998-123.7995-123.7978-123.7971-123.7969-123.7963-123.7960-123.7955
  -123.7700-123.7657-123.7652-123.7651-123.7643-123.7639-123.7637-123.7632
  -123.7630-123.7627-123.7623-123.7622-123.7621-123.7617-123.7616-123.7614
   -78.1579 -78.1537 -78.1528 -78.1459 -78.1458 -78.1454 -78.1448 -78.1433
   -78.1419 -78.1345 -78.1334 -78.1316 -78.1294 -78.1289 -78.1275 -78.1270
   -78.1253 -78.1242 -78.1220 -78.1202 -78.1199 -78.1195 -78.1187 -78.1174
   -78.1172 -78.1165 -78.1160 -78.1158 -78.1153 -78.1150 -78.1144 -78.1140
   -78.1137 -78.1136 -78.1132 -78.1129 -78.1119 -78.1116 -78.1115 -78.1112
   -78.1102 -78.1097 -78.1096 -78.1076 -78.1065 -78.1054 -78.1047 -78.1027
   -78.1026 -78.1025 -78.1016 -77.9963 -77.9926 -77.9903 -77.9888 -77.9874
   -77.9856 -77.9851 -77.9817 -77.9811 -77.9798 -77.9789 -77.9786 -77.9758
   -77.9737 -77.9722 -77.9693 -77.9676 -77.9631 -77.9584 -77.9575 -77.9572
   -77.9570 -77.9564 -77.9556 -77.9549 -77.9546 -77.9539 -77.9538 -77.9531
   -77.9517 -77.9504 -77.9488 -77.9483 -77.9471 -77.9443 -77.9437 -77.9401
   -77.9375 -77.9371 -77.9368 -77.9347 -77.9340 -77.9337 -77.9310 -77.9298
   -77.9283 -77.9277 -77.9276 -77.9262 -77.9243 -77.9240 -77.9238 -77.9234
   -77.9232 -77.9226 -77.9225 -77.9222 -77.9219 -77.9218 -77.9215 -77.9212
   -77.9209 -77.9207 -77.9205 -77.9202 -77.9200 -77.9198 -77.9197 -77.9196
   -77.9193 -77.9191 -77.9155 -77.9152 -77.9125 -77.9119 -77.9075 -77.9072
   -77.9064 -77.9062 -77.9041 -77.9038 -77.9029 -77.9025 -77.9014 -77.9010
   -77.8998 -77.8993 -77.8986 -77.8967 -77.8963 -77.8946 -77.8944 -77.8928
   -20.1304 -16.6886 -14.0568 -13.9028 -10.7976 -10.6525  -9.0807  -8.7973
    -8.7077  -7.3084  -7.2349  -6.6447  -6.3141  -6.1446  -6.1204  -6.1113
    -6.0396  -5.8926  -5.7830  -5.7488  -5.7386  -5.7349  -5.7313  -5.7071
    -5.6532  -5.6495  -5.6341  -5.6077  -5.5772  -5.5720  -5.5559  -5.5331
    -5.5280  -5.5253  -5.5208  -5.5165  -5.4869  -5.4769  -5.4693  -5.4461
    -5.4398  -5.4393  -5.4368  -5.4266  -5.4260  -5.4165  -5.4159  -5.4089
    -5.3976  -5.3974  -5.3869  -5.3865  -5.3698  -5.3692  -5.3493  -5.3477
    -5.3404  -5.3361  -5.3227  -5.3182  -5.3100  -5.2965  -5.2947  -5.2494
    -5.2457  -5.2403  -5.2303  -5.2238  -5.2206  -5.2127  -5.2039  -5.1990
    -5.1763  -5.1728  -5.1711  -5.1654  -5.1623  -5.1619  -5.1492  -5.1419
    -5.1369  -5.1330  -5.1306  -5.1219  -5.1179  -5.1134  -5.1106  -5.0965
    -5.0924  -5.0910  -5.0876  -5.0772  -5.0524  -5.0412  -5.0352  -5.0270
    -5.0192  -5.0140  -5.0095  -5.0076  -4.9975  -4.9973  -4.9895  -4.9759
    -4.9713  -4.9700  -4.9599  -4.9515  -4.9492  -4.9446  -4.9417  -4.9404
    -4.9100  -4.8975  -4.8958  -4.8925  -4.8847  -4.8791  -4.8645  -4.8580
    -4.8538  -4.8526  -4.8363  -4.8343  -4.8275  -4.8259  -4.8095  -4.7991
    -4.7904  -4.7795  -4.7761  -4.7663  -4.7649  -4.7641  -4.7548  -4.7542
    -4.7509  -4.7488  -4.7341  -4.7329  -4.7148  -4.7128  -4.7108  -4.7073
    -4.7058  -4.7045  -4.6982  -4.6873  -4.6870  -4.6821  -4.6769  -4.6750
    -4.6726  -4.6623  -4.6615  -4.6534  -4.6482  -4.6471  -4.6444  -4.6428
    -4.6317  -4.6283  -4.6211  -4.6058  -4.6032  -4.6024  -4.5964  -4.5915
    -4.5881  -4.5852  -4.5820  -4.5705  -4.5669  -4.5604  -4.5568  -4.5531
    -4.5500  -4.5459  -4.5440  -4.5389  -4.5353  -4.5264  -4.5172  -4.5109
    -4.5055  -4.4969  -4.4939  -4.4881  -4.4868  -4.4817  -4.4808  -4.4716
    -4.4681  -4.4641  -4.4639  -4.4607  -4.4587  -4.4582  -4.4552  -4.4531
    -4.4497  -4.4468  -4.4462  -4.4349  -4.4346  -4.4311  -4.4305  -4.4192
    -4.4130  -4.4115  -4.4059  -4.4049  -4.3939  -4.3932  -4.3851  -4.3838
    -4.3776  -4.3720  -4.3704  -4.3676  -4.3627  -4.3621  -4.3556  -4.3521
    -4.3520  -4.3469  -4.3451  -4.3429  -4.3322  -4.3313  -4.3312  -4.3274
    -4.3270  -4.2989  -4.2969  -4.2964  -4.2915  -4.2909  -4.2831  -4.2711
    -4.2606  -4.2594  -4.2585  -4.2570  -4.2497  -4.2458  -4.2428  -4.2415
    -4.2189  -4.2186  -4.1955  -4.1945  -4.1900  -4.1215  -4.1165  -4.0850
    -4.0822  -4.0673  -4.0669  -4.0319  -3.9961  -3.8359  -3.8325  -3.8088
    -3.6129  -3.6106  -3.4492  -2.6436  -2.6345  -2.5737  -2.5719  -2.3554
    -2.0294  -1.9069  -1.8471  -1.8380  -1.6048  -1.4169  -1.4133  -1.2923
    -1.2908  -0.8148  -0.8139  -0.3569  -0.3512  -0.3237  -0.3214  -0.2090
     0.1797   0.4905   0.5716   0.5788   0.8360   0.8450   0.9818   0.9866
     1.1226   1.1365   1.2850   1.7224   1.9637   1.9762   2.0151   2.0284
     2.5041   2.5119   2.5183   2.5332   3.1721   3.2207   3.3872   3.4283
     3.5054   3.5148   3.7556   3.8202   3.8445   4.0331   4.0800   4.1509
     4.1583   4.4087   4.5781   4.5804   4.6267   4.6699   4.7220   4.8233
     4.8414   4.9532   5.0172   5.1888   5.2538   5.2612   5.3046   5.3732
     5.6798   5.7804   5.8103   5.8707   5.9242   5.9536   6.0120   6.0606
     6.1342   6.1397   6.2019   6.2243   6.2914   6.3370   6.4578   6.5201
     6.5558   6.6267   6.6468   6.7374   6.8114   6.9139   6.9805   7.0380
     7.0870   7.1323   7.1573   7.2211   7.2972   7.3091   7.3204   7.3584
     7.3960   7.4736   7.4927   7.5645   7.5923   7.6426   7.6601   7.6894
     7.7319   7.7535   7.7905   7.8133   7.8892   7.9037   8.0664   8.1081
     8.2402   8.2855   8.3240   8.4090   8.4492   8.5059   8.5764   8.6423
     8.7072   8.7316   8.7462   8.8106   8.8360   8.8696   8.9131   8.9742
     9.0092   9.0406   9.0787   9.1492   9.2031   9.2074   9.2367

     occupation numbers 
     1.0000   1.0000   1.0000   1.0000   1.0000   1.0000   1.0000   1.0000
     1.0000   1.0000   1.0000   1.0000   1.0000   1.0000   1.0000   1.0000
     1.0000   1.0000   1.0000   1.0000   1.0000   1.0000   1.0000   1.0000
     1.0000   1.0000   1.0000   1.0000   1.0000   1.0000   1.0000   1.0000
     1.0000   1.0000   1.0000   1.0000   1.0000   1.0000   1.0000   1.0000
     1.0000   1.0000   1.0000   1.0000   1.0000   1.0000   1.0000   1.0000
     1.0000   1.0000   1.0000   1.0000   1.0000   1.0000   1.0000   1.0000
     1.0000   1.0000   1.0000   1.0000   1.0000   1.0000   1.0000   1.0000
     1.0000   1.0000   1.0000   1.0000   1.0000   1.0000   1.0000   1.0000
     1.0000   1.0000   1.0000   1.0000   1.0000   1.0000   1.0000   1.0000
     1.0000   1.0000   1.0000   1.0000   1.0000   1.0000   1.0000   1.0000
     1.0000   1.0000   1.0000   1.0000   1.0000   1.0000   1.0000   1.0000
     1.0000   1.0000   1.0000   1.0000   1.0000   1.0000   1.0000   1.0000
     1.0000   1.0000   1.0000   1.0000   1.0000   1.0000   1.0000   1.0000
     1.0000   1.0000   1.0000   1.0000   1.0000   1.0000   1.0000   1.0000
     1.0000   1.0000   1.0000   1.0000   1.0000   1.0000   1.0000   1.0000
     1.0000   1.0000   1.0000   1.0000   1.0000   1.0000   1.0000   1.0000
     1.0000   1.0000   1.0000   1.0000   1.0000   1.0000   1.0000   1.0000
     1.0000   1.0000   1.0000   1.0000   1.0000   1.0000   1.0000   1.0000
     1.0000   1.0000   1.0000   1.0000   1.0000   1.0000   1.0000   1.0000
     1.0000   1.0000   1.0000   1.0000   1.0000   1.0000   1.0000   1.0000
     1.0000   1.0000   1.0000   1.0000   1.0000   1.0000   1.0000   1.0000
     1.0000   1.0000   1.0000   1.0000   1.0000   1.0000   1.0000   1.0000
     1.0000   1.0000   1.0000   1.0000   1.0000   1.0000   1.0000   1.0000
     1.0000   1.0000   1.0000   1.0000   1.0000   1.0000   1.0000   1.0000
     1.0000   1.0000   1.0000   1.0000   1.0000   1.0000   1.0000   1.0000
     1.0000   1.0000   1.0000   1.0000   1.0000   1.0000   1.0000   1.0000
     1.0000   1.0000   1.0000   1.0000   1.0000   1.0000   1.0000   1.0000
     1.0000   1.0000   1.0000   1.0000   1.0000   1.0000   1.0000   1.0000
     1.0000   1.0000   1.0000   1.0000   1.0000   1.0000   1.0000   1.0000
     1.0000   1.0000   1.0000   1.0000   1.0000   1.0000   1.0000   1.0000
     1.0000   1.0000   1.0000   1.0000   1.0000   1.0000   1.0000   1.0000
     1.0000   1.0000   1.0000   1.0000   1.0000   1.0000   1.0000   1.0000
     1.0000   1.0000   1.0000   1.0000   1.0000   1.0000   1.0000   1.0000
     1.0000   1.0000   1.0000   1.0000   1.0000   1.0000   1.0000   1.0000
     1.0000   1.0000   1.0000   1.0000   1.0000   1.0000   1.0000   1.0000
     1.0000   1.0000   1.0000   1.0000   1.0000   1.0000   1.0000   1.0000
     1.0000   1.0000   1.0000   1.0000   1.0000   1.0000   1.0000   1.0000
     1.0000   1.0000   1.0000   1.0000   1.0000   1.0000   1.0000   1.0000
     1.0000   1.0000   1.0000   1.0000   1.0000   1.0000   1.0000   1.0000
     1.0000   1.0000   1.0000   1.0000   1.0000   1.0000   1.0000   1.0000
     1.0000   1.0000   1.0000   1.0000   1.0000   1.0000   1.0000   1.0000
     1.0000   1.0000   1.0000   1.0000   1.0000   1.0000   1.0000   1.0000
     1.0000   1.0000   1.0000   1.0000   1.0000   1.0000   1.0000   1.0000
     1.0000   1.0000   1.0000   1.0000   1.0000   1.0000   1.0000   1.0000
     1.0000   1.0000   1.0000   1.0000   1.0000   1.0000   1.0000   1.0000
     1.0000   1.0000   1.0000   1.0000   1.0000   1.0000   1.0000   1.0000
     1.0000   1.0000   1.0000   1.0000   1.0000   1.0000   1.0000   1.0000
     1.0000   1.0000   1.0000   1.0000   1.0000   1.0000   1.0000   1.0000
     1.0000   1.0000   1.0000   1.0000   1.0000   1.0000   1.0000   1.0000
     1.0000   1.0000   1.0000   1.0000   1.0000   1.0000   1.0000   1.0000
     1.0000   1.0000   1.0000   1.0000   1.0000   1.0000   1.0000   1.0000
     1.0000   1.0000   1.0000   1.0000   1.0000   1.0000   1.0000   1.0000
     1.0000   1.0000   1.0000   1.0000   1.0000   1.0000   1.0000   1.0000
     1.0000   1.0000   1.0000   1.0000   1.0000   1.0000   1.0000   1.0000
     1.0000   1.0000   1.0000   1.0000   1.0000   1.0000   1.0000   1.0000
     1.0000   1.0000   1.0000   1.0000   1.0000   1.0000   1.0000   1.0000
     1.0000   1.0000   1.0000   1.0000   1.0000   1.0000   1.0000   1.0000
     1.0000   1.0000   1.0000   1.0000   1.0000   1.0000   1.0000   1.0000
     1.0000   1.0000   1.0000   1.0000   1.0000   1.0000   1.0000   1.0000
     1.0000   1.0000   1.0000   1.0000   1.0000   1.0000   1.0000   1.0000
     1.0000   1.0000   1.0000   1.0009   1.0242   1.0273   1.0384   1.0427
     0.5717   0.5502   0.5324   0.4919   0.0001   0.0000   0.0000   0.0000
     0.0000   0.0000   0.0000   0.0000   0.0000   0.0000   0.0000   0.0000
     0.0000   0.0000   0.0000   0.0000   0.0000   0.0000   0.0000   0.0000
     0.0000   0.0000   0.0000   0.0000   0.0000   0.0000   0.0000   0.0000
     0.0000   0.0000   0.0000   0.0000   0.0000   0.0000   0.0000   0.0000
     0.0000   0.0000   0.0000   0.0000   0.0000   0.0000   0.0000   0.0000
     0.0000   0.0000   0.0000   0.0000   0.0000   0.0000   0.0000   0.0000
     0.0000   0.0000   0.0000   0.0000   0.0000   0.0000   0.0000   0.0000
     0.0000   0.0000   0.0000   0.0000   0.0000   0.0000   0.0000   0.0000
     0.0000   0.0000   0.0000   0.0000   0.0000   0.0000   0.0000   0.0000
     0.0000   0.0000   0.0000   0.0000   0.0000   0.0000   0.0000   0.0000
     0.0000   0.0000   0.0000   0.0000   0.0000   0.0000   0.0000   0.0000
     0.0000   0.0000   0.0000   0.0000   0.0000   0.0000   0.0000

          k = 0.3333 0.1925 0.0000 ( 64840 PWs)   bands (ev):

  -123.9980-123.9970-123.9950-123.9725-123.9707-123.9701-123.9694-123.9691
  -123.9683-123.9681-123.9673-123.9669-123.9659-123.9649-123.9646-123.9624
  -123.9601-123.8394-123.8348-123.8318-123.8273-123.8240-123.8228-123.8007
  -123.7997-123.7996-123.7978-123.7971-123.7969-123.7963-123.7960-123.7955
  -123.7700-123.7657-123.7653-123.7650-123.7642-123.7640-123.7636-123.7634
  -123.7628-123.7626-123.7624-123.7622-123.7621-123.7617-123.7615-123.7614
   -78.1578 -78.1537 -78.1529 -78.1463 -78.1459 -78.1452 -78.1445 -78.1434
   -78.1417 -78.1343 -78.1331 -78.1317 -78.1297 -78.1291 -78.1281 -78.1269
   -78.1257 -78.1242 -78.1215 -78.1199 -78.1198 -78.1194 -78.1183 -78.1175
   -78.1170 -78.1163 -78.1161 -78.1160 -78.1153 -78.1150 -78.1146 -78.1140
   -78.1137 -78.1137 -78.1130 -78.1127 -78.1120 -78.1118 -78.1116 -78.1115
   -78.1102 -78.1096 -78.1095 -78.1077 -78.1065 -78.1055 -78.1047 -78.1028
   -78.1026 -78.1026 -78.1014 -77.9963 -77.9926 -77.9902 -77.9888 -77.9874
   -77.9855 -77.9851 -77.9817 -77.9815 -77.9798 -77.9793 -77.9777 -77.9759
   -77.9740 -77.9718 -77.9691 -77.9674 -77.9637 -77.9585 -77.9575 -77.9573
   -77.9572 -77.9563 -77.9556 -77.9549 -77.9546 -77.9539 -77.9538 -77.9531
   -77.9516 -77.9502 -77.9489 -77.9482 -77.9471 -77.9445 -77.9438 -77.9401
   -77.9376 -77.9371 -77.9366 -77.9346 -77.9340 -77.9336 -77.9310 -77.9299
   -77.9282 -77.9278 -77.9276 -77.9262 -77.9241 -77.9240 -77.9239 -77.9235
   -77.9231 -77.9227 -77.9226 -77.9221 -77.9220 -77.9218 -77.9216 -77.9211
   -77.9209 -77.9207 -77.9205 -77.9203 -77.9200 -77.9198 -77.9197 -77.9196
   -77.9193 -77.9191 -77.9155 -77.9152 -77.9124 -77.9119 -77.9076 -77.9073
   -77.9064 -77.9062 -77.9040 -77.9037 -77.9029 -77.9025 -77.9014 -77.9011
   -77.8997 -77.8994 -77.8986 -77.8966 -77.8963 -77.8947 -77.8944 -77.8927
   -20.1304 -16.6886 -14.0568 -13.9028 -10.7976 -10.6525  -9.0807  -8.7973
    -8.7078  -7.3083  -7.2350  -6.6449  -6.3137  -6.1447  -6.1200  -6.1119
    -6.0397  -5.8925  -5.7830  -5.7490  -5.7387  -5.7349  -5.7311  -5.7067
    -5.6531  -5.6496  -5.6340  -5.6077  -5.5774  -5.5719  -5.5559  -5.5334
    -5.5276  -5.5252  -5.5207  -5.5167  -5.4869  -5.4771  -5.4696  -5.4453
    -5.4403  -5.4394  -5.4371  -5.4266  -5.4262  -5.4164  -5.4161  -5.4088
    -5.3978  -5.3969  -5.3870  -5.3865  -5.3697  -5.3694  -5.3497  -5.3474
    -5.3402  -5.3360  -5.3227  -5.3182  -5.3099  -5.2967  -5.2947  -5.2488
    -5.2457  -5.2405  -5.2299  -5.2233  -5.2217  -5.2121  -5.2045  -5.1991
    -5.1759  -5.1732  -5.1710  -5.1655  -5.1626  -5.1616  -5.1494  -5.1418
    -5.1369  -5.1327  -5.1308  -5.1221  -5.1181  -5.1130  -5.1108  -5.0965
    -5.0923  -5.0909  -5.0875  -5.0773  -5.0524  -5.0415  -5.0352  -5.0267
    -5.0189  -5.0133  -5.0107  -5.0074  -4.9985  -4.9967  -4.9891  -4.9759
    -4.9713  -4.9700  -4.9599  -4.9514  -4.9494  -4.9449  -4.9417  -4.9401
    -4.9094  -4.8976  -4.8960  -4.8930  -4.8844  -4.8796  -4.8645  -4.8581
    -4.8538  -4.8526  -4.8363  -4.8344  -4.8280  -4.8244  -4.8098  -4.7999
    -4.7902  -4.7794  -4.7759  -4.7660  -4.7651  -4.7644  -4.7546  -4.7540
    -4.7509  -4.7489  -4.7342  -4.7325  -4.7157  -4.7133  -4.7104  -4.7077
    -4.7052  -4.7035  -4.6986  -4.6874  -4.6866  -4.6822  -4.6768  -4.6749
    -4.6728  -4.6624  -4.6615  -4.6533  -4.6484  -4.6466  -4.6443  -4.6428
    -4.6312  -4.6283  -4.6210  -4.6057  -4.6034  -4.6022  -4.5978  -4.5916
    -4.5878  -4.5851  -4.5822  -4.5704  -4.5684  -4.5598  -4.5565  -4.5552
    -4.5481  -4.5468  -4.5433  -4.5382  -4.5353  -4.5261  -4.5167  -4.5115
    -4.5057  -4.4971  -4.4940  -4.4872  -4.4869  -4.4818  -4.4811  -4.4713
    -4.4682  -4.4644  -4.4635  -4.4612  -4.4589  -4.4579  -4.4550  -4.4532
    -4.4499  -4.4468  -4.4461  -4.4351  -4.4345  -4.4312  -4.4304  -4.4193
    -4.4128  -4.4114  -4.4058  -4.4049  -4.3939  -4.3933  -4.3850  -4.3839
    -4.3777  -4.3718  -4.3702  -4.3678  -4.3626  -4.3621  -4.3554  -4.3522
    -4.3520  -4.3469  -4.3451  -4.3429  -4.3323  -4.3315  -4.3312  -4.3275
    -4.3270  -4.2989  -4.2968  -4.2964  -4.2915  -4.2910  -4.2830  -4.2712
    -4.2607  -4.2594  -4.2585  -4.2570  -4.2497  -4.2458  -4.2427  -4.2414
    -4.2189  -4.2186  -4.1953  -4.1946  -4.1900  -4.1215  -4.1165  -4.0850
    -4.0817  -4.0672  -4.0670  -4.0319  -3.9973  -3.8369  -3.8313  -3.8077
    -3.6144  -3.6101  -3.4491  -2.6434  -2.6347  -2.5729  -2.5727  -2.3552
    -2.0267  -1.9022  -1.8474  -1.8459  -1.6056  -1.4165  -1.4117  -1.2930
    -1.2904  -0.8147  -0.8138  -0.3561  -0.3519  -0.3237  -0.3212  -0.2092
     0.1794   0.4906   0.5713   0.5791   0.8365   0.8445   0.9814   0.9873
     1.1225   1.1365   1.2847   1.7224   1.9650   1.9745   2.0122   2.0299
     2.5052   2.5126   2.5192   2.5286   3.1905   3.2251   3.3763   3.4310
     3.5034   3.5144   3.7562   3.8228   3.8455   4.0200   4.0794   4.1493
     4.1583   4.3692   4.5763   4.5827   4.6456   4.6749   4.7387   4.8253
     4.8448   4.9885   5.0484   5.1906   5.2429   5.2558   5.2656   5.3541
     5.5699   5.7499   5.7940   5.8652   5.9259   5.9633   6.0294   6.0493
     6.1316   6.1575   6.1995   6.2245   6.3102   6.3526   6.4467   6.5730
     6.6172   6.6454   6.6799   6.8098   6.8827   6.9044   6.9846   7.0245
     7.0630   7.1089   7.1865   7.2176   7.2414   7.2674   7.3067   7.3245
     7.4090   7.4550   7.5508   7.5799   7.6135   7.6392   7.6574   7.6963
     7.7108   7.7601   7.7966   7.8283   7.8922   7.9356   8.1271   8.1756
     8.2382   8.2965   8.3191   8.3465   8.4579   8.5057   8.5720   8.6252
     8.6882   8.7107   8.7589   8.7805   8.8136   8.8555   8.8977   8.9222
     8.9698   9.0080   9.1148   9.1558   9.1680   9.2008   9.2251

     occupation numbers 
     1.0000   1.0000   1.0000   1.0000   1.0000   1.0000   1.0000   1.0000
     1.0000   1.0000   1.0000   1.0000   1.0000   1.0000   1.0000   1.0000
     1.0000   1.0000   1.0000   1.0000   1.0000   1.0000   1.0000   1.0000
     1.0000   1.0000   1.0000   1.0000   1.0000   1.0000   1.0000   1.0000
     1.0000   1.0000   1.0000   1.0000   1.0000   1.0000   1.0000   1.0000
     1.0000   1.0000   1.0000   1.0000   1.0000   1.0000   1.0000   1.0000
     1.0000   1.0000   1.0000   1.0000   1.0000   1.0000   1.0000   1.0000
     1.0000   1.0000   1.0000   1.0000   1.0000   1.0000   1.0000   1.0000
     1.0000   1.0000   1.0000   1.0000   1.0000   1.0000   1.0000   1.0000
     1.0000   1.0000   1.0000   1.0000   1.0000   1.0000   1.0000   1.0000
     1.0000   1.0000   1.0000   1.0000   1.0000   1.0000   1.0000   1.0000
     1.0000   1.0000   1.0000   1.0000   1.0000   1.0000   1.0000   1.0000
     1.0000   1.0000   1.0000   1.0000   1.0000   1.0000   1.0000   1.0000
     1.0000   1.0000   1.0000   1.0000   1.0000   1.0000   1.0000   1.0000
     1.0000   1.0000   1.0000   1.0000   1.0000   1.0000   1.0000   1.0000
     1.0000   1.0000   1.0000   1.0000   1.0000   1.0000   1.0000   1.0000
     1.0000   1.0000   1.0000   1.0000   1.0000   1.0000   1.0000   1.0000
     1.0000   1.0000   1.0000   1.0000   1.0000   1.0000   1.0000   1.0000
     1.0000   1.0000   1.0000   1.0000   1.0000   1.0000   1.0000   1.0000
     1.0000   1.0000   1.0000   1.0000   1.0000   1.0000   1.0000   1.0000
     1.0000   1.0000   1.0000   1.0000   1.0000   1.0000   1.0000   1.0000
     1.0000   1.0000   1.0000   1.0000   1.0000   1.0000   1.0000   1.0000
     1.0000   1.0000   1.0000   1.0000   1.0000   1.0000   1.0000   1.0000
     1.0000   1.0000   1.0000   1.0000   1.0000   1.0000   1.0000   1.0000
     1.0000   1.0000   1.0000   1.0000   1.0000   1.0000   1.0000   1.0000
     1.0000   1.0000   1.0000   1.0000   1.0000   1.0000   1.0000   1.0000
     1.0000   1.0000   1.0000   1.0000   1.0000   1.0000   1.0000   1.0000
     1.0000   1.0000   1.0000   1.0000   1.0000   1.0000   1.0000   1.0000
     1.0000   1.0000   1.0000   1.0000   1.0000   1.0000   1.0000   1.0000
     1.0000   1.0000   1.0000   1.0000   1.0000   1.0000   1.0000   1.0000
     1.0000   1.0000   1.0000   1.0000   1.0000   1.0000   1.0000   1.0000
     1.0000   1.0000   1.0000   1.0000   1.0000   1.0000   1.0000   1.0000
     1.0000   1.0000   1.0000   1.0000   1.0000   1.0000   1.0000   1.0000
     1.0000   1.0000   1.0000   1.0000   1.0000   1.0000   1.0000   1.0000
     1.0000   1.0000   1.0000   1.0000   1.0000   1.0000   1.0000   1.0000
     1.0000   1.0000   1.0000   1.0000   1.0000   1.0000   1.0000   1.0000
     1.0000   1.0000   1.0000   1.0000   1.0000   1.0000   1.0000   1.0000
     1.0000   1.0000   1.0000   1.0000   1.0000   1.0000   1.0000   1.0000
     1.0000   1.0000   1.0000   1.0000   1.0000   1.0000   1.0000   1.0000
     1.0000   1.0000   1.0000   1.0000   1.0000   1.0000   1.0000   1.0000
     1.0000   1.0000   1.0000   1.0000   1.0000   1.0000   1.0000   1.0000
     1.0000   1.0000   1.0000   1.0000   1.0000   1.0000   1.0000   1.0000
     1.0000   1.0000   1.0000   1.0000   1.0000   1.0000   1.0000   1.0000
     1.0000   1.0000   1.0000   1.0000   1.0000   1.0000   1.0000   1.0000
     1.0000   1.0000   1.0000   1.0000   1.0000   1.0000   1.0000   1.0000
     1.0000   1.0000   1.0000   1.0000   1.0000   1.0000   1.0000   1.0000
     1.0000   1.0000   1.0000   1.0000   1.0000   1.0000   1.0000   1.0000
     1.0000   1.0000   1.0000   1.0000   1.0000   1.0000   1.0000   1.0000
     1.0000   1.0000   1.0000   1.0000   1.0000   1.0000   1.0000   1.0000
     1.0000   1.0000   1.0000   1.0000   1.0000   1.0000   1.0000   1.0000
     1.0000   1.0000   1.0000   1.0000   1.0000   1.0000   1.0000   1.0000
     1.0000   1.0000   1.0000   1.0000   1.0000   1.0000   1.0000   1.0000
     1.0000   1.0000   1.0000   1.0000   1.0000   1.0000   1.0000   1.0000
     1.0000   1.0000   1.0000   1.0000   1.0000   1.0000   1.0000   1.0000
     1.0000   1.0000   1.0000   1.0000   1.0000   1.0000   1.0000   1.0000
     1.0000   1.0000   1.0000   1.0000   1.0000   1.0000   1.0000   1.0000
     1.0000   1.0000   1.0000   1.0000   1.0000   1.0000   1.0000   1.0000
     1.0000   1.0000   1.0000   1.0000   1.0000   1.0000   1.0000   1.0000
     1.0000   1.0000   1.0000   1.0000   1.0000   1.0000   1.0000   1.0000
     1.0000   1.0000   1.0000   1.0000   1.0000   1.0000   1.0000   1.0000
     1.0000   1.0000   1.0000   1.0000   1.0000   1.0000   1.0000   1.0000
     1.0000   1.0000   1.0000   1.0009   1.0245   1.0268   1.0375   1.0432
     0.5685   0.5482   0.5299   0.5043   0.0001   0.0000   0.0000   0.0000
     0.0000   0.0000   0.0000   0.0000   0.0000   0.0000   0.0000   0.0000
     0.0000   0.0000   0.0000   0.0000   0.0000   0.0000   0.0000   0.0000
     0.0000   0.0000   0.0000   0.0000   0.0000   0.0000   0.0000   0.0000
     0.0000   0.0000   0.0000   0.0000   0.0000   0.0000   0.0000   0.0000
     0.0000   0.0000   0.0000   0.0000   0.0000   0.0000   0.0000   0.0000
     0.0000   0.0000   0.0000   0.0000   0.0000   0.0000   0.0000   0.0000
     0.0000   0.0000   0.0000   0.0000   0.0000   0.0000   0.0000   0.0000
     0.0000   0.0000   0.0000   0.0000   0.0000   0.0000   0.0000   0.0000
     0.0000   0.0000   0.0000   0.0000   0.0000   0.0000   0.0000   0.0000
     0.0000   0.0000   0.0000   0.0000   0.0000   0.0000   0.0000   0.0000
     0.0000   0.0000   0.0000   0.0000   0.0000   0.0000   0.0000   0.0000
     0.0000   0.0000   0.0000   0.0000   0.0000   0.0000   0.0000

          k = 0.3333 0.5774 0.0000 ( 64848 PWs)   bands (ev):

  -123.9980-123.9970-123.9950-123.9725-123.9707-123.9701-123.9695-123.9690
  -123.9683-123.9681-123.9673-123.9669-123.9659-123.9649-123.9646-123.9624
  -123.9601-123.8394-123.8348-123.8318-123.8273-123.8240-123.8228-123.8007
  -123.7998-123.7996-123.7977-123.7971-123.7969-123.7963-123.7960-123.7955
  -123.7700-123.7656-123.7653-123.7652-123.7642-123.7640-123.7636-123.7633
  -123.7629-123.7626-123.7624-123.7622-123.7622-123.7617-123.7616-123.7614
   -78.1577 -78.1536 -78.1527 -78.1463 -78.1459 -78.1453 -78.1448 -78.1435
   -78.1419 -78.1338 -78.1325 -78.1317 -78.1302 -78.1293 -78.1275 -78.1269
   -78.1263 -78.1258 -78.1227 -78.1199 -78.1195 -78.1188 -78.1175 -78.1174
   -78.1170 -78.1167 -78.1165 -78.1159 -78.1153 -78.1150 -78.1144 -78.1141
   -78.1138 -78.1136 -78.1129 -78.1120 -78.1118 -78.1115 -78.1114 -78.1101
   -78.1098 -78.1096 -78.1087 -78.1081 -78.1071 -78.1066 -78.1039 -78.1037
   -78.1026 -78.1025 -78.1019 -77.9963 -77.9926 -77.9901 -77.9888 -77.9874
   -77.9855 -77.9851 -77.9817 -77.9814 -77.9798 -77.9791 -77.9779 -77.9757
   -77.9742 -77.9719 -77.9694 -77.9677 -77.9638 -77.9584 -77.9575 -77.9572
   -77.9564 -77.9555 -77.9550 -77.9546 -77.9545 -77.9541 -77.9539 -77.9537
   -77.9531 -77.9499 -77.9489 -77.9484 -77.9470 -77.9465 -77.9419 -77.9385
   -77.9378 -77.9369 -77.9356 -77.9354 -77.9349 -77.9327 -77.9321 -77.9301
   -77.9276 -77.9271 -77.9269 -77.9250 -77.9238 -77.9237 -77.9236 -77.9235
   -77.9233 -77.9226 -77.9226 -77.9224 -77.9223 -77.9219 -77.9219 -77.9217
   -77.9214 -77.9211 -77.9209 -77.9207 -77.9205 -77.9203 -77.9200 -77.9198
   -77.9196 -77.9179 -77.9178 -77.9135 -77.9133 -77.9132 -77.9080 -77.9080
   -77.9067 -77.9033 -77.9030 -77.9017 -77.9015 -77.9013 -77.9011 -77.9002
   -77.9000 -77.8993 -77.8990 -77.8988 -77.8984 -77.8943 -77.8942 -77.8937
   -20.1304 -16.6886 -14.0568 -13.9029 -10.7976 -10.6525  -9.0807  -8.7973
    -8.7078  -7.3015  -6.8672  -6.8191  -6.8173  -6.3135  -6.0455  -5.8409
    -5.8154  -5.8146  -5.7488  -5.7131  -5.6984  -5.6977  -5.6849  -5.6847
    -5.6795  -5.6761  -5.6743  -5.6726  -5.5718  -5.5702  -5.5572  -5.5378
    -5.5344  -5.5308  -5.5075  -5.4994  -5.4977  -5.4956  -5.4938  -5.4926
    -5.4729  -5.4686  -5.4673  -5.4565  -5.4558  -5.4553  -5.4544  -5.4479
    -5.4445  -5.3771  -5.3732  -5.3595  -5.3480  -5.3430  -5.3344  -5.3314
    -5.3290  -5.3278  -5.3117  -5.3082  -5.3075  -5.2884  -5.2881  -5.2836
    -5.2745  -5.2731  -5.2711  -5.2568  -5.2500  -5.2460  -5.2457  -5.2137
    -5.1989  -5.1832  -5.1771  -5.1730  -5.1715  -5.1710  -5.1559  -5.1518
    -5.1495  -5.1484  -5.1477  -5.1399  -5.1386  -5.1074  -5.1064  -5.1003
    -5.0992  -5.0826  -5.0648  -5.0631  -5.0618  -5.0506  -5.0483  -5.0436
    -5.0197  -5.0158  -5.0104  -5.0046  -5.0044  -5.0041  -4.9764  -4.9753
    -4.9727  -4.9707  -4.9589  -4.9566  -4.9507  -4.9483  -4.9471  -4.9446
    -4.9440  -4.9388  -4.9093  -4.9087  -4.8989  -4.8725  -4.8694  -4.8681
    -4.8644  -4.8637  -4.8598  -4.8592  -4.8491  -4.8464  -4.8340  -4.8255
    -4.8197  -4.8128  -4.8103  -4.8067  -4.7619  -4.7564  -4.7498  -4.7427
    -4.7367  -4.7338  -4.7325  -4.7287  -4.7223  -4.7205  -4.7196  -4.7178
    -4.7172  -4.7146  -4.7138  -4.7106  -4.7097  -4.7092  -4.7047  -4.7035
    -4.6986  -4.6558  -4.6536  -4.6506  -4.6414  -4.6343  -4.6331  -4.6011
    -4.5997  -4.5988  -4.5858  -4.5821  -4.5739  -4.5699  -4.5695  -4.5657
    -4.5591  -4.5585  -4.5424  -4.5330  -4.5299  -4.5261  -4.5200  -4.5193
    -4.5131  -4.5115  -4.4977  -4.4943  -4.4928  -4.4918  -4.4873  -4.4813
    -4.4807  -4.4784  -4.4765  -4.4760  -4.4741  -4.4728  -4.4705  -4.4702
    -4.4682  -4.4622  -4.4600  -4.4580  -4.4573  -4.4565  -4.4555  -4.4544
    -4.4399  -4.4374  -4.4369  -4.4195  -4.4080  -4.3958  -4.3947  -4.3936
    -4.3908  -4.3858  -4.3850  -4.3833  -4.3817  -4.3814  -4.3698  -4.3652
    -4.3628  -4.3617  -4.3607  -4.3595  -4.3578  -4.3573  -4.3551  -4.3548
    -4.3537  -4.3526  -4.3484  -4.3452  -4.3442  -4.3433  -4.3304  -4.3296
    -4.3239  -4.3137  -4.3117  -4.3113  -4.3035  -4.3017  -4.3016  -4.2963
    -4.2939  -4.2933  -4.2416  -4.2409  -4.2387  -4.2170  -4.2147  -4.2018
    -4.1970  -4.1889  -4.1887  -4.1545  -4.1541  -4.1536  -4.1525  -4.1520
    -4.1518  -4.1327  -4.0957  -4.0942  -4.0460  -3.8624  -3.8603  -3.8593
    -3.8083  -2.7220  -2.7182  -2.7173  -2.3873  -2.3764  -2.3702  -2.3487
    -2.3468  -2.3453  -2.0652  -2.0511  -2.0495  -1.8470  -1.8410  -0.9853
    -0.9747  -0.9685  -0.9513  -0.9502  -0.9474  -0.5211  -0.5176  -0.5141
     0.9612   1.0553   1.0588   1.1338   1.1382   1.1434   1.1519   1.1554
     1.1585   1.1957   1.1971   1.2166   1.6944   1.7152   1.7175   2.2574
     2.2738   2.2912   3.0837   3.1388   3.1792   3.2492   3.2828   3.2971
     3.5203   3.5729   3.7664   3.7906   3.8010   4.0159   4.2812   4.3253
     4.4238   4.8427   4.8725   4.9033   4.9114   4.9317   4.9683   4.9815
     5.0751   5.0855   5.0960   5.1167   5.1358   5.3541   5.4525   5.4940
     5.4980   5.5137   5.5204   5.5340   5.5399   5.5440   5.5635   5.5880
     5.6089   5.7526   5.7856   5.9086   5.9547   6.0190   6.2864   6.4050
     6.6461   6.6580   6.6877   6.7024   6.7948   6.8922   6.9453   6.9675
     6.9790   6.9944   6.9964   7.0036   7.0168   7.1170   7.1568   7.1973
     7.2418   7.2811   7.4261   7.4905   7.5424   7.6277   7.6854   7.6900
     7.7213   7.7420   7.8116   8.0478   8.1018   8.1298   8.1566   8.1921
     8.2045   8.2932   8.4196   8.4760   8.5472   8.6136   8.6433   8.6962
     8.8242   8.8640   8.8726   8.9161   8.9532   8.9875   9.0015   9.0092
     9.0207   9.0500   9.0794   9.0891   9.2197   9.2451   9.2744

     occupation numbers 
     1.0000   1.0000   1.0000   1.0000   1.0000   1.0000   1.0000   1.0000
     1.0000   1.0000   1.0000   1.0000   1.0000   1.0000   1.0000   1.0000
     1.0000   1.0000   1.0000   1.0000   1.0000   1.0000   1.0000   1.0000
     1.0000   1.0000   1.0000   1.0000   1.0000   1.0000   1.0000   1.0000
     1.0000   1.0000   1.0000   1.0000   1.0000   1.0000   1.0000   1.0000
     1.0000   1.0000   1.0000   1.0000   1.0000   1.0000   1.0000   1.0000
     1.0000   1.0000   1.0000   1.0000   1.0000   1.0000   1.0000   1.0000
     1.0000   1.0000   1.0000   1.0000   1.0000   1.0000   1.0000   1.0000
     1.0000   1.0000   1.0000   1.0000   1.0000   1.0000   1.0000   1.0000
     1.0000   1.0000   1.0000   1.0000   1.0000   1.0000   1.0000   1.0000
     1.0000   1.0000   1.0000   1.0000   1.0000   1.0000   1.0000   1.0000
     1.0000   1.0000   1.0000   1.0000   1.0000   1.0000   1.0000   1.0000
     1.0000   1.0000   1.0000   1.0000   1.0000   1.0000   1.0000   1.0000
     1.0000   1.0000   1.0000   1.0000   1.0000   1.0000   1.0000   1.0000
     1.0000   1.0000   1.0000   1.0000   1.0000   1.0000   1.0000   1.0000
     1.0000   1.0000   1.0000   1.0000   1.0000   1.0000   1.0000   1.0000
     1.0000   1.0000   1.0000   1.0000   1.0000   1.0000   1.0000   1.0000
     1.0000   1.0000   1.0000   1.0000   1.0000   1.0000   1.0000   1.0000
     1.0000   1.0000   1.0000   1.0000   1.0000   1.0000   1.0000   1.0000
     1.0000   1.0000   1.0000   1.0000   1.0000   1.0000   1.0000   1.0000
     1.0000   1.0000   1.0000   1.0000   1.0000   1.0000   1.0000   1.0000
     1.0000   1.0000   1.0000   1.0000   1.0000   1.0000   1.0000   1.0000
     1.0000   1.0000   1.0000   1.0000   1.0000   1.0000   1.0000   1.0000
     1.0000   1.0000   1.0000   1.0000   1.0000   1.0000   1.0000   1.0000
     1.0000   1.0000   1.0000   1.0000   1.0000   1.0000   1.0000   1.0000
     1.0000   1.0000   1.0000   1.0000   1.0000   1.0000   1.0000   1.0000
     1.0000   1.0000   1.0000   1.0000   1.0000   1.0000   1.0000   1.0000
     1.0000   1.0000   1.0000   1.0000   1.0000   1.0000   1.0000   1.0000
     1.0000   1.0000   1.0000   1.0000   1.0000   1.0000   1.0000   1.0000
     1.0000   1.0000   1.0000   1.0000   1.0000   1.0000   1.0000   1.0000
     1.0000   1.0000   1.0000   1.0000   1.0000   1.0000   1.0000   1.0000
     1.0000   1.0000   1.0000   1.0000   1.0000   1.0000   1.0000   1.0000
     1.0000   1.0000   1.0000   1.0000   1.0000   1.0000   1.0000   1.0000
     1.0000   1.0000   1.0000   1.0000   1.0000   1.0000   1.0000   1.0000
     1.0000   1.0000   1.0000   1.0000   1.0000   1.0000   1.0000   1.0000
     1.0000   1.0000   1.0000   1.0000   1.0000   1.0000   1.0000   1.0000
     1.0000   1.0000   1.0000   1.0000   1.0000   1.0000   1.0000   1.0000
     1.0000   1.0000   1.0000   1.0000   1.0000   1.0000   1.0000   1.0000
     1.0000   1.0000   1.0000   1.0000   1.0000   1.0000   1.0000   1.0000
     1.0000   1.0000   1.0000   1.0000   1.0000   1.0000   1.0000   1.0000
     1.0000   1.0000   1.0000   1.0000   1.0000   1.0000   1.0000   1.0000
     1.0000   1.0000   1.0000   1.0000   1.0000   1.0000   1.0000   1.0000
     1.0000   1.0000   1.0000   1.0000   1.0000   1.0000   1.0000   1.0000
     1.0000   1.0000   1.0000   1.0000   1.0000   1.0000   1.0000   1.0000
     1.0000   1.0000   1.0000   1.0000   1.0000   1.0000   1.0000   1.0000
     1.0000   1.0000   1.0000   1.0000   1.0000   1.0000   1.0000   1.0000
     1.0000   1.0000   1.0000   1.0000   1.0000   1.0000   1.0000   1.0000
     1.0000   1.0000   1.0000   1.0000   1.0000   1.0000   1.0000   1.0000
     1.0000   1.0000   1.0000   1.0000   1.0000   1.0000   1.0000   1.0000
     1.0000   1.0000   1.0000   1.0000   1.0000   1.0000   1.0000   1.0000
     1.0000   1.0000   1.0000   1.0000   1.0000   1.0000   1.0000   1.0000
     1.0000   1.0000   1.0000   1.0000   1.0000   1.0000   1.0000   1.0000
     1.0000   1.0000   1.0000   1.0000   1.0000   1.0000   1.0000   1.0000
     1.0000   1.0000   1.0000   1.0000   1.0000   1.0000   1.0000   1.0000
     1.0000   1.0000   1.0000   1.0000   1.0000   1.0000   1.0000   1.0000
     1.0000   1.0000   1.0000   1.0000   1.0000   1.0000   1.0000   1.0000
     1.0000   1.0000   1.0000   1.0000   1.0000   1.0000   1.0000   1.0000
     1.0000   1.0000   1.0000   1.0000   1.0000   1.0000   1.0000   1.0000
     1.0000   1.0000   1.0000   1.0000   1.0000   1.0000   1.0000   1.0000
     1.0000   1.0000   1.0000   1.0000   1.0000   1.0000   1.0000   1.0000
     1.0000   1.0000   1.0000   1.0000   1.0000   1.0000   1.0000   1.0000
     1.0000   1.0000   1.0000   1.0000   1.0006   1.0008   1.0008   1.0609
     1.0485   1.0320   0.0006   0.0002   0.0001   0.0000   0.0000   0.0000
     0.0000   0.0000   0.0000   0.0000   0.0000   0.0000   0.0000   0.0000
     0.0000   0.0000   0.0000   0.0000   0.0000   0.0000   0.0000   0.0000
     0.0000   0.0000   0.0000   0.0000   0.0000   0.0000   0.0000   0.0000
     0.0000   0.0000   0.0000   0.0000   0.0000   0.0000   0.0000   0.0000
     0.0000   0.0000   0.0000   0.0000   0.0000   0.0000   0.0000   0.0000
     0.0000   0.0000   0.0000   0.0000   0.0000   0.0000   0.0000   0.0000
     0.0000   0.0000   0.0000   0.0000   0.0000   0.0000   0.0000   0.0000
[...]
     atom   30 type  1   force =    -0.00000000   -0.00000000   -0.00000000
     atom   31 type  1   force =     0.00026957    0.00031147   -0.00025890
     atom   32 type  1   force =    -0.00029514   -0.00006268   -0.00012438
     atom   33 type  1   force =     0.00046235   -0.00033867   -0.00090894
     atom   34 type  1   force =    -0.00041093   -0.00057713   -0.00077486
     atom   35 type  1   force =     0.00037418   -0.00014899   -0.00098553
     atom   36 type  1   force =    -0.00035290   -0.00051524   -0.00083778
     atom   37 type  1   force =     0.00026756    0.00072769   -0.00094534
     atom   38 type  1   force =    -0.00031000    0.00021908   -0.00101510
     atom   39 type  1   force =     0.00031524    0.00058059   -0.00089045
     atom   40 type  1   force =    -0.00033684    0.00006293   -0.00097297
     atom   41 type  1   force =     0.00018085   -0.00031978   -0.00078543
     atom   42 type  1   force =    -0.00022588   -0.00061308   -0.00090931
     atom   43 type  1   force =     0.00033039   -0.00022809   -0.00096420
     atom   44 type  1   force =    -0.00034821   -0.00043099   -0.00084816
     atom   45 type  1   force =     0.00031347    0.00061178   -0.00103156
     atom   46 type  1   force =    -0.00026573    0.00032727   -0.00094926
     atom   47 type  1   force =     0.00016208    0.00049530   -0.00090452
     atom   48 type  1   force =    -0.00013972    0.00014728   -0.00100451
     atom   49 type  3   force =     0.00002050    0.00001076    0.00015016
     atom   50 type  3   force =     0.00000075   -0.00000155    0.00014167
     atom   51 type  3   force =     0.00003927    0.00002768    0.00010263
     atom   52 type  3   force =    -0.00001957   -0.00001325    0.00015182
     atom   53 type  3   force =    -0.00000080    0.00000958    0.00003767
     atom   54 type  3   force =    -0.00004013   -0.00001990    0.00010342
     atom   55 type  2   force =    -0.00000512    0.00002682   -0.00000669
     atom   56 type  4   force =    -0.00001174   -0.00000650    0.00001519
     atom   57 type  4   force =    -0.00000014    0.00000101   -0.00000370
     atom   58 type  4   force =     0.00000008    0.00000324    0.00000308
     atom   59 type  4   force =     0.00000659    0.00000528    0.00001798
     atom   60 type  4   force =     0.00001146    0.00000709    0.00001624
     atom   61 type  4   force =     0.00000075    0.00000299    0.00000417
     atom   62 type  4   force =    -0.00000707   -0.00000302    0.00001894
     atom   63 type  4   force =    -0.00000453    0.00001046    0.00000041

     DFT-D3 dispersion contribution to forces:
     atom    1 type  1   force =    -0.00000217    0.00000142    0.00257066
     atom    2 type  1   force =     0.00000060    0.00000502    0.00257283
     atom    3 type  1   force =     0.00002152    0.00004897   -0.00244144
     atom    4 type  1   force =    -0.00000523    0.00001778   -0.00249132
     atom    5 type  1   force =    -0.00001507   -0.00000687    0.00255797
     atom    6 type  1   force =    -0.00001319    0.00005303    0.00266537
     atom    7 type  1   force =     0.00023403    0.00010467   -0.00229420
     atom    8 type  1   force =    -0.00046434    0.00072294   -0.00143437
     atom    9 type  1   force =     0.00000271   -0.00000129    0.00257188
     atom   10 type  1   force =     0.00000154   -0.00000358    0.00275719
     atom   11 type  1   force =    -0.00001929   -0.00001147   -0.00244896
     atom   12 type  1   force =     0.00001240   -0.00007949   -0.00185159
     atom   13 type  1   force =    -0.00001991   -0.00001150    0.00259178
     atom   14 type  1   force =     0.00003919   -0.00003645    0.00264666
     atom   15 type  1   force =    -0.00016212   -0.00010639   -0.00235848
     atom   16 type  1   force =     0.00038479   -0.00073172   -0.00153260
     atom   17 type  1   force =    -0.00000021    0.00002974    0.00260246
     atom   18 type  1   force =     0.00000386    0.00002118    0.00255199
     atom   19 type  1   force =    -0.00001703    0.00025203   -0.00231297
     atom   20 type  1   force =    -0.00000214   -0.00015791   -0.00243077
     atom   21 type  1   force =     0.00001601    0.00004980    0.00265810
     atom   22 type  1   force =     0.00001266   -0.00001263    0.00255613
     atom   23 type  1   force =     0.00043420    0.00071057   -0.00137358
     atom   24 type  1   force =    -0.00019912    0.00012808   -0.00233967
     atom   25 type  1   force =     0.00005295   -0.00002003    0.00265463
     atom   26 type  1   force =    -0.00005305   -0.00001632    0.00265053
     atom   27 type  1   force =     0.00082489   -0.00008263   -0.00145305
     atom   28 type  1   force =    -0.00085882   -0.00003342   -0.00136571
     atom   29 type  1   force =     0.00001970   -0.00000863    0.00259258
     atom   30 type  1   force =    -0.00003864   -0.00003468    0.00265079
     atom   31 type  1   force =     0.00013733   -0.00008590   -0.00242158
     atom   32 type  1   force =    -0.00034367   -0.00074267   -0.00150106
     atom   33 type  1   force =     0.00000820   -0.00001790   -0.00001620
     atom   34 type  1   force =    -0.00002340   -0.00001051    0.00005394
     atom   35 type  1   force =     0.00002961   -0.00001474    0.00009063
     atom   36 type  1   force =    -0.00002318   -0.00001808    0.00006455
     atom   37 type  1   force =    -0.00001414    0.00002836    0.00004235
     atom   38 type  1   force =     0.00000487   -0.00000279    0.00034893
     atom   39 type  1   force =     0.00000313    0.00001898   -0.00000967
     atom   40 type  1   force =    -0.00000092    0.00000272    0.00029693
     atom   41 type  1   force =    -0.00000965   -0.00002224   -0.00001466
     atom   42 type  1   force =     0.00002204   -0.00000644    0.00005609
     atom   43 type  1   force =    -0.00000906   -0.00023603   -0.00006614
     atom   44 type  1   force =     0.00000500    0.00000041   -0.00003523
     atom   45 type  1   force =    -0.00001015   -0.00000104    0.00035846
     atom   46 type  1   force =     0.00001327    0.00003370    0.00006687
     atom   47 type  1   force =    -0.00022870    0.00013179   -0.00012657
     atom   48 type  1   force =     0.00022619    0.00012876   -0.00011422
     atom   49 type  3   force =     0.00015829    0.00009914   -0.00027344
     atom   50 type  3   force =    -0.00000268   -0.00001031    0.00018812
     atom   51 type  3   force =     0.00017253    0.00014649   -0.00052190
     atom   52 type  3   force =    -0.00015460   -0.00008561   -0.00028222
     atom   53 type  3   force =     0.00000412   -0.00000586   -0.00100467
     atom   54 type  3   force =    -0.00021313   -0.00008428   -0.00053732
     atom   55 type  2   force =     0.00000281   -0.00002395   -0.00162274
     atom   56 type  4   force =    -0.00001263   -0.00000579   -0.00002268
     atom   57 type  4   force =    -0.00000094    0.00000696   -0.00008911
     atom   58 type  4   force =     0.00004680   -0.00006186   -0.00204866
     atom   59 type  4   force =    -0.00004512   -0.00000927   -0.00040170
     atom   60 type  4   force =     0.00000861    0.00000646   -0.00002386
     atom   61 type  4   force =     0.00006041   -0.00002813   -0.00203769
     atom   62 type  4   force =     0.00002661    0.00003625   -0.00041717
     atom   63 type  4   force =    -0.00002855    0.00004315   -0.00170121

     Total force =     0.026893     Total SCF correction =     0.004693

     DFT-D3 dispersion Force =     0.014083
     SCF correction compared to forces is large: reduce conv_thr to get better values


     Computing stress (Cartesian axis) and pressure


     negative rho (up, down):  3.787E-03 0.000E+00
          total   stress  (Ry/bohr**3)                   (kbar)     P=       -9.02
  -0.00008427  -0.00000039   0.00000012          -12.40       -0.06        0.02
  -0.00000039  -0.00008375   0.00000036           -0.06      -12.32        0.05
   0.00000012   0.00000036  -0.00001585            0.02        0.05       -2.33

     kinetic stress (kbar)  12866.00    -18.83     -0.69
                              -18.83  12886.76      1.27
                               -0.69      1.27  12927.76

     local   stress (kbar)**********   -710.82    -29.11
                             -710.82**********     60.93
                              -29.11     60.931190184.83

     nonloc. stress (kbar)  -1214.62      2.60      0.10
                                2.60  -1217.49     -0.16
                                0.10     -0.16  -1260.87

     hartree stress (kbar) 616454.18    265.98     10.98
                              265.98 616162.09    -23.79
                               10.98    -23.79-559470.02

     exc-cor stress (kbar)  -6316.93      1.36      0.05
                                1.36  -6318.42     -0.09
                                0.05     -0.09  -6325.16

     corecor stress (kbar)    -69.04     -0.53     -0.02
                               -0.53    -68.45      0.03
                               -0.02      0.03    -69.14

     ewald   stress (kbar) 557127.33    460.18     18.70
                              460.18 556621.55    -38.14
                               18.70    -38.14-635985.17

     hubbard stress (kbar)      0.00      0.00      0.00
                                0.00      0.00      0.00
                                0.00      0.00      0.00

     DFT-D   stress (kbar)    -10.37      0.00     -0.00
                                0.00    -10.38      0.00
                               -0.00      0.00     -4.57

     XDM     stress (kbar)      0.00      0.00      0.00
                                0.00      0.00      0.00
                                0.00      0.00      0.00

     dft-nl  stress (kbar)      0.00      0.00      0.00
                                0.00      0.00      0.00
                                0.00      0.00      0.00

     TS-vdW  stress (kbar)      0.00      0.00      0.00
                                0.00      0.00      0.00
                                0.00      0.00      0.00

     MDB     stress (kbar)      0.00      0.00      0.00
                                0.00      0.00      0.00
                                0.00      0.00      0.00

     3D-RISM stress (kbar)      0.00      0.00      0.00
                                0.00      0.00      0.00
                                0.00      0.00      0.00


     BFGS Geometry Optimization
     Energy error            =      0.0E+00 Ry
     Gradient error          =      1.5E-02 Ry/Bohr

     number of scf cycles    =   1
     number of bfgs steps    =   0

     energy             new  =  -22295.2822431019 Ry

     new trust radius        =       0.0152661441 bohr
     new conv_thr            =       0.0000010000 Ry


ATOMIC_POSITIONS (angstrom)
Zn               0.0000000000        1.5094010000        1.2182900000    0   0   0
Zn               5.2287200000        1.5094010000        1.2182900000    0   0   0
Zn              -0.0004639218        1.5074248776        6.2011982652
Zn               5.2284332643        1.5063833366        6.2007529384
Zn              -1.3071800000        3.7735030000        1.2182900000    0   0   0
Zn               3.9215400000        3.7735030000        1.2182900000    0   0   0
Zn              -1.3074652647        3.7718384648        6.2101721770
Zn               3.9222988373        3.7709468342        6.1722245431
Zn              -2.6143600000        6.0376050000        1.2182900000    0   0   0
Zn               2.6143600000        6.0376050000        1.2182900000    0   0   0
Zn              -2.6149596738        6.0371792720        6.2019372769
Zn               2.6127385215        6.0419918222        5.9508620250
Zn              -3.9215400000        8.3017080000        1.2182900000    0   0   0
Zn               1.3071800000        8.3017080000        1.2182900000    0   0   0
Zn              -3.9223572833        8.3002361814        6.2094161227
Zn               1.3073615308        8.3004750448        6.1997254860
Zn               2.6143600000        1.5094010000        1.2182900000    0   0   0
Zn               7.8430800000        1.5094010000        1.2182900000    0   0   0
Zn               2.6140801098        1.5086532618        6.2100042499
Zn               7.8419254215        1.5076162532        6.2070860496
Zn               1.3071800000        3.7735030000        1.2182900000    0   0   0
Zn               6.5359000000        3.7735030000        1.2182900000    0   0   0
Zn               1.3050660253        3.7710090441        6.1714791875
Zn               6.5352996249        3.7718166964        6.2097700704
Zn               0.0000000000        6.0376050000        1.2182900000    0   0   0
Zn               5.2287200000        6.0376050000        1.2182900000    0   0   0
Zn              -0.0018084526        6.0357409791        6.1855823777
Zn               5.2284817014        6.0353307882        6.1854278463
Zn              -1.3071800000        8.3017080000        1.2182900000    0   0   0
Zn               3.9215400000        8.3017080000        1.2182900000    0   0   0
Zn              -1.3069934680        8.3005608584        6.2074265962
Zn               3.9207846313        8.3024112769        6.1913438113
Zn               1.3082191043        0.7527944550        3.7115106414
Zn               6.5328827466        0.7572472813        3.7159037050
Zn              -0.0030783986        3.0135759216        3.7159916752
Zn               5.2316268994        3.0128385593        3.7123652662
Zn              -1.3129959948        5.2827041845        3.7130266651
Zn               3.9348164084        5.2749085563        3.6789002405
Zn              -2.6142369974        7.5486257191        3.7112247997
Zn               2.6136176517        7.5643353180        3.6801294966
Zn               3.9195547726        0.7527164613        3.7102946065
Zn               9.1524467028        0.7586159670        3.7131513925
Zn               2.6132348336        3.0096763599        3.7076678595
Zn               7.8429297433        3.0179118736        3.7055346369
Zn               1.2919994153        5.2754589605        3.6801648265
Zn               6.5406038921        5.2829109629        3.7168851592
Zn              -0.0062804943        7.5511894791        3.7119964058
Zn               5.2348627419        7.5506474778        3.7115380342
C                3.6949049233        6.3306275893       12.6471016691
C                2.6530431308        5.6891553867       13.3231598135
C                3.6989085058        6.3853495127       11.2537438777
C                1.6058121330        5.0980814905       12.6107939734
C                2.6444061821        5.7859438189       10.5612988793
C                1.5927751698        5.1420088727       11.2167348974
N                2.6356464749        5.8473969548        9.1023497545
H                4.5101759110        6.7868154503       13.2096517753
H                2.6594533952        5.6453693158       14.4118691997
H                3.5845674755        5.8270759557        8.6640772240
H                4.5056565503        6.8816105424       10.7089324479
H                0.7977691282        4.5972781038       13.1449955650
H                2.1299276959        5.0567889976        8.6402420377
H                0.7837781568        4.6824963734       10.6438725930
H                2.1869299059        6.7043721291        8.6970423970



     Writing config-only to output data dir ./tmp/01_Zn002_topsite_upright.save/ :
     XML data file
     NEW-OLD atomic charge density approx. for the potential

     negative rho (up, down):  3.787E-03 0.000E+00

     total cpu time spent up to now is     1641.8 secs

     Self-consistent Calculation

     iteration #  1     ecut=    40.00 Ry     beta= 0.40
     Davidson diagonalization with overlap

---- Real-time Memory Report at c_bands before calling an iterative solver
           628 MiB given to the printing process from OS
             0 MiB allocation reported by mallinfo(arena+hblkhd)
        113122 MiB available memory on the node where the printing process lives
------------------
     ethr =  1.00E-06,  avg # of iterations =  5.8

     Threshold (ethr) on eigenvalues was too large:
     Diagonalizing with lowered threshold

     Davidson diagonalization with overlap

---- Real-time Memory Report at c_bands before calling an iterative solver
           628 MiB given to the printing process from OS
             0 MiB allocation reported by mallinfo(arena+hblkhd)
        113088 MiB available memory on the node where the printing process lives
------------------
     ethr =  1.70E-08,  avg # of iterations =  2.0

     negative rho (up, down):  3.787E-03 0.000E+00

     total cpu time spent up to now is     1838.9 secs

     total energy              =  -22295.28245312 Ry
     estimated scf accuracy    <       0.00017087 Ry

     iteration #  2     ecut=    40.00 Ry     beta= 0.40
     Davidson diagonalization with overlap

---- Real-time Memory Report at c_bands before calling an iterative solver
           628 MiB given to the printing process from OS
             0 MiB allocation reported by mallinfo(arena+hblkhd)
        113064 MiB available memory on the node where the printing process lives
------------------
     ethr =  1.71E-08,  avg # of iterations =  3.0

     negative rho (up, down):  3.788E-03 0.000E+00

     total cpu time spent up to now is     1921.2 secs

     total energy              =  -22295.28243373 Ry
     estimated scf accuracy    <       0.00020360 Ry

     iteration #  3     ecut=    40.00 Ry     beta= 0.40
     Davidson diagonalization with overlap

---- Real-time Memory Report at c_bands before calling an iterative solver
           628 MiB given to the printing process from OS
             0 MiB allocation reported by mallinfo(arena+hblkhd)
        113049 MiB available memory on the node where the printing process lives
------------------
     ethr =  1.71E-08,  avg # of iterations =  2.0

     negative rho (up, down):  3.788E-03 0.000E+00

     total cpu time spent up to now is     2000.7 secs

     total energy              =  -22295.28244317 Ry
     estimated scf accuracy    <       0.00041383 Ry

     iteration #  4     ecut=    40.00 Ry     beta= 0.40
     Davidson diagonalization with overlap

---- Real-time Memory Report at c_bands before calling an iterative solver
           628 MiB given to the printing process from OS
             0 MiB allocation reported by mallinfo(arena+hblkhd)
        113015 MiB available memory on the node where the printing process lives
------------------
     ethr =  1.71E-08,  avg # of iterations =  1.8

     negative rho (up, down):  3.788E-03 0.000E+00

     total cpu time spent up to now is     2076.8 secs

     total energy              =  -22295.28247130 Ry
     estimated scf accuracy    <       0.00003993 Ry

     iteration #  5     ecut=    40.00 Ry     beta= 0.40
     Davidson diagonalization with overlap

---- Real-time Memory Report at c_bands before calling an iterative solver
           628 MiB given to the printing process from OS
             0 MiB allocation reported by mallinfo(arena+hblkhd)
        113005 MiB available memory on the node where the printing process lives
------------------
     ethr =  4.00E-09,  avg # of iterations =  2.0

     negative rho (up, down):  3.789E-03 0.000E+00

     total cpu time spent up to now is     2156.7 secs

     total energy              =  -22295.28247628 Ry
     estimated scf accuracy    <       0.00000248 Ry

     iteration #  6     ecut=    40.00 Ry     beta= 0.40
     Davidson diagonalization with overlap

---- Real-time Memory Report at c_bands before calling an iterative solver
           628 MiB given to the printing process from OS
             0 MiB allocation reported by mallinfo(arena+hblkhd)
        112722 MiB available memory on the node where the printing process lives
------------------
