[Molden Format]
[Title]
 Molden file created by orca_2mkl for BaseName=water_3

[Atoms] AU
O    1   8          1.7899995836        -0.0656786752        -0.1158313925 
H    2   1          3.6143516555        -0.1158602641        -0.2043391641 
H    3   1          1.2777770622        -0.9307727604        -1.6416108348 
[GTO]
  1 0
s   5 1.0 
     2266.1767785000        -1.2615859742
      340.8701019100        -2.2748500410
       77.3631351670        -3.3479623295
       21.4796449400        -3.3299980531
        6.6589433124        -1.3203828288
s   1 1.0 
        0.8097597567         0.6083832301
s   1 1.0 
        0.2553077223         0.2559811911
p   3 1.0 
       17.7215043170         3.2460107647
        3.8635505440         2.5734959178
        1.0480920883         1.1208372892
p   1 1.0 
        0.2764154441         0.2856886381
d   1 1.0 
        1.2000000000         3.9222679946

  2 0
s   3 1.0 
       13.0107010000         0.1634903809
        1.9622572000         0.2773515510
        0.4445379600         0.3157501452
s   1 1.0 
        0.1219496200         0.1470772262
p   1 1.0 
        0.8000000000         1.0784563492

  3 0
s   3 1.0 
       13.0107010000         0.1634903809
        1.9622572000         0.2773515510
        0.4445379600         0.3157501452
s   1 1.0 
        0.1219496200         0.1470772262
p   1 1.0 
        0.8000000000         1.0784563492

[5D]
[7F]
[9G]
[MO]
 Sym=     1a
 Ene= -1.91161593289720E+01
 Spin= Alpha
 Occup= 2.000000
  1       0.988806324967
  2      -0.039512513739
  3       0.014008072990
  4      -0.001783245384
  5       0.001243866005
  6       0.002191070798
  7       0.000052091345
  8      -0.000034964634
  9      -0.000057422235
 10      -0.000056221489
 11      -0.000400121016
 12      -0.000825428737
 13      -0.000888891393
 14      -0.000228101775
 15       0.002375554470
 16      -0.002330353698
 17      -0.003238772114
 18       0.000105574525
 19       0.000185800211
 20       0.002377765580
 21      -0.002327432419
 22       0.000877018014
 23       0.001541784069
 24       0.002719595452
 Sym=     1a
 Ene= -9.76144721315621E-01
 Spin= Alpha
 Occup= 2.000000
  1       0.276376585292
  2       0.551846562764
  3       0.258589952722
  4       0.070329157445
  5      -0.049057451743
  6      -0.086514897315
  7      -0.000039126559
  8       0.000033644218
  9       0.000078081466
 10       0.000780437489
 11       0.000169974157
 12       0.004527364463
 13       0.004068581417
 14       0.000098724715
 15       0.204516225606
 16       0.014182700738
 17      -0.034499117564
 18      -0.002785999208
 19      -0.004911017073
 20       0.204511508111
 21       0.014201384610
 22       0.016821695832
 23       0.015117556047
 24       0.026659674799
 Sym=     1a
 Ene= -5.08035245276962E-01
 Spin= Alpha
 Occup= 2.000000
  1      -0.000006268155
  2      -0.000017932928
  3      -0.000009519967
  4       0.412356160106
  5       0.143823098574
  6       0.253626298511
  7       0.166942473393
  8       0.058237874911
  9       0.102678353414
 10      -0.014281145231
 11      -0.006699850915
 12      -0.009351555020
 13       0.013549032339
 14      -0.003806696257
 15       0.327441489690
 16       0.108441605933
 17      -0.026634804734
 18       0.006539081667
 19       0.011532151500
 20      -0.327448697102
 21      -0.108431733879
 22       0.003616528069
 23      -0.014565153724
 24      -0.025686792732
 Sym=     1a
 Ene= -3.64383102305520E-01
 Spin= Alpha
 Occup= 2.000000
  1      -0.111462774908
  2      -0.219892059757
  3      -0.370655589209
  4       0.314957543404
  5      -0.219663552264
  6      -0.387479109710
  7       0.196820664360
  8      -0.137279319229
  9      -0.242167257399
 10       0.004758051882
 11      -0.012763270019
 12       0.009688918742
 13       0.003351959147
 14      -0.007241453076
 15       0.201846028207
 16       0.066834169126
 17      -0.012793146906
 18      -0.012438177146
 19      -0.021936396158
 20       0.201846275176
 21       0.066848110049
 22       0.028039890355
 23       0.001803729087
 24       0.003178143258
 Sym=     1a
 Ene= -2.88118143175529E-01
 Spin= Alpha
 Occup= 2.000000
  1      -0.000009142478
  2      -0.000023795278
  3       0.000005513556
  4       0.000019960630
  5      -0.555111178879
  6       0.314727909955
  7       0.000002777529
  8      -0.426666483576
  9       0.241877193143
 10      -0.011875956553
 11       0.005573063371
 12       0.008206269083
 13      -0.006849673545
 14      -0.009825832812
 15       0.000020246018
 16       0.000018678611
 17      -0.000000398010
 18      -0.026410147510
 19       0.014972489260
 20      -0.000023205133
 21      -0.000026714091
 22       0.000000681312
 23      -0.026409045775
 24       0.014970627620
 Sym=     1a
 Ene= 4.77154600967725E-02
 Spin= Alpha
 Occup= 0.000000
  1       0.102120300251
  2       0.164754685891
  3       0.963104960641
  4       0.142638452373
  5      -0.099499095476
  6      -0.175499701661
  7       0.198738381852
  8      -0.138629035874
  9      -0.244501719100
 10       0.002348778827
 11      -0.004730433419
 12       0.006826699464
 13       0.004100785601
 14      -0.002681739493
 15      -0.111859310969
 16      -0.825669062470
 17      -0.001134445236
 18      -0.001283214406
 19      -0.002258625141
 20      -0.111868719778
 21      -0.825687540211
 22       0.002823027247
 23       0.000104382479
 24       0.000181154199
 Sym=     1a
 Ene= 1.26635833899141E-01
 Spin= Alpha
 Occup= 0.000000
  1       0.000000217328
  2       0.000008111541
  3      -0.000045820953
  4      -0.301664874384
  5      -0.105201036951
  6      -0.185560344357
  7      -0.495507734710
  8      -0.172807924568
  9      -0.304806176232
 10       0.005400294266
 11       0.002531748090
 12       0.003538340433
 13      -0.005125767354
 14       0.001442753881
 15       0.104219556876
 16       1.300162175414
 17       0.003135067019
 18      -0.001728441605
 19      -0.003053627769
 20      -0.104238988385
 21      -1.300098933785
 22      -0.002262834864
 23       0.002035313510
 24       0.003587996599
 Sym=     1a
 Ene= 5.58333300058886E-01
 Spin= Alpha
 Occup= 0.000000
  1      -0.000021209922
  2      -0.000094691326
  3       0.000139594573
  4       0.240399768165
  5       0.083903512943
  6       0.147940379698
  7       0.306213631495
  8       0.106751486789
  9       0.188342803845
 10       0.062750952413
 11       0.029458050336
 12       0.041086573011
 13      -0.059509181405
 14       0.016696326895
 15      -0.961510303581
 16       0.843901263562
 17      -0.098355892325
 18       0.031108524618
 19       0.054876866713
 20       0.961797544109
 21      -0.844172058765
 22       0.026644130062
 23      -0.056131330987
 24      -0.099002404291
 Sym=     1a
 Ene= 6.23837600292823E-01
 Spin= Alpha
 Occup= 0.000000
  1       0.105785464359
  2       0.392594802189
  3      -0.444136138326
  4       0.223582385836
  5      -0.155888981213
  6      -0.275014185582
  7      -0.008234245291
  8       0.005810542140
  9       0.010321970822
 10      -0.000979084685
 11      -0.037483791981
 12      -0.053861635099
 13      -0.062753089609
 14      -0.021253666363
 15      -0.836837657849
 16       0.638524414078
 17      -0.197577564077
 18      -0.038659734029
 19      -0.068171646089
 20      -0.836466399984
 21       0.638280351285
 22       0.139749240914
 23       0.078970744790
 24       0.139277547730
 Sym=     1a
 Ene= 9.20658407825123E-01
 Spin= Alpha
 Occup= 0.000000
  1       0.143212445125
  2       0.613443507345
  3      -0.124664568150
  4      -0.447921656863
  5       0.317489345082
  6       0.547714068451
  7       0.663838748764
  8      -0.468128142450
  9      -0.812703288103
 10       0.001701685280
 11      -0.011502842580
 12      -0.005468348814
 13      -0.009469911991
 14      -0.006518809669
 15      -0.397049401111
 16       0.012032614112
 17       0.099291857799
 18      -0.047841439546
 19      -0.084108548597
 20      -0.396826703405
 21       0.012562994857
 22       0.058203502456
 23      -0.062140143291
 24      -0.109307373882
 Sym=     1a
 Ene= 9.23615301145097E-01
 Spin= Alpha
 Occup= 0.000000
  1      -0.000853121024
  2      -0.003537802765
  3       0.000229672707
  4       0.002655662065
  5       0.836746087954
  6      -0.479119900593
  7      -0.003923391051
  8      -0.883684867954
  9       0.508188333699
 10       0.001585468011
 11      -0.000671428413
 12      -0.001069168805
 13       0.000996002520
 14       0.001346515898
 15       0.002579308800
 16      -0.000203436879
 17      -0.000577520023
 18      -0.018948709109
 19       0.011494767549
 20       0.002683423464
 21       0.000206203462
 22      -0.000373796488
 23      -0.018844526207
 24       0.011682874723
 Sym=     1a
 Ene= 1.01015156450236E+00
 Spin= Alpha
 Occup= 0.000000
  1      -0.000021691279
  2      -0.000251691824
  3       0.000722344234
  4       0.634490960836
  5       0.221647711749
  6       0.390460577251
  7      -1.416954987885
  8      -0.494698303650
  9      -0.872029958740
 10       0.013511757146
 11       0.006309497117
 12       0.008835837298
 13      -0.012824128242
 14       0.003578810162
 15       0.343929518689
 16       0.812872079107
 17      -0.253161812264
 18      -0.012988203915
 19      -0.022920224125
 20      -0.344480069320
 21      -0.813125626805
 22      -0.109067405562
 23      -0.113501618117
 24      -0.200149359938
 Sym=     1a
 Ene= 1.09832692192237E+00
 Spin= Alpha
 Occup= 0.000000
  1      -0.245217593184
  2      -1.543455251513
  3       2.761454941854
  4      -0.057782292688
  5       0.040283525611
  6       0.070671079750
  7       0.366275681014
  8      -0.255238250700
  9      -0.449789969165
 10       0.010821474349
 11      -0.052983026383
 12      -0.008818039930
 13      -0.029324060713
 14      -0.030041610411
 15      -0.524806019884
 16      -0.506886152429
 17       0.147998672863
 18      -0.135363041224
 19      -0.238773508477
 20      -0.524645174791
 21      -0.506361583455
 22       0.209539333763
 23      -0.113913873843
 24      -0.200835311135
 Sym=     1a
 Ene= 1.35131620891689E+00
 Spin= Alpha
 Occup= 0.000000
  1       0.000002161738
  2      -0.000004571864
  3       0.000035301179
  4      -0.000007232104
  5      -0.000003438518
  6      -0.000005690698
  7       0.000066202326
  8      -0.000024246883
  9      -0.000035612698
 10      -0.074475625184
 11      -0.069877135854
 12       0.051446207509
 13      -0.042990406080
 14       0.123291570602
 15      -0.000057176926
 16      -0.000002816070
 17      -0.000002248483
 18       0.581076996159
 19      -0.329385852317
 20      -0.000036398391
 21       0.000018708136
 22      -0.000049337948
 23      -0.581052089516
 24       0.329471626851
 Sym=     1a
 Ene= 1.39891671872741E+00
 Spin= Alpha
 Occup= 0.000000
  1       0.083889238819
  2       0.695858354035
  3      -1.672248834881
  4       0.056031842540
  5      -0.039112377989
  6      -0.068924325841
  7      -0.688273285116
  8       0.480133958647
  9       0.846745390699
 10       0.049955743693
 11      -0.129826333961
 12       0.107266364568
 13       0.041824768192
 14      -0.073599000145
 15       0.735066568146
 16       0.183343219963
 17      -0.115463351293
 18      -0.299621410723
 19      -0.528542640859
 20       0.735071878296
 21       0.183321751660
 22       0.611281008736
 23      -0.046255010198
 24      -0.081438305426
 Sym=     1a
 Ene= 1.54565720822217E+00
 Spin= Alpha
 Occup= 0.000000
  1       0.000002260947
  2       0.000008254492
  3      -0.000005320969
  4      -0.000002422326
  5      -0.000153757492
  6       0.000085067576
  7      -0.000002690877
  8       0.504481523229
  9      -0.286048490909
 10      -0.126731922139
 11       0.059483244571
 12       0.087570626741
 13      -0.073170641615
 14      -0.104908013378
 15      -0.000001146071
 16       0.000006367049
 17      -0.000001603857
 18      -0.637365432906
 19       0.361398346526
 20      -0.000011291318
 21       0.000001641809
 22      -0.000011771028
 23      -0.637361946788
 24       0.361377438519
 Sym=     1a
 Ene= 1.78991193106850E+00
 Spin= Alpha
 Occup= 0.000000
  1      -0.000004120293
  2      -0.000022484855
  3       0.000101709999
  4      -0.006931919902
  5      -0.002415185257
  6      -0.004262704211
  7       0.662161472513
  8       0.230907458071
  9       0.407261131456
 10       0.018223097218
 11       0.008555485366
 12       0.011938761178
 13      -0.017297604435
 14       0.004839462897
 15      -0.337670470467
 16      -0.091825271990
 17       0.018515003266
 18      -0.401869699218
 19      -0.708799309508
 20       0.337608226723
 21       0.091785421800
 22      -0.762045924356
 23       0.142546973420
 24       0.251420357239
 Sym=     1a
 Ene= 2.20179246394940E+00
 Spin= Alpha
 Occup= 0.000000
  1       0.000067269092
  2       0.000299540757
  3       0.000430792396
  4      -0.593436534772
  5      -0.207147045066
  6      -0.365341165586
  7      -0.103519766535
  8      -0.036175745494
  9      -0.063813793826
 10      -0.104639185033
 11      -0.049117245455
 12      -0.068590911499
 13       0.099138560838
 14      -0.027841146149
 15       0.197254374409
 16       0.336624261049
 17      -0.861443268165
 18       0.014791744796
 19       0.026101544197
 20      -0.197670917181
 21      -0.336862926365
 22      -0.259151844065
 23      -0.405929220368
 24      -0.715956109597
 Sym=     1a
 Ene= 2.24901398006532E+00
 Spin= Alpha
 Occup= 0.000000
  1      -0.149231676244
  2      -0.729067056133
  3      -0.703768942489
  4      -0.339314778082
  5       0.236356187613
  6       0.416837924507
  7      -0.127320822433
  8       0.088754985782
  9       0.156582481439
 10       0.023890758853
 11       0.053924780021
 12       0.201492199302
 13       0.199656046521
 14       0.030569087009
 15       0.406403926168
 16       0.206328610152
 17      -0.876964058073
 18       0.005804525170
 19       0.010232885651
 20       0.406172331653
 21       0.206002299253
 22       0.280934001318
 23       0.409343725028
 24       0.721903384473
 Sym=     1a
 Ene= 2.96401373777487E+00
 Spin= Alpha
 Occup= 0.000000
  1      -0.000008667358
  2      -0.000024241387
  3      -0.000124201763
  4      -0.000015910575
  5      -0.014293957676
  6       0.008139942228
  7      -0.000036170315
  8       0.261240625700
  9      -0.148004843298
 10       0.624245545571
 11      -0.292902865156
 12      -0.431439822773
 13       0.360442331898
 14       0.516923698673
 15       0.000063036004
 16       0.000008713023
 17      -0.000052372520
 18      -0.357860186407
 19       0.202791906837
 20       0.000097587974
 21       0.000021719803
 22       0.000093789583
 23      -0.357717963467
 24       0.202871014039
 Sym=     1a
 Ene= 2.99988233503499E+00
 Spin= Alpha
 Occup= 0.000000
  1      -0.000008379578
  2      -0.000033791570
  3      -0.000061292374
  4      -0.000042662065
  5      -0.000014246392
  6       0.000016723937
  7      -0.000034402886
  8       0.000013689044
  9      -0.000032984016
 10       0.451287506612
 11       0.423370791154
 12      -0.311751778952
 13       0.260462231699
 14      -0.746920817888
 15       0.000079694337
 16       0.000022317641
 17      -0.000081929624
 18       0.330253934655
 19      -0.187180333938
 20       0.000003173482
 21      -0.000002879705
 22      -0.000040833833
 23      -0.330246175191
 24       0.187281794038
 Sym=     1a
 Ene= 3.18785663540484E+00
 Spin= Alpha
 Occup= 0.000000
  1       0.003170861811
  2       0.095781276459
  3      -0.444446888664
  4       0.002639900312
  5      -0.001805961251
  6      -0.003208051884
  7      -0.290248683333
  8       0.202440006814
  9       0.357163857592
 10      -0.270367871136
 11       0.849027988263
 12      -0.390903235357
 13       0.000285623844
 14       0.481159309524
 15       0.256051534549
 16       0.045814433881
 17      -0.088011949804
 18      -0.234489721488
 19      -0.413785731140
 20       0.256121001845
 21       0.045831510922
 22       0.477729206296
 23      -0.037199588356
 24      -0.065679270088
 Sym=     1a
 Ene= 3.48689507198084E+00
 Spin= Alpha
 Occup= 0.000000
  1       0.073527352386
  2       0.124104773344
  3       1.924218589160
  4       0.217544072019
  5      -0.151733303540
  6      -0.267620463382
  7       0.539792722948
  8      -0.376553734055
  9      -0.664147254809
 10       0.060920793056
 11       0.318745798705
 12       0.746081065204
 13       0.787460394023
 14       0.180688935294
 15      -1.145571112021
 16      -0.237843895125
 17       0.788592811960
 18      -0.018026243214
 19      -0.031812361421
 20      -1.145604823439
 21      -0.237864828767
 22      -0.228412062709
 23      -0.372764061733
 24      -0.657402796563
 Sym=     1a
 Ene= 3.82385576200858E+00
 Spin= Alpha
 Occup= 0.000000
  1       0.000002332332
  2       0.000021686306
  3       0.000171068161
  4       0.377025903266
  5       0.131465775671
  6       0.231867972012
  7       0.900929324537
  8       0.314155539234
  9       0.554081035728
 10      -0.825330697688
 11      -0.387343203589
 12      -0.540303243726
 13       0.782934428378
 14      -0.219658295831
 15      -1.035575251838
 16      -0.272184029265
 17       0.801708274389
 18      -0.034858957647
 19      -0.061511727771
 20       1.035351392143
 21       0.272150196682
 22       0.200522944558
 23       0.384377831657
 24       0.677950012495
