
     Program PWSCF v.7.3.1 starts on 26Mar2025 at 22:41: 9 

     This program is part of the open-source Quantum ESPRESSO suite
     for quantum simulation of materials; please cite
         "P. Giannozzi et al., J. Phys.:Condens. Matter 21 395502 (2009);
         "P. Giannozzi et al., J. Phys.:Condens. Matter 29 465901 (2017);
         "P. Giannozzi et al., J. Chem. Phys. 152 154105 (2020);
          URL http://www.quantum-espresso.org", 
     in publications or presentations arising from this work. More details at
     http://www.quantum-espresso.org/quote

     Parallel version (MPI), running on    33 processors

     MPI processes distributed on     1 nodes
     24526 MiB available memory on the printing compute node when the environment starts

     Waiting for input...
     Reading input from standard input

     Current dimensions of program PWSCF are:
     Max number of different atomic species (ntypx) = 10
     Max number of k-points (npk) =  40000
     Max angular momentum in pseudopotentials (lmaxx) =  4
     Found identity + ( -0.5000  0.0000  0.0000) symmetry
     This is a supercell, fractional translations are disabled

     R & G space division:  proc/nbgrp/npool/nimage =      33
     Subspace diagonalization in iterative solution of the eigenvalue problem:
     one sub-group per band group will be used
     custom distributed-memory algorithm (size of sub-group:  5*  5 procs)


     Parallelization info
     --------------------
     sticks:   dense  smooth     PW     G-vecs:    dense   smooth      PW
     Min         228     130     36                36393    15714    2270
     Max         230     131     37                36401    15723    2280
     Sum        7555    4303   1189              1201061   518755   75035

     Using Slab Decomposition



     bravais-lattice index     =            0
     lattice parameter (alat)  =      19.7617  a.u.
     unit-cell volume          =   15176.5939 (a.u.)^3
     number of atoms/cell      =           48
     number of atomic types    =            1
     number of electrons       =       960.00
     number of Kohn-Sham states=          576
     kinetic-energy cutoff     =      40.0000  Ry
     charge density cutoff     =     280.0000  Ry
     scf convergence threshold =      1.0E-05
     mixing beta               =       0.2000
     number of iterations used =            8  plain     mixing
     Exchange-correlation= SLA  PW   PBE  PBE
                           (   1   4   3   4   0   0   0)

     celldm(1)=  19.761696  celldm(2)=   0.000000  celldm(3)=   0.000000
     celldm(4)=   0.000000  celldm(5)=   0.000000  celldm(6)=   0.000000

     crystal axes: (cart. coord. in units of alat)
               a(1) = (   1.000000   0.000000   0.000000 )  
               a(2) = (  -0.500000   0.866025   0.000000 )  
               a(3) = (   0.000000   0.000000   2.270759 )  

     reciprocal axes: (cart. coord. in units 2 pi/alat)
               b(1) = (  1.000000  0.577350 -0.000000 )  
               b(2) = (  0.000000  1.154701  0.000000 )  
               b(3) = (  0.000000 -0.000000  0.440381 )  


     PseudoPot. # 1 for Zn read from file:
     /home/ys/qepseudo/SSSP_1.3.0_PBE_efficiency/Zn_pbe_v1.uspp.F.UPF
     MD5 check sum: df62231357ef9e81f77b2b3087fa5675
     Pseudo is Ultrasoft, Zval = 20.0
     Generated by new atomic code, or converted to UPF format
     Using radial grid of  943 points,  6 beta functions with: 
                l(1) =   0
                l(2) =   0
                l(3) =   1
                l(4) =   1
                l(5) =   2
                l(6) =   2
     Q(r) pseudized with  8 coefficients,  rinner =    1.100   1.100   1.100
                                                       1.100   1.100

     atomic species   valence    mass     pseudopotential
     Zn               20.00    65.38000     Zn( 1.00)

     No symmetry found


                                    s                        frac. trans.

      isym =  1     identity                                     

 cryst.   s( 1) = (     1          0          0      )
                  (     0          1          0      )
                  (     0          0          1      )

 cart.    s( 1) = (  1.0000000  0.0000000  0.0000000 )
                  (  0.0000000  1.0000000  0.0000000 )
                  (  0.0000000  0.0000000  1.0000000 )


   Cartesian axes

     site n.     atom                  positions (alat units)
         1        Zn     tau(   1) = (   0.0000000   0.1443375   0.1164998  )
         2        Zn     tau(   2) = (   0.5000000   0.1443375   0.1164998  )
         3        Zn     tau(   3) = (   0.0000000   0.1443375   0.5824993  )
         4        Zn     tau(   4) = (   0.5000000   0.1443375   0.5824993  )
         5        Zn     tau(   5) = (  -0.1250000   0.3608439   0.1164998  )
         6        Zn     tau(   6) = (   0.3750000   0.3608439   0.1164998  )
         7        Zn     tau(   7) = (  -0.1250000   0.3608439   0.5824993  )
         8        Zn     tau(   8) = (   0.3750000   0.3608439   0.5824993  )
         9        Zn     tau(   9) = (  -0.2500000   0.5773502   0.1164998  )
        10        Zn     tau(  10) = (   0.2500000   0.5773502   0.1164998  )
        11        Zn     tau(  11) = (  -0.2500000   0.5773502   0.5824993  )
        12        Zn     tau(  12) = (   0.2500000   0.5773502   0.5824993  )
        13        Zn     tau(  13) = (  -0.3750000   0.7938567   0.1164998  )
        14        Zn     tau(  14) = (   0.1250000   0.7938567   0.1164998  )
        15        Zn     tau(  15) = (  -0.3750000   0.7938567   0.5824993  )
        16        Zn     tau(  16) = (   0.1250000   0.7938567   0.5824993  )
        17        Zn     tau(  17) = (   0.2500000   0.1443375   0.1164998  )
        18        Zn     tau(  18) = (   0.7500000   0.1443375   0.1164998  )
        19        Zn     tau(  19) = (   0.2500000   0.1443375   0.5824993  )
        20        Zn     tau(  20) = (   0.7500000   0.1443375   0.5824993  )
        21        Zn     tau(  21) = (   0.1250000   0.3608439   0.1164998  )
        22        Zn     tau(  22) = (   0.6250000   0.3608439   0.1164998  )
        23        Zn     tau(  23) = (   0.1250000   0.3608439   0.5824993  )
        24        Zn     tau(  24) = (   0.6250000   0.3608439   0.5824993  )
        25        Zn     tau(  25) = (   0.0000000   0.5773502   0.1164998  )
        26        Zn     tau(  26) = (   0.5000000   0.5773502   0.1164998  )
        27        Zn     tau(  27) = (   0.0000000   0.5773502   0.5824993  )
        28        Zn     tau(  28) = (   0.5000000   0.5773502   0.5824993  )
        29        Zn     tau(  29) = (  -0.1250000   0.7938567   0.1164998  )
        30        Zn     tau(  30) = (   0.3750000   0.7938567   0.1164998  )
        31        Zn     tau(  31) = (  -0.1250000   0.7938567   0.5824993  )
        32        Zn     tau(  32) = (   0.3750000   0.7938567   0.5824993  )
        33        Zn     tau(  33) = (   0.1250000   0.0721688   0.3494996  )
        34        Zn     tau(  34) = (   0.6250000   0.0721688   0.3494996  )
        35        Zn     tau(  35) = (   0.0000000   0.2886752   0.3494996  )
        36        Zn     tau(  36) = (   0.5000000   0.2886752   0.3494996  )
        37        Zn     tau(  37) = (  -0.1250000   0.5051815   0.3494996  )
        38        Zn     tau(  38) = (   0.3750000   0.5051815   0.3494996  )
        39        Zn     tau(  39) = (  -0.2500000   0.7216879   0.3494996  )
        40        Zn     tau(  40) = (   0.2500000   0.7216879   0.3494996  )
        41        Zn     tau(  41) = (   0.3750000   0.0721688   0.3494996  )
        42        Zn     tau(  42) = (   0.8750000   0.0721688   0.3494996  )
        43        Zn     tau(  43) = (   0.2500000   0.2886752   0.3494996  )
        44        Zn     tau(  44) = (   0.7500000   0.2886752   0.3494996  )
        45        Zn     tau(  45) = (   0.1250000   0.5051815   0.3494996  )
        46        Zn     tau(  46) = (   0.6250000   0.5051815   0.3494996  )
        47        Zn     tau(  47) = (   0.0000000   0.7216879   0.3494996  )
        48        Zn     tau(  48) = (   0.5000000   0.7216879   0.3494996  )

   Crystallographic axes

     site n.     atom                  positions (cryst. coord.)
         1        Zn     tau(   1) = (  0.0833333  0.1666666  0.0513044  )
         2        Zn     tau(   2) = (  0.5833333  0.1666666  0.0513044  )
         3        Zn     tau(   3) = (  0.0833333  0.1666666  0.2565219  )
         4        Zn     tau(   4) = (  0.5833333  0.1666666  0.2565219  )
         5        Zn     tau(   5) = (  0.0833333  0.4166666  0.0513044  )
         6        Zn     tau(   6) = (  0.5833333  0.4166666  0.0513044  )
         7        Zn     tau(   7) = (  0.0833333  0.4166666  0.2565219  )
         8        Zn     tau(   8) = (  0.5833333  0.4166666  0.2565219  )
         9        Zn     tau(   9) = (  0.0833333  0.6666666  0.0513044  )
        10        Zn     tau(  10) = (  0.5833333  0.6666666  0.0513044  )
        11        Zn     tau(  11) = (  0.0833333  0.6666666  0.2565219  )
        12        Zn     tau(  12) = (  0.5833333  0.6666666  0.2565219  )
        13        Zn     tau(  13) = (  0.0833333  0.9166667  0.0513044  )
        14        Zn     tau(  14) = (  0.5833334  0.9166667  0.0513044  )
        15        Zn     tau(  15) = (  0.0833333  0.9166667  0.2565219  )
        16        Zn     tau(  16) = (  0.5833334  0.9166667  0.2565219  )
        17        Zn     tau(  17) = (  0.3333333  0.1666666  0.0513044  )
        18        Zn     tau(  18) = (  0.8333334  0.1666666  0.0513044  )
        19        Zn     tau(  19) = (  0.3333333  0.1666666  0.2565219  )
        20        Zn     tau(  20) = (  0.8333334  0.1666666  0.2565219  )
        21        Zn     tau(  21) = (  0.3333333  0.4166666  0.0513044  )
        22        Zn     tau(  22) = (  0.8333333  0.4166666  0.0513044  )
        23        Zn     tau(  23) = (  0.3333333  0.4166666  0.2565219  )
        24        Zn     tau(  24) = (  0.8333333  0.4166666  0.2565219  )
        25        Zn     tau(  25) = (  0.3333333  0.6666666  0.0513044  )
        26        Zn     tau(  26) = (  0.8333333  0.6666666  0.0513044  )
        27        Zn     tau(  27) = (  0.3333333  0.6666666  0.2565219  )
        28        Zn     tau(  28) = (  0.8333333  0.6666666  0.2565219  )
        29        Zn     tau(  29) = (  0.3333334  0.9166667  0.0513044  )
        30        Zn     tau(  30) = (  0.8333334  0.9166667  0.0513044  )
        31        Zn     tau(  31) = (  0.3333334  0.9166667  0.2565219  )
        32        Zn     tau(  32) = (  0.8333334  0.9166667  0.2565219  )
        33        Zn     tau(  33) = (  0.1666667  0.0833334  0.1539131  )
        34        Zn     tau(  34) = (  0.6666667  0.0833334  0.1539131  )
        35        Zn     tau(  35) = (  0.1666667  0.3333334  0.1539131  )
        36        Zn     tau(  36) = (  0.6666667  0.3333334  0.1539131  )
        37        Zn     tau(  37) = (  0.1666667  0.5833334  0.1539131  )
        38        Zn     tau(  38) = (  0.6666667  0.5833334  0.1539131  )
        39        Zn     tau(  39) = (  0.1666667  0.8333334  0.1539131  )
        40        Zn     tau(  40) = (  0.6666667  0.8333334  0.1539131  )
        41        Zn     tau(  41) = (  0.4166667  0.0833334  0.1539131  )
        42        Zn     tau(  42) = (  0.9166667  0.0833334  0.1539131  )
        43        Zn     tau(  43) = (  0.4166667  0.3333334  0.1539131  )
        44        Zn     tau(  44) = (  0.9166667  0.3333334  0.1539131  )
        45        Zn     tau(  45) = (  0.4166667  0.5833334  0.1539131  )
        46        Zn     tau(  46) = (  0.9166667  0.5833334  0.1539131  )
        47        Zn     tau(  47) = (  0.4166667  0.8333334  0.1539131  )
        48        Zn     tau(  48) = (  0.9166667  0.8333334  0.1539131  )

     number of k points=    10  Marzari-Vanderbilt smearing, width (Ry)=  0.0200
                       cart. coord. in units 2pi/alat
        k(    1) = (   0.0000000   0.0000000   0.0000000), wk =   0.1250000
        k(    2) = (   0.0000000   0.2886751   0.0000000), wk =   0.2500000
        k(    3) = (   0.0000000  -0.5773503   0.0000000), wk =   0.1250000
        k(    4) = (   0.2500000   0.1443376   0.0000000), wk =   0.2500000
        k(    5) = (   0.2500000   0.4330127   0.0000000), wk =   0.2500000
        k(    6) = (   0.2500000  -0.4330127   0.0000000), wk =   0.2500000
        k(    7) = (   0.2500000  -0.1443376   0.0000000), wk =   0.2500000
        k(    8) = (  -0.5000000  -0.2886751   0.0000000), wk =   0.1250000
        k(    9) = (  -0.5000000   0.0000000   0.0000000), wk =   0.2500000
        k(   10) = (  -0.5000000  -0.8660254   0.0000000), wk =   0.1250000

                       cryst. coord.
        k(    1) = (   0.0000000   0.0000000   0.0000000), wk =   0.1250000
        k(    2) = (   0.0000000   0.2500000   0.0000000), wk =   0.2500000
        k(    3) = (   0.0000000  -0.5000000   0.0000000), wk =   0.1250000
        k(    4) = (   0.2500000   0.0000000   0.0000000), wk =   0.2500000
        k(    5) = (   0.2500000   0.2500000   0.0000000), wk =   0.2500000
        k(    6) = (   0.2500000  -0.5000000   0.0000000), wk =   0.2500000
        k(    7) = (   0.2500000  -0.2500000   0.0000000), wk =   0.2500000
        k(    8) = (  -0.5000000   0.0000000   0.0000000), wk =   0.1250000
        k(    9) = (  -0.5000000   0.2500000   0.0000000), wk =   0.2500000
        k(   10) = (  -0.5000000  -0.5000000   0.0000000), wk =   0.1250000

     Dense  grid:  1201061 G-vectors     FFT dimensions: ( 108, 108, 240)

     Smooth grid:   518755 G-vectors     FFT dimensions: (  80,  80, 192)

     Dynamical RAM for                 wfc:      17.26 MB

     Dynamical RAM for     wfc (w. buffer):     189.88 MB

     Dynamical RAM for           str. fact:       0.56 MB

     Dynamical RAM for           local pot:       0.00 MB

     Dynamical RAM for          nlocal pot:      25.89 MB

     Dynamical RAM for                qrad:       1.34 MB

     Dynamical RAM for          rho,v,vnew:       3.80 MB

     Dynamical RAM for               rhoin:       1.27 MB

     Dynamical RAM for            rho*nmix:       8.89 MB

     Dynamical RAM for           G-vectors:       2.20 MB

     Dynamical RAM for          h,s,v(r/c):       2.42 MB

     Dynamical RAM for          <psi|beta>:       7.59 MB

     Dynamical RAM for                 psi:      34.52 MB

     Dynamical RAM for                hpsi:      34.52 MB

     Dynamical RAM for                spsi:      34.52 MB

     Dynamical RAM for      wfcinit/wfcrot:      46.32 MB

     Dynamical RAM for           addusdens:     129.95 MB

     Estimated static dynamical RAM per process >     229.61 MB

     Estimated max dynamical RAM per process >     368.45 MB

     Estimated total dynamical RAM >      11.87 GB

     Initial potential from superposition of free atoms

     starting charge     959.9932, renormalised to     960.0000

     negative rho (up, down):  4.194E-03 0.000E+00
     Starting wfcs are  624 randomized atomic wfcs

     total cpu time spent up to now is      118.2 secs

     Self-consistent Calculation

     iteration #  1     ecut=    40.00 Ry     beta= 0.20
     Davidson diagonalization with overlap

---- Real-time Memory Report at c_bands before calling an iterative solver
           298 MiB given to the printing process from OS
             0 MiB allocation reported by mallinfo(arena+hblkhd)
         16496 MiB available memory on the node where the printing process lives
------------------
     ethr =  1.00E-02,  avg # of iterations =  9.4

     Threshold (ethr) on eigenvalues was too large:
     Diagonalizing with lowered threshold

     Davidson diagonalization with overlap

---- Real-time Memory Report at c_bands before calling an iterative solver
           391 MiB given to the printing process from OS
             0 MiB allocation reported by mallinfo(arena+hblkhd)
         15364 MiB available memory on the node where the printing process lives
------------------
     ethr =  1.61E-04,  avg # of iterations = 11.2

     negative rho (up, down):  4.581E-03 0.000E+00

     total cpu time spent up to now is     1459.7 secs

     total energy              =  -22154.20142484 Ry
     estimated scf accuracy    <       1.57417206 Ry

     iteration #  2     ecut=    40.00 Ry     beta= 0.20
     Davidson diagonalization with overlap

---- Real-time Memory Report at c_bands before calling an iterative solver
           401 MiB given to the printing process from OS
             0 MiB allocation reported by mallinfo(arena+hblkhd)
         15263 MiB available memory on the node where the printing process lives
------------------
     ethr =  1.64E-04,  avg # of iterations =  2.7

     negative rho (up, down):  4.975E-03 0.000E+00

     total cpu time spent up to now is     2091.1 secs

     total energy              =  -22154.23380006 Ry
     estimated scf accuracy    <       0.33369001 Ry

     iteration #  3     ecut=    40.00 Ry     beta= 0.20
     Davidson diagonalization with overlap

---- Real-time Memory Report at c_bands before calling an iterative solver
           403 MiB given to the printing process from OS
             0 MiB allocation reported by mallinfo(arena+hblkhd)
         15248 MiB available memory on the node where the printing process lives
------------------
     c_bands:  1 eigenvalues not converged
     ethr =  3.48E-05,  avg # of iterations =  8.7

     negative rho (up, down):  6.437E-03 0.000E+00

     total cpu time spent up to now is     2882.0 secs

     total energy              =  -22154.25161385 Ry
     estimated scf accuracy    <       0.09255079 Ry

     iteration #  4     ecut=    40.00 Ry     beta= 0.20
     Davidson diagonalization with overlap

---- Real-time Memory Report at c_bands before calling an iterative solver
           404 MiB given to the printing process from OS
             0 MiB allocation reported by mallinfo(arena+hblkhd)
         15230 MiB available memory on the node where the printing process lives
------------------
     c_bands:  1 eigenvalues not converged
     ethr =  9.64E-06,  avg # of iterations = 10.0

     negative rho (up, down):  6.558E-03 0.000E+00

     total cpu time spent up to now is     3564.6 secs

     total energy              =  -22154.25453142 Ry
     estimated scf accuracy    <       0.00819400 Ry

     iteration #  5     ecut=    40.00 Ry     beta= 0.20
     Davidson diagonalization with overlap

---- Real-time Memory Report at c_bands before calling an iterative solver
           405 MiB given to the printing process from OS
             0 MiB allocation reported by mallinfo(arena+hblkhd)
         15217 MiB available memory on the node where the printing process lives
------------------
     ethr =  8.54E-07,  avg # of iterations =  7.8

     negative rho (up, down):  6.490E-03 0.000E+00

     total cpu time spent up to now is     4248.8 secs

     total energy              =  -22154.25521535 Ry
     estimated scf accuracy    <       0.00086620 Ry

     iteration #  6     ecut=    40.00 Ry     beta= 0.20
     Davidson diagonalization with overlap

---- Real-time Memory Report at c_bands before calling an iterative solver
           405 MiB given to the printing process from OS
             0 MiB allocation reported by mallinfo(arena+hblkhd)
         15202 MiB available memory on the node where the printing process lives
------------------
     ethr =  9.02E-08,  avg # of iterations =  2.0

     negative rho (up, down):  6.215E-03 0.000E+00

     total cpu time spent up to now is     4981.3 secs

     total energy              =  -22154.25525403 Ry
     estimated scf accuracy    <       0.00022508 Ry

     iteration #  7     ecut=    40.00 Ry     beta= 0.20
     Davidson diagonalization with overlap

---- Real-time Memory Report at c_bands before calling an iterative solver
           406 MiB given to the printing process from OS
             0 MiB allocation reported by mallinfo(arena+hblkhd)
         15182 MiB available memory on the node where the printing process lives
------------------
     ethr =  2.34E-08,  avg # of iterations =  2.0

     negative rho (up, down):  6.082E-03 0.000E+00

     total cpu time spent up to now is     5645.3 secs

     total energy              =  -22154.25528397 Ry
     estimated scf accuracy    <       0.00014839 Ry

     iteration #  8     ecut=    40.00 Ry     beta= 0.20
     Davidson diagonalization with overlap

---- Real-time Memory Report at c_bands before calling an iterative solver
           406 MiB given to the printing process from OS
             0 MiB allocation reported by mallinfo(arena+hblkhd)
         15166 MiB available memory on the node where the printing process lives
------------------
     ethr =  1.55E-08,  avg # of iterations =  1.0

     negative rho (up, down):  6.051E-03 0.000E+00

     total cpu time spent up to now is     6118.2 secs

     total energy              =  -22154.25532194 Ry
     estimated scf accuracy    <       0.00003189 Ry

     iteration #  9     ecut=    40.00 Ry     beta= 0.20
     Davidson diagonalization with overlap

---- Real-time Memory Report at c_bands before calling an iterative solver
           407 MiB given to the printing process from OS
             0 MiB allocation reported by mallinfo(arena+hblkhd)
         15148 MiB available memory on the node where the printing process lives
------------------
     ethr =  3.32E-09,  avg # of iterations =  2.0

     negative rho (up, down):  6.021E-03 0.000E+00

     total cpu time spent up to now is     6804.8 secs

     total energy              =  -22154.25532557 Ry
     estimated scf accuracy    <       0.00001219 Ry

     iteration # 10     ecut=    40.00 Ry     beta= 0.20
     Davidson diagonalization with overlap

---- Real-time Memory Report at c_bands before calling an iterative solver
           408 MiB given to the printing process from OS
             0 MiB allocation reported by mallinfo(arena+hblkhd)
         15130 MiB available memory on the node where the printing process lives
------------------
     ethr =  1.27E-09,  avg # of iterations =  2.0

     negative rho (up, down):  6.110E-03 0.000E+00

     total cpu time spent up to now is     7683.7 secs

     End of self-consistent calculation

          k = 0.0000 0.0000 0.0000 ( 64855 PWs)   bands (ev):

  -125.0690-125.0673-125.0673-125.0673-125.0672-125.0672-125.0672-125.0656
  -125.0655-125.0655-125.0655-125.0655-125.0655-125.0655-125.0655-125.0655
  -124.8644-124.8643-124.8626-124.8626-124.8626-124.8626-124.8626-124.8626
  -124.8626-124.8626-124.8626-124.8626-124.8626-124.8626-124.8609-124.8609
  -124.8609-124.8609-124.8609-124.8609-124.8609-124.8609-124.8609-124.8609
  -124.8609-124.8609-124.8608-124.8608-124.8608-124.8608-124.8608-124.8608
   -79.2354 -79.2354 -79.2354 -79.2288 -79.2288 -79.2288 -79.2288 -79.2287
   -79.2287 -79.2174 -79.2174 -79.2174 -79.2174 -79.2174 -79.2174 -79.2172
   -79.2154 -79.2154 -79.2154 -79.2154 -79.2154 -79.2154 -79.2153 -79.2153
   -79.2152 -79.2152 -79.2152 -79.2152 -79.2133 -79.2133 -79.2133 -79.2132
   -79.2132 -79.2132 -79.2132 -79.2132 -79.2132 -79.2088 -79.2088 -79.2088
   -79.2041 -79.2041 -79.2040 -79.2040 -79.2040 -79.2040 -79.1993 -79.1993
   -79.0275 -79.0275 -79.0275 -79.0274 -79.0274 -79.0274 -79.0210 -79.0208
   -79.0208 -79.0208 -79.0208 -79.0208 -79.0208 -79.0208 -79.0208 -79.0208
   -79.0208 -79.0208 -79.0208 -79.0208 -79.0191 -79.0190 -79.0190 -79.0190
   -79.0190 -79.0190 -79.0190 -79.0190 -79.0190 -79.0190 -79.0189 -79.0189
   -79.0172 -79.0171 -79.0171 -79.0171 -79.0171 -79.0171 -79.0171 -79.0171
   -79.0171 -79.0171 -79.0171 -79.0171 -79.0171 -79.0171 -79.0171 -79.0171
   -79.0171 -79.0170 -79.0095 -79.0095 -79.0095 -79.0095 -79.0095 -79.0095
   -79.0095 -79.0095 -79.0095 -79.0094 -79.0094 -79.0094 -79.0075 -79.0075
   -79.0075 -79.0075 -79.0075 -79.0075 -79.0074 -79.0074 -79.0074 -79.0074
   -79.0074 -79.0074 -79.0009 -79.0009 -79.0009 -79.0008 -79.0008 -79.0008
   -78.9962 -78.9962 -78.9962 -78.9962 -78.9962 -78.9962 -78.9961 -78.9961
   -78.9961 -78.9961 -78.9961 -78.9961 -78.9915 -78.9915 -78.9914 -78.9914
    -8.6221  -7.4000  -7.0924  -7.0685  -7.0685  -7.0685  -7.0685  -7.0685
    -7.0685  -6.9154  -6.9154  -6.9154  -6.7263  -6.7263  -6.7263  -6.6787
    -6.6787  -6.6787  -6.5896  -6.5896  -6.5896  -6.5896  -6.5896  -6.5896
    -6.5404  -6.5404  -6.5404  -6.5404  -6.5403  -6.5403  -6.5372  -6.5372
    -6.5372  -6.4798  -6.4798  -6.4798  -6.4798  -6.4798  -6.4798  -6.4332
    -6.4332  -6.4332  -6.4332  -6.4332  -6.4332  -6.3356  -6.3356  -6.3356
    -6.3356  -6.3356  -6.3356  -6.3341  -6.3341  -6.3341  -6.2742  -6.2742
    -6.2742  -6.2742  -6.2741  -6.2741  -6.2707  -6.2121  -6.2121  -6.2121
    -6.2121  -6.2121  -6.2121  -6.1723  -6.1723  -6.1723  -6.1723  -6.1723
    -6.1723  -6.1467  -6.1467  -6.1467  -6.1467  -6.1467  -6.1467  -6.1234
    -6.1234  -6.1232  -6.1232  -6.1232  -6.1232  -6.1232  -6.1232  -6.0982
    -6.0982  -6.0982  -6.0973  -6.0973  -6.0973  -6.0973  -6.0973  -6.0973
    -5.9951  -5.9951  -5.9951  -5.9951  -5.9951  -5.9951  -5.9173  -5.9173
    -5.8985  -5.8985  -5.8662  -5.8662  -5.8662  -5.8662  -5.8662  -5.8662
    -5.8643  -5.8643  -5.8642  -5.8642  -5.8642  -5.8642  -5.8331  -5.8331
    -5.8331  -5.7836  -5.7836  -5.7836  -5.7836  -5.7836  -5.7836  -5.7772
    -5.7772  -5.7772  -5.7772  -5.7772  -5.7772  -5.7768  -5.7768  -5.7768
    -5.7768  -5.7768  -5.7768  -5.7551  -5.7551  -5.7551  -5.7551  -5.7551
    -5.7551  -5.7461  -5.7461  -5.7461  -5.7461  -5.7461  -5.7461  -5.7293
    -5.7293  -5.7293  -5.7293  -5.7293  -5.7293  -5.7161  -5.7099  -5.7099
    -5.7098  -5.7098  -5.7098  -5.7098  -5.6978  -5.6978  -5.6978  -5.6117
    -5.6117  -5.5762  -5.5762  -5.5762  -5.5762  -5.5762  -5.5762  -5.5697
    -5.5697  -5.5696  -5.5696  -5.5696  -5.5696  -5.5464  -5.5464  -5.5464
    -5.5464  -5.5463  -5.5463  -5.5301  -5.5301  -5.5301  -5.5034  -5.5034
    -5.5033  -5.5033  -5.5033  -5.5033  -5.4947  -5.4947  -5.4947  -5.4947
    -5.4947  -5.4947  -5.4466  -5.4466  -5.4466  -5.4466  -5.4466  -5.4466
    -5.4346  -5.4346  -5.4346  -5.4342  -5.4342  -5.4342  -5.3979  -5.3979
    -5.3979  -5.3919  -5.3919  -5.3919  -5.3919  -5.3919  -5.3919  -5.3842
    -5.3842  -5.3630  -5.3630  -5.3204  -5.3204  -5.3204  -5.3204  -5.3204
    -5.3204  -5.2911  -5.2911  -5.2911  -5.2911  -5.2911  -5.2911  -5.2824
    -5.2824  -5.2824  -5.0723  -5.0723  -5.0723  -5.0722  -5.0722  -5.0722
    -4.3977  -4.3977  -4.3977  -4.3977  -4.3977  -4.3977  -3.4504  -2.1035
    -2.1035  -2.1035  -2.1035  -2.1035  -2.1035  -2.0202  -2.0202  -2.0202
    -2.0202  -2.0202  -2.0202  -0.8422  -0.8422  -0.8422  -0.7121  -0.6400
    -0.6400  -0.6400  -0.6400  -0.6400  -0.6400  -0.0844  -0.0844  -0.0844
     0.2453   0.2453   0.2453   1.5363   1.5363   1.5363   1.5363   1.5363
     1.5363   1.5808   1.5808   1.5808   1.5808   1.5808   1.5808   2.3091
     2.3091   2.3091   3.1080   3.3012   3.3012   3.3012   4.1413   4.1413
     4.1413   4.8836   4.8836   4.8836   4.8836   4.8836   4.8836   5.0754
     5.2674   5.4272   5.4272   5.4272   5.4272   5.4272   5.4272   5.4349
     5.4349   5.4349   5.4349   5.4349   5.4349   5.6054   5.6054   5.6054
     5.6054   5.6054   5.6054   6.2008   6.3995   6.5623   6.5623   6.5623
     6.8740   6.8740   6.8740   6.8740   6.8740   6.8740   7.0109   7.0109
     7.0109   7.0109   7.0109   7.0109   7.1034   7.1034   7.1034   7.1034
     7.1034   7.1034   7.1888   7.1888   7.1888   7.1888   7.1888   7.1888
     8.0397   8.0397   8.0397   8.0397   8.0397   8.0397   8.1449   8.1449
     8.1449   8.1449   8.1449   8.1449   8.1870   8.1870   8.1870   8.1870
     8.1870   8.1870   8.2084   8.3665   8.3759   8.3759   8.3759   9.2834

     occupation numbers 
     1.0000   1.0000   1.0000   1.0000   1.0000   1.0000   1.0000   1.0000
     1.0000   1.0000   1.0000   1.0000   1.0000   1.0000   1.0000   1.0000
     1.0000   1.0000   1.0000   1.0000   1.0000   1.0000   1.0000   1.0000
     1.0000   1.0000   1.0000   1.0000   1.0000   1.0000   1.0000   1.0000
     1.0000   1.0000   1.0000   1.0000   1.0000   1.0000   1.0000   1.0000
     1.0000   1.0000   1.0000   1.0000   1.0000   1.0000   1.0000   1.0000
     1.0000   1.0000   1.0000   1.0000   1.0000   1.0000   1.0000   1.0000
     1.0000   1.0000   1.0000   1.0000   1.0000   1.0000   1.0000   1.0000
     1.0000   1.0000   1.0000   1.0000   1.0000   1.0000   1.0000   1.0000
     1.0000   1.0000   1.0000   1.0000   1.0000   1.0000   1.0000   1.0000
     1.0000   1.0000   1.0000   1.0000   1.0000   1.0000   1.0000   1.0000
     1.0000   1.0000   1.0000   1.0000   1.0000   1.0000   1.0000   1.0000
     1.0000   1.0000   1.0000   1.0000   1.0000   1.0000   1.0000   1.0000
     1.0000   1.0000   1.0000   1.0000   1.0000   1.0000   1.0000   1.0000
     1.0000   1.0000   1.0000   1.0000   1.0000   1.0000   1.0000   1.0000
     1.0000   1.0000   1.0000   1.0000   1.0000   1.0000   1.0000   1.0000
     1.0000   1.0000   1.0000   1.0000   1.0000   1.0000   1.0000   1.0000
     1.0000   1.0000   1.0000   1.0000   1.0000   1.0000   1.0000   1.0000
     1.0000   1.0000   1.0000   1.0000   1.0000   1.0000   1.0000   1.0000
     1.0000   1.0000   1.0000   1.0000   1.0000   1.0000   1.0000   1.0000
     1.0000   1.0000   1.0000   1.0000   1.0000   1.0000   1.0000   1.0000
     1.0000   1.0000   1.0000   1.0000   1.0000   1.0000   1.0000   1.0000
     1.0000   1.0000   1.0000   1.0000   1.0000   1.0000   1.0000   1.0000
     1.0000   1.0000   1.0000   1.0000   1.0000   1.0000   1.0000   1.0000
     1.0000   1.0000   1.0000   1.0000   1.0000   1.0000   1.0000   1.0000
     1.0000   1.0000   1.0000   1.0000   1.0000   1.0000   1.0000   1.0000
     1.0000   1.0000   1.0000   1.0000   1.0000   1.0000   1.0000   1.0000
     1.0000   1.0000   1.0000   1.0000   1.0000   1.0000   1.0000   1.0000
     1.0000   1.0000   1.0000   1.0000   1.0000   1.0000   1.0000   1.0000
     1.0000   1.0000   1.0000   1.0000   1.0000   1.0000   1.0000   1.0000
     1.0000   1.0000   1.0000   1.0000   1.0000   1.0000   1.0000   1.0000
     1.0000   1.0000   1.0000   1.0000   1.0000   1.0000   1.0000   1.0000
     1.0000   1.0000   1.0000   1.0000   1.0000   1.0000   1.0000   1.0000
     1.0000   1.0000   1.0000   1.0000   1.0000   1.0000   1.0000   1.0000
     1.0000   1.0000   1.0000   1.0000   1.0000   1.0000   1.0000   1.0000
     1.0000   1.0000   1.0000   1.0000   1.0000   1.0000   1.0000   1.0000
     1.0000   1.0000   1.0000   1.0000   1.0000   1.0000   1.0000   1.0000
     1.0000   1.0000   1.0000   1.0000   1.0000   1.0000   1.0000   1.0000
     1.0000   1.0000   1.0000   1.0000   1.0000   1.0000   1.0000   1.0000
     1.0000   1.0000   1.0000   1.0000   1.0000   1.0000   1.0000   1.0000
     1.0000   1.0000   1.0000   1.0000   1.0000   1.0000   1.0000   1.0000
     1.0000   1.0000   1.0000   1.0000   1.0000   1.0000   1.0000   1.0000
     1.0000   1.0000   1.0000   1.0000   1.0000   1.0000   1.0000   1.0000
     1.0000   1.0000   1.0000   1.0000   1.0000   1.0000   1.0000   1.0000
     1.0000   1.0000   1.0000   1.0000   1.0000   1.0000   1.0000   1.0000
     1.0000   1.0000   1.0000   1.0000   1.0000   1.0000   1.0000   1.0000
     1.0000   1.0000   1.0000   1.0000   1.0000   1.0000   1.0000   1.0000
     1.0000   1.0000   1.0000   1.0000   1.0000   1.0000   1.0000   1.0000
     1.0000   1.0000   1.0000   1.0000   1.0000   1.0000   1.0000   1.0000
     1.0000   1.0000   1.0000   1.0000   1.0000   1.0000   1.0000   1.0000
     1.0000   1.0000   1.0000   1.0000   1.0000   1.0000   1.0000   1.0000
     1.0000   1.0000   1.0000   1.0000   1.0000   1.0000   1.0000   1.0000
     1.0000   1.0000   1.0000   1.0000   1.0000   1.0000   1.0000   1.0000
     1.0000   1.0000   1.0000   1.0000   1.0000   1.0000   1.0000   1.0000
     1.0000   1.0000   1.0000   1.0000   1.0000   1.0000   1.0000   1.0000
     1.0000   1.0000   1.0000   1.0000   1.0000   1.0000   1.0000   1.0000
     1.0000   1.0000   1.0000   1.0000   1.0000   1.0000   1.0000   1.0000
     1.0000   1.0000   1.0000   1.0000   1.0000   1.0000   1.0000   1.0000
     1.0000   1.0000   1.0000   1.0000   1.0000   1.0000   1.0000   1.0000
     1.0000   1.0000   1.0000   0.1850   0.1850   0.1850   0.1850   0.1850
     0.1850   0.1224   0.1224   0.1224   0.1224   0.1224   0.1223   0.0000
     0.0000   0.0000   0.0000   0.0000   0.0000   0.0000   0.0000   0.0000
     0.0000   0.0000   0.0000   0.0000   0.0000   0.0000   0.0000   0.0000
     0.0000   0.0000   0.0000   0.0000   0.0000   0.0000   0.0000   0.0000
     0.0000   0.0000   0.0000   0.0000   0.0000   0.0000   0.0000   0.0000
     0.0000   0.0000   0.0000   0.0000   0.0000   0.0000   0.0000   0.0000
     0.0000   0.0000   0.0000   0.0000   0.0000   0.0000   0.0000   0.0000
     0.0000   0.0000   0.0000   0.0000   0.0000   0.0000   0.0000   0.0000
     0.0000   0.0000   0.0000   0.0000   0.0000   0.0000   0.0000   0.0000
     0.0000   0.0000   0.0000   0.0000   0.0000   0.0000   0.0000   0.0000
     0.0000   0.0000   0.0000   0.0000   0.0000   0.0000   0.0000   0.0000
     0.0000   0.0000   0.0000   0.0000   0.0000   0.0000   0.0000   0.0000

          k = 0.0000 0.2887 0.0000 ( 64808 PWs)   bands (ev):

  -125.0689-125.0679-125.0675-125.0675-125.0669-125.0669-125.0666-125.0659
  -125.0659-125.0656-125.0656-125.0655-125.0655-125.0655-125.0652-125.0652
  -124.8642-124.8642-124.8633-124.8633-124.8629-124.8629-124.8629-124.8629
  -124.8622-124.8622-124.8622-124.8622-124.8620-124.8619-124.8613-124.8613
  -124.8613-124.8613-124.8610-124.8610-124.8609-124.8609-124.8609-124.8609
  -124.8609-124.8609-124.8608-124.8608-124.8606-124.8606-124.8606-124.8606
   -79.2347 -79.2347 -79.2340 -79.2301 -79.2301 -79.2292 -79.2292 -79.2273
   -79.2273 -79.2243 -79.2211 -79.2211 -79.2184 -79.2184 -79.2171 -79.2160
   -79.2155 -79.2155 -79.2148 -79.2148 -79.2145 -79.2144 -79.2144 -79.2141
   -79.2141 -79.2137 -79.2137 -79.2134 -79.2133 -79.2132 -79.2132 -79.2132
   -79.2129 -79.2129 -79.2117 -79.2117 -79.2105 -79.2095 -79.2095 -79.2084
   -79.2059 -79.2056 -79.2056 -79.2036 -79.2036 -79.2022 -79.2007 -79.1997
   -79.0267 -79.0267 -79.0267 -79.0267 -79.0261 -79.0260 -79.0221 -79.0221
   -79.0221 -79.0221 -79.0212 -79.0212 -79.0212 -79.0212 -79.0208 -79.0206
   -79.0198 -79.0197 -79.0193 -79.0193 -79.0193 -79.0193 -79.0193 -79.0193
   -79.0192 -79.0192 -79.0186 -79.0186 -79.0185 -79.0185 -79.0183 -79.0183
   -79.0175 -79.0175 -79.0175 -79.0175 -79.0173 -79.0172 -79.0171 -79.0171
   -79.0171 -79.0171 -79.0171 -79.0171 -79.0171 -79.0171 -79.0168 -79.0168
   -79.0168 -79.0168 -79.0164 -79.0163 -79.0132 -79.0132 -79.0131 -79.0131
   -79.0105 -79.0105 -79.0105 -79.0105 -79.0065 -79.0065 -79.0064 -79.0064
   -79.0062 -79.0062 -79.0061 -79.0061 -79.0038 -79.0038 -79.0038 -79.0038
   -79.0026 -79.0025 -79.0016 -79.0016 -79.0016 -79.0016 -79.0005 -79.0005
   -78.9980 -78.9979 -78.9977 -78.9977 -78.9976 -78.9976 -78.9957 -78.9957
   -78.9957 -78.9957 -78.9944 -78.9943 -78.9928 -78.9928 -78.9918 -78.9918
    -8.5032  -7.6198  -7.3002  -7.2480  -7.2480  -7.0299  -6.8992  -6.8731
    -6.8731  -6.8500  -6.8464  -6.8464  -6.7075  -6.6925  -6.6925  -6.6907
    -6.6757  -6.6634  -6.6389  -6.6389  -6.5906  -6.5811  -6.5778  -6.5778
    -6.5687  -6.5687  -6.5489  -6.5489  -6.5286  -6.5286  -6.5194  -6.5194
    -6.5177  -6.5128  -6.5128  -6.5100  -6.5100  -6.5033  -6.5033  -6.4873
    -6.4873  -6.4617  -6.4617  -6.4242  -6.4242  -6.3959  -6.3959  -6.3809
    -6.3809  -6.3767  -6.3228  -6.3180  -6.3180  -6.3164  -6.3164  -6.3160
    -6.3160  -6.2696  -6.2696  -6.2598  -6.2526  -6.2306  -6.2306  -6.2241
    -6.2241  -6.2226  -6.2224  -6.2224  -6.2092  -6.2092  -6.2055  -6.2055
    -6.1964  -6.1964  -6.1849  -6.1849  -6.1807  -6.1789  -6.1789  -6.1551
    -6.1391  -6.1244  -6.1244  -6.1151  -6.1151  -6.1014  -6.1014  -6.0942
    -6.0913  -6.0913  -6.0789  -6.0644  -6.0644  -6.0506  -6.0506  -6.0493
    -6.0493  -5.9598  -5.9598  -5.9598  -5.9598  -5.9444  -5.9418  -5.9379
    -5.9378  -5.9355  -5.9355  -5.9250  -5.9250  -5.9137  -5.9120  -5.9120
    -5.8939  -5.8939  -5.8901  -5.8862  -5.8826  -5.8749  -5.8749  -5.8694
    -5.8471  -5.8471  -5.8399  -5.8399  -5.8261  -5.8119  -5.7963  -5.7963
    -5.7960  -5.7960  -5.7874  -5.7874  -5.7774  -5.7774  -5.7769  -5.7739
    -5.7739  -5.7565  -5.7565  -5.7482  -5.7482  -5.7410  -5.7311  -5.7311
    -5.7149  -5.7136  -5.7136  -5.7059  -5.7059  -5.6982  -5.6982  -5.6959
    -5.6959  -5.6931  -5.6931  -5.6800  -5.6686  -5.6686  -5.6578  -5.6447
    -5.6403  -5.6403  -5.6341  -5.6341  -5.6191  -5.6191  -5.6181  -5.6170
    -5.6170  -5.6133  -5.6118  -5.6061  -5.6061  -5.5808  -5.5647  -5.5614
    -5.5614  -5.5570  -5.5570  -5.5486  -5.5486  -5.5462  -5.5462  -5.5444
    -5.5444  -5.5417  -5.5274  -5.5274  -5.5266  -5.5221  -5.5221  -5.5132
    -5.5132  -5.4921  -5.4921  -5.4632  -5.4611  -5.4586  -5.4586  -5.4549
    -5.4549  -5.4525  -5.4525  -5.4405  -5.4405  -5.4313  -5.4266  -5.4266
    -5.4242  -5.4201  -5.4151  -5.4148  -5.4030  -5.4030  -5.4003  -5.4002
    -5.3892  -5.3876  -5.3876  -5.3812  -5.3690  -5.3690  -5.3651  -5.3599
    -5.3463  -5.3463  -5.3420  -5.3332  -5.3212  -5.3212  -5.3150  -5.3120
    -5.3120  -5.3023  -5.3023  -5.2939  -5.2939  -5.2833  -5.2833  -5.1442
    -5.1442  -5.1303  -5.1303  -5.1248  -5.1248  -5.1065  -5.1057  -4.9476
    -4.9345  -4.6386  -4.6386  -3.8811  -3.8811  -3.4799  -3.3939  -3.3939
    -3.3655  -2.6737  -2.3019  -2.3019  -2.2218  -2.0211  -2.0211  -1.9713
    -1.9713  -1.5149  -1.5149  -1.2919  -1.2919  -1.1169  -0.7947  -0.5728
    -0.5728  -0.5607  -0.5607  -0.5520   0.0241   0.0241   0.2690   0.2690
     0.5603   0.5603   0.6335   0.8768   0.8985   0.8985   1.1836   1.1836
     1.5565   1.5565   2.2265   2.2265   2.6473   2.6967   2.6967   2.7211
     2.7827   2.7827   2.9500   2.9500   3.2199   3.5467   3.6908   3.6908
     3.9088   3.9088   4.1123   4.1852   4.1852   4.5564   4.5564   4.8017
     4.8017   4.8434   4.8434   5.1520   5.1520   5.1606   5.1606   5.1883
     5.3824   5.4262   5.4262   5.5684   5.6427   5.7936   5.7936   5.8069
     6.0902   6.0943   6.0943   6.3013   6.3131   6.3131   6.3169   6.5120
     6.5400   6.5400   6.5946   6.5946   6.7105   6.7601   6.7601   7.0101
     7.0101   7.0870   7.0870   7.1723   7.1723   7.2416   7.3089   7.3089
     7.4102   7.4245   7.4245   7.4475   7.4475   7.6570   7.6570   7.6696
     7.6696   7.7011   7.7011   7.7435   7.8574   7.8574   7.9462   7.9462
     8.0236   8.0236   8.1355   8.3106   8.3240   8.4782   8.6377   8.6377
     8.6963   8.7090   8.7091   8.8079   8.8080   8.8260   8.8260   8.8365

     occupation numbers 
     1.0000   1.0000   1.0000   1.0000   1.0000   1.0000   1.0000   1.0000
     1.0000   1.0000   1.0000   1.0000   1.0000   1.0000   1.0000   1.0000
     1.0000   1.0000   1.0000   1.0000   1.0000   1.0000   1.0000   1.0000
     1.0000   1.0000   1.0000   1.0000   1.0000   1.0000   1.0000   1.0000
     1.0000   1.0000   1.0000   1.0000   1.0000   1.0000   1.0000   1.0000
     1.0000   1.0000   1.0000   1.0000   1.0000   1.0000   1.0000   1.0000
     1.0000   1.0000   1.0000   1.0000   1.0000   1.0000   1.0000   1.0000
     1.0000   1.0000   1.0000   1.0000   1.0000   1.0000   1.0000   1.0000
     1.0000   1.0000   1.0000   1.0000   1.0000   1.0000   1.0000   1.0000
     1.0000   1.0000   1.0000   1.0000   1.0000   1.0000   1.0000   1.0000
     1.0000   1.0000   1.0000   1.0000   1.0000   1.0000   1.0000   1.0000
     1.0000   1.0000   1.0000   1.0000   1.0000   1.0000   1.0000   1.0000
     1.0000   1.0000   1.0000   1.0000   1.0000   1.0000   1.0000   1.0000
     1.0000   1.0000   1.0000   1.0000   1.0000   1.0000   1.0000   1.0000
     1.0000   1.0000   1.0000   1.0000   1.0000   1.0000   1.0000   1.0000
     1.0000   1.0000   1.0000   1.0000   1.0000   1.0000   1.0000   1.0000
     1.0000   1.0000   1.0000   1.0000   1.0000   1.0000   1.0000   1.0000
     1.0000   1.0000   1.0000   1.0000   1.0000   1.0000   1.0000   1.0000
     1.0000   1.0000   1.0000   1.0000   1.0000   1.0000   1.0000   1.0000
     1.0000   1.0000   1.0000   1.0000   1.0000   1.0000   1.0000   1.0000
     1.0000   1.0000   1.0000   1.0000   1.0000   1.0000   1.0000   1.0000
     1.0000   1.0000   1.0000   1.0000   1.0000   1.0000   1.0000   1.0000
     1.0000   1.0000   1.0000   1.0000   1.0000   1.0000   1.0000   1.0000
     1.0000   1.0000   1.0000   1.0000   1.0000   1.0000   1.0000   1.0000
     1.0000   1.0000   1.0000   1.0000   1.0000   1.0000   1.0000   1.0000
     1.0000   1.0000   1.0000   1.0000   1.0000   1.0000   1.0000   1.0000
     1.0000   1.0000   1.0000   1.0000   1.0000   1.0000   1.0000   1.0000
     1.0000   1.0000   1.0000   1.0000   1.0000   1.0000   1.0000   1.0000
     1.0000   1.0000   1.0000   1.0000   1.0000   1.0000   1.0000   1.0000
     1.0000   1.0000   1.0000   1.0000   1.0000   1.0000   1.0000   1.0000
     1.0000   1.0000   1.0000   1.0000   1.0000   1.0000   1.0000   1.0000
     1.0000   1.0000   1.0000   1.0000   1.0000   1.0000   1.0000   1.0000
     1.0000   1.0000   1.0000   1.0000   1.0000   1.0000   1.0000   1.0000
     1.0000   1.0000   1.0000   1.0000   1.0000   1.0000   1.0000   1.0000
     1.0000   1.0000   1.0000   1.0000   1.0000   1.0000   1.0000   1.0000
     1.0000   1.0000   1.0000   1.0000   1.0000   1.0000   1.0000   1.0000
     1.0000   1.0000   1.0000   1.0000   1.0000   1.0000   1.0000   1.0000
     1.0000   1.0000   1.0000   1.0000   1.0000   1.0000   1.0000   1.0000
     1.0000   1.0000   1.0000   1.0000   1.0000   1.0000   1.0000   1.0000
     1.0000   1.0000   1.0000   1.0000   1.0000   1.0000   1.0000   1.0000
     1.0000   1.0000   1.0000   1.0000   1.0000   1.0000   1.0000   1.0000
     1.0000   1.0000   1.0000   1.0000   1.0000   1.0000   1.0000   1.0000
     1.0000   1.0000   1.0000   1.0000   1.0000   1.0000   1.0000   1.0000
     1.0000   1.0000   1.0000   1.0000   1.0000   1.0000   1.0000   1.0000
     1.0000   1.0000   1.0000   1.0000   1.0000   1.0000   1.0000   1.0000
     1.0000   1.0000   1.0000   1.0000   1.0000   1.0000   1.0000   1.0000
     1.0000   1.0000   1.0000   1.0000   1.0000   1.0000   1.0000   1.0000
     1.0000   1.0000   1.0000   1.0000   1.0000   1.0000   1.0000   1.0000
     1.0000   1.0000   1.0000   1.0000   1.0000   1.0000   1.0000   1.0000
     1.0000   1.0000   1.0000   1.0000   1.0000   1.0000   1.0000   1.0000
     1.0000   1.0000   1.0000   1.0000   1.0000   1.0000   1.0000   1.0000
     1.0000   1.0000   1.0000   1.0000   1.0000   1.0000   1.0000   1.0000
     1.0000   1.0000   1.0000   1.0000   1.0000   1.0000   1.0000   1.0000
     1.0000   1.0000   1.0000   1.0000   1.0000   1.0000   1.0000   1.0000
     1.0000   1.0000   1.0000   1.0000   1.0000   1.0000   1.0000   1.0000
     1.0000   1.0000   1.0000   1.0000   1.0000   1.0000   1.0000   1.0000
     1.0000   1.0000   1.0000   1.0000   1.0000   1.0000   1.0000   1.0000
     1.0000   1.0000   1.0000   1.0000   1.0000   1.0000   1.0000   1.0000
     1.0000   1.0000   1.0000   1.0000   1.0000   1.0000   1.0000   1.0000
     1.0006   1.0006   1.0019   1.0374   1.0443   1.0443   0.9985   0.9985
     0.1542   0.1542   0.0000   0.0000   0.0000   0.0000   0.0000   0.0000
     0.0000   0.0000   0.0000   0.0000   0.0000   0.0000   0.0000   0.0000
     0.0000   0.0000   0.0000   0.0000   0.0000   0.0000   0.0000   0.0000
     0.0000   0.0000   0.0000   0.0000   0.0000   0.0000   0.0000   0.0000
     0.0000   0.0000   0.0000   0.0000   0.0000   0.0000   0.0000   0.0000
     0.0000   0.0000   0.0000   0.0000   0.0000   0.0000   0.0000   0.0000
     0.0000   0.0000   0.0000   0.0000   0.0000   0.0000   0.0000   0.0000
     0.0000   0.0000   0.0000   0.0000   0.0000   0.0000   0.0000   0.0000
     0.0000   0.0000   0.0000   0.0000   0.0000   0.0000   0.0000   0.0000
     0.0000   0.0000   0.0000   0.0000   0.0000   0.0000   0.0000   0.0000
     0.0000   0.0000   0.0000   0.0000   0.0000   0.0000   0.0000   0.0000
     0.0000   0.0000   0.0000   0.0000   0.0000   0.0000   0.0000   0.0000

          k = 0.0000-0.5774 0.0000 ( 64842 PWs)   bands (ev):

  -125.0685-125.0685-125.0676-125.0676-125.0664-125.0664-125.0664-125.0664
  -125.0660-125.0660-125.0656-125.0655-125.0655-125.0655-125.0651-125.0651
  -124.8639-124.8638-124.8638-124.8638-124.8630-124.8630-124.8630-124.8630
  -124.8618-124.8618-124.8618-124.8618-124.8617-124.8617-124.8617-124.8617
  -124.8614-124.8614-124.8614-124.8613-124.8609-124.8609-124.8609-124.8609
  -124.8609-124.8609-124.8608-124.8608-124.8605-124.8605-124.8605-124.8605
   -79.2327 -79.2326 -79.2326 -79.2326 -79.2302 -79.2301 -79.2291 -79.2291
   -79.2246 -79.2246 -79.2246 -79.2246 -79.2197 -79.2197 -79.2167 -79.2166
   -79.2156 -79.2156 -79.2142 -79.2142 -79.2142 -79.2142 -79.2138 -79.2138
   -79.2133 -79.2132 -79.2132 -79.2132 -79.2131 -79.2131 -79.2128 -79.2128
   -79.2116 -79.2115 -79.2115 -79.2115 -79.2082 -79.2082 -79.2082 -79.2082
   -79.2074 -79.2074 -79.2046 -79.2046 -79.2036 -79.2036 -79.2007 -79.2007
   -79.0247 -79.0247 -79.0247 -79.0247 -79.0246 -79.0246 -79.0246 -79.0246
   -79.0222 -79.0222 -79.0222 -79.0221 -79.0212 -79.0212 -79.0211 -79.0211
   -79.0204 -79.0204 -79.0203 -79.0202 -79.0194 -79.0194 -79.0193 -79.0193
   -79.0181 -79.0181 -79.0181 -79.0181 -79.0180 -79.0180 -79.0180 -79.0180
   -79.0177 -79.0177 -79.0176 -79.0176 -79.0171 -79.0171 -79.0171 -79.0171
   -79.0171 -79.0171 -79.0171 -79.0171 -79.0167 -79.0167 -79.0167 -79.0167
   -79.0167 -79.0167 -79.0167 -79.0167 -79.0166 -79.0166 -79.0166 -79.0166
   -79.0118 -79.0118 -79.0117 -79.0117 -79.0052 -79.0052 -79.0052 -79.0052
   -79.0037 -79.0037 -79.0036 -79.0036 -79.0036 -79.0036 -79.0036 -79.0036
   -79.0003 -79.0003 -79.0003 -79.0003 -79.0003 -79.0003 -79.0003 -79.0003
   -78.9995 -78.9995 -78.9995 -78.9994 -78.9968 -78.9967 -78.9967 -78.9967
   -78.9958 -78.9957 -78.9957 -78.9957 -78.9929 -78.9928 -78.9928 -78.9928
    -8.1553  -8.1553  -7.3166  -7.3166  -7.0257  -7.0257  -6.8645  -6.8645
    -6.8606  -6.8606  -6.7507  -6.7506  -6.7506  -6.7506  -6.6544  -6.6544
    -6.6478  -6.6478  -6.6478  -6.6478  -6.6253  -6.6253  -6.6078  -6.6078
    -6.6078  -6.6078  -6.5542  -6.5542  -6.5296  -6.5295  -6.5295  -6.5295
    -6.5062  -6.5062  -6.4883  -6.4883  -6.4883  -6.4883  -6.4638  -6.4638
    -6.4638  -6.4638  -6.4616  -6.4615  -6.4506  -6.4506  -6.4271  -6.4271
    -6.4226  -6.4226  -6.4226  -6.4226  -6.3110  -6.3110  -6.3025  -6.3025
    -6.2937  -6.2937  -6.2937  -6.2937  -6.2924  -6.2924  -6.2715  -6.2715
    -6.2715  -6.2714  -6.2370  -6.2370  -6.2219  -6.2219  -6.2219  -6.2219
    -6.2069  -6.2069  -6.2017  -6.2017  -6.1712  -6.1712  -6.1426  -6.1426
    -6.1125  -6.1125  -6.1042  -6.1042  -6.0834  -6.0834  -6.0833  -6.0833
    -6.0625  -6.0625  -6.0625  -6.0625  -6.0427  -6.0427  -6.0331  -6.0331
    -6.0267  -6.0267  -6.0230  -6.0230  -6.0103  -6.0103  -5.9908  -5.9908
    -5.9908  -5.9908  -5.9476  -5.9476  -5.9465  -5.9465  -5.9160  -5.9160
    -5.9062  -5.9062  -5.8728  -5.8728  -5.8728  -5.8728  -5.8158  -5.8158
    -5.8102  -5.8102  -5.8093  -5.8093  -5.8093  -5.8093  -5.8062  -5.8061
    -5.7882  -5.7882  -5.7857  -5.7857  -5.7766  -5.7766  -5.7765  -5.7765
    -5.7686  -5.7686  -5.7681  -5.7681  -5.7681  -5.7681  -5.7569  -5.7569
    -5.7547  -5.7547  -5.7547  -5.7547  -5.6761  -5.6761  -5.6747  -5.6747
    -5.6679  -5.6679  -5.6464  -5.6464  -5.6464  -5.6464  -5.6320  -5.6320
    -5.6246  -5.6246  -5.6054  -5.6054  -5.6054  -5.6054  -5.5952  -5.5952
    -5.5711  -5.5711  -5.5442  -5.5442  -5.5298  -5.5297  -5.5297  -5.5297
    -5.5272  -5.5272  -5.5272  -5.5272  -5.5240  -5.5240  -5.5218  -5.5218
    -5.4999  -5.4999  -5.4998  -5.4998  -5.4898  -5.4897  -5.4890  -5.4890
    -5.4875  -5.4875  -5.4798  -5.4798  -5.4649  -5.4649  -5.4649  -5.4649
    -5.4519  -5.4519  -5.4519  -5.4519  -5.4406  -5.4406  -5.4236  -5.4236
    -5.4165  -5.4165  -5.4165  -5.4165  -5.4133  -5.4133  -5.4125  -5.4125
    -5.4058  -5.4058  -5.4034  -5.4034  -5.4014  -5.4013  -5.3713  -5.3713
    -5.3637  -5.3637  -5.3637  -5.3637  -5.3250  -5.3250  -5.3250  -5.3250
    -5.2550  -5.2550  -5.2550  -5.2550  -5.2358  -5.2358  -5.2352  -5.2352
    -5.2351  -5.2351  -5.2023  -5.2023  -5.1996  -5.1996  -4.7024  -4.7024
    -4.4186  -4.4186  -4.4186  -4.4186  -3.7282  -3.7282  -3.1107  -3.1107
    -3.0615  -3.0615  -3.0615  -3.0615  -2.3915  -2.3915  -2.2396  -2.2396
    -1.7577  -1.7577  -1.7577  -1.7577  -0.7552  -0.7552  -0.7552  -0.7552
    -0.3252  -0.3252  -0.3252  -0.3252  -0.0901  -0.0901   0.0132   0.0132
     1.0216   1.0216   1.0494   1.0494   1.3383   1.3383   1.3702   1.3702
     1.3703   1.3703   2.2239   2.2239   2.9001   2.9001   2.9002   2.9002
     3.1019   3.1019   3.1019   3.1019   3.3224   3.3224   3.5553   3.5553
     3.8668   3.8668   3.8669   3.8669   3.9985   3.9985   4.2583   4.2583
     4.4473   4.4473   4.7461   4.7461   4.8583   4.8583   5.4826   5.4826
     5.5268   5.5268   5.7272   5.7272   5.8013   5.8013   5.9298   5.9298
     5.9298   5.9298   5.9833   5.9833   5.9833   5.9833   6.1541   6.1541
     6.1541   6.1541   6.4283   6.4283   6.5600   6.5600   6.6456   6.6456
     6.6645   6.6645   6.8493   6.8493   6.8667   6.8667   7.0142   7.0142
     7.0142   7.0142   7.5871   7.5871   7.7468   7.7468   8.0647   8.0647
     8.0914   8.0914   8.0914   8.0914   8.2791   8.2791   8.4788   8.4788
     8.4788   8.4788   8.6274   8.6274   8.6274   8.6274   8.6698   8.6699
     8.7367   8.7367   8.8123   8.8123   8.9997   8.9997   8.9998   8.9998

     occupation numbers 
     1.0000   1.0000   1.0000   1.0000   1.0000   1.0000   1.0000   1.0000
     1.0000   1.0000   1.0000   1.0000   1.0000   1.0000   1.0000   1.0000
     1.0000   1.0000   1.0000   1.0000   1.0000   1.0000   1.0000   1.0000
     1.0000   1.0000   1.0000   1.0000   1.0000   1.0000   1.0000   1.0000
     1.0000   1.0000   1.0000   1.0000   1.0000   1.0000   1.0000   1.0000
     1.0000   1.0000   1.0000   1.0000   1.0000   1.0000   1.0000   1.0000
     1.0000   1.0000   1.0000   1.0000   1.0000   1.0000   1.0000   1.0000
     1.0000   1.0000   1.0000   1.0000   1.0000   1.0000   1.0000   1.0000
     1.0000   1.0000   1.0000   1.0000   1.0000   1.0000   1.0000   1.0000
     1.0000   1.0000   1.0000   1.0000   1.0000   1.0000   1.0000   1.0000
     1.0000   1.0000   1.0000   1.0000   1.0000   1.0000   1.0000   1.0000
     1.0000   1.0000   1.0000   1.0000   1.0000   1.0000   1.0000   1.0000
     1.0000   1.0000   1.0000   1.0000   1.0000   1.0000   1.0000   1.0000
     1.0000   1.0000   1.0000   1.0000   1.0000   1.0000   1.0000   1.0000
     1.0000   1.0000   1.0000   1.0000   1.0000   1.0000   1.0000   1.0000
     1.0000   1.0000   1.0000   1.0000   1.0000   1.0000   1.0000   1.0000
     1.0000   1.0000   1.0000   1.0000   1.0000   1.0000   1.0000   1.0000
     1.0000   1.0000   1.0000   1.0000   1.0000   1.0000   1.0000   1.0000
     1.0000   1.0000   1.0000   1.0000   1.0000   1.0000   1.0000   1.0000
     1.0000   1.0000   1.0000   1.0000   1.0000   1.0000   1.0000   1.0000
     1.0000   1.0000   1.0000   1.0000   1.0000   1.0000   1.0000   1.0000
     1.0000   1.0000   1.0000   1.0000   1.0000   1.0000   1.0000   1.0000
     1.0000   1.0000   1.0000   1.0000   1.0000   1.0000   1.0000   1.0000
     1.0000   1.0000   1.0000   1.0000   1.0000   1.0000   1.0000   1.0000
     1.0000   1.0000   1.0000   1.0000   1.0000   1.0000   1.0000   1.0000
     1.0000   1.0000   1.0000   1.0000   1.0000   1.0000   1.0000   1.0000
     1.0000   1.0000   1.0000   1.0000   1.0000   1.0000   1.0000   1.0000
     1.0000   1.0000   1.0000   1.0000   1.0000   1.0000   1.0000   1.0000
     1.0000   1.0000   1.0000   1.0000   1.0000   1.0000   1.0000   1.0000
     1.0000   1.0000   1.0000   1.0000   1.0000   1.0000   1.0000   1.0000
     1.0000   1.0000   1.0000   1.0000   1.0000   1.0000   1.0000   1.0000
     1.0000   1.0000   1.0000   1.0000   1.0000   1.0000   1.0000   1.0000
     1.0000   1.0000   1.0000   1.0000   1.0000   1.0000   1.0000   1.0000
     1.0000   1.0000   1.0000   1.0000   1.0000   1.0000   1.0000   1.0000
     1.0000   1.0000   1.0000   1.0000   1.0000   1.0000   1.0000   1.0000
     1.0000   1.0000   1.0000   1.0000   1.0000   1.0000   1.0000   1.0000
     1.0000   1.0000   1.0000   1.0000   1.0000   1.0000   1.0000   1.0000
     1.0000   1.0000   1.0000   1.0000   1.0000   1.0000   1.0000   1.0000
     1.0000   1.0000   1.0000   1.0000   1.0000   1.0000   1.0000   1.0000
     1.0000   1.0000   1.0000   1.0000   1.0000   1.0000   1.0000   1.0000
     1.0000   1.0000   1.0000   1.0000   1.0000   1.0000   1.0000   1.0000
     1.0000   1.0000   1.0000   1.0000   1.0000   1.0000   1.0000   1.0000
     1.0000   1.0000   1.0000   1.0000   1.0000   1.0000   1.0000   1.0000
     1.0000   1.0000   1.0000   1.0000   1.0000   1.0000   1.0000   1.0000
     1.0000   1.0000   1.0000   1.0000   1.0000   1.0000   1.0000   1.0000
     1.0000   1.0000   1.0000   1.0000   1.0000   1.0000   1.0000   1.0000
     1.0000   1.0000   1.0000   1.0000   1.0000   1.0000   1.0000   1.0000
     1.0000   1.0000   1.0000   1.0000   1.0000   1.0000   1.0000   1.0000
     1.0000   1.0000   1.0000   1.0000   1.0000   1.0000   1.0000   1.0000
     1.0000   1.0000   1.0000   1.0000   1.0000   1.0000   1.0000   1.0000
     1.0000   1.0000   1.0000   1.0000   1.0000   1.0000   1.0000   1.0000
     1.0000   1.0000   1.0000   1.0000   1.0000   1.0000   1.0000   1.0000
     1.0000   1.0000   1.0000   1.0000   1.0000   1.0000   1.0000   1.0000
     1.0000   1.0000   1.0000   1.0000   1.0000   1.0000   1.0000   1.0000
     1.0000   1.0000   1.0000   1.0000   1.0000   1.0000   1.0000   1.0000
     1.0000   1.0000   1.0000   1.0000   1.0000   1.0000   1.0000   1.0000
     1.0000   1.0000   1.0000   1.0000   1.0000   1.0000   1.0000   1.0000
     1.0000   1.0000   1.0000   1.0000   1.0000   1.0000   1.0000   1.0000
     1.0000   1.0000   1.0000   1.0000   1.0000   1.0000   1.0000   1.0000
     1.0812   1.0812   1.0833   1.0833   0.6570   0.6570   0.5688   0.5687
     0.5687   0.5687   0.0000   0.0000   0.0000   0.0000   0.0000   0.0000
     0.0000   0.0000   0.0000   0.0000   0.0000   0.0000   0.0000   0.0000
     0.0000   0.0000   0.0000   0.0000   0.0000   0.0000   0.0000   0.0000
     0.0000   0.0000   0.0000   0.0000   0.0000   0.0000   0.0000   0.0000
     0.0000   0.0000   0.0000   0.0000   0.0000   0.0000   0.0000   0.0000
     0.0000   0.0000   0.0000   0.0000   0.0000   0.0000   0.0000   0.0000
     0.0000   0.0000   0.0000   0.0000   0.0000   0.0000   0.0000   0.0000
     0.0000   0.0000   0.0000   0.0000   0.0000   0.0000   0.0000   0.0000
     0.0000   0.0000   0.0000   0.0000   0.0000   0.0000   0.0000   0.0000
     0.0000   0.0000   0.0000   0.0000   0.0000   0.0000   0.0000   0.0000
     0.0000   0.0000   0.0000   0.0000   0.0000   0.0000   0.0000   0.0000
     0.0000   0.0000   0.0000   0.0000   0.0000   0.0000   0.0000   0.0000

          k = 0.2500 0.1443 0.0000 ( 64808 PWs)   bands (ev):

  -125.0689-125.0679-125.0675-125.0675-125.0669-125.0669-125.0666-125.0659
  -125.0659-125.0656-125.0655-125.0655-125.0655-125.0655-125.0652-125.0652
  -124.8642-124.8642-124.8633-124.8633-124.8629-124.8629-124.8629-124.8629
  -124.8622-124.8622-124.8622-124.8622-124.8620-124.8619-124.8613-124.8613
  -124.8613-124.8613-124.8610-124.8610-124.8609-124.8609-124.8609-124.8609
  -124.8609-124.8609-124.8608-124.8608-124.8606-124.8606-124.8606-124.8606
   -79.2347 -79.2347 -79.2340 -79.2301 -79.2301 -79.2292 -79.2292 -79.2273
   -79.2273 -79.2243 -79.2211 -79.2211 -79.2184 -79.2184 -79.2171 -79.2160
   -79.2155 -79.2155 -79.2148 -79.2148 -79.2145 -79.2144 -79.2144 -79.2141
   -79.2141 -79.2137 -79.2137 -79.2134 -79.2133 -79.2133 -79.2132 -79.2132
   -79.2129 -79.2129 -79.2117 -79.2117 -79.2105 -79.2095 -79.2095 -79.2084
   -79.2059 -79.2056 -79.2056 -79.2036 -79.2036 -79.2022 -79.2007 -79.1997
   -79.0267 -79.0267 -79.0267 -79.0267 -79.0261 -79.0260 -79.0221 -79.0221
   -79.0221 -79.0221 -79.0212 -79.0212 -79.0212 -79.0212 -79.0208 -79.0206
   -79.0198 -79.0197 -79.0193 -79.0193 -79.0193 -79.0193 -79.0193 -79.0193
   -79.0192 -79.0192 -79.0186 -79.0186 -79.0185 -79.0185 -79.0183 -79.0182
   -79.0175 -79.0175 -79.0175 -79.0175 -79.0173 -79.0172 -79.0171 -79.0171
   -79.0171 -79.0171 -79.0171 -79.0171 -79.0171 -79.0171 -79.0168 -79.0168
   -79.0168 -79.0168 -79.0164 -79.0163 -79.0132 -79.0132 -79.0131 -79.0131
   -79.0105 -79.0105 -79.0105 -79.0105 -79.0065 -79.0065 -79.0064 -79.0064
   -79.0062 -79.0062 -79.0061 -79.0061 -79.0038 -79.0038 -79.0038 -79.0038
   -79.0026 -79.0025 -79.0016 -79.0016 -79.0016 -79.0016 -79.0005 -79.0005
   -78.9980 -78.9979 -78.9977 -78.9977 -78.9976 -78.9976 -78.9957 -78.9957
   -78.9957 -78.9957 -78.9944 -78.9943 -78.9928 -78.9928 -78.9918 -78.9918
    -8.5032  -7.6198  -7.3002  -7.2480  -7.2480  -7.0299  -6.8992  -6.8731
    -6.8731  -6.8500  -6.8464  -6.8464  -6.7075  -6.6925  -6.6925  -6.6907
    -6.6757  -6.6634  -6.6389  -6.6389  -6.5906  -6.5811  -6.5778  -6.5778
    -6.5687  -6.5687  -6.5489  -6.5489  -6.5286  -6.5286  -6.5194  -6.5194
    -6.5177  -6.5128  -6.5128  -6.5100  -6.5100  -6.5033  -6.5033  -6.4873
    -6.4873  -6.4617  -6.4617  -6.4242  -6.4242  -6.3959  -6.3959  -6.3809
    -6.3809  -6.3767  -6.3228  -6.3180  -6.3180  -6.3164  -6.3164  -6.3160
    -6.3160  -6.2696  -6.2696  -6.2598  -6.2526  -6.2306  -6.2306  -6.2241
    -6.2241  -6.2226  -6.2224  -6.2224  -6.2092  -6.2092  -6.2055  -6.2055
    -6.1964  -6.1964  -6.1849  -6.1849  -6.1807  -6.1789  -6.1789  -6.1551
    -6.1391  -6.1244  -6.1244  -6.1151  -6.1151  -6.1014  -6.1014  -6.0942
    -6.0913  -6.0913  -6.0789  -6.0644  -6.0644  -6.0506  -6.0506  -6.0493
    -6.0493  -5.9598  -5.9598  -5.9598  -5.9598  -5.9444  -5.9418  -5.9379
    -5.9378  -5.9355  -5.9355  -5.9250  -5.9250  -5.9137  -5.9120  -5.9120
    -5.8939  -5.8939  -5.8901  -5.8862  -5.8826  -5.8749  -5.8749  -5.8694
    -5.8471  -5.8471  -5.8399  -5.8399  -5.8261  -5.8119  -5.7963  -5.7963
    -5.7960  -5.7960  -5.7874  -5.7874  -5.7774  -5.7774  -5.7769  -5.7739
    -5.7739  -5.7565  -5.7565  -5.7482  -5.7482  -5.7410  -5.7311  -5.7311
    -5.7149  -5.7136  -5.7136  -5.7059  -5.7059  -5.6982  -5.6982  -5.6959
    -5.6959  -5.6931  -5.6931  -5.6800  -5.6686  -5.6686  -5.6578  -5.6447
    -5.6403  -5.6403  -5.6341  -5.6341  -5.6191  -5.6191  -5.6181  -5.6170
    -5.6170  -5.6133  -5.6118  -5.6061  -5.6061  -5.5808  -5.5647  -5.5614
    -5.5614  -5.5570  -5.5570  -5.5486  -5.5486  -5.5462  -5.5462  -5.5444
    -5.5444  -5.5417  -5.5274  -5.5274  -5.5266  -5.5221  -5.5221  -5.5132
    -5.5132  -5.4921  -5.4921  -5.4632  -5.4611  -5.4586  -5.4586  -5.4549
    -5.4549  -5.4525  -5.4525  -5.4405  -5.4405  -5.4313  -5.4266  -5.4266
    -5.4242  -5.4201  -5.4151  -5.4148  -5.4030  -5.4030  -5.4002  -5.4002
    -5.3892  -5.3876  -5.3876  -5.3812  -5.3690  -5.3690  -5.3651  -5.3599
    -5.3463  -5.3463  -5.3420  -5.3332  -5.3212  -5.3212  -5.3150  -5.3120
    -5.3120  -5.3023  -5.3023  -5.2939  -5.2939  -5.2833  -5.2833  -5.1442
    -5.1442  -5.1303  -5.1303  -5.1248  -5.1248  -5.1065  -5.1057  -4.9476
    -4.9345  -4.6386  -4.6386  -3.8811  -3.8811  -3.4799  -3.3939  -3.3939
    -3.3655  -2.6737  -2.3019  -2.3019  -2.2218  -2.0211  -2.0211  -1.9713
    -1.9713  -1.5149  -1.5149  -1.2919  -1.2919  -1.1169  -0.7947  -0.5728
    -0.5728  -0.5607  -0.5607  -0.5520   0.0241   0.0241   0.2690   0.2690
     0.5603   0.5603   0.6335   0.8768   0.8985   0.8985   1.1836   1.1836
     1.5565   1.5565   2.2265   2.2265   2.6473   2.6967   2.6967   2.7211
     2.7827   2.7827   2.9500   2.9500   3.2199   3.5467   3.6908   3.6908
     3.9088   3.9088   4.1123   4.1852   4.1852   4.5564   4.5564   4.8017
     4.8017   4.8434   4.8434   5.1520   5.1520   5.1606   5.1606   5.1883
     5.3824   5.4262   5.4262   5.5684   5.6427   5.7936   5.7936   5.8069
     6.0902   6.0943   6.0943   6.3013   6.3131   6.3131   6.3169   6.5120
     6.5400   6.5400   6.5946   6.5946   6.7105   6.7601   6.7601   7.0101
     7.0101   7.0870   7.0870   7.1723   7.1723   7.2416   7.3089   7.3089
     7.4102   7.4245   7.4245   7.4475   7.4475   7.6570   7.6570   7.6696
     7.6696   7.7011   7.7011   7.7435   7.8574   7.8574   7.9462   7.9462
     8.0236   8.0236   8.1355   8.3106   8.3240   8.4782   8.6377   8.6377
     8.6963   8.7090   8.8079   8.8079   8.8257   8.8260   8.8357   8.8365

     occupation numbers 
     1.0000   1.0000   1.0000   1.0000   1.0000   1.0000   1.0000   1.0000
     1.0000   1.0000   1.0000   1.0000   1.0000   1.0000   1.0000   1.0000
     1.0000   1.0000   1.0000   1.0000   1.0000   1.0000   1.0000   1.0000
     1.0000   1.0000   1.0000   1.0000   1.0000   1.0000   1.0000   1.0000
     1.0000   1.0000   1.0000   1.0000   1.0000   1.0000   1.0000   1.0000
     1.0000   1.0000   1.0000   1.0000   1.0000   1.0000   1.0000   1.0000
     1.0000   1.0000   1.0000   1.0000   1.0000   1.0000   1.0000   1.0000
     1.0000   1.0000   1.0000   1.0000   1.0000   1.0000   1.0000   1.0000
     1.0000   1.0000   1.0000   1.0000   1.0000   1.0000   1.0000   1.0000
     1.0000   1.0000   1.0000   1.0000   1.0000   1.0000   1.0000   1.0000
     1.0000   1.0000   1.0000   1.0000   1.0000   1.0000   1.0000   1.0000
     1.0000   1.0000   1.0000   1.0000   1.0000   1.0000   1.0000   1.0000
     1.0000   1.0000   1.0000   1.0000   1.0000   1.0000   1.0000   1.0000
     1.0000   1.0000   1.0000   1.0000   1.0000   1.0000   1.0000   1.0000
     1.0000   1.0000   1.0000   1.0000   1.0000   1.0000   1.0000   1.0000
     1.0000   1.0000   1.0000   1.0000   1.0000   1.0000   1.0000   1.0000
     1.0000   1.0000   1.0000   1.0000   1.0000   1.0000   1.0000   1.0000
     1.0000   1.0000   1.0000   1.0000   1.0000   1.0000   1.0000   1.0000
     1.0000   1.0000   1.0000   1.0000   1.0000   1.0000   1.0000   1.0000
     1.0000   1.0000   1.0000   1.0000   1.0000   1.0000   1.0000   1.0000
     1.0000   1.0000   1.0000   1.0000   1.0000   1.0000   1.0000   1.0000
     1.0000   1.0000   1.0000   1.0000   1.0000   1.0000   1.0000   1.0000
     1.0000   1.0000   1.0000   1.0000   1.0000   1.0000   1.0000   1.0000
     1.0000   1.0000   1.0000   1.0000   1.0000   1.0000   1.0000   1.0000
     1.0000   1.0000   1.0000   1.0000   1.0000   1.0000   1.0000   1.0000
     1.0000   1.0000   1.0000   1.0000   1.0000   1.0000   1.0000   1.0000
     1.0000   1.0000   1.0000   1.0000   1.0000   1.0000   1.0000   1.0000
     1.0000   1.0000   1.0000   1.0000   1.0000   1.0000   1.0000   1.0000
     1.0000   1.0000   1.0000   1.0000   1.0000   1.0000   1.0000   1.0000
     1.0000   1.0000   1.0000   1.0000   1.0000   1.0000   1.0000   1.0000
     1.0000   1.0000   1.0000   1.0000   1.0000   1.0000   1.0000   1.0000
     1.0000   1.0000   1.0000   1.0000   1.0000   1.0000   1.0000   1.0000
     1.0000   1.0000   1.0000   1.0000   1.0000   1.0000   1.0000   1.0000
     1.0000   1.0000   1.0000   1.0000   1.0000   1.0000   1.0000   1.0000
     1.0000   1.0000   1.0000   1.0000   1.0000   1.0000   1.0000   1.0000
     1.0000   1.0000   1.0000   1.0000   1.0000   1.0000   1.0000   1.0000
     1.0000   1.0000   1.0000   1.0000   1.0000   1.0000   1.0000   1.0000
     1.0000   1.0000   1.0000   1.0000   1.0000   1.0000   1.0000   1.0000
     1.0000   1.0000   1.0000   1.0000   1.0000   1.0000   1.0000   1.0000
     1.0000   1.0000   1.0000   1.0000   1.0000   1.0000   1.0000   1.0000
     1.0000   1.0000   1.0000   1.0000   1.0000   1.0000   1.0000   1.0000
     1.0000   1.0000   1.0000   1.0000   1.0000   1.0000   1.0000   1.0000
     1.0000   1.0000   1.0000   1.0000   1.0000   1.0000   1.0000   1.0000
     1.0000   1.0000   1.0000   1.0000   1.0000   1.0000   1.0000   1.0000
     1.0000   1.0000   1.0000   1.0000   1.0000   1.0000   1.0000   1.0000
     1.0000   1.0000   1.0000   1.0000   1.0000   1.0000   1.0000   1.0000
     1.0000   1.0000   1.0000   1.0000   1.0000   1.0000   1.0000   1.0000
     1.0000   1.0000   1.0000   1.0000   1.0000   1.0000   1.0000   1.0000
     1.0000   1.0000   1.0000   1.0000   1.0000   1.0000   1.0000   1.0000
     1.0000   1.0000   1.0000   1.0000   1.0000   1.0000   1.0000   1.0000
     1.0000   1.0000   1.0000   1.0000   1.0000   1.0000   1.0000   1.0000
     1.0000   1.0000   1.0000   1.0000   1.0000   1.0000   1.0000   1.0000
     1.0000   1.0000   1.0000   1.0000   1.0000   1.0000   1.0000   1.0000
     1.0000   1.0000   1.0000   1.0000   1.0000   1.0000   1.0000   1.0000
     1.0000   1.0000   1.0000   1.0000   1.0000   1.0000   1.0000   1.0000
     1.0000   1.0000   1.0000   1.0000   1.0000   1.0000   1.0000   1.0000
     1.0000   1.0000   1.0000   1.0000   1.0000   1.0000   1.0000   1.0000
     1.0000   1.0000   1.0000   1.0000   1.0000   1.0000   1.0000   1.0000
     1.0000   1.0000   1.0000   1.0000   1.0000   1.0000   1.0000   1.0000
     1.0006   1.0006   1.0019   1.0374   1.0443   1.0443   0.9985   0.9985
     0.1542   0.1542   0.0000   0.0000   0.0000   0.0000   0.0000   0.0000
     0.0000   0.0000   0.0000   0.0000   0.0000   0.0000   0.0000   0.0000
     0.0000   0.0000   0.0000   0.0000   0.0000   0.0000   0.0000   0.0000
     0.0000   0.0000   0.0000   0.0000   0.0000   0.0000   0.0000   0.0000
     0.0000   0.0000   0.0000   0.0000   0.0000   0.0000   0.0000   0.0000
     0.0000   0.0000   0.0000   0.0000   0.0000   0.0000   0.0000   0.0000
     0.0000   0.0000   0.0000   0.0000   0.0000   0.0000   0.0000   0.0000
     0.0000   0.0000   0.0000   0.0000   0.0000   0.0000   0.0000   0.0000
     0.0000   0.0000   0.0000   0.0000   0.0000   0.0000   0.0000   0.0000
     0.0000   0.0000   0.0000   0.0000   0.0000   0.0000   0.0000   0.0000
     0.0000   0.0000   0.0000   0.0000   0.0000   0.0000   0.0000   0.0000
     0.0000   0.0000   0.0000   0.0000   0.0000   0.0000   0.0000   0.0000

          k = 0.2500 0.4330 0.0000 ( 64876 PWs)   bands (ev):

  -125.0686-125.0681-125.0681-125.0670-125.0670-125.0664-125.0662-125.0662
  -125.0659-125.0659-125.0658-125.0658-125.0654-125.0653-125.0653-125.0651
  -124.8640-124.8639-124.8635-124.8635-124.8635-124.8635-124.8624-124.8624
  -124.8623-124.8623-124.8618-124.8618-124.8616-124.8616-124.8616-124.8616
  -124.8612-124.8612-124.8612-124.8612-124.8611-124.8611-124.8611-124.8611
  -124.8608-124.8607-124.8607-124.8607-124.8606-124.8606-124.8605-124.8604
   -79.2337 -79.2321 -79.2321 -79.2316 -79.2316 -79.2294 -79.2294 -79.2273
   -79.2273 -79.2269 -79.2234 -79.2226 -79.2189 -79.2189 -79.2168 -79.2162
   -79.2162 -79.2154 -79.2154 -79.2149 -79.2149 -79.2143 -79.2141 -79.2141
   -79.2137 -79.2136 -79.2135 -79.2135 -79.2131 -79.2130 -79.2130 -79.2128
   -79.2120 -79.2102 -79.2102 -79.2088 -79.2088 -79.2088 -79.2081 -79.2081
   -79.2074 -79.2074 -79.2059 -79.2059 -79.2033 -79.2018 -79.2018 -79.2004
   -79.0258 -79.0257 -79.0241 -79.0241 -79.0241 -79.0241 -79.0236 -79.0236
   -79.0236 -79.0236 -79.0215 -79.0215 -79.0214 -79.0214 -79.0205 -79.0204
   -79.0200 -79.0200 -79.0199 -79.0199 -79.0194 -79.0194 -79.0194 -79.0193
   -79.0190 -79.0189 -79.0187 -79.0187 -79.0187 -79.0187 -79.0181 -79.0181
   -79.0179 -79.0179 -79.0179 -79.0179 -79.0175 -79.0175 -79.0175 -79.0175
   -79.0174 -79.0174 -79.0174 -79.0174 -79.0170 -79.0170 -79.0169 -79.0169
   -79.0168 -79.0168 -79.0167 -79.0166 -79.0154 -79.0154 -79.0146 -79.0146
   -79.0110 -79.0110 -79.0109 -79.0109 -79.0075 -79.0075 -79.0075 -79.0074
   -79.0041 -79.0041 -79.0023 -79.0023 -79.0023 -79.0023 -79.0009 -79.0009
   -79.0009 -79.0009 -79.0008 -79.0008 -79.0002 -79.0002 -79.0002 -79.0002
   -78.9995 -78.9995 -78.9995 -78.9995 -78.9980 -78.9980 -78.9980 -78.9980
   -78.9954 -78.9954 -78.9939 -78.9939 -78.9939 -78.9939 -78.9926 -78.9925
    -8.2695  -7.8227  -7.8227  -7.1117  -6.9149  -6.8409  -6.8409  -6.8036
    -6.8036  -6.7979  -6.7979  -6.7929  -6.7929  -6.7697  -6.7283  -6.7283
    -6.6993  -6.6993  -6.6559  -6.6559  -6.6241  -6.6099  -6.6099  -6.6054
    -6.6054  -6.5888  -6.5888  -6.5686  -6.5686  -6.5607  -6.5607  -6.5445
    -6.5351  -6.5351  -6.4926  -6.4926  -6.4728  -6.4728  -6.4695  -6.4627
    -6.4627  -6.4410  -6.4407  -6.4185  -6.4130  -6.4130  -6.4127  -6.4127
    -6.4038  -6.4038  -6.3932  -6.3706  -6.3706  -6.3134  -6.3027  -6.3027
    -6.2980  -6.2980  -6.2930  -6.2930  -6.2925  -6.2793  -6.2680  -6.2639
    -6.2639  -6.2557  -6.2498  -6.2498  -6.2447  -6.2447  -6.2427  -6.2230
    -6.2230  -6.2027  -6.2027  -6.1785  -6.1785  -6.1669  -6.1482  -6.1463
    -6.1422  -6.1422  -6.1188  -6.1188  -6.1089  -6.1089  -6.0954  -6.0898
    -6.0569  -6.0569  -6.0474  -6.0473  -6.0428  -6.0342  -6.0207  -6.0207
    -5.9981  -5.9925  -5.9925  -5.9898  -5.9809  -5.9809  -5.9733  -5.9733
    -5.9709  -5.9709  -5.9578  -5.9495  -5.9429  -5.9166  -5.9166  -5.9083
    -5.9083  -5.9073  -5.8996  -5.8919  -5.8919  -5.8869  -5.8868  -5.8782
    -5.8782  -5.8541  -5.8541  -5.8472  -5.8472  -5.8345  -5.8345  -5.8339
    -5.8332  -5.8297  -5.8297  -5.8093  -5.7978  -5.7977  -5.7944  -5.7733
    -5.7639  -5.7639  -5.7566  -5.7530  -5.7530  -5.7506  -5.7140  -5.7140
    -5.6948  -5.6948  -5.6924  -5.6924  -5.6583  -5.6550  -5.6550  -5.6540
    -5.6540  -5.6475  -5.6334  -5.6316  -5.6316  -5.6246  -5.6246  -5.5935
    -5.5933  -5.5933  -5.5927  -5.5927  -5.5835  -5.5835  -5.5817  -5.5817
    -5.5793  -5.5793  -5.5752  -5.5752  -5.5674  -5.5674  -5.5501  -5.5501
    -5.5495  -5.5495  -5.5456  -5.5410  -5.5372  -5.5372  -5.5157  -5.5157
    -5.5132  -5.5105  -5.5105  -5.5080  -5.5038  -5.4846  -5.4846  -5.4829
    -5.4801  -5.4801  -5.4669  -5.4621  -5.4621  -5.4607  -5.4607  -5.4586
    -5.4586  -5.4565  -5.4565  -5.4439  -5.4439  -5.4414  -5.4414  -5.4344
    -5.4344  -5.4317  -5.4187  -5.4187  -5.4106  -5.4106  -5.4104  -5.3995
    -5.3958  -5.3872  -5.3872  -5.3756  -5.3756  -5.3754  -5.3699  -5.3686
    -5.3655  -5.3655  -5.3360  -5.3286  -5.3286  -5.3091  -5.3091  -5.2825
    -5.2768  -5.2768  -5.2737  -5.2737  -5.2727  -5.2727  -5.2577  -5.2294
    -5.1879  -5.1879  -5.1839  -5.1839  -5.1446  -5.1446  -5.0652  -5.0652
    -4.4566  -4.2331  -4.2331  -4.0440  -4.0440  -3.2450  -3.2450  -3.1957
    -3.1449  -2.8772  -2.8772  -2.8498  -2.8498  -2.7803  -2.7803  -1.7958
    -1.7958  -1.7015  -1.7015  -1.4131  -1.4131  -0.8450  -0.4757  -0.4757
    -0.4120  -0.4120  -0.3229  -0.2412   0.2947   0.3502   0.3502   0.4235
     0.4235   0.6999   0.6999   0.7893   0.9704   0.9704   1.0868   1.4159
     1.4159   1.9759   1.9759   2.5311   2.5520   2.8208   2.9857   3.0909
     3.3260   3.3260   3.3642   3.3642   3.4436   3.4467   3.4467   3.5748
     3.5748   3.6673   3.8903   3.8903   4.3748   4.3748   4.3919   4.4247
     4.4436   4.4436   4.5669   4.5669   4.8789   4.9328   5.1391   5.1391
     5.2203   5.2203   5.4140   5.4442   5.4442   5.4523   5.4523   5.6123
     5.8652   5.8652   6.0718   6.0718   6.0905   6.1240   6.1240   6.5420
     6.5421   6.5487   6.6436   6.6456   6.6456   6.7369   6.9520   6.9991
     6.9991   7.0018   7.0113   7.0113   7.0438   7.0438   7.1637   7.1637
     7.1862   7.1862   7.2124   7.2124   7.2219   7.2219   7.4475   7.4475
     8.0927   8.2146   8.2146   8.3543   8.3619   8.3845   8.3845   8.5238
     8.5238   8.5394   8.5547   8.5825   8.5826   8.6243   8.6243   8.6581
     8.6785   8.6785   8.7011   8.7430   8.8073   8.8073   9.0145   9.0145

     occupation numbers 
     1.0000   1.0000   1.0000   1.0000   1.0000   1.0000   1.0000   1.0000
     1.0000   1.0000   1.0000   1.0000   1.0000   1.0000   1.0000   1.0000
     1.0000   1.0000   1.0000   1.0000   1.0000   1.0000   1.0000   1.0000
     1.0000   1.0000   1.0000   1.0000   1.0000   1.0000   1.0000   1.0000
     1.0000   1.0000   1.0000   1.0000   1.0000   1.0000   1.0000   1.0000
     1.0000   1.0000   1.0000   1.0000   1.0000   1.0000   1.0000   1.0000
     1.0000   1.0000   1.0000   1.0000   1.0000   1.0000   1.0000   1.0000
     1.0000   1.0000   1.0000   1.0000   1.0000   1.0000   1.0000   1.0000
     1.0000   1.0000   1.0000   1.0000   1.0000   1.0000   1.0000   1.0000
     1.0000   1.0000   1.0000   1.0000   1.0000   1.0000   1.0000   1.0000
     1.0000   1.0000   1.0000   1.0000   1.0000   1.0000   1.0000   1.0000
     1.0000   1.0000   1.0000   1.0000   1.0000   1.0000   1.0000   1.0000
     1.0000   1.0000   1.0000   1.0000   1.0000   1.0000   1.0000   1.0000
     1.0000   1.0000   1.0000   1.0000   1.0000   1.0000   1.0000   1.0000
     1.0000   1.0000   1.0000   1.0000   1.0000   1.0000   1.0000   1.0000
     1.0000   1.0000   1.0000   1.0000   1.0000   1.0000   1.0000   1.0000
     1.0000   1.0000   1.0000   1.0000   1.0000   1.0000   1.0000   1.0000
     1.0000   1.0000   1.0000   1.0000   1.0000   1.0000   1.0000   1.0000
     1.0000   1.0000   1.0000   1.0000   1.0000   1.0000   1.0000   1.0000
     1.0000   1.0000   1.0000   1.0000   1.0000   1.0000   1.0000   1.0000
     1.0000   1.0000   1.0000   1.0000   1.0000   1.0000   1.0000   1.0000
     1.0000   1.0000   1.0000   1.0000   1.0000   1.0000   1.0000   1.0000
     1.0000   1.0000   1.0000   1.0000   1.0000   1.0000   1.0000   1.0000
     1.0000   1.0000   1.0000   1.0000   1.0000   1.0000   1.0000   1.0000
     1.0000   1.0000   1.0000   1.0000   1.0000   1.0000   1.0000   1.0000
     1.0000   1.0000   1.0000   1.0000   1.0000   1.0000   1.0000   1.0000
     1.0000   1.0000   1.0000   1.0000   1.0000   1.0000   1.0000   1.0000
     1.0000   1.0000   1.0000   1.0000   1.0000   1.0000   1.0000   1.0000
     1.0000   1.0000   1.0000   1.0000   1.0000   1.0000   1.0000   1.0000
     1.0000   1.0000   1.0000   1.0000   1.0000   1.0000   1.0000   1.0000
     1.0000   1.0000   1.0000   1.0000   1.0000   1.0000   1.0000   1.0000
     1.0000   1.0000   1.0000   1.0000   1.0000   1.0000   1.0000   1.0000
     1.0000   1.0000   1.0000   1.0000   1.0000   1.0000   1.0000   1.0000
     1.0000   1.0000   1.0000   1.0000   1.0000   1.0000   1.0000   1.0000
     1.0000   1.0000   1.0000   1.0000   1.0000   1.0000   1.0000   1.0000
     1.0000   1.0000   1.0000   1.0000   1.0000   1.0000   1.0000   1.0000
     1.0000   1.0000   1.0000   1.0000   1.0000   1.0000   1.0000   1.0000
     1.0000   1.0000   1.0000   1.0000   1.0000   1.0000   1.0000   1.0000
     1.0000   1.0000   1.0000   1.0000   1.0000   1.0000   1.0000   1.0000
     1.0000   1.0000   1.0000   1.0000   1.0000   1.0000   1.0000   1.0000
     1.0000   1.0000   1.0000   1.0000   1.0000   1.0000   1.0000   1.0000
     1.0000   1.0000   1.0000   1.0000   1.0000   1.0000   1.0000   1.0000
     1.0000   1.0000   1.0000   1.0000   1.0000   1.0000   1.0000   1.0000
     1.0000   1.0000   1.0000   1.0000   1.0000   1.0000   1.0000   1.0000
     1.0000   1.0000   1.0000   1.0000   1.0000   1.0000   1.0000   1.0000
     1.0000   1.0000   1.0000   1.0000   1.0000   1.0000   1.0000   1.0000
     1.0000   1.0000   1.0000   1.0000   1.0000   1.0000   1.0000   1.0000
     1.0000   1.0000   1.0000   1.0000   1.0000   1.0000   1.0000   1.0000
     1.0000   1.0000   1.0000   1.0000   1.0000   1.0000   1.0000   1.0000
     1.0000   1.0000   1.0000   1.0000   1.0000   1.0000   1.0000   1.0000
     1.0000   1.0000   1.0000   1.0000   1.0000   1.0000   1.0000   1.0000
     1.0000   1.0000   1.0000   1.0000   1.0000   1.0000   1.0000   1.0000
     1.0000   1.0000   1.0000   1.0000   1.0000   1.0000   1.0000   1.0000
     1.0000   1.0000   1.0000   1.0000   1.0000   1.0000   1.0000   1.0000
     1.0000   1.0000   1.0000   1.0000   1.0000   1.0000   1.0000   1.0000
     1.0000   1.0000   1.0000   1.0000   1.0000   1.0000   1.0000   1.0000
     1.0000   1.0000   1.0000   1.0000   1.0000   1.0000   1.0000   1.0000
     1.0000   1.0000   1.0000   1.0000   1.0000   1.0000   1.0000   1.0000
     1.0000   1.0000   1.0000   1.0000   1.0000   1.0000   1.0000   1.0000
     1.0000   1.0052   1.0052   1.0160   1.0686   1.0686   1.0778   0.4451
     0.4451   0.0003   0.0003   0.0000   0.0000   0.0000   0.0000   0.0000
     0.0000   0.0000   0.0000   0.0000   0.0000   0.0000   0.0000   0.0000
     0.0000   0.0000   0.0000   0.0000   0.0000   0.0000   0.0000   0.0000
     0.0000   0.0000   0.0000   0.0000   0.0000   0.0000   0.0000   0.0000
     0.0000   0.0000   0.0000   0.0000   0.0000   0.0000   0.0000   0.0000
     0.0000   0.0000   0.0000   0.0000   0.0000   0.0000   0.0000   0.0000
     0.0000   0.0000   0.0000   0.0000   0.0000   0.0000   0.0000   0.0000
     0.0000   0.0000   0.0000   0.0000   0.0000   0.0000   0.0000   0.0000
     0.0000   0.0000   0.0000   0.0000   0.0000   0.0000   0.0000   0.0000
     0.0000   0.0000   0.0000   0.0000   0.0000   0.0000   0.0000   0.0000
     0.0000   0.0000   0.0000   0.0000   0.0000   0.0000   0.0000   0.0000
     0.0000   0.0000   0.0000   0.0000   0.0000   0.0000   0.0000   0.0000

          k = 0.2500-0.4330 0.0000 ( 64876 PWs)   bands (ev):

  -125.0686-125.0681-125.0681-125.0670-125.0670-125.0664-125.0663-125.0662
  -125.0659-125.0658-125.0658-125.0658-125.0654-125.0653-125.0653-125.0651
  -124.8640-124.8639-124.8635-124.8635-124.8635-124.8635-124.8624-124.8624
  -124.8623-124.8623-124.8618-124.8618-124.8616-124.8616-124.8616-124.8616
  -124.8612-124.8612-124.8612-124.8612-124.8611-124.8611-124.8611-124.8611
  -124.8608-124.8607-124.8607-124.8606-124.8606-124.8606-124.8605-124.8604
   -79.2337 -79.2321 -79.2321 -79.2316 -79.2316 -79.2294 -79.2294 -79.2273
   -79.2273 -79.2269 -79.2234 -79.2226 -79.2189 -79.2189 -79.2168 -79.2162
   -79.2162 -79.2154 -79.2154 -79.2149 -79.2149 -79.2143 -79.2141 -79.2141
   -79.2137 -79.2136 -79.2135 -79.2135 -79.2131 -79.2130 -79.2130 -79.2128
   -79.2120 -79.2102 -79.2102 -79.2088 -79.2088 -79.2087 -79.2081 -79.2081
   -79.2074 -79.2074 -79.2059 -79.2059 -79.2033 -79.2018 -79.2018 -79.2004
   -79.0258 -79.0257 -79.0241 -79.0241 -79.0241 -79.0241 -79.0236 -79.0236
   -79.0236 -79.0236 -79.0215 -79.0215 -79.0214 -79.0214 -79.0205 -79.0204
   -79.0200 -79.0200 -79.0199 -79.0199 -79.0194 -79.0194 -79.0194 -79.0193
   -79.0190 -79.0189 -79.0187 -79.0187 -79.0187 -79.0187 -79.0181 -79.0181
   -79.0179 -79.0179 -79.0179 -79.0179 -79.0175 -79.0175 -79.0175 -79.0175
   -79.0174 -79.0174 -79.0174 -79.0174 -79.0170 -79.0170 -79.0169 -79.0169
   -79.0169 -79.0168 -79.0167 -79.0166 -79.0154 -79.0154 -79.0146 -79.0146
   -79.0110 -79.0110 -79.0109 -79.0109 -79.0075 -79.0075 -79.0075 -79.0074
   -79.0041 -79.0041 -79.0023 -79.0023 -79.0023 -79.0023 -79.0009 -79.0009
   -79.0009 -79.0009 -79.0008 -79.0008 -79.0002 -79.0002 -79.0002 -79.0002
   -78.9995 -78.9995 -78.9995 -78.9994 -78.9980 -78.9980 -78.9980 -78.9980
   -78.9954 -78.9954 -78.9939 -78.9939 -78.9939 -78.9939 -78.9926 -78.9925
    -8.2695  -7.8227  -7.8227  -7.1117  -6.9149  -6.8409  -6.8409  -6.8036
    -6.8036  -6.7979  -6.7979  -6.7929  -6.7928  -6.7697  -6.7283  -6.7283
    -6.6993  -6.6993  -6.6559  -6.6559  -6.6241  -6.6099  -6.6099  -6.6054
    -6.6054  -6.5888  -6.5888  -6.5686  -6.5686  -6.5607  -6.5607  -6.5445
    -6.5351  -6.5351  -6.4926  -6.4925  -6.4728  -6.4728  -6.4695  -6.4627
    -6.4627  -6.4410  -6.4407  -6.4185  -6.4130  -6.4130  -6.4127  -6.4127
    -6.4038  -6.4038  -6.3932  -6.3706  -6.3706  -6.3134  -6.3027  -6.3027
    -6.2980  -6.2980  -6.2930  -6.2930  -6.2925  -6.2793  -6.2680  -6.2639
    -6.2639  -6.2557  -6.2498  -6.2498  -6.2447  -6.2447  -6.2427  -6.2230
    -6.2230  -6.2027  -6.2027  -6.1785  -6.1785  -6.1669  -6.1482  -6.1463
    -6.1422  -6.1422  -6.1188  -6.1188  -6.1089  -6.1089  -6.0954  -6.0898
    -6.0569  -6.0569  -6.0474  -6.0473  -6.0428  -6.0342  -6.0207  -6.0207
    -5.9981  -5.9925  -5.9925  -5.9898  -5.9809  -5.9809  -5.9733  -5.9733
    -5.9709  -5.9709  -5.9578  -5.9495  -5.9429  -5.9166  -5.9166  -5.9084
    -5.9083  -5.9073  -5.8996  -5.8919  -5.8919  -5.8869  -5.8868  -5.8782
    -5.8782  -5.8541  -5.8541  -5.8472  -5.8472  -5.8345  -5.8345  -5.8339
    -5.8332  -5.8297  -5.8297  -5.8093  -5.7978  -5.7977  -5.7944  -5.7733
[...]
     1.0000   1.0000   1.0000   1.0000   1.0000   1.0000   1.0000   1.0000
     1.0000   1.0000   1.0000   1.0000   1.0000   1.0000   1.0000   1.0000
     1.0000   1.0000   1.0000   1.0000   1.0000   1.0000   1.0000   1.0000
     1.0000   1.0000   1.0000   1.0000   1.0000   1.0000   1.0000   1.0000
     1.0000   1.0000   1.0000   1.0000   1.0000   1.0000   1.0000   1.0000
     1.0000   1.0000   1.0000   1.0000   1.0000   1.0000   1.0000   1.0000
     1.0000   1.0000   1.0000   1.0000   1.0000   1.0000   1.0000   1.0000
     1.0000   1.0000   1.0000   1.0000   1.0000   1.0000   1.0000   1.0000
     1.0000   1.0000   1.0000   1.0000   1.0000   1.0000   1.0000   1.0000
     1.0000   1.0000   1.0000   1.0000   1.0000   1.0000   1.0000   1.0000
     1.0000   1.0000   1.0000   1.0000   1.0000   1.0000   1.0000   1.0000
     1.0000   1.0000   1.0000   1.0000   1.0000   1.0000   1.0000   1.0000
     1.0000   1.0000   1.0000   1.0000   1.0000   1.0000   1.0000   1.0000
     1.0000   1.0000   1.0000   1.0000   1.0000   1.0000   1.0000   1.0000
     1.0000   1.0000   1.0000   1.0000   1.0000   1.0000   1.0000   1.0000
     1.0000   1.0000   1.0000   1.0000   1.0000   1.0000   1.0000   1.0000
     1.0000   1.0000   1.0000   1.0000   1.0000   1.0000   1.0000   1.0000
     1.0000   1.0000   1.0000   1.0000   1.0000   1.0000   1.0000   1.0000
     1.0000   1.0000   1.0000   1.0000   1.0000   1.0000   1.0000   1.0000
     1.0000   1.0000   1.0000   1.0000   1.0000   1.0000   1.0000   1.0000
     1.0000   1.0000   1.0000   1.0000   1.0000   1.0000   1.0000   1.0000
     1.0000   1.0000   1.0000   1.0000   1.0000   1.0000   1.0000   1.0000
     1.0000   1.0000   1.0000   1.0000   1.0000   1.0000   1.0000   1.0000
     1.0000   1.0000   1.0000   1.0000   1.0000   1.0000   1.0000   1.0000
     1.0000   1.0000   1.0000   1.0000   1.0000   1.0000   1.0000   1.0000
     1.0000   1.0000   1.0000   1.0000   1.0000   1.0000   1.0000   1.0000
     1.0000   1.0000   1.0000   1.0000   1.0000   1.0000   1.0000   1.0000
     1.0000   1.0000   1.0000   1.0000   1.0000   1.0000   1.0000   1.0000
     1.0000   1.0000   1.0000   1.0000   1.0000   1.0000   1.0000   1.0000
     1.0000   1.0000   1.0000   1.0000   1.0000   1.0000   1.0000   1.0000
     1.0000   1.0000   1.0000   1.0000   1.0000   1.0000   1.0000   1.0000
     1.0000   1.0000   1.0000   1.0000   1.0000   1.0000   1.0000   1.0000
     1.0000   1.0000   1.0000   1.0000   1.0000   1.0000   1.0000   1.0000
     1.0000   1.0000   1.0000   1.0000   1.0000   1.0000   1.0000   1.0000
     1.0000   1.0000   1.0000   1.0000   1.0000   1.0000   1.0000   1.0000
     1.0000   1.0000   1.0000   1.0000   1.0000   1.0000   1.0000   1.0000
     1.0000   1.0000   1.0000   1.0000   1.0000   1.0000   1.0000   1.0000
     1.0000   1.0000   1.0000   1.0000   1.0000   1.0000   1.0000   1.0000
     1.0000   1.0000   1.0000   1.0000   1.0000   1.0000   1.0000   1.0000
     1.0000   1.0000   1.0000   1.0000   1.0000   1.0000   1.0000   1.0000
     1.0000   1.0000   1.0000   1.0000   1.0000   1.0000   1.0000   1.0000
     1.0000   1.0000   1.0000   1.0000   1.0000   1.0000   1.0000   1.0000
     1.0000   1.0000   1.0000   1.0000   1.0000   1.0000   1.0000   1.0000
     1.0000   1.0000   1.0000   1.0000   1.0000   1.0000   1.0000   1.0000
     1.0000   1.0000   1.0000   1.0000   1.0000   1.0000   1.0000   1.0000
     1.0000   1.0000   1.0000   1.0000   1.0000   1.0000   1.0000   1.0000
     1.0000   1.0000   1.0000   1.0000   1.0000   1.0000   1.0000   1.0000
     1.0000   1.0000   1.0000   1.0000   1.0000   1.0000   1.0000   1.0000
     1.0000   1.0000   1.0000   1.0000   1.0000   1.0000   1.0000   1.0000
     1.0000   1.0000   1.0000   1.0000   1.0000   1.0000   1.0000   1.0000
     1.0000   1.0000   1.0000   1.0000   1.0000   1.0000   1.0000   1.0000
     1.0000   1.0000   1.0000   1.0000   1.0000   1.0000   1.0000   1.0000
     1.0000   1.0052   1.0052   1.0160   1.0686   1.0686   1.0778   0.4451
     0.4450   0.0003   0.0003   0.0000   0.0000   0.0000   0.0000   0.0000
     0.0000   0.0000   0.0000   0.0000   0.0000   0.0000   0.0000   0.0000
     0.0000   0.0000   0.0000   0.0000   0.0000   0.0000   0.0000   0.0000
     0.0000   0.0000   0.0000   0.0000   0.0000   0.0000   0.0000   0.0000
     0.0000   0.0000   0.0000   0.0000   0.0000   0.0000   0.0000   0.0000
     0.0000   0.0000   0.0000   0.0000   0.0000   0.0000   0.0000   0.0000
     0.0000   0.0000   0.0000   0.0000   0.0000   0.0000   0.0000   0.0000
     0.0000   0.0000   0.0000   0.0000   0.0000   0.0000   0.0000   0.0000
     0.0000   0.0000   0.0000   0.0000   0.0000   0.0000   0.0000   0.0000
     0.0000   0.0000   0.0000   0.0000   0.0000   0.0000   0.0000   0.0000
     0.0000   0.0000   0.0000   0.0000   0.0000   0.0000   0.0000   0.0000
     0.0000   0.0000   0.0000   0.0000   0.0000   0.0000   0.0000   0.0000

          k =-0.5000-0.8660 0.0000 ( 64842 PWs)   bands (ev):

  -125.0685-125.0685-125.0676-125.0676-125.0664-125.0664-125.0664-125.0664
  -125.0660-125.0660-125.0655-125.0655-125.0655-125.0655-125.0651-125.0651
  -124.8639-124.8638-124.8638-124.8638-124.8630-124.8630-124.8630-124.8630
  -124.8618-124.8618-124.8618-124.8618-124.8617-124.8617-124.8617-124.8617
  -124.8614-124.8614-124.8614-124.8614-124.8609-124.8609-124.8609-124.8609
  -124.8609-124.8609-124.8608-124.8608-124.8605-124.8605-124.8605-124.8605
   -79.2326 -79.2326 -79.2326 -79.2326 -79.2302 -79.2301 -79.2291 -79.2291
   -79.2246 -79.2246 -79.2246 -79.2246 -79.2197 -79.2197 -79.2166 -79.2166
   -79.2156 -79.2156 -79.2142 -79.2142 -79.2142 -79.2142 -79.2138 -79.2138
   -79.2133 -79.2132 -79.2132 -79.2132 -79.2131 -79.2131 -79.2128 -79.2128
   -79.2116 -79.2115 -79.2115 -79.2115 -79.2082 -79.2082 -79.2082 -79.2082
   -79.2074 -79.2074 -79.2046 -79.2046 -79.2036 -79.2036 -79.2007 -79.2007
   -79.0247 -79.0247 -79.0247 -79.0247 -79.0246 -79.0246 -79.0246 -79.0246
   -79.0222 -79.0222 -79.0222 -79.0222 -79.0212 -79.0212 -79.0211 -79.0211
   -79.0204 -79.0204 -79.0203 -79.0202 -79.0194 -79.0194 -79.0193 -79.0193
   -79.0181 -79.0181 -79.0181 -79.0181 -79.0180 -79.0180 -79.0180 -79.0180
   -79.0177 -79.0177 -79.0176 -79.0176 -79.0171 -79.0171 -79.0171 -79.0171
   -79.0171 -79.0171 -79.0171 -79.0171 -79.0167 -79.0167 -79.0167 -79.0167
   -79.0167 -79.0167 -79.0167 -79.0167 -79.0166 -79.0166 -79.0166 -79.0166
   -79.0118 -79.0118 -79.0117 -79.0117 -79.0052 -79.0052 -79.0052 -79.0052
   -79.0037 -79.0037 -79.0036 -79.0036 -79.0036 -79.0036 -79.0036 -79.0036
   -79.0003 -79.0003 -79.0003 -79.0003 -79.0003 -79.0003 -79.0003 -79.0003
   -78.9995 -78.9995 -78.9995 -78.9995 -78.9967 -78.9967 -78.9967 -78.9967
   -78.9958 -78.9957 -78.9957 -78.9957 -78.9929 -78.9928 -78.9928 -78.9928
    -8.1553  -8.1553  -7.3166  -7.3166  -7.0257  -7.0257  -6.8645  -6.8645
    -6.8606  -6.8606  -6.7506  -6.7506  -6.7506  -6.7506  -6.6544  -6.6544
    -6.6478  -6.6478  -6.6478  -6.6478  -6.6253  -6.6253  -6.6078  -6.6078
    -6.6078  -6.6078  -6.5542  -6.5542  -6.5295  -6.5295  -6.5295  -6.5295
    -6.5062  -6.5062  -6.4883  -6.4883  -6.4883  -6.4883  -6.4638  -6.4638
    -6.4638  -6.4638  -6.4616  -6.4616  -6.4506  -6.4506  -6.4271  -6.4271
    -6.4226  -6.4226  -6.4226  -6.4226  -6.3110  -6.3110  -6.3025  -6.3025
    -6.2937  -6.2937  -6.2937  -6.2937  -6.2924  -6.2924  -6.2715  -6.2715
    -6.2715  -6.2715  -6.2370  -6.2370  -6.2219  -6.2219  -6.2219  -6.2219
    -6.2069  -6.2069  -6.2017  -6.2017  -6.1712  -6.1712  -6.1426  -6.1426
    -6.1125  -6.1125  -6.1042  -6.1042  -6.0834  -6.0834  -6.0834  -6.0833
    -6.0625  -6.0625  -6.0625  -6.0625  -6.0427  -6.0427  -6.0331  -6.0331
    -6.0267  -6.0267  -6.0230  -6.0230  -6.0103  -6.0103  -5.9908  -5.9908
    -5.9908  -5.9908  -5.9476  -5.9476  -5.9465  -5.9465  -5.9160  -5.9160
    -5.9062  -5.9062  -5.8728  -5.8728  -5.8728  -5.8728  -5.8158  -5.8158
    -5.8102  -5.8102  -5.8093  -5.8093  -5.8093  -5.8093  -5.8061  -5.8061
    -5.7882  -5.7882  -5.7857  -5.7857  -5.7766  -5.7766  -5.7766  -5.7766
    -5.7686  -5.7686  -5.7681  -5.7681  -5.7681  -5.7681  -5.7569  -5.7569
    -5.7547  -5.7547  -5.7547  -5.7547  -5.6761  -5.6761  -5.6747  -5.6747
    -5.6679  -5.6679  -5.6464  -5.6464  -5.6464  -5.6464  -5.6320  -5.6320
    -5.6246  -5.6246  -5.6054  -5.6054  -5.6054  -5.6054  -5.5952  -5.5952
    -5.5711  -5.5711  -5.5442  -5.5442  -5.5297  -5.5297  -5.5297  -5.5297
    -5.5272  -5.5272  -5.5272  -5.5272  -5.5240  -5.5240  -5.5218  -5.5218
    -5.4999  -5.4999  -5.4999  -5.4998  -5.4898  -5.4897  -5.4890  -5.4890
    -5.4875  -5.4875  -5.4798  -5.4798  -5.4649  -5.4649  -5.4649  -5.4649
    -5.4519  -5.4519  -5.4519  -5.4519  -5.4406  -5.4406  -5.4236  -5.4236
    -5.4165  -5.4165  -5.4165  -5.4165  -5.4133  -5.4133  -5.4125  -5.4125
    -5.4058  -5.4058  -5.4034  -5.4034  -5.4013  -5.4013  -5.3713  -5.3713
    -5.3637  -5.3637  -5.3637  -5.3637  -5.3250  -5.3250  -5.3250  -5.3250
    -5.2550  -5.2550  -5.2550  -5.2550  -5.2358  -5.2358  -5.2351  -5.2351
    -5.2351  -5.2351  -5.2023  -5.2023  -5.1996  -5.1996  -4.7024  -4.7024
    -4.4186  -4.4186  -4.4186  -4.4186  -3.7282  -3.7282  -3.1107  -3.1107
    -3.0615  -3.0615  -3.0615  -3.0615  -2.3915  -2.3915  -2.2396  -2.2396
    -1.7577  -1.7577  -1.7577  -1.7577  -0.7552  -0.7552  -0.7552  -0.7552
    -0.3252  -0.3252  -0.3252  -0.3252  -0.0901  -0.0901   0.0132   0.0132
     1.0216   1.0216   1.0494   1.0494   1.3383   1.3383   1.3702   1.3702
     1.3702   1.3702   2.2239   2.2239   2.9002   2.9002   2.9002   2.9002
     3.1019   3.1019   3.1019   3.1019   3.3224   3.3224   3.5553   3.5553
     3.8669   3.8669   3.8669   3.8669   3.9985   3.9985   4.2583   4.2583
     4.4473   4.4473   4.7461   4.7461   4.8583   4.8583   5.4826   5.4826
     5.5268   5.5268   5.7272   5.7272   5.8013   5.8013   5.9298   5.9298
     5.9298   5.9298   5.9833   5.9833   5.9833   5.9833   6.1541   6.1541
     6.1541   6.1541   6.4283   6.4283   6.5600   6.5600   6.6456   6.6456
     6.6645   6.6645   6.8493   6.8493   6.8667   6.8667   7.0142   7.0142
     7.0142   7.0142   7.5871   7.5871   7.7468   7.7468   8.0647   8.0647
     8.0914   8.0914   8.0914   8.0914   8.2791   8.2791   8.4788   8.4788
     8.4788   8.4788   8.6274   8.6274   8.6274   8.6274   8.6698   8.6698
     8.7367   8.7367   8.8123   8.8123   8.9997   8.9997   8.9997   8.9997

     occupation numbers 
     1.0000   1.0000   1.0000   1.0000   1.0000   1.0000   1.0000   1.0000
     1.0000   1.0000   1.0000   1.0000   1.0000   1.0000   1.0000   1.0000
     1.0000   1.0000   1.0000   1.0000   1.0000   1.0000   1.0000   1.0000
     1.0000   1.0000   1.0000   1.0000   1.0000   1.0000   1.0000   1.0000
     1.0000   1.0000   1.0000   1.0000   1.0000   1.0000   1.0000   1.0000
     1.0000   1.0000   1.0000   1.0000   1.0000   1.0000   1.0000   1.0000
     1.0000   1.0000   1.0000   1.0000   1.0000   1.0000   1.0000   1.0000
     1.0000   1.0000   1.0000   1.0000   1.0000   1.0000   1.0000   1.0000
     1.0000   1.0000   1.0000   1.0000   1.0000   1.0000   1.0000   1.0000
     1.0000   1.0000   1.0000   1.0000   1.0000   1.0000   1.0000   1.0000
     1.0000   1.0000   1.0000   1.0000   1.0000   1.0000   1.0000   1.0000
     1.0000   1.0000   1.0000   1.0000   1.0000   1.0000   1.0000   1.0000
     1.0000   1.0000   1.0000   1.0000   1.0000   1.0000   1.0000   1.0000
     1.0000   1.0000   1.0000   1.0000   1.0000   1.0000   1.0000   1.0000
     1.0000   1.0000   1.0000   1.0000   1.0000   1.0000   1.0000   1.0000
     1.0000   1.0000   1.0000   1.0000   1.0000   1.0000   1.0000   1.0000
     1.0000   1.0000   1.0000   1.0000   1.0000   1.0000   1.0000   1.0000
     1.0000   1.0000   1.0000   1.0000   1.0000   1.0000   1.0000   1.0000
     1.0000   1.0000   1.0000   1.0000   1.0000   1.0000   1.0000   1.0000
     1.0000   1.0000   1.0000   1.0000   1.0000   1.0000   1.0000   1.0000
     1.0000   1.0000   1.0000   1.0000   1.0000   1.0000   1.0000   1.0000
     1.0000   1.0000   1.0000   1.0000   1.0000   1.0000   1.0000   1.0000
     1.0000   1.0000   1.0000   1.0000   1.0000   1.0000   1.0000   1.0000
     1.0000   1.0000   1.0000   1.0000   1.0000   1.0000   1.0000   1.0000
     1.0000   1.0000   1.0000   1.0000   1.0000   1.0000   1.0000   1.0000
     1.0000   1.0000   1.0000   1.0000   1.0000   1.0000   1.0000   1.0000
     1.0000   1.0000   1.0000   1.0000   1.0000   1.0000   1.0000   1.0000
     1.0000   1.0000   1.0000   1.0000   1.0000   1.0000   1.0000   1.0000
     1.0000   1.0000   1.0000   1.0000   1.0000   1.0000   1.0000   1.0000
     1.0000   1.0000   1.0000   1.0000   1.0000   1.0000   1.0000   1.0000
     1.0000   1.0000   1.0000   1.0000   1.0000   1.0000   1.0000   1.0000
     1.0000   1.0000   1.0000   1.0000   1.0000   1.0000   1.0000   1.0000
     1.0000   1.0000   1.0000   1.0000   1.0000   1.0000   1.0000   1.0000
     1.0000   1.0000   1.0000   1.0000   1.0000   1.0000   1.0000   1.0000
     1.0000   1.0000   1.0000   1.0000   1.0000   1.0000   1.0000   1.0000
     1.0000   1.0000   1.0000   1.0000   1.0000   1.0000   1.0000   1.0000
     1.0000   1.0000   1.0000   1.0000   1.0000   1.0000   1.0000   1.0000
     1.0000   1.0000   1.0000   1.0000   1.0000   1.0000   1.0000   1.0000
     1.0000   1.0000   1.0000   1.0000   1.0000   1.0000   1.0000   1.0000
     1.0000   1.0000   1.0000   1.0000   1.0000   1.0000   1.0000   1.0000
     1.0000   1.0000   1.0000   1.0000   1.0000   1.0000   1.0000   1.0000
     1.0000   1.0000   1.0000   1.0000   1.0000   1.0000   1.0000   1.0000
     1.0000   1.0000   1.0000   1.0000   1.0000   1.0000   1.0000   1.0000
     1.0000   1.0000   1.0000   1.0000   1.0000   1.0000   1.0000   1.0000
     1.0000   1.0000   1.0000   1.0000   1.0000   1.0000   1.0000   1.0000
     1.0000   1.0000   1.0000   1.0000   1.0000   1.0000   1.0000   1.0000
     1.0000   1.0000   1.0000   1.0000   1.0000   1.0000   1.0000   1.0000
     1.0000   1.0000   1.0000   1.0000   1.0000   1.0000   1.0000   1.0000
     1.0000   1.0000   1.0000   1.0000   1.0000   1.0000   1.0000   1.0000
     1.0000   1.0000   1.0000   1.0000   1.0000   1.0000   1.0000   1.0000
     1.0000   1.0000   1.0000   1.0000   1.0000   1.0000   1.0000   1.0000
     1.0000   1.0000   1.0000   1.0000   1.0000   1.0000   1.0000   1.0000
     1.0000   1.0000   1.0000   1.0000   1.0000   1.0000   1.0000   1.0000
     1.0000   1.0000   1.0000   1.0000   1.0000   1.0000   1.0000   1.0000
     1.0000   1.0000   1.0000   1.0000   1.0000   1.0000   1.0000   1.0000
     1.0000   1.0000   1.0000   1.0000   1.0000   1.0000   1.0000   1.0000
     1.0000   1.0000   1.0000   1.0000   1.0000   1.0000   1.0000   1.0000
     1.0000   1.0000   1.0000   1.0000   1.0000   1.0000   1.0000   1.0000
     1.0000   1.0000   1.0000   1.0000   1.0000   1.0000   1.0000   1.0000
     1.0812   1.0812   1.0833   1.0833   0.6570   0.6570   0.5687   0.5687
     0.5687   0.5687   0.0000   0.0000   0.0000   0.0000   0.0000   0.0000
     0.0000   0.0000   0.0000   0.0000   0.0000   0.0000   0.0000   0.0000
     0.0000   0.0000   0.0000   0.0000   0.0000   0.0000   0.0000   0.0000
     0.0000   0.0000   0.0000   0.0000   0.0000   0.0000   0.0000   0.0000
     0.0000   0.0000   0.0000   0.0000   0.0000   0.0000   0.0000   0.0000
     0.0000   0.0000   0.0000   0.0000   0.0000   0.0000   0.0000   0.0000
     0.0000   0.0000   0.0000   0.0000   0.0000   0.0000   0.0000   0.0000
     0.0000   0.0000   0.0000   0.0000   0.0000   0.0000   0.0000   0.0000
     0.0000   0.0000   0.0000   0.0000   0.0000   0.0000   0.0000   0.0000
     0.0000   0.0000   0.0000   0.0000   0.0000   0.0000   0.0000   0.0000
     0.0000   0.0000   0.0000   0.0000   0.0000   0.0000   0.0000   0.0000
     0.0000   0.0000   0.0000   0.0000   0.0000   0.0000   0.0000   0.0000

     the Fermi energy is     1.4332 ev

!    total energy              =  -22154.25533215 Ry
     estimated scf accuracy    <       0.00000580 Ry
     smearing contrib. (-TS)   =       0.00133533 Ry
     internal energy E=F+TS    =  -22154.25666747 Ry

     The total energy is F=E-TS. E is the sum of the following terms:
     one-electron contribution = -144865.56048345 Ry
     hartree contribution      =   72366.23320463 Ry
     xc contribution           =   -2024.17733235 Ry
     ewald contribution        =   52369.24794370 Ry

     convergence has been achieved in  10 iterations

     Writing all to output data dir ./tmp/Zn002.save/ :
     XML data file, charge density, pseudopotentials, collected wavefunctions

     init_run     :    117.27s CPU    118.06s WALL (       1 calls)
     electrons    :   7505.45s CPU   7565.63s WALL (       1 calls)

     Called by init_run:
     wfcinit      :    115.98s CPU    116.71s WALL (       1 calls)
     wfcinit:atom :      0.08s CPU      0.14s WALL (      10 calls)
     wfcinit:wfcr :    114.86s CPU    115.44s WALL (      10 calls)
     potinit      :      0.07s CPU      0.09s WALL (       1 calls)
     hinit0       :      0.03s CPU      0.04s WALL (       1 calls)

     Called by electrons:
     c_bands      :   7175.54s CPU   7231.93s WALL (      11 calls)
     sum_band     :    304.24s CPU    306.82s WALL (      11 calls)
     v_of_rho     :      0.75s CPU      0.79s WALL (      11 calls)
     v_h          :      0.05s CPU      0.05s WALL (      11 calls)
     v_xc         :      0.70s CPU      0.73s WALL (      11 calls)
     newd         :     25.65s CPU     26.78s WALL (      11 calls)
     mix_rho      :      0.09s CPU      0.10s WALL (      11 calls)

     Called by c_bands:
     init_us_2    :      4.32s CPU      4.35s WALL (     230 calls)
     cegterg      :   7166.69s CPU   7222.82s WALL (     110 calls)

     Called by sum_band:
     sum_band:wei :      0.05s CPU      0.05s WALL (      11 calls)
     sum_band:loo :    294.26s CPU    295.76s WALL (      11 calls)
     sum_band:buf :      0.91s CPU      0.95s WALL (     110 calls)
     sum_band:ini :      2.08s CPU      2.09s WALL (     110 calls)
     sum_band:cal :    250.68s CPU    251.85s WALL (     110 calls)
     sum_band:bec :      2.25s CPU      2.25s WALL (     110 calls)
     addusdens    :      8.47s CPU      9.53s WALL (      11 calls)
                                        0.00s GPU  (      11 calls)
     addusd:skk   :      0.08s CPU      0.16s WALL (      11 calls)
                                        0.00s GPU  (      11 calls)

     Called by *egterg:
     cdiaghg      :    297.23s CPU    309.23s WALL (     688 calls)
     cegterg:over :   1649.64s CPU   1655.43s WALL (     588 calls)
     cegterg:upda :    474.60s CPU    478.36s WALL (     588 calls)
     cegterg:last :   2716.44s CPU   2731.26s WALL (     210 calls)
     cdiaghg:chol :     18.35s CPU     18.40s WALL (     688 calls)
     cdiaghg:inve :      2.92s CPU      2.93s WALL (     688 calls)
     cdiaghg:para :     77.52s CPU     79.11s WALL (    1376 calls)
     h_psi        :   1303.08s CPU   1312.53s WALL (     708 calls)
     s_psi        :    538.29s CPU    539.60s WALL (     708 calls)
     g_psi        :      0.67s CPU      0.68s WALL (     588 calls)

     Called by h_psi:
     h_psi:calbec :    589.61s CPU    592.50s WALL (     708 calls)
     vloc_psi     :    169.60s CPU    170.92s WALL (     708 calls)
     add_vuspsi   :    542.22s CPU    543.75s WALL (     708 calls)

     General routines
     calbec       :    840.28s CPU    844.35s WALL (     818 calls)
     fft          :      1.78s CPU      1.84s WALL (     141 calls)
     ffts         :      0.02s CPU      0.02s WALL (      22 calls)
     fftw         :    181.50s CPU    182.83s WALL (  359526 calls)
     interpolate  :      0.05s CPU      0.05s WALL (      11 calls)

     Parallel routines

     PWSCF        :      2h 7m CPU      2h 8m WALL


   This run was terminated on:   0:49:22  27Mar2025            

=------------------------------------------------------------------------------=
   JOB DONE.
=------------------------------------------------------------------------------=
