--------------------------------------------------------------------------
By default, for Open MPI 4.0 and later, infiniband ports on a device
are not used by default.  The intent is to use UCX for these devices.
You can override this policy by setting the btl_openib_allow_ib MCA parameter
to true.

  Local host:              psid02
  Local adapter:           mlx5_0
  Local port:              1

--------------------------------------------------------------------------
--------------------------------------------------------------------------
WARNING: There was an error initializing an OpenFabrics device.

  Local host:   psid02
  Local device: mlx5_0
--------------------------------------------------------------------------

     Program PWSCF v.7.3.1 starts on 22Mar2025 at 15:33:39 

     This program is part of the open-source Quantum ESPRESSO suite
     for quantum simulation of materials; please cite
         "P. Giannozzi et al., J. Phys.:Condens. Matter 21 395502 (2009);
         "P. Giannozzi et al., J. Phys.:Condens. Matter 29 465901 (2017);
         "P. Giannozzi et al., J. Chem. Phys. 152 154105 (2020);
          URL http://www.quantum-espresso.org", 
     in publications or presentations arising from this work. More details at
     http://www.quantum-espresso.org/quote

     Parallel version (MPI), running on    16 processors

     MPI processes distributed on     1 nodes
     63248 MiB available memory on the printing compute node when the environment starts

     Waiting for input...
     Reading input from standard input
Warning: card &CELL ignored
Warning: card   CELL_DOFREE = 'ALL' ignored
Warning: card / ignored

     Current dimensions of program PWSCF are:
     Max number of different atomic species (ntypx) = 10
     Max number of k-points (npk) =  40000
     Max angular momentum in pseudopotentials (lmaxx) =  4
     Message from routine input:
     WARNING: "startingwfc" set to atomic+random may spoil restart
     Message from routine input:
     WARNING: "startingpot" set to atomic may spoil restart
     Message from routine iosys:
     restart disabled: needed files not found
     file O.pbe-n-kjpaw_psl.0.1.UPF: wavefunction(s)  2P renormalized

     Atomic positions and unit cell read from directory:
     ./tmp/Zn002_optimized_topsite_H2O_scf.save/
     Message from routine qexsd_readschema :
     xml data file ./tmp/Zn002_optimized_topsite_H2O_scf.save/data-file-schema.xml no
     Nothing found: using input atomic positions and unit cell


     R & G space division:  proc/nbgrp/npool/nimage =      16
     Subspace diagonalization in iterative solution of the eigenvalue problem:
     one sub-group per band group will be used
     custom distributed-memory algorithm (size of sub-group:  4*  4 procs)


     Parallelization info
     --------------------
     sticks:   dense  smooth     PW     G-vecs:    dense   smooth      PW
     Min         202     202     53                21070    21070    2943
     Max         203     203     54                21080    21080    2952
     Sum        3241    3241    859               337189   337189   47187

     Using Slab Decomposition



     bravais-lattice index     =            0
     lattice parameter (alat)  =      19.7617  a.u.
     unit-cell volume          =   15176.5939 (a.u.)^3
     number of atoms/cell      =           67
     number of atomic types    =            3
     number of electrons       =      1288.00
     number of Kohn-Sham states=          773
     kinetic-energy cutoff     =      30.0000  Ry
     charge density cutoff     =     120.0000  Ry
     scf convergence threshold =      7.3E-07
     mixing beta               =       0.7000
     number of iterations used =            8  plain     mixing
     Exchange-correlation= PBE
                           (   1   4   3   4   0   0   0)

     celldm(1)=  19.761696  celldm(2)=   0.000000  celldm(3)=   0.000000
     celldm(4)=   0.000000  celldm(5)=   0.000000  celldm(6)=   0.000000

     crystal axes: (cart. coord. in units of alat)
               a(1) = (   1.000000   0.000000   0.000000 )  
               a(2) = (  -0.500000   0.866025   0.000000 )  
               a(3) = (   0.000000   0.000000   2.270759 )  

     reciprocal axes: (cart. coord. in units 2 pi/alat)
               b(1) = (  1.000000  0.577350 -0.000000 )  
               b(2) = (  0.000000  1.154701  0.000000 )  
               b(3) = (  0.000000 -0.000000  0.440381 )  


     PseudoPot. # 1 for Zn read from file:
     /home/ys/qepseudo/SSSP_1.3.0_PBE_efficiency/Zn_pbe_v1.uspp.F.UPF
     MD5 check sum: df62231357ef9e81f77b2b3087fa5675
     Pseudo is Ultrasoft, Zval = 20.0
     Generated by new atomic code, or converted to UPF format
     Using radial grid of  943 points,  6 beta functions with: 
                l(1) =   0
                l(2) =   0
                l(3) =   1
                l(4) =   1
                l(5) =   2
                l(6) =   2
     Q(r) pseudized with  8 coefficients,  rinner =    1.100   1.100   1.100
                                                       1.100   1.100

     PseudoPot. # 2 for O  read from file:
     /home/ys/qepseudo/SSSP_1.3.0_PBE_efficiency/O.pbe-n-kjpaw_psl.0.1.UPF
     MD5 check sum: 0234752ac141de4415c5fc33072bef88
     Pseudo is Projector augmented-wave + core cor, Zval =  6.0
     Generated using "atomic" code by A. Dal Corso  v.5.0.99 svn rev. 10869
     Shape of augmentation charge: BESSEL
     Using radial grid of 1095 points,  4 beta functions with: 
                l(1) =   0
                l(2) =   0
                l(3) =   1
                l(4) =   1
     Q(r) pseudized with 0 coefficients 


     PseudoPot. # 3 for H  read from file:
     /home/ys/qepseudo/SSSP_1.3.0_PBE_efficiency/H.pbe-rrkjus_psl.1.0.0.UPF
     MD5 check sum: f52b6d4d1c606e5624b1dc7b2218f220
     Pseudo is Ultrasoft, Zval =  1.0
     Generated using "atomic" code by A. Dal Corso  v.5.1
     Using radial grid of  929 points,  2 beta functions with: 
                l(1) =   0
                l(2) =   0
     Q(r) pseudized with 0 coefficients 


     atomic species   valence    mass     pseudopotential
     Zn               20.00    65.38000     Zn( 1.00)
     O                 6.00    16.00000     O ( 1.00)
     H                 1.00     1.00800     H ( 1.00)

     No symmetry found


                                    s                        frac. trans.

      isym =  1     identity                                     

 cryst.   s( 1) = (     1          0          0      )
                  (     0          1          0      )
                  (     0          0          1      )

 cart.    s( 1) = (  1.0000000  0.0000000  0.0000000 )
                  (  0.0000000  1.0000000  0.0000000 )
                  (  0.0000000  0.0000000  1.0000000 )


   Cartesian axes

     site n.     atom                  positions (alat units)
         1        Zn     tau(   1) = (  -0.0000000   0.1443376   0.1164999  )
         2        Zn     tau(   2) = (   0.5000000   0.1443376   0.1164999  )
         3        Zn     tau(   3) = (   0.0001063   0.1443772   0.5902127  )
         4        Zn     tau(   4) = (   0.4998958   0.1443643   0.5917156  )
         5        Zn     tau(   5) = (  -0.1250000   0.3608439   0.1164999  )
         6        Zn     tau(   6) = (   0.3750000   0.3608439   0.1164999  )
         7        Zn     tau(   7) = (  -0.1249761   0.3609302   0.5908726  )
         8        Zn     tau(   8) = (   0.3749642   0.3608477   0.5913644  )
         9        Zn     tau(   9) = (  -0.2500000   0.5773503   0.1164999  )
        10        Zn     tau(  10) = (   0.2500000   0.5773503   0.1164999  )
        11        Zn     tau(  11) = (  -0.2499911   0.5773738   0.5915504  )
        12        Zn     tau(  12) = (   0.2499824   0.5772583   0.5907382  )
        13        Zn     tau(  13) = (  -0.3750000   0.7938566   0.1164999  )
        14        Zn     tau(  14) = (   0.1250000   0.7938566   0.1164999  )
        15        Zn     tau(  15) = (  -0.3749161   0.7938269   0.5909604  )
        16        Zn     tau(  16) = (   0.1249053   0.7937898   0.5911170  )
        17        Zn     tau(  17) = (   0.2500000   0.1443376   0.1164999  )
        18        Zn     tau(  18) = (   0.7500000   0.1443376   0.1164999  )
        19        Zn     tau(  19) = (   0.2499566   0.1443139   0.5910485  )
        20        Zn     tau(  20) = (   0.7500401   0.1444360   0.5909256  )
        21        Zn     tau(  21) = (   0.1250000   0.3608439   0.1164999  )
        22        Zn     tau(  22) = (   0.6250000   0.3608439   0.1164999  )
        23        Zn     tau(  23) = (   0.1249684   0.3608327   0.5904686  )
        24        Zn     tau(  24) = (   0.6250220   0.3609386   0.5917101  )
        25        Zn     tau(  25) = (  -0.0000000   0.5773503   0.1164999  )
        26        Zn     tau(  26) = (   0.5000000   0.5773503   0.1164999  )
        27        Zn     tau(  27) = (  -0.0000983   0.5773031   0.5910657  )
        28        Zn     tau(  28) = (   0.5000885   0.5773473   0.5912976  )
        29        Zn     tau(  29) = (  -0.1250000   0.7938566   0.1164999  )
        30        Zn     tau(  30) = (   0.3750000   0.7938566   0.1164999  )
        31        Zn     tau(  31) = (  -0.1251014   0.7937984   0.5915674  )
        32        Zn     tau(  32) = (   0.3751324   0.7938157   0.5904624  )
        33        Zn     tau(  33) = (   0.1250000   0.0721688   0.3494996  )
        34        Zn     tau(  34) = (   0.6250000   0.0721688   0.3494996  )
        35        Zn     tau(  35) = (   0.1250926   0.0721433   0.8316914  )
        36        Zn     tau(  36) = (   0.6252869   0.0720799   0.8321300  )
        37        Zn     tau(  37) = (   0.0000000   0.2886751   0.3494996  )
        38        Zn     tau(  38) = (   0.5000000   0.2886751   0.3494996  )
        39        Zn     tau(  39) = (   0.0004518   0.2894219   0.8284743  )
        40        Zn     tau(  40) = (   0.5001369   0.2885437   0.8323416  )
        41        Zn     tau(  41) = (  -0.1250000   0.5051815   0.3494996  )
        42        Zn     tau(  42) = (   0.3750000   0.5051815   0.3494996  )
        43        Zn     tau(  43) = (  -0.1244229   0.5051065   0.8309976  )
        44        Zn     tau(  44) = (   0.3741380   0.5050527   0.8288067  )
        45        Zn     tau(  45) = (  -0.2500000   0.7216878   0.3494996  )
        46        Zn     tau(  46) = (   0.2500000   0.7216878   0.3494996  )
        47        Zn     tau(  47) = (  -0.2499764   0.7215992   0.8322672  )
        48        Zn     tau(  48) = (   0.2496034   0.7210428   0.8293446  )
        49        Zn     tau(  49) = (   0.3750000   0.0721688   0.3494996  )
        50        Zn     tau(  50) = (   0.8750000   0.0721688   0.3494996  )
        51        Zn     tau(  51) = (   0.3749107   0.0722252   0.8324667  )
        52        Zn     tau(  52) = (   0.8752701   0.0721467   0.8316659  )
        53        Zn     tau(  53) = (   0.2500000   0.2886751   0.3494996  )
        54        Zn     tau(  54) = (   0.7500000   0.2886751   0.3494996  )
        55        Zn     tau(  55) = (   0.2495824   0.2892770   0.8284810  )
        56        Zn     tau(  56) = (   0.7502218   0.2884442   0.8321238  )
        57        Zn     tau(  57) = (   0.1250000   0.5051815   0.3494996  )
        58        Zn     tau(  58) = (   0.6250000   0.5051815   0.3494996  )
        59        Zn     tau(  59) = (   0.1246076   0.5054607   0.8620509  )
        60        Zn     tau(  60) = (   0.6248602   0.5050701   0.8325701  )
        61        Zn     tau(  61) = (   0.0000000   0.7216878   0.3494996  )
        62        Zn     tau(  62) = (   0.5000000   0.7216878   0.3494996  )
        63        Zn     tau(  63) = (   0.0002648   0.7211104   0.8311823  )
        64        Zn     tau(  64) = (   0.4999678   0.7214843   0.8317350  )
        65        O      tau(  65) = (   0.1262908   0.4965317   1.1121106  )
        66        H      tau(  66) = (   0.2112248   0.5277800   1.1368136  )
        67        H      tau(  67) = (   0.1299766   0.4042637   1.1287182  )

   Crystallographic axes

     site n.     atom                  positions (cryst. coord.)
         1        Zn     tau(   1) = (  0.0833333  0.1666667  0.0513044  )
         2        Zn     tau(   2) = (  0.5833333  0.1666667  0.0513044  )
         3        Zn     tau(   3) = (  0.0834625  0.1667124  0.2599187  )
         4        Zn     tau(   4) = (  0.5832446  0.1666976  0.2605806  )
         5        Zn     tau(   5) = (  0.0833333  0.4166667  0.0513044  )
         6        Zn     tau(   6) = (  0.5833333  0.4166667  0.0513044  )
         7        Zn     tau(   7) = (  0.0834070  0.4167663  0.2602093  )
         8        Zn     tau(   8) = (  0.5832997  0.4166711  0.2604259  )
         9        Zn     tau(   9) = (  0.0833333  0.6666667  0.0513044  )
        10        Zn     tau(  10) = (  0.5833333  0.6666667  0.0513044  )
        11        Zn     tau(  11) = (  0.0833558  0.6666938  0.2605078  )
        12        Zn     tau(  12) = (  0.5832626  0.6665605  0.2601501  )
        13        Zn     tau(  13) = (  0.0833333  0.9166667  0.0513044  )
        14        Zn     tau(  14) = (  0.5833333  0.9166667  0.0513044  )
        15        Zn     tau(  15) = (  0.0834001  0.9166324  0.2602480  )
        16        Zn     tau(  16) = (  0.5832000  0.9165895  0.2603170  )
        17        Zn     tau(  17) = (  0.3333333  0.1666667  0.0513044  )
        18        Zn     tau(  18) = (  0.8333333  0.1666667  0.0513044  )
        19        Zn     tau(  19) = (  0.3332763  0.1666393  0.2602868  )
        20        Zn     tau(  20) = (  0.8334303  0.1667804  0.2602327  )
        21        Zn     tau(  21) = (  0.3333333  0.4166667  0.0513044  )
        22        Zn     tau(  22) = (  0.8333333  0.4166667  0.0513044  )
        23        Zn     tau(  23) = (  0.3332952  0.4166537  0.2600314  )
        24        Zn     tau(  24) = (  0.8334099  0.4167759  0.2605781  )
        25        Zn     tau(  25) = (  0.3333333  0.6666667  0.0513044  )
        26        Zn     tau(  26) = (  0.8333333  0.6666667  0.0513044  )
        27        Zn     tau(  27) = (  0.3332078  0.6666122  0.2602944  )
        28        Zn     tau(  28) = (  0.8334201  0.6666632  0.2603965  )
        29        Zn     tau(  29) = (  0.3333333  0.9166667  0.0513044  )
        30        Zn     tau(  30) = (  0.8333333  0.9166667  0.0513044  )
        31        Zn     tau(  31) = (  0.3331983  0.9165994  0.2605153  )
        32        Zn     tau(  32) = (  0.8334421  0.9166194  0.2600287  )
        33        Zn     tau(  33) = (  0.1666667  0.0833333  0.1539131  )
        34        Zn     tau(  34) = (  0.6666667  0.0833333  0.1539131  )
        35        Zn     tau(  35) = (  0.1667445  0.0833039  0.3662614  )
        36        Zn     tau(  36) = (  0.6669022  0.0832307  0.3664546  )
        37        Zn     tau(  37) = (  0.1666667  0.3333333  0.1539131  )
        38        Zn     tau(  38) = (  0.6666667  0.3333333  0.1539131  )
        39        Zn     tau(  39) = (  0.1675496  0.3341957  0.3648447  )
        40        Zn     tau(  40) = (  0.6667277  0.3331815  0.3665478  )
        41        Zn     tau(  41) = (  0.1666667  0.5833333  0.1539131  )
        42        Zn     tau(  42) = (  0.6666667  0.5833333  0.1539131  )
        43        Zn     tau(  43) = (  0.1672005  0.5832467  0.3659559  )
        44        Zn     tau(  44) = (  0.6657304  0.5831847  0.3649911  )
        45        Zn     tau(  45) = (  0.1666667  0.8333333  0.1539131  )
        46        Zn     tau(  46) = (  0.6666667  0.8333333  0.1539131  )
        47        Zn     tau(  47) = (  0.1666391  0.8332310  0.3665150  )
        48        Zn     tau(  48) = (  0.6658976  0.8325885  0.3652279  )
        49        Zn     tau(  49) = (  0.4166667  0.0833333  0.1539131  )
        50        Zn     tau(  50) = (  0.9166667  0.0833333  0.1539131  )
        51        Zn     tau(  51) = (  0.4166099  0.0833984  0.3666029  )
        52        Zn     tau(  52) = (  0.9169241  0.0833078  0.3662502  )
        53        Zn     tau(  53) = (  0.4166667  0.3333333  0.1539131  )
        54        Zn     tau(  54) = (  0.9166667  0.3333333  0.1539131  )
        55        Zn     tau(  55) = (  0.4165966  0.3340283  0.3648477  )
        56        Zn     tau(  56) = (  0.9167551  0.3330666  0.3664519  )
        57        Zn     tau(  57) = (  0.4166667  0.5833333  0.1539131  )
        58        Zn     tau(  58) = (  0.9166667  0.5833333  0.1539131  )
        59        Zn     tau(  59) = (  0.4164355  0.5836557  0.3796312  )
        60        Zn     tau(  60) = (  0.9164626  0.5832047  0.3666484  )
        61        Zn     tau(  61) = (  0.4166667  0.8333333  0.1539131  )
        62        Zn     tau(  62) = (  0.9166667  0.8333333  0.1539131  )
        63        Zn     tau(  63) = (  0.4165981  0.8326665  0.3660372  )
        64        Zn     tau(  64) = (  0.9165170  0.8330983  0.3662807  )
        65        O      tau(  65) = (  0.4129635  0.5733454  0.4897528  )
        66        H      tau(  66) = (  0.5159387  0.6094278  0.5006316  )
        67        H      tau(  67) = (  0.3633783  0.4668035  0.4970665  )

     number of k points=     5  Marzari-Vanderbilt smearing, width (Ry)=  0.0200
                       cart. coord. in units 2pi/alat
        k(    1) = (   0.0000000   0.0000000   0.0000000), wk =   0.2222222
        k(    2) = (   0.0000000   0.3849002   0.0000000), wk =   0.4444444
        k(    3) = (   0.3333333   0.1924501   0.0000000), wk =   0.4444444
        k(    4) = (   0.3333333   0.5773503   0.0000000), wk =   0.4444444
        k(    5) = (   0.3333333  -0.1924501   0.0000000), wk =   0.4444444

                       cryst. coord.
        k(    1) = (   0.0000000   0.0000000   0.0000000), wk =   0.2222222
        k(    2) = (   0.0000000   0.3333333   0.0000000), wk =   0.4444444
        k(    3) = (   0.3333333   0.0000000   0.0000000), wk =   0.4444444
        k(    4) = (   0.3333333   0.3333333   0.0000000), wk =   0.4444444
        k(    5) = (   0.3333333  -0.3333333   0.0000000), wk =   0.4444444

     Dense  grid:   337189 G-vectors     FFT dimensions: (  72,  72, 160)

     Dynamical RAM for                 wfc:      31.04 MB

     Dynamical RAM for     wfc (w. buffer):     186.27 MB

     Dynamical RAM for           str. fact:       0.96 MB

     Dynamical RAM for           local pot:       0.00 MB

     Dynamical RAM for          nlocal pot:      46.75 MB

     Dynamical RAM for                qrad:       2.64 MB

     Dynamical RAM for          rho,v,vnew:       2.15 MB

     Dynamical RAM for               rhoin:       0.72 MB

     Dynamical RAM for            rho*nmix:       5.15 MB

     Dynamical RAM for           G-vectors:       1.37 MB

     Dynamical RAM for          h,s,v(r/c):       6.82 MB

     Dynamical RAM for          <psi|beta>:      13.73 MB

     Dynamical RAM for                 psi:      62.09 MB

     Dynamical RAM for                hpsi:      62.09 MB

     Dynamical RAM for                spsi:      62.09 MB

     Dynamical RAM for      wfcinit/wfcrot:      83.39 MB

     Dynamical RAM for           addusdens:      80.39 MB

     Dynamical RAM for          addusforce:     121.32 MB

     Dynamical RAM for         addusstress:      64.63 MB

     Estimated static dynamical RAM per process >     244.12 MB

     Estimated max dynamical RAM per process >     456.08 MB

     Estimated total dynamical RAM >       7.13 GB

     Check: negative core charge=   -0.000010
     Cannot read rho : file not found

     Initial potential from superposition of free atoms

     starting charge    1287.9910, renormalised to    1288.0000

     negative rho (up, down):  6.410E-03 0.000E+00
     Starting wfcs are  838 randomized atomic wfcs
[psid02:65050] 15 more processes have sent help message help-mpi-btl-openib.txt / ib port not selected
[psid02:65050] Set MCA parameter "orte_base_help_aggregate" to 0 to see all help / error messages
[psid02:65050] 15 more processes have sent help message help-mpi-btl-openib.txt / error in device init
     Checking if some PAW data can be deallocated... 
       PAW data deallocated on   15 nodes for type:  2

     total cpu time spent up to now is      130.5 secs

     Self-consistent Calculation

     iteration #  1     ecut=    30.00 Ry     beta= 0.70
     Davidson diagonalization with overlap

---- Real-time Memory Report at c_bands before calling an iterative solver
           338 MiB given to the printing process from OS
             0 MiB allocation reported by mallinfo(arena+hblkhd)
         55415 MiB available memory on the node where the printing process lives
------------------
     ethr =  1.00E-05,  avg # of iterations = 11.6

     negative rho (up, down):  1.043E-02 0.000E+00

     total cpu time spent up to now is     1395.6 secs

     total energy              =  -29577.88360820 Ry
     estimated scf accuracy    <       3.26926928 Ry

     iteration #  2     ecut=    30.00 Ry     beta= 0.70
     Davidson diagonalization with overlap

---- Real-time Memory Report at c_bands before calling an iterative solver
           493 MiB given to the printing process from OS
             0 MiB allocation reported by mallinfo(arena+hblkhd)
         54649 MiB available memory on the node where the printing process lives
------------------
     ethr =  2.54E-04,  avg # of iterations =  4.0

     negative rho (up, down):  1.101E-02 0.000E+00

     total cpu time spent up to now is     2018.9 secs

     total energy              =  -29578.56293592 Ry
     estimated scf accuracy    <       5.39587133 Ry

     iteration #  3     ecut=    30.00 Ry     beta= 0.70
     Davidson diagonalization with overlap

---- Real-time Memory Report at c_bands before calling an iterative solver
           501 MiB given to the printing process from OS
             0 MiB allocation reported by mallinfo(arena+hblkhd)
         54552 MiB available memory on the node where the printing process lives
------------------
     ethr =  2.54E-04,  avg # of iterations =  7.6

     negative rho (up, down):  1.106E-02 0.000E+00

     total cpu time spent up to now is     2574.1 secs

     total energy              =  -29579.34037689 Ry
     estimated scf accuracy    <       1.83927970 Ry

     iteration #  4     ecut=    30.00 Ry     beta= 0.70
     Davidson diagonalization with overlap

---- Real-time Memory Report at c_bands before calling an iterative solver
           501 MiB given to the printing process from OS
             0 MiB allocation reported by mallinfo(arena+hblkhd)
         57847 MiB available memory on the node where the printing process lives
------------------
     ethr =  1.43E-04,  avg # of iterations =  6.0

     negative rho (up, down):  1.168E-02 0.000E+00

     total cpu time spent up to now is     3022.3 secs

     total energy              =  -29579.46813399 Ry
     estimated scf accuracy    <       1.15060414 Ry

     iteration #  5     ecut=    30.00 Ry     beta= 0.70
     Davidson diagonalization with overlap

---- Real-time Memory Report at c_bands before calling an iterative solver
           501 MiB given to the printing process from OS
             0 MiB allocation reported by mallinfo(arena+hblkhd)
         54533 MiB available memory on the node where the printing process lives
------------------
     ethr =  8.93E-05,  avg # of iterations =  6.2

     negative rho (up, down):  1.266E-02 0.000E+00

     total cpu time spent up to now is     3477.8 secs

     total energy              =  -29579.48386385 Ry
     estimated scf accuracy    <       1.12783098 Ry

     iteration #  6     ecut=    30.00 Ry     beta= 0.70
     Davidson diagonalization with overlap

---- Real-time Memory Report at c_bands before calling an iterative solver
           501 MiB given to the printing process from OS
             0 MiB allocation reported by mallinfo(arena+hblkhd)
         54521 MiB available memory on the node where the printing process lives
------------------
     ethr =  8.76E-05,  avg # of iterations =  2.8

     negative rho (up, down):  1.296E-02 0.000E+00

     total cpu time spent up to now is     3913.3 secs

     total energy              =  -29579.57680110 Ry
     estimated scf accuracy    <       0.03177976 Ry

     iteration #  7     ecut=    30.00 Ry     beta= 0.70
     Davidson diagonalization with overlap

---- Real-time Memory Report at c_bands before calling an iterative solver
           501 MiB given to the printing process from OS
             0 MiB allocation reported by mallinfo(arena+hblkhd)
         55043 MiB available memory on the node where the printing process lives
------------------
     c_bands:  1 eigenvalues not converged
     ethr =  2.47E-06,  avg # of iterations = 15.6

     negative rho (up, down):  1.311E-02 0.000E+00

     total cpu time spent up to now is     4438.3 secs

     total energy              =  -29579.58110867 Ry
     estimated scf accuracy    <       0.00408219 Ry

     iteration #  8     ecut=    30.00 Ry     beta= 0.70
     Davidson diagonalization with overlap

---- Real-time Memory Report at c_bands before calling an iterative solver
           501 MiB given to the printing process from OS
             0 MiB allocation reported by mallinfo(arena+hblkhd)
         54490 MiB available memory on the node where the printing process lives
------------------
     ethr =  3.17E-07,  avg # of iterations =  2.2

     negative rho (up, down):  1.327E-02 0.000E+00

     total cpu time spent up to now is     4873.0 secs

     total energy              =  -29579.58179882 Ry
     estimated scf accuracy    <       0.00092008 Ry

     iteration #  9     ecut=    30.00 Ry     beta= 0.70
     Davidson diagonalization with overlap

---- Real-time Memory Report at c_bands before calling an iterative solver
           501 MiB given to the printing process from OS
             0 MiB allocation reported by mallinfo(arena+hblkhd)
         56057 MiB available memory on the node where the printing process lives
------------------
     ethr =  7.14E-08,  avg # of iterations =  2.2

     negative rho (up, down):  1.331E-02 0.000E+00

     total cpu time spent up to now is     5305.4 secs

     total energy              =  -29579.58189546 Ry
     estimated scf accuracy    <       0.00035453 Ry

     iteration # 10     ecut=    30.00 Ry     beta= 0.70
     Davidson diagonalization with overlap

---- Real-time Memory Report at c_bands before calling an iterative solver
           501 MiB given to the printing process from OS
             0 MiB allocation reported by mallinfo(arena+hblkhd)
         56063 MiB available memory on the node where the printing process lives
------------------
     ethr =  2.75E-08,  avg # of iterations =  2.0

     negative rho (up, down):  1.337E-02 0.000E+00

     total cpu time spent up to now is     5737.3 secs

     total energy              =  -29579.58194714 Ry
     estimated scf accuracy    <       0.00002770 Ry

     iteration # 11     ecut=    30.00 Ry     beta= 0.70
     Davidson diagonalization with overlap

---- Real-time Memory Report at c_bands before calling an iterative solver
           501 MiB given to the printing process from OS
             0 MiB allocation reported by mallinfo(arena+hblkhd)
         56023 MiB available memory on the node where the printing process lives
------------------
     ethr =  2.15E-09,  avg # of iterations =  2.0

     negative rho (up, down):  1.338E-02 0.000E+00

     total cpu time spent up to now is     6252.4 secs

     total energy              =  -29579.58195220 Ry
     estimated scf accuracy    <       0.00001452 Ry

     iteration # 12     ecut=    30.00 Ry     beta= 0.70
     Davidson diagonalization with overlap

---- Real-time Memory Report at c_bands before calling an iterative solver
           502 MiB given to the printing process from OS
             0 MiB allocation reported by mallinfo(arena+hblkhd)
         54435 MiB available memory on the node where the printing process lives
------------------
     ethr =  1.13E-09,  avg # of iterations =  2.0

     negative rho (up, down):  1.338E-02 0.000E+00

     total cpu time spent up to now is     6697.6 secs

     total energy              =  -29579.58195466 Ry
     estimated scf accuracy    <       0.00000089 Ry

     iteration # 13     ecut=    30.00 Ry     beta= 0.70
     Davidson diagonalization with overlap

---- Real-time Memory Report at c_bands before calling an iterative solver
           502 MiB given to the printing process from OS
             0 MiB allocation reported by mallinfo(arena+hblkhd)
         56559 MiB available memory on the node where the printing process lives
------------------
     ethr =  6.89E-11,  avg # of iterations =  2.0

     negative rho (up, down):  1.339E-02 0.000E+00

     total cpu time spent up to now is     7206.8 secs

     End of self-consistent calculation

          k = 0.0000 0.0000 0.0000 ( 42115 PWs)   bands (ev):

  -123.1269-123.1250-123.1240-123.1234-123.1227-123.1225-123.1221-123.1215
  -123.1214-123.1211-123.1209-123.1206-123.1200-123.1176-123.1166-123.1137
  -123.0802-123.0791-123.0785-123.0771-123.0756-123.0745-123.0716-123.0707
  -123.0703-123.0697-123.0694-123.0690-123.0681-123.0436-123.0394-123.0299
  -122.9304-122.9274-122.9271-122.9270-122.9269-122.9267-122.9263-122.9262
  -122.9262-122.9259-122.9257-122.9256-122.9250-122.9247-122.9240-122.9236
  -122.9029-122.9012-122.8984-122.8933-122.8893-122.8879-122.8864-122.8840
  -122.8835-122.8827-122.8820-122.8816-122.8814-122.8794-122.8782-122.7603
   -77.2346 -77.2342 -77.2339 -77.2256 -77.2255 -77.2248 -77.2241 -77.2235
   -77.2233 -77.2130 -77.2118 -77.2107 -77.2096 -77.2092 -77.2089 -77.2084
   -77.2082 -77.2081 -77.2080 -77.2076 -77.2069 -77.2064 -77.2036 -77.2029
   -77.2028 -77.2027 -77.2025 -77.2017 -77.2014 -77.2006 -77.2003 -77.2000
   -77.1995 -77.1991 -77.1985 -77.1980 -77.1976 -77.1974 -77.1971 -77.1953
   -77.1950 -77.1945 -77.1939 -77.1934 -77.1926 -77.1916 -77.1899 -77.1897
   -77.1855 -77.1838 -77.1827 -77.1765 -77.1755 -77.1745 -77.1718 -77.1701
   -77.1678 -77.1662 -77.1651 -77.1648 -77.1634 -77.1620 -77.1605 -77.1579
   -77.1571 -77.1565 -77.1561 -77.1560 -77.1556 -77.1552 -77.1549 -77.1545
   -77.1534 -77.1530 -77.1520 -77.1517 -77.1508 -77.1497 -77.1487 -77.1470
   -77.1467 -77.1450 -77.1444 -77.1444 -77.1434 -77.1431 -77.1420 -77.1306
   -77.1295 -77.1265 -77.1260 -77.1214 -77.1170 -77.1165 -77.1102 -77.1079
   -77.0364 -77.0356 -77.0355 -77.0271 -77.0268 -77.0265 -77.0261 -77.0260
   -77.0257 -77.0229 -77.0213 -77.0211 -77.0210 -77.0208 -77.0208 -77.0206
   -77.0204 -77.0202 -77.0197 -77.0197 -77.0196 -77.0188 -77.0187 -77.0177
   -77.0172 -77.0036 -77.0034 -77.0033 -77.0033 -77.0030 -77.0030 -77.0025
   -77.0006 -77.0003 -77.0003 -77.0001 -76.9999 -76.9994 -76.9988 -76.9987
   -76.9971 -76.9960 -76.9959 -76.9959 -76.9958 -76.9956 -76.9954 -76.9953
   -76.9952 -76.9949 -76.9946 -76.9943 -76.9942 -76.9926 -76.9915 -76.9887
   -76.9876 -76.9862 -76.9848 -76.9844 -76.9834 -76.9826 -76.9818 -76.9807
   -76.9793 -76.9787 -76.9781 -76.9778 -76.9775 -76.9774 -76.9739 -76.9728
   -76.9720 -76.9695 -76.9679 -76.9664 -76.9656 -76.9635 -76.9632 -76.9610
   -76.9597 -76.9580 -76.9573 -76.9569 -76.9566 -76.9550 -76.9541 -76.9534
   -76.9526 -76.9521 -76.9518 -76.9512 -76.9492 -76.8527 -76.8485 -76.8474
   -18.6015  -6.5690  -6.2176  -5.7754  -5.0904  -5.0033  -4.9963  -4.9949
    -4.9933  -4.9906  -4.9901  -4.9727  -4.8439  -4.8438  -4.8438  -4.7830
    -4.7829  -4.7806  -4.6633  -4.6630  -4.6608  -4.6603  -4.6597  -4.6579
    -4.6553  -4.6552  -4.6372  -4.5752  -4.5654  -4.5651  -4.5148  -4.5143
    -4.5139  -4.5130  -4.5123  -4.5091  -4.4843  -4.4814  -4.4814  -4.4362
    -4.4355  -4.4341  -4.4336  -4.4333  -4.4332  -4.4308  -4.4305  -4.4296
    -4.4157  -4.4148  -4.4110  -4.4100  -4.4095  -4.3917  -4.3884  -4.3871
    -4.3858  -4.3839  -4.3828  -4.3770  -4.3413  -4.3405  -4.3393  -4.3344
    -4.3336  -4.3318  -4.2803  -4.2514  -4.2496  -4.2489  -4.2486  -4.2479
    -4.2470  -4.2463  -4.2457  -4.2447  -4.2442  -4.2439  -4.2325  -4.2059
    -4.2054  -4.2048  -4.2038  -4.2031  -4.2000  -4.1992  -4.1973  -4.1972
    -4.1952  -4.1944  -4.1939  -4.1938  -4.1793  -4.1780  -4.1570  -4.1565
    -4.1511  -4.1509  -4.1395  -4.1382  -4.1136  -4.1088  -4.1078  -4.1058
    -4.1003  -4.0989  -4.0812  -4.0812  -4.0707  -4.0699  -4.0632  -4.0572
    -4.0570  -4.0559  -4.0553  -4.0549  -4.0536  -4.0519  -4.0471  -4.0458
    -4.0448  -4.0436  -4.0429  -4.0305  -4.0207  -4.0206  -3.9942  -3.9932
    -3.9927  -3.9902  -3.9820  -3.9817  -3.9779  -3.9777  -3.9770  -3.9724
    -3.9719  -3.9694  -3.9371  -3.9366  -3.9364  -3.9336  -3.9335  -3.9292
    -3.9066  -3.9059  -3.9015  -3.9010  -3.9008  -3.8850  -3.8790  -3.8790
    -3.8403  -3.8398  -3.8357  -3.8356  -3.8349  -3.8343  -3.8243  -3.8240
    -3.8069  -3.8032  -3.8031  -3.8027  -3.7953  -3.7938  -3.7908  -3.7897
    -3.7883  -3.7686  -3.7679  -3.7665  -3.7636  -3.7606  -3.7593  -3.7500
    -3.7484  -3.7434  -3.7418  -3.7417  -3.7415  -3.7414  -3.7412  -3.7412
    -3.7318  -3.7296  -3.7290  -3.7205  -3.7202  -3.7193  -3.7191  -3.7181
    -3.7178  -3.7177  -3.7166  -3.7163  -3.7133  -3.7121  -3.7097  -3.7028
    -3.7008  -3.6997  -3.6943  -3.6931  -3.6925  -3.6880  -3.6878  -3.6876
    -3.6870  -3.6864  -3.6860  -3.6829  -3.6820  -3.6603  -3.6431  -3.6399
    -3.6397  -3.6340  -3.6337  -3.6335  -3.6271  -3.6266  -3.6262  -3.6216
    -3.6215  -3.6199  -3.6180  -3.6106  -3.6100  -3.5901  -3.5900  -3.5754
    -3.5715  -3.5714  -3.5705  -3.5704  -3.5696  -3.5658  -3.5650  -3.5629
    -3.5607  -3.5595  -3.5589  -3.5563  -3.5557  -3.5540  -3.5538  -3.5489
    -3.5488  -3.5416  -3.5413  -3.5372  -3.5371  -3.5127  -3.5107  -3.4834
    -3.4832  -3.4814  -3.4798  -3.4790  -3.4621  -3.4618  -3.4615  -3.4611
    -3.4610  -3.4607  -3.4508  -3.4470  -3.4465  -3.4336  -3.4334  -3.4320
    -3.4266  -3.4258  -3.4216  -3.4196  -3.4092  -3.4091  -3.4059  -3.4043
    -3.4037  -3.4032  -3.4003  -3.3971  -3.3964  -3.3949  -3.3937  -3.3819
    -3.3817  -3.3815  -3.3812  -3.3792  -3.3791  -3.3592  -3.3517  -3.3509
    -3.3500  -3.3497  -3.3456  -3.3455  -3.3424  -3.3411  -3.3385  -3.3377
    -3.3052  -3.3045  -3.2831  -3.2830  -3.2828  -3.2824  -3.2823  -3.2821
    -3.2782  -3.2566  -3.2557  -3.2547  -3.2517  -3.2511  -3.2481  -3.2477
    -3.2477  -3.1939  -3.1934  -3.1902  -3.1296  -3.0493  -3.0489  -3.0488
    -3.0104  -3.0063  -3.0051  -3.0037  -2.9863  -2.9855  -2.9836  -2.9760
    -2.9714  -2.6196  -1.6483  -1.5718  -1.5701  -1.5682  -1.5644  -1.5531
    -1.1604  -0.6484  -0.1105  -0.1095  -0.1088  -0.0979  -0.0971  -0.0794
     0.3117   0.3171   0.3230   0.3267   0.3287   0.4042   0.7266   0.7276
     0.7336   0.7563   0.7598   0.7910   1.0821   1.1986   1.1987   1.2036
     1.7569   1.7573   1.7772   2.0985   2.1130   2.1140   2.1570   2.1579
     2.1591   2.1633   2.1667   2.1772   2.3649   2.3739   2.3767   3.3257
     3.3362   3.3525   3.3561   3.3572   3.4338   3.8317   3.8341   3.8570
     3.8585   3.8597   3.8706   4.0044   4.4400   4.4405   4.4636   4.7260
     4.7263   4.7457   5.5515   5.5517   5.5638   5.7131   5.8435   5.8681
     5.8812   5.8861   5.9205   6.0636   6.4584   6.4599   6.4760   6.8448
     6.8897   7.1839   7.1885   7.2042   7.2187   7.2215   7.2885   7.4490
     7.4508   7.4532   7.4632   7.4637   7.4671   7.5442   7.6004   7.6167
     7.6191   7.6207   7.6211   7.6335   7.6346   7.9097   7.9974   8.0140
     8.0502   8.3402   8.3409   8.3479   8.3488   8.3507   8.3528   8.3780
     8.3839   8.4125   8.4170   8.4186   8.4245   8.4508   8.4517   8.4752
     8.4972   8.5825   8.6017   8.6634   8.6709   8.7007   8.7117   8.7270
     8.7331   8.7952   8.8142   8.8485   8.8722   8.8961   9.3486   9.4045
     9.4326   9.4669   9.4726   9.4767   9.8269   9.8445   9.8479   9.8664
     9.8719   9.8738   9.9047   9.9068   9.9301   9.9335   9.9400   9.9423
     9.9896  10.0099  10.0308  10.1119  10.1328  10.3827  10.4480  10.4527
    10.4585  10.4871  10.4908  10.5808  10.6263  10.6414  10.6627  10.8819
    11.0873  11.1329  11.1891  11.2005  11.2973  11.2996  11.2999  11.3057
    11.3097  11.3143  11.3485  11.4391  11.4647

     occupation numbers 
     1.0000   1.0000   1.0000   1.0000   1.0000   1.0000   1.0000   1.0000
     1.0000   1.0000   1.0000   1.0000   1.0000   1.0000   1.0000   1.0000
     1.0000   1.0000   1.0000   1.0000   1.0000   1.0000   1.0000   1.0000
     1.0000   1.0000   1.0000   1.0000   1.0000   1.0000   1.0000   1.0000
     1.0000   1.0000   1.0000   1.0000   1.0000   1.0000   1.0000   1.0000
     1.0000   1.0000   1.0000   1.0000   1.0000   1.0000   1.0000   1.0000
     1.0000   1.0000   1.0000   1.0000   1.0000   1.0000   1.0000   1.0000
     1.0000   1.0000   1.0000   1.0000   1.0000   1.0000   1.0000   1.0000
     1.0000   1.0000   1.0000   1.0000   1.0000   1.0000   1.0000   1.0000
     1.0000   1.0000   1.0000   1.0000   1.0000   1.0000   1.0000   1.0000
     1.0000   1.0000   1.0000   1.0000   1.0000   1.0000   1.0000   1.0000
     1.0000   1.0000   1.0000   1.0000   1.0000   1.0000   1.0000   1.0000
     1.0000   1.0000   1.0000   1.0000   1.0000   1.0000   1.0000   1.0000
     1.0000   1.0000   1.0000   1.0000   1.0000   1.0000   1.0000   1.0000
     1.0000   1.0000   1.0000   1.0000   1.0000   1.0000   1.0000   1.0000
     1.0000   1.0000   1.0000   1.0000   1.0000   1.0000   1.0000   1.0000
     1.0000   1.0000   1.0000   1.0000   1.0000   1.0000   1.0000   1.0000
     1.0000   1.0000   1.0000   1.0000   1.0000   1.0000   1.0000   1.0000
     1.0000   1.0000   1.0000   1.0000   1.0000   1.0000   1.0000   1.0000
     1.0000   1.0000   1.0000   1.0000   1.0000   1.0000   1.0000   1.0000
     1.0000   1.0000   1.0000   1.0000   1.0000   1.0000   1.0000   1.0000
     1.0000   1.0000   1.0000   1.0000   1.0000   1.0000   1.0000   1.0000
     1.0000   1.0000   1.0000   1.0000   1.0000   1.0000   1.0000   1.0000
     1.0000   1.0000   1.0000   1.0000   1.0000   1.0000   1.0000   1.0000
     1.0000   1.0000   1.0000   1.0000   1.0000   1.0000   1.0000   1.0000
     1.0000   1.0000   1.0000   1.0000   1.0000   1.0000   1.0000   1.0000
     1.0000   1.0000   1.0000   1.0000   1.0000   1.0000   1.0000   1.0000
     1.0000   1.0000   1.0000   1.0000   1.0000   1.0000   1.0000   1.0000
     1.0000   1.0000   1.0000   1.0000   1.0000   1.0000   1.0000   1.0000
     1.0000   1.0000   1.0000   1.0000   1.0000   1.0000   1.0000   1.0000
     1.0000   1.0000   1.0000   1.0000   1.0000   1.0000   1.0000   1.0000
     1.0000   1.0000   1.0000   1.0000   1.0000   1.0000   1.0000   1.0000
     1.0000   1.0000   1.0000   1.0000   1.0000   1.0000   1.0000   1.0000
     1.0000   1.0000   1.0000   1.0000   1.0000   1.0000   1.0000   1.0000
     1.0000   1.0000   1.0000   1.0000   1.0000   1.0000   1.0000   1.0000
     1.0000   1.0000   1.0000   1.0000   1.0000   1.0000   1.0000   1.0000
     1.0000   1.0000   1.0000   1.0000   1.0000   1.0000   1.0000   1.0000
     1.0000   1.0000   1.0000   1.0000   1.0000   1.0000   1.0000   1.0000
     1.0000   1.0000   1.0000   1.0000   1.0000   1.0000   1.0000   1.0000
     1.0000   1.0000   1.0000   1.0000   1.0000   1.0000   1.0000   1.0000
     1.0000   1.0000   1.0000   1.0000   1.0000   1.0000   1.0000   1.0000
     1.0000   1.0000   1.0000   1.0000   1.0000   1.0000   1.0000   1.0000
     1.0000   1.0000   1.0000   1.0000   1.0000   1.0000   1.0000   1.0000
     1.0000   1.0000   1.0000   1.0000   1.0000   1.0000   1.0000   1.0000
     1.0000   1.0000   1.0000   1.0000   1.0000   1.0000   1.0000   1.0000
     1.0000   1.0000   1.0000   1.0000   1.0000   1.0000   1.0000   1.0000
     1.0000   1.0000   1.0000   1.0000   1.0000   1.0000   1.0000   1.0000
     1.0000   1.0000   1.0000   1.0000   1.0000   1.0000   1.0000   1.0000
     1.0000   1.0000   1.0000   1.0000   1.0000   1.0000   1.0000   1.0000
     1.0000   1.0000   1.0000   1.0000   1.0000   1.0000   1.0000   1.0000
     1.0000   1.0000   1.0000   1.0000   1.0000   1.0000   1.0000   1.0000
     1.0000   1.0000   1.0000   1.0000   1.0000   1.0000   1.0000   1.0000
     1.0000   1.0000   1.0000   1.0000   1.0000   1.0000   1.0000   1.0000
     1.0000   1.0000   1.0000   1.0000   1.0000   1.0000   1.0000   1.0000
     1.0000   1.0000   1.0000   1.0000   1.0000   1.0000   1.0000   1.0000
     1.0000   1.0000   1.0000   1.0000   1.0000   1.0000   1.0000   1.0000
     1.0000   1.0000   1.0000   1.0000   1.0000   1.0000   1.0000   1.0000
     1.0000   1.0000   1.0000   1.0000   1.0000   1.0000   1.0000   1.0000
     1.0000   1.0000   1.0000   1.0000   1.0000   1.0000   1.0000   1.0000
     1.0000   1.0000   1.0000   1.0000   1.0000   1.0000   1.0000   1.0000
     1.0000   1.0000   1.0000   1.0000   1.0000   1.0000   1.0000   1.0000
     1.0000   1.0000   1.0000   1.0000   1.0000   1.0000   1.0000   1.0000
     1.0000   1.0000   1.0000   1.0000   1.0000   1.0000   1.0000   1.0000
     1.0000   1.0000   1.0000   1.0000   1.0000   1.0000   1.0000   1.0000
     1.0000   1.0000   1.0000   1.0000   1.0000   1.0000   1.0000   1.0000
     1.0000   1.0000   1.0000   1.0000   1.0000   1.0000   1.0000   1.0000
     1.0000   1.0000   1.0000   1.0000   1.0000   1.0000   1.0000   1.0000
     1.0000   1.0000   1.0000   1.0000   1.0000   1.0000   1.0000   1.0000
     1.0000   1.0000   1.0000   1.0000   1.0000   1.0000   1.0000   1.0000
     1.0000   1.0000   1.0000   1.0000   1.0000   1.0000   1.0000   1.0000
     1.0000   1.0000   1.0000   1.0000   1.0000   1.0000   1.0000   1.0000
     1.0000   1.0000   1.0000   1.0000   1.0000   1.0000   1.0000   1.0000
     1.0000   1.0000   1.0000   1.0000   1.0000   1.0000   1.0000   1.0000
     1.0000   1.0000   1.0000   1.0000   1.0000   1.0000   1.0000   1.0000
     1.0000   1.0000   1.0000   1.0000   1.0000   1.0000   1.0000   1.0000
     1.0000   1.0000   1.0000   1.0000   1.0000   1.0000   1.0000   1.0000
     1.0000   1.0000   1.0000   1.0000   1.0000   1.0000   1.0000   1.0000
     1.0000   1.0000   1.0000   1.0000   1.0000   1.0000   1.0000   1.0000
     1.0000   1.0000   1.0000   1.0000   1.0000   1.0000   1.0000   1.0000
     1.0000   1.0000   1.0000   1.0000   1.0000   1.0000   1.0000   1.0289
     1.0318   1.0366   1.0377   1.0380   1.0638   0.6154   0.6087   0.5453
     0.5413   0.5380   0.5083   0.2019   0.0004   0.0004   0.0003   0.0000
     0.0000   0.0000   0.0000   0.0000   0.0000   0.0000   0.0000   0.0000
     0.0000   0.0000   0.0000   0.0000   0.0000   0.0000   0.0000   0.0000
     0.0000   0.0000   0.0000   0.0000   0.0000   0.0000   0.0000   0.0000
     0.0000   0.0000   0.0000   0.0000   0.0000   0.0000   0.0000   0.0000
     0.0000   0.0000   0.0000   0.0000   0.0000   0.0000   0.0000   0.0000
     0.0000   0.0000   0.0000   0.0000   0.0000   0.0000   0.0000   0.0000
     0.0000   0.0000   0.0000   0.0000   0.0000   0.0000   0.0000   0.0000
     0.0000   0.0000   0.0000   0.0000   0.0000   0.0000   0.0000   0.0000
     0.0000   0.0000   0.0000   0.0000   0.0000   0.0000   0.0000   0.0000
     0.0000   0.0000   0.0000   0.0000   0.0000   0.0000   0.0000   0.0000
     0.0000   0.0000   0.0000   0.0000   0.0000   0.0000   0.0000   0.0000
     0.0000   0.0000   0.0000   0.0000   0.0000   0.0000   0.0000   0.0000
     0.0000   0.0000   0.0000   0.0000   0.0000   0.0000   0.0000   0.0000
     0.0000   0.0000   0.0000   0.0000   0.0000   0.0000   0.0000   0.0000
     0.0000   0.0000   0.0000   0.0000   0.0000

          k = 0.0000 0.3849 0.0000 ( 42150 PWs)   bands (ev):

  -123.1262-123.1252-123.1241-123.1234-123.1229-123.1227-123.1221-123.1218
  -123.1217-123.1214-123.1214-123.1209-123.1202-123.1177-123.1168-123.1139
  -123.0799-123.0793-123.0788-123.0773-123.0758-123.0746-123.0716-123.0710
  -123.0704-123.0699-123.0697-123.0694-123.0684-123.0437-123.0396-123.0300
  -122.9291-122.9275-122.9274-122.9272-122.9270-122.9269-122.9267-122.9265
  -122.9264-122.9262-122.9261-122.9258-122.9253-122.9250-122.9243-122.9240
  -122.9029-122.9014-122.8985-122.8935-122.8893-122.8881-122.8865-122.8840
  -122.8836-122.8828-122.8823-122.8819-122.8817-122.8796-122.8784-122.7605
   -77.2333 -77.2332 -77.2297 -77.2267 -77.2259 -77.2256 -77.2251 -77.2192
   -77.2189 -77.2141 -77.2134 -77.2119 -77.2114 -77.2108 -77.2106 -77.2103
   -77.2096 -77.2095 -77.2088 -77.2085 -77.2084 -77.2079 -77.2077 -77.2072
   -77.2071 -77.2066 -77.2063 -77.2052 -77.2047 -77.2037 -77.2025 -77.2012
   -77.2009 -77.2000 -77.1990 -77.1985 -77.1974 -77.1967 -77.1948 -77.1939
   -77.1936 -77.1927 -77.1924 -77.1911 -77.1905 -77.1899 -77.1877 -77.1875
   -77.1839 -77.1826 -77.1800 -77.1771 -77.1751 -77.1745 -77.1719 -77.1685
   -77.1671 -77.1665 -77.1659 -77.1647 -77.1637 -77.1625 -77.1623 -77.1608
   -77.1601 -77.1585 -77.1583 -77.1575 -77.1572 -77.1570 -77.1565 -77.1559
   -77.1557 -77.1550 -77.1546 -77.1542 -77.1533 -77.1504 -77.1492 -77.1480
   -77.1469 -77.1456 -77.1437 -77.1426 -77.1418 -77.1407 -77.1399 -77.1311
   -77.1301 -77.1267 -77.1258 -77.1225 -77.1173 -77.1170 -77.1099 -77.1073
   -77.0350 -77.0345 -77.0311 -77.0287 -77.0279 -77.0274 -77.0270 -77.0235
   -77.0229 -77.0228 -77.0218 -77.0214 -77.0210 -77.0209 -77.0208 -77.0206
   -77.0204 -77.0203 -77.0197 -77.0195 -77.0192 -77.0188 -77.0181 -77.0175
   -77.0167 -77.0160 -77.0126 -77.0123 -77.0103 -77.0102 -77.0064 -77.0061
   -77.0023 -77.0021 -77.0014 -77.0011 -77.0008 -76.9986 -76.9982 -76.9974
   -76.9961 -76.9954 -76.9952 -76.9950 -76.9947 -76.9945 -76.9944 -76.9936
   -76.9931 -76.9929 -76.9925 -76.9921 -76.9915 -76.9913 -76.9901 -76.9889
   -76.9878 -76.9868 -76.9847 -76.9841 -76.9835 -76.9820 -76.9811 -76.9797
   -76.9792 -76.9789 -76.9786 -76.9778 -76.9776 -76.9768 -76.9766 -76.9742
   -76.9738 -76.9727 -76.9720 -76.9711 -76.9696 -76.9682 -76.9665 -76.9628
   -76.9624 -76.9599 -76.9587 -76.9577 -76.9566 -76.9551 -76.9529 -76.9521
   -76.9518 -76.9509 -76.9498 -76.9490 -76.9479 -76.8528 -76.8493 -76.8479
   -18.6015  -6.3570  -6.2184  -5.7511  -5.5782  -5.2173  -5.2070  -5.0558
    -4.9565  -4.8868  -4.8138  -4.7755  -4.7755  -4.7661  -4.7498  -4.7130
    -4.7115  -4.6956  -4.6950  -4.6884  -4.6813  -4.6715  -4.6693  -4.6241
    -4.6039  -4.6025  -4.5992  -4.5758  -4.5757  -4.5689  -4.5651  -4.5469
    -4.5365  -4.5230  -4.5212  -4.5063  -4.5015  -4.4995  -4.4968  -4.4870
    -4.4867  -4.4713  -4.4695  -4.4620  -4.4541  -4.4537  -4.4514  -4.4507
    -4.4483  -4.4359  -4.4339  -4.4147  -4.4122  -4.4043  -4.4001  -4.3996
    -4.3923  -4.3823  -4.3790  -4.3782  -4.3731  -4.3713  -4.3674  -4.3607
    -4.3535  -4.3399  -4.3397  -4.3310  -4.3249  -4.3108  -4.3098  -4.3072
    -4.3059  -4.3005  -4.2991  -4.2907  -4.2547  -4.2532  -4.2522  -4.2461
    -4.2416  -4.2322  -4.2293  -4.2260  -4.2216  -4.2141  -4.2139  -4.2068
    -4.1883  -4.1862  -4.1833  -4.1824  -4.1804  -4.1766  -4.1758  -4.1671
    -4.1658  -4.1542  -4.1520  -4.1505  -4.1462  -4.1432  -4.1392  -4.1374
    -4.1330  -4.1300  -4.1210  -4.1151  -4.1140  -4.1068  -4.1048  -4.1024
    -4.1011  -4.0662  -4.0655  -4.0544  -4.0519  -4.0433  -4.0415  -4.0389
    -4.0343  -4.0334  -4.0291  -4.0286  -4.0263  -4.0256  -4.0248  -4.0170
    -4.0034  -3.9986  -3.9899  -3.9875  -3.9808  -3.9742  -3.9670  -3.9609
    -3.9517  -3.9511  -3.9488  -3.9482  -3.9405  -3.9258  -3.9211  -3.9184
    -3.9140  -3.9107  -3.9025  -3.9000  -3.8979  -3.8920  -3.8902  -3.8781
    -3.8774  -3.8682  -3.8631  -3.8606  -3.8597  -3.8558  -3.8503  -3.8462
    -3.8340  -3.8334  -3.8260  -3.8222  -3.8197  -3.8145  -3.8093  -3.8070
    -3.8006  -3.7913  -3.7772  -3.7759  -3.7686  -3.7587  -3.7569  -3.7565
    -3.7555  -3.7537  -3.7515  -3.7512  -3.7490  -3.7462  -3.7440  -3.7288
    -3.7268  -3.7224  -3.7208  -3.7191  -3.7183  -3.7139  -3.7126  -3.7038
    -3.7027  -3.7001  -3.6988  -3.6976  -3.6907  -3.6877  -3.6791  -3.6738
    -3.6727  -3.6710  -3.6675  -3.6558  -3.6546  -3.6502  -3.6471  -3.6404
    -3.6402  -3.6388  -3.6384  -3.6379  -3.6333  -3.6327  -3.6304  -3.6230
    -3.6202  -3.6137  -3.6129  -3.6117  -3.6096  -3.6079  -3.6072  -3.6056
    -3.6022  -3.6007  -3.5946  -3.5808  -3.5772  -3.5726  -3.5670  -3.5661
    -3.5551  -3.5511  -3.5466  -3.5418  -3.5323  -3.5222  -3.5202  -3.5188
    -3.5165  -3.5157  -3.5144  -3.5135  -3.5122  -3.5116  -3.5105  -3.5079
    -3.5035  -3.4956  -3.4930  -3.4892  -3.4872  -3.4857  -3.4845  -3.4835
    -3.4823  -3.4814  -3.4789  -3.4765  -3.4708  -3.4636  -3.4599  -3.4582
    -3.4558  -3.4510  -3.4427  -3.4389  -3.4305  -3.4284  -3.4271  -3.4258
    -3.4229  -3.4198  -3.4175  -3.4063  -3.3982  -3.3977  -3.3955  -3.3910
    -3.3903  -3.3895  -3.3891  -3.3880  -3.3856  -3.3831  -3.3817  -3.3758
    -3.3735  -3.3683  -3.3667  -3.3658  -3.3651  -3.3640  -3.3633  -3.3599
    -3.3588  -3.3556  -3.3511  -3.3429  -3.3346  -3.3321  -3.3257  -3.3236
    -3.3213  -3.3211  -3.3164  -3.3077  -3.3028  -3.2886  -3.2879  -3.2749
    -3.2706  -3.2654  -3.2650  -3.2573  -3.2547  -3.2502  -3.2458  -3.2322
    -3.2309  -3.2098  -3.1567  -3.1470  -3.1433  -3.1429  -3.1056  -3.1011
    -3.0974  -3.0617  -2.9464  -2.9414  -2.9031  -2.6681  -2.5749  -2.3872
    -2.2557  -2.2329  -1.9197  -1.8932  -1.7734  -1.7641  -1.7340  -1.0957
    -0.9812  -0.9518  -0.8550  -0.7952  -0.7364  -0.6425  -0.4285  -0.2201
    -0.0125   0.0397   0.0509   0.0531   0.1166   0.4590   0.4724   0.5479
     0.5519   0.8981   0.9001   1.0490   1.0574   1.3450   1.3587   1.3714
     1.5124   1.5787   1.9862   1.9991   2.1509   2.2281   2.2291   2.2892
     2.2908   2.5380   2.5432   2.8294   2.8511   2.8720   2.9093   2.9691
     2.9771   3.0231   3.8209   3.8405   4.1298   4.1315   4.2109   4.2615
     4.2881   4.4272   4.4412   4.6653   4.6816   4.8399   4.9199   5.0307
     5.0718   5.0816   5.4350   5.4756   5.5128   5.5139   5.5717   5.5865
     5.6675   5.6775   5.6928   5.7806   5.7889   6.0991   6.1317   6.1399
     6.2316   6.2445   6.5363   6.6692   6.6875   6.7857   6.9320   6.9367
     7.0830   7.0921   7.1028   7.1066   7.1917   7.2015   7.2267   7.2851
     7.4307   7.4371   7.4516   7.5286   7.6824   7.7660   7.8291   7.8406
     7.8527   7.8601   7.8825   7.9958   8.0072   8.0396   8.0455   8.2471
     8.2729   8.2958   8.3543   8.4107   8.4183   8.4232   8.5431   8.6491
     8.6516   8.7067   8.7285   8.8362   8.9541   9.0436   9.0474   9.1367
     9.1581   9.1806   9.2659   9.2877   9.3429   9.4237   9.4352   9.5132
     9.5242   9.5331   9.5548   9.5774   9.6156   9.6682   9.6752   9.7427
     9.8679   9.8877   9.9861   9.9998  10.0161  10.0390  10.1496  10.1585
    10.1679  10.2035  10.2422  10.3024  10.3150  10.4291  10.4700  10.4941
    10.5467  10.5595  10.6813  10.7613  10.7712  10.8271  10.9550  10.9634
    10.9881  11.0041  11.0104  11.0236  11.0289  11.0600  11.0802  11.1155
    11.2081  11.2518  11.3930  11.4738  11.5090

     occupation numbers 
     1.0000   1.0000   1.0000   1.0000   1.0000   1.0000   1.0000   1.0000
     1.0000   1.0000   1.0000   1.0000   1.0000   1.0000   1.0000   1.0000
     1.0000   1.0000   1.0000   1.0000   1.0000   1.0000   1.0000   1.0000
     1.0000   1.0000   1.0000   1.0000   1.0000   1.0000   1.0000   1.0000
     1.0000   1.0000   1.0000   1.0000   1.0000   1.0000   1.0000   1.0000
     1.0000   1.0000   1.0000   1.0000   1.0000   1.0000   1.0000   1.0000
     1.0000   1.0000   1.0000   1.0000   1.0000   1.0000   1.0000   1.0000
     1.0000   1.0000   1.0000   1.0000   1.0000   1.0000   1.0000   1.0000
     1.0000   1.0000   1.0000   1.0000   1.0000   1.0000   1.0000   1.0000
     1.0000   1.0000   1.0000   1.0000   1.0000   1.0000   1.0000   1.0000
     1.0000   1.0000   1.0000   1.0000   1.0000   1.0000   1.0000   1.0000
     1.0000   1.0000   1.0000   1.0000   1.0000   1.0000   1.0000   1.0000
     1.0000   1.0000   1.0000   1.0000   1.0000   1.0000   1.0000   1.0000
     1.0000   1.0000   1.0000   1.0000   1.0000   1.0000   1.0000   1.0000
     1.0000   1.0000   1.0000   1.0000   1.0000   1.0000   1.0000   1.0000
     1.0000   1.0000   1.0000   1.0000   1.0000   1.0000   1.0000   1.0000
     1.0000   1.0000   1.0000   1.0000   1.0000   1.0000   1.0000   1.0000
     1.0000   1.0000   1.0000   1.0000   1.0000   1.0000   1.0000   1.0000
     1.0000   1.0000   1.0000   1.0000   1.0000   1.0000   1.0000   1.0000
     1.0000   1.0000   1.0000   1.0000   1.0000   1.0000   1.0000   1.0000
     1.0000   1.0000   1.0000   1.0000   1.0000   1.0000   1.0000   1.0000
     1.0000   1.0000   1.0000   1.0000   1.0000   1.0000   1.0000   1.0000
     1.0000   1.0000   1.0000   1.0000   1.0000   1.0000   1.0000   1.0000
     1.0000   1.0000   1.0000   1.0000   1.0000   1.0000   1.0000   1.0000
     1.0000   1.0000   1.0000   1.0000   1.0000   1.0000   1.0000   1.0000
     1.0000   1.0000   1.0000   1.0000   1.0000   1.0000   1.0000   1.0000
     1.0000   1.0000   1.0000   1.0000   1.0000   1.0000   1.0000   1.0000
     1.0000   1.0000   1.0000   1.0000   1.0000   1.0000   1.0000   1.0000
     1.0000   1.0000   1.0000   1.0000   1.0000   1.0000   1.0000   1.0000
     1.0000   1.0000   1.0000   1.0000   1.0000   1.0000   1.0000   1.0000
     1.0000   1.0000   1.0000   1.0000   1.0000   1.0000   1.0000   1.0000
     1.0000   1.0000   1.0000   1.0000   1.0000   1.0000   1.0000   1.0000
     1.0000   1.0000   1.0000   1.0000   1.0000   1.0000   1.0000   1.0000
     1.0000   1.0000   1.0000   1.0000   1.0000   1.0000   1.0000   1.0000
     1.0000   1.0000   1.0000   1.0000   1.0000   1.0000   1.0000   1.0000
     1.0000   1.0000   1.0000   1.0000   1.0000   1.0000   1.0000   1.0000
     1.0000   1.0000   1.0000   1.0000   1.0000   1.0000   1.0000   1.0000
     1.0000   1.0000   1.0000   1.0000   1.0000   1.0000   1.0000   1.0000
     1.0000   1.0000   1.0000   1.0000   1.0000   1.0000   1.0000   1.0000
     1.0000   1.0000   1.0000   1.0000   1.0000   1.0000   1.0000   1.0000
     1.0000   1.0000   1.0000   1.0000   1.0000   1.0000   1.0000   1.0000
     1.0000   1.0000   1.0000   1.0000   1.0000   1.0000   1.0000   1.0000
     1.0000   1.0000   1.0000   1.0000   1.0000   1.0000   1.0000   1.0000
     1.0000   1.0000   1.0000   1.0000   1.0000   1.0000   1.0000   1.0000
     1.0000   1.0000   1.0000   1.0000   1.0000   1.0000   1.0000   1.0000
     1.0000   1.0000   1.0000   1.0000   1.0000   1.0000   1.0000   1.0000
     1.0000   1.0000   1.0000   1.0000   1.0000   1.0000   1.0000   1.0000
     1.0000   1.0000   1.0000   1.0000   1.0000   1.0000   1.0000   1.0000
     1.0000   1.0000   1.0000   1.0000   1.0000   1.0000   1.0000   1.0000
     1.0000   1.0000   1.0000   1.0000   1.0000   1.0000   1.0000   1.0000
     1.0000   1.0000   1.0000   1.0000   1.0000   1.0000   1.0000   1.0000
     1.0000   1.0000   1.0000   1.0000   1.0000   1.0000   1.0000   1.0000
     1.0000   1.0000   1.0000   1.0000   1.0000   1.0000   1.0000   1.0000
     1.0000   1.0000   1.0000   1.0000   1.0000   1.0000   1.0000   1.0000
     1.0000   1.0000   1.0000   1.0000   1.0000   1.0000   1.0000   1.0000
     1.0000   1.0000   1.0000   1.0000   1.0000   1.0000   1.0000   1.0000
     1.0000   1.0000   1.0000   1.0000   1.0000   1.0000   1.0000   1.0000
     1.0000   1.0000   1.0000   1.0000   1.0000   1.0000   1.0000   1.0000
     1.0000   1.0000   1.0000   1.0000   1.0000   1.0000   1.0000   1.0000
     1.0000   1.0000   1.0000   1.0000   1.0000   1.0000   1.0000   1.0000
     1.0000   1.0000   1.0000   1.0000   1.0000   1.0000   1.0000   1.0000
     1.0000   1.0000   1.0000   1.0000   1.0000   1.0000   1.0000   1.0000
     1.0000   1.0000   1.0000   1.0000   1.0000   1.0000   1.0000   1.0000
     1.0000   1.0000   1.0000   1.0000   1.0000   1.0000   1.0000   1.0000
     1.0000   1.0000   1.0000   1.0000   1.0000   1.0000   1.0000   1.0000
     1.0000   1.0000   1.0000   1.0000   1.0000   1.0000   1.0000   1.0000
     1.0000   1.0000   1.0000   1.0000   1.0000   1.0000   1.0000   1.0000
     1.0000   1.0000   1.0000   1.0000   1.0000   1.0000   1.0000   1.0000
     1.0000   1.0000   1.0000   1.0000   1.0000   1.0000   1.0000   1.0000
     1.0000   1.0000   1.0000   1.0000   1.0000   1.0000   1.0000   1.0000
     1.0000   1.0000   1.0000   1.0000   1.0000   1.0000   1.0000   1.0000
     1.0000   1.0000   1.0000   1.0000   1.0000   1.0000   1.0000   1.0000
     1.0000   1.0000   1.0000   1.0000   1.0000   1.0000   1.0000   1.0000
     1.0000   1.0000   1.0000   1.0000   1.0000   1.0000   1.0000   1.0000
     1.0000   1.0000   1.0000   1.0000   1.0000   1.0000   1.0000   1.0000
     1.0000   1.0000   1.0000   1.0000   1.0000   1.0000   1.0000   1.0000
     1.0000   1.0000   1.0000   1.0000   1.0000   1.0000   1.0000   1.0000
     1.0000   1.0000   1.0000   1.0000   1.0000   1.0000   1.0000   1.0000
     1.0000   1.0000   1.0000   1.0000   1.0000   1.0000   1.0000   1.0000
     1.0000   1.0000   1.0000   1.0000   1.0000   1.0000   1.0000   1.0002
     1.0002   1.0004   0.6452   0.5910   0.0573   0.0562   0.0205   0.0099
     0.0066   0.0006   0.0004   0.0000   0.0000   0.0000   0.0000   0.0000
     0.0000   0.0000   0.0000   0.0000   0.0000   0.0000   0.0000   0.0000
     0.0000   0.0000   0.0000   0.0000   0.0000   0.0000   0.0000   0.0000
     0.0000   0.0000   0.0000   0.0000   0.0000   0.0000   0.0000   0.0000
     0.0000   0.0000   0.0000   0.0000   0.0000   0.0000   0.0000   0.0000
     0.0000   0.0000   0.0000   0.0000   0.0000   0.0000   0.0000   0.0000
     0.0000   0.0000   0.0000   0.0000   0.0000   0.0000   0.0000   0.0000
     0.0000   0.0000   0.0000   0.0000   0.0000   0.0000   0.0000   0.0000
     0.0000   0.0000   0.0000   0.0000   0.0000   0.0000   0.0000   0.0000
     0.0000   0.0000   0.0000   0.0000   0.0000   0.0000   0.0000   0.0000
     0.0000   0.0000   0.0000   0.0000   0.0000   0.0000   0.0000   0.0000
     0.0000   0.0000   0.0000   0.0000   0.0000   0.0000   0.0000   0.0000
     0.0000   0.0000   0.0000   0.0000   0.0000   0.0000   0.0000   0.0000
     0.0000   0.0000   0.0000   0.0000   0.0000   0.0000   0.0000   0.0000
     0.0000   0.0000   0.0000   0.0000   0.0000   0.0000   0.0000   0.0000
     0.0000   0.0000   0.0000   0.0000   0.0000

          k = 0.3333 0.1925 0.0000 ( 42150 PWs)   bands (ev):

  -123.1262-123.1251-123.1241-123.1234-123.1230-123.1226-123.1221-123.1217
  -123.1217-123.1214-123.1213-123.1209-123.1202-123.1177-123.1168-123.1139
  -123.0799-123.0793-123.0788-123.0773-123.0758-123.0746-123.0716-123.0710
  -123.0704-123.0699-123.0696-123.0694-123.0684-123.0437-123.0396-123.0300
  -122.9291-122.9275-122.9273-122.9272-122.9270-122.9268-122.9267-122.9265
  -122.9264-122.9262-122.9261-122.9258-122.9253-122.9250-122.9243-122.9240
  -122.9029-122.9014-122.8985-122.8935-122.8893-122.8881-122.8865-122.8840
  -122.8836-122.8829-122.8823-122.8819-122.8817-122.8796-122.8784-122.7605
   -77.2333 -77.2332 -77.2298 -77.2268 -77.2260 -77.2256 -77.2250 -77.2191
   -77.2188 -77.2142 -77.2134 -77.2122 -77.2112 -77.2108 -77.2105 -77.2102
   -77.2096 -77.2093 -77.2089 -77.2086 -77.2084 -77.2079 -77.2077 -77.2076
   -77.2073 -77.2066 -77.2059 -77.2051 -77.2047 -77.2034 -77.2028 -77.2013
   -77.2009 -77.2000 -77.1992 -77.1985 -77.1975 -77.1967 -77.1947 -77.1940
   -77.1935 -77.1923 -77.1921 -77.1913 -77.1910 -77.1898 -77.1877 -77.1875
   -77.1837 -77.1828 -77.1803 -77.1770 -77.1752 -77.1740 -77.1720 -77.1682
   -77.1673 -77.1666 -77.1655 -77.1651 -77.1639 -77.1628 -77.1619 -77.1608
   -77.1600 -77.1587 -77.1582 -77.1573 -77.1572 -77.1568 -77.1564 -77.1563
   -77.1558 -77.1553 -77.1546 -77.1545 -77.1533 -77.1503 -77.1492 -77.1474
   -77.1468 -77.1450 -77.1439 -77.1429 -77.1418 -77.1410 -77.1400 -77.1310
   -77.1302 -77.1266 -77.1263 -77.1220 -77.1172 -77.1170 -77.1098 -77.1074
   -77.0350 -77.0344 -77.0311 -77.0287 -77.0279 -77.0274 -77.0270 -77.0235
   -77.0229 -77.0227 -77.0217 -77.0214 -77.0210 -77.0208 -77.0208 -77.0206
   -77.0205 -77.0203 -77.0197 -77.0195 -77.0192 -77.0189 -77.0180 -77.0174
   -77.0168 -77.0160 -77.0126 -77.0122 -77.0103 -77.0102 -77.0064 -77.0061
   -77.0023 -77.0021 -77.0013 -77.0011 -77.0006 -76.9986 -76.9981 -76.9973
   -76.9961 -76.9954 -76.9952 -76.9950 -76.9949 -76.9945 -76.9944 -76.9937
   -76.9933 -76.9929 -76.9926 -76.9922 -76.9914 -76.9913 -76.9910 -76.9879
   -76.9877 -76.9871 -76.9846 -76.9841 -76.9836 -76.9820 -76.9810 -76.9798
   -76.9792 -76.9787 -76.9782 -76.9777 -76.9774 -76.9769 -76.9767 -76.9741
   -76.9739 -76.9727 -76.9721 -76.9711 -76.9694 -76.9684 -76.9674 -76.9628
   -76.9621 -76.9597 -76.9590 -76.9576 -76.9565 -76.9547 -76.9528 -76.9521
   -76.9518 -76.9512 -76.9499 -76.9490 -76.9479 -76.8528 -76.8493 -76.8479
   -18.6015  -6.3570  -6.2184  -5.7511  -5.5781  -5.2173  -5.2070  -5.0557
    -4.9565  -4.8868  -4.8138  -4.7755  -4.7755  -4.7661  -4.7498  -4.7129
    -4.7115  -4.6955  -4.6950  -4.6886  -4.6812  -4.6714  -4.6695  -4.6241
    -4.6039  -4.6025  -4.5992  -4.5759  -4.5756  -4.5689  -4.5651  -4.5469
    -4.5365  -4.5229  -4.5213  -4.5062  -4.5015  -4.4995  -4.4967  -4.4870
    -4.4867  -4.4714  -4.4694  -4.4621  -4.4541  -4.4537  -4.4516  -4.4506
    -4.4482  -4.4359  -4.4339  -4.4147  -4.4122  -4.4042  -4.4001  -4.3997
    -4.3921  -4.3821  -4.3791  -4.3783  -4.3731  -4.3712  -4.3675  -4.3607
    -4.3535  -4.3399  -4.3398  -4.3310  -4.3248  -4.3111  -4.3098  -4.3071
    -4.3060  -4.3004  -4.2988  -4.2909  -4.2551  -4.2532  -4.2522  -4.2461
    -4.2415  -4.2322  -4.2292  -4.2258  -4.2216  -4.2142  -4.2139  -4.2067
    -4.1885  -4.1861  -4.1833  -4.1823  -4.1803  -4.1766  -4.1755  -4.1672
    -4.1659  -4.1544  -4.1520  -4.1505  -4.1462  -4.1432  -4.1395  -4.1371
    -4.1331  -4.1298  -4.1211  -4.1152  -4.1140  -4.1068  -4.1044  -4.1026
    -4.1011  -4.0662  -4.0654  -4.0546  -4.0517  -4.0436  -4.0413  -4.0388
    -4.0345  -4.0333  -4.0292  -4.0285  -4.0263  -4.0258  -4.0247  -4.0170
    -4.0037  -3.9985  -3.9898  -3.9876  -3.9808  -3.9743  -3.9670  -3.9609
    -3.9517  -3.9511  -3.9488  -3.9481  -3.9404  -3.9258  -3.9211  -3.9184
    -3.9140  -3.9108  -3.9024  -3.9000  -3.8979  -3.8919  -3.8902  -3.8781
    -3.8775  -3.8682  -3.8631  -3.8606  -3.8595  -3.8557  -3.8507  -3.8461
    -3.8341  -3.8332  -3.8260  -3.8221  -3.8197  -3.8146  -3.8093  -3.8071
    -3.8006  -3.7913  -3.7773  -3.7759  -3.7685  -3.7589  -3.7571  -3.7562
    -3.7554  -3.7535  -3.7515  -3.7512  -3.7492  -3.7461  -3.7442  -3.7288
    -3.7269  -3.7224  -3.7209  -3.7192  -3.7181  -3.7140  -3.7125  -3.7038
    -3.7028  -3.7001  -3.6988  -3.6976  -3.6908  -3.6877  -3.6792  -3.6737
    -3.6728  -3.6710  -3.6675  -3.6560  -3.6544  -3.6501  -3.6472  -3.6404
    -3.6403  -3.6390  -3.6384  -3.6379  -3.6332  -3.6323  -3.6301  -3.6230
    -3.6201  -3.6136  -3.6127  -3.6116  -3.6096  -3.6080  -3.6071  -3.6058
    -3.6019  -3.6008  -3.5949  -3.5807  -3.5771  -3.5726  -3.5670  -3.5660
    -3.5551  -3.5510  -3.5466  -3.5418  -3.5323  -3.5222  -3.5201  -3.5187
    -3.5165  -3.5158  -3.5143  -3.5135  -3.5122  -3.5116  -3.5104  -3.5079
    -3.5033  -3.4955  -3.4930  -3.4894  -3.4871  -3.4857  -3.4844  -3.4834
    -3.4825  -3.4813  -3.4790  -3.4766  -3.4708  -3.4637  -3.4601  -3.4583
    -3.4558  -3.4510  -3.4426  -3.4389  -3.4304  -3.4286  -3.4270  -3.4258
    -3.4229  -3.4197  -3.4175  -3.4061  -3.3983  -3.3976  -3.3954  -3.3911
    -3.3903  -3.3896  -3.3891  -3.3879  -3.3858  -3.3831  -3.3817  -3.3758
    -3.3734  -3.3683  -3.3668  -3.3657  -3.3651  -3.3640  -3.3633  -3.3601
    -3.3588  -3.3558  -3.3510  -3.3429  -3.3345  -3.3320  -3.3257  -3.3236
    -3.3213  -3.3211  -3.3162  -3.3078  -3.3028  -3.2886  -3.2879  -3.2748
    -3.2706  -3.2655  -3.2651  -3.2573  -3.2546  -3.2501  -3.2458  -3.2322
    -3.2310  -3.2098  -3.1567  -3.1473  -3.1433  -3.1429  -3.1056  -3.1011
    -3.0974  -3.0617  -2.9465  -2.9414  -2.9029  -2.6677  -2.5749  -2.3878
    -2.2561  -2.2327  -1.9198  -1.8924  -1.7735  -1.7640  -1.7342  -1.0960
    -0.9811  -0.9517  -0.8551  -0.7951  -0.7364  -0.6429  -0.4282  -0.2201
    -0.0122   0.0394   0.0510   0.0531   0.1164   0.4589   0.4724   0.5479
     0.5519   0.8978   0.9004   1.0489   1.0575   1.3449   1.3590   1.3714
     1.5123   1.5787   1.9862   1.9991   2.1508   2.2280   2.2292   2.2890
     2.2911   2.5379   2.5434   2.8294   2.8511   2.8718   2.9096   2.9692
     2.9771   3.0231   3.8211   3.8404   4.1299   4.1314   4.2108   4.2611
     4.2886   4.4272   4.4413   4.6655   4.6818   4.8397   4.9196   5.0306
     5.0718   5.0817   5.4329   5.4776   5.5128   5.5143   5.5708   5.5864
     5.6670   5.6776   5.6931   5.7806   5.7891   6.1008   6.1319   6.1397
     6.2317   6.2444   6.5360   6.6670   6.6889   6.7818   6.9322   6.9365
     7.0841   7.0906   7.1022   7.1060   7.1922   7.2018   7.2273   7.2857
     7.4277   7.4378   7.4501   7.5416   7.6827   7.7615   7.8279   7.8410
     7.8531   7.8602   7.8826   7.9961   8.0073   8.0394   8.0453   8.2535
     8.2710   8.2922   8.3644   8.4114   8.4184   8.4235   8.5199   8.6484
     8.6532   8.7091   8.7321   8.8364   8.9546   9.0449   9.0482   9.1308
     9.1593   9.1815   9.2655   9.2865   9.3462   9.4224   9.4367   9.5061
     9.5277   9.5351   9.5548   9.5727   9.6170   9.6685   9.6760   9.7390
     9.8732   9.8944   9.9787   9.9996  10.0176  10.0402  10.1492  10.1564
    10.1690  10.2037  10.2444  10.2988  10.3176  10.4304  10.4681  10.4945
    10.5463  10.5597  10.6792  10.7613  10.7711  10.8335  10.9535  10.9714
    10.9854  11.0067  11.0099  11.0216  11.0289  11.0602  11.0812  11.1276
    11.2047  11.2493  11.3972  11.4734  11.5107

     occupation numbers 
     1.0000   1.0000   1.0000   1.0000   1.0000   1.0000   1.0000   1.0000
     1.0000   1.0000   1.0000   1.0000   1.0000   1.0000   1.0000   1.0000
     1.0000   1.0000   1.0000   1.0000   1.0000   1.0000   1.0000   1.0000
     1.0000   1.0000   1.0000   1.0000   1.0000   1.0000   1.0000   1.0000
     1.0000   1.0000   1.0000   1.0000   1.0000   1.0000   1.0000   1.0000
     1.0000   1.0000   1.0000   1.0000   1.0000   1.0000   1.0000   1.0000
     1.0000   1.0000   1.0000   1.0000   1.0000   1.0000   1.0000   1.0000
     1.0000   1.0000   1.0000   1.0000   1.0000   1.0000   1.0000   1.0000
     1.0000   1.0000   1.0000   1.0000   1.0000   1.0000   1.0000   1.0000
     1.0000   1.0000   1.0000   1.0000   1.0000   1.0000   1.0000   1.0000
     1.0000   1.0000   1.0000   1.0000   1.0000   1.0000   1.0000   1.0000
     1.0000   1.0000   1.0000   1.0000   1.0000   1.0000   1.0000   1.0000
     1.0000   1.0000   1.0000   1.0000   1.0000   1.0000   1.0000   1.0000
     1.0000   1.0000   1.0000   1.0000   1.0000   1.0000   1.0000   1.0000
     1.0000   1.0000   1.0000   1.0000   1.0000   1.0000   1.0000   1.0000
     1.0000   1.0000   1.0000   1.0000   1.0000   1.0000   1.0000   1.0000
     1.0000   1.0000   1.0000   1.0000   1.0000   1.0000   1.0000   1.0000
     1.0000   1.0000   1.0000   1.0000   1.0000   1.0000   1.0000   1.0000
     1.0000   1.0000   1.0000   1.0000   1.0000   1.0000   1.0000   1.0000
     1.0000   1.0000   1.0000   1.0000   1.0000   1.0000   1.0000   1.0000
     1.0000   1.0000   1.0000   1.0000   1.0000   1.0000   1.0000   1.0000
     1.0000   1.0000   1.0000   1.0000   1.0000   1.0000   1.0000   1.0000
     1.0000   1.0000   1.0000   1.0000   1.0000   1.0000   1.0000   1.0000
     1.0000   1.0000   1.0000   1.0000   1.0000   1.0000   1.0000   1.0000
     1.0000   1.0000   1.0000   1.0000   1.0000   1.0000   1.0000   1.0000
     1.0000   1.0000   1.0000   1.0000   1.0000   1.0000   1.0000   1.0000
     1.0000   1.0000   1.0000   1.0000   1.0000   1.0000   1.0000   1.0000
     1.0000   1.0000   1.0000   1.0000   1.0000   1.0000   1.0000   1.0000
     1.0000   1.0000   1.0000   1.0000   1.0000   1.0000   1.0000   1.0000
     1.0000   1.0000   1.0000   1.0000   1.0000   1.0000   1.0000   1.0000
     1.0000   1.0000   1.0000   1.0000   1.0000   1.0000   1.0000   1.0000
     1.0000   1.0000   1.0000   1.0000   1.0000   1.0000   1.0000   1.0000
     1.0000   1.0000   1.0000   1.0000   1.0000   1.0000   1.0000   1.0000
     1.0000   1.0000   1.0000   1.0000   1.0000   1.0000   1.0000   1.0000
     1.0000   1.0000   1.0000   1.0000   1.0000   1.0000   1.0000   1.0000
     1.0000   1.0000   1.0000   1.0000   1.0000   1.0000   1.0000   1.0000
     1.0000   1.0000   1.0000   1.0000   1.0000   1.0000   1.0000   1.0000
     1.0000   1.0000   1.0000   1.0000   1.0000   1.0000   1.0000   1.0000
     1.0000   1.0000   1.0000   1.0000   1.0000   1.0000   1.0000   1.0000
     1.0000   1.0000   1.0000   1.0000   1.0000   1.0000   1.0000   1.0000
     1.0000   1.0000   1.0000   1.0000   1.0000   1.0000   1.0000   1.0000
     1.0000   1.0000   1.0000   1.0000   1.0000   1.0000   1.0000   1.0000
     1.0000   1.0000   1.0000   1.0000   1.0000   1.0000   1.0000   1.0000
     1.0000   1.0000   1.0000   1.0000   1.0000   1.0000   1.0000   1.0000
     1.0000   1.0000   1.0000   1.0000   1.0000   1.0000   1.0000   1.0000
     1.0000   1.0000   1.0000   1.0000   1.0000   1.0000   1.0000   1.0000
     1.0000   1.0000   1.0000   1.0000   1.0000   1.0000   1.0000   1.0000
     1.0000   1.0000   1.0000   1.0000   1.0000   1.0000   1.0000   1.0000
     1.0000   1.0000   1.0000   1.0000   1.0000   1.0000   1.0000   1.0000
     1.0000   1.0000   1.0000   1.0000   1.0000   1.0000   1.0000   1.0000
     1.0000   1.0000   1.0000   1.0000   1.0000   1.0000   1.0000   1.0000
     1.0000   1.0000   1.0000   1.0000   1.0000   1.0000   1.0000   1.0000
     1.0000   1.0000   1.0000   1.0000   1.0000   1.0000   1.0000   1.0000
     1.0000   1.0000   1.0000   1.0000   1.0000   1.0000   1.0000   1.0000
     1.0000   1.0000   1.0000   1.0000   1.0000   1.0000   1.0000   1.0000
     1.0000   1.0000   1.0000   1.0000   1.0000   1.0000   1.0000   1.0000
     1.0000   1.0000   1.0000   1.0000   1.0000   1.0000   1.0000   1.0000
     1.0000   1.0000   1.0000   1.0000   1.0000   1.0000   1.0000   1.0000
     1.0000   1.0000   1.0000   1.0000   1.0000   1.0000   1.0000   1.0000
     1.0000   1.0000   1.0000   1.0000   1.0000   1.0000   1.0000   1.0000
     1.0000   1.0000   1.0000   1.0000   1.0000   1.0000   1.0000   1.0000
     1.0000   1.0000   1.0000   1.0000   1.0000   1.0000   1.0000   1.0000
     1.0000   1.0000   1.0000   1.0000   1.0000   1.0000   1.0000   1.0000
     1.0000   1.0000   1.0000   1.0000   1.0000   1.0000   1.0000   1.0000
     1.0000   1.0000   1.0000   1.0000   1.0000   1.0000   1.0000   1.0000
     1.0000   1.0000   1.0000   1.0000   1.0000   1.0000   1.0000   1.0000
     1.0000   1.0000   1.0000   1.0000   1.0000   1.0000   1.0000   1.0000
     1.0000   1.0000   1.0000   1.0000   1.0000   1.0000   1.0000   1.0000
     1.0000   1.0000   1.0000   1.0000   1.0000   1.0000   1.0000   1.0000
     1.0000   1.0000   1.0000   1.0000   1.0000   1.0000   1.0000   1.0000
     1.0000   1.0000   1.0000   1.0000   1.0000   1.0000   1.0000   1.0000
     1.0000   1.0000   1.0000   1.0000   1.0000   1.0000   1.0000   1.0000
     1.0000   1.0000   1.0000   1.0000   1.0000   1.0000   1.0000   1.0000
     1.0000   1.0000   1.0000   1.0000   1.0000   1.0000   1.0000   1.0000
     1.0000   1.0000   1.0000   1.0000   1.0000   1.0000   1.0000   1.0000
     1.0000   1.0000   1.0000   1.0000   1.0000   1.0000   1.0000   1.0000
     1.0000   1.0000   1.0000   1.0000   1.0000   1.0000   1.0000   1.0000
     1.0000   1.0000   1.0000   1.0000   1.0000   1.0000   1.0000   1.0000
     1.0000   1.0000   1.0000   1.0000   1.0000   1.0000   1.0000   1.0000
     1.0000   1.0000   1.0000   1.0000   1.0000   1.0000   1.0000   1.0002
     1.0002   1.0004   0.6447   0.5913   0.0573   0.0562   0.0205   0.0100
     0.0065   0.0006   0.0004   0.0000   0.0000   0.0000   0.0000   0.0000
     0.0000   0.0000   0.0000   0.0000   0.0000   0.0000   0.0000   0.0000
     0.0000   0.0000   0.0000   0.0000   0.0000   0.0000   0.0000   0.0000
     0.0000   0.0000   0.0000   0.0000   0.0000   0.0000   0.0000   0.0000
     0.0000   0.0000   0.0000   0.0000   0.0000   0.0000   0.0000   0.0000
     0.0000   0.0000   0.0000   0.0000   0.0000   0.0000   0.0000   0.0000
     0.0000   0.0000   0.0000   0.0000   0.0000   0.0000   0.0000   0.0000
     0.0000   0.0000   0.0000   0.0000   0.0000   0.0000   0.0000   0.0000
     0.0000   0.0000   0.0000   0.0000   0.0000   0.0000   0.0000   0.0000
     0.0000   0.0000   0.0000   0.0000   0.0000   0.0000   0.0000   0.0000
     0.0000   0.0000   0.0000   0.0000   0.0000   0.0000   0.0000   0.0000
     0.0000   0.0000   0.0000   0.0000   0.0000   0.0000   0.0000   0.0000
     0.0000   0.0000   0.0000   0.0000   0.0000   0.0000   0.0000   0.0000
     0.0000   0.0000   0.0000   0.0000   0.0000   0.0000   0.0000   0.0000
     0.0000   0.0000   0.0000   0.0000   0.0000   0.0000   0.0000   0.0000
     0.0000   0.0000   0.0000   0.0000   0.0000

          k = 0.3333 0.5774 0.0000 ( 42123 PWs)   bands (ev):

  -123.1260-123.1251-123.1239-123.1234-123.1231-123.1225-123.1221-123.1220
  -123.1217-123.1214-123.1211-123.1207-123.1202-123.1177-123.1167-123.1138
  -123.0797-123.0793-123.0787-123.0772-123.0758-123.0745-123.0715-123.0709
  -123.0704-123.0699-123.0696-123.0693-123.0682-123.0437-123.0396-123.0300
  -122.9281-122.9279-122.9276-122.9273-122.9272-122.9269-122.9267-122.9265
  -122.9263-122.9261-122.9259-122.9255-122.9254-122.9248-122.9241-122.9238
  -122.9029-122.9014-122.8984-122.8934-122.8892-122.8881-122.8864-122.8839
  -122.8837-122.8829-122.8821-122.8818-122.8816-122.8795-122.8784-122.7604
   -77.2309 -77.2300 -77.2292 -77.2235 -77.2233 -77.2223 -77.2216 -77.2206
   -77.2204 -77.2153 -77.2150 -77.2140 -77.2123 -77.2115 -77.2109 -77.2108
   -77.2102 -77.2099 -77.2093 -77.2093 -77.2088 -77.2080 -77.2076 -77.2073
   -77.2065 -77.2061 -77.2055 -77.2045 -77.2044 -77.2041 -77.2036 -77.2020
   -77.1997 -77.1995 -77.1991 -77.1988 -77.1967 -77.1963 -77.1961 -77.1953
   -77.1946 -77.1942 -77.1934 -77.1919 -77.1914 -77.1867 -77.1847 -77.1846
   -77.1820 -77.1797 -77.1782 -77.1748 -77.1734 -77.1725 -77.1700 -77.1694
   -77.1689 -77.1669 -77.1663 -77.1648 -77.1638 -77.1626 -77.1618 -77.1611
   -77.1607 -77.1597 -77.1590 -77.1586 -77.1581 -77.1579 -77.1567 -77.1563
   -77.1555 -77.1549 -77.1544 -77.1537 -77.1522 -77.1501 -77.1488 -77.1485
   -77.1471 -77.1452 -77.1451 -77.1443 -77.1415 -77.1398 -77.1394 -77.1308
   -77.1289 -77.1266 -77.1262 -77.1218 -77.1174 -77.1169 -77.1095 -77.1072
   -77.0318 -77.0316 -77.0314 -77.0243 -77.0240 -77.0240 -77.0237 -77.0236
   -77.0234 -77.0233 -77.0232 -77.0232 -77.0229 -77.0224 -77.0221 -77.0203
   -77.0198 -77.0196 -77.0194 -77.0190 -77.0187 -77.0181 -77.0177 -77.0175
   -77.0174 -77.0167 -77.0158 -77.0117 -77.0116 -77.0114 -77.0062 -77.0061
   -77.0060 -77.0010 -77.0001 -77.0001 -76.9992 -76.9979 -76.9973 -76.9972
   -76.9970 -76.9969 -76.9967 -76.9965 -76.9958 -76.9957 -76.9953 -76.9950
   -76.9942 -76.9926 -76.9911 -76.9884 -76.9879 -76.9876 -76.9875 -76.9873
   -76.9861 -76.9852 -76.9849 -76.9834 -76.9831 -76.9827 -76.9817 -76.9801
   -76.9796 -76.9793 -76.9785 -76.9776 -76.9772 -76.9768 -76.9763 -76.9751
   -76.9740 -76.9738 -76.9730 -76.9721 -76.9696 -76.9670 -76.9659 -76.9641
   -76.9631 -76.9602 -76.9595 -76.9585 -76.9562 -76.9554 -76.9539 -76.9531
   -76.9526 -76.9515 -76.9479 -76.9464 -76.9456 -76.8528 -76.8489 -76.8477
   -18.6015  -6.2181  -5.9536  -5.9485  -5.9324  -5.2230  -5.2215  -5.1891
    -4.7440  -4.7433  -4.7413  -4.7153  -4.7151  -4.7146  -4.7133  -4.7126
    -4.7124  -4.6890  -4.6871  -4.6647  -4.6536  -4.6532  -4.6505  -4.6484
    -4.6420  -4.6403  -4.6128  -4.6119  -4.6116  -4.5651  -4.5634  -4.5596
    -4.5561  -4.5519  -4.5516  -4.5399  -4.5394  -4.5392  -4.5365  -4.5359
    -4.5351  -4.4980  -4.4972  -4.4932  -4.4480  -4.4478  -4.4474  -4.4411
    -4.4340  -4.4335  -4.3869  -4.3861  -4.3859  -4.3853  -4.3843  -4.3842
    -4.3823  -4.3810  -4.3693  -4.3637  -4.3630  -4.3627  -4.3621  -4.3614
    -4.3598  -4.3316  -4.3307  -4.3298  -4.3279  -4.3264  -4.3240  -4.3237
    -4.3217  -4.3208  -4.3198  -4.3166  -4.3148  -4.3080  -4.2836  -4.2817
    -4.2719  -4.2627  -4.2542  -4.2477  -4.2399  -4.2321  -4.2221  -4.2214
    -4.2176  -4.2068  -4.2037  -4.2013  -4.1839  -4.1826  -4.1762  -4.1717
    -4.1688  -4.1587  -4.1559  -4.1534  -4.1522  -4.1497  -4.1495  -4.1487
    -4.1422  -4.1417  -4.1409  -4.1334  -4.1303  -4.1101  -4.1003  -4.0980
    -4.0932  -4.0907  -4.0751  -4.0741  -4.0656  -4.0632  -4.0614  -4.0611
    -4.0389  -4.0368  -4.0365  -4.0180  -4.0162  -4.0146  -4.0103  -4.0080
    -4.0057  -3.9956  -3.9932  -3.9914  -3.9858  -3.9839  -3.9797  -3.9710
    -3.9635  -3.9603  -3.9542  -3.9492  -3.9490  -3.9471  -3.9250  -3.9181
    -3.9177  -3.9151  -3.9130  -3.9118  -3.9111  -3.9068  -3.8903  -3.8836
    -3.8684  -3.8613  -3.8573  -3.8525  -3.8519  -3.8489  -3.8463  -3.8427
    -3.8406  -3.8397  -3.8388  -3.8347  -3.8334  -3.8176  -3.8173  -3.8167
    -3.8162  -3.8143  -3.8130  -3.8125  -3.8089  -3.7951  -3.7936  -3.7931
    -3.7921  -3.7907  -3.7874  -3.7748  -3.7734  -3.7502  -3.7476  -3.7463
    -3.7253  -3.7250  -3.7246  -3.7034  -3.6802  -3.6796  -3.6787  -3.6693
    -3.6677  -3.6667  -3.6545  -3.6515  -3.6498  -3.6490  -3.6459  -3.6449
    -3.6429  -3.6427  -3.6387  -3.6376  -3.6354  -3.6340  -3.6327  -3.6297
    -3.6269  -3.6245  -3.6238  -3.6198  -3.6187  -3.6118  -3.6105  -3.6098
    -3.6072  -3.6069  -3.6046  -3.5985  -3.5956  -3.5945  -3.5921  -3.5912
    -3.5883  -3.5855  -3.5837  -3.5829  -3.5800  -3.5744  -3.5712  -3.5207
    -3.5198  -3.5192  -3.5096  -3.5050  -3.5028  -3.5003  -3.4977  -3.4951
    -3.4878  -3.4854  -3.4842  -3.4836  -3.4832  -3.4829  -3.4817  -3.4762
    -3.4750  -3.4740  -3.4736  -3.4713  -3.4709  -3.4697  -3.4683  -3.4679
    -3.4674  -3.4649  -3.4642  -3.4634  -3.4591  -3.4562  -3.4557  -3.4549
    -3.4509  -3.4487  -3.4291  -3.4261  -3.4254  -3.4235  -3.4218  -3.4214
    -3.4164  -3.4155  -3.4141  -3.4116  -3.4107  -3.4091  -3.4062  -3.4053
    -3.3983  -3.3964  -3.3955  -3.3943  -3.3928  -3.3889  -3.3865  -3.3817
    -3.3772  -3.3690  -3.3688  -3.3682  -3.3635  -3.3620  -3.3611  -3.3587
    -3.3525  -3.3514  -3.3480  -3.3470  -3.3462  -3.3440  -3.3432  -3.3426
    -3.3386  -3.3379  -3.3355  -3.3300  -3.3289  -3.3269  -3.3180  -3.3176
    -3.3170  -3.2835  -3.2593  -3.2565  -3.2244  -3.2242  -3.2241  -3.2236
    -3.2234  -3.2231  -3.1904  -3.1861  -3.1830  -3.1814  -3.1694  -3.1691
    -2.9660  -2.9640  -2.9628  -2.7504  -2.5518  -2.5481  -2.4908  -2.3660
    -2.3644  -2.3318  -1.5023  -1.5008  -1.4986  -1.4923  -1.4916  -1.4768
    -1.1169  -0.9639  -0.9606  -0.8527  -0.6709  -0.6702  -0.6673  -0.6578
    -0.6550  -0.6466  -0.6447  -0.5962  -0.3661   0.7858   0.7885   0.7892
     0.7909   0.7953   0.8258   0.8803   0.8829   0.9121   1.8716   1.8760
     1.9253   2.0876   2.0915   2.0934   2.4891   2.4917   2.5061   2.5070
     2.5104   2.5259   2.5273   2.5295   2.5534   2.9319   2.9431   2.9460
     3.1709   3.1734   3.1861   4.0345   4.0390   4.0854   4.2317   4.3046
     4.3665   4.6034   4.6380   4.6569   4.9649   4.9735   4.9815   5.0436
     5.1418   5.2006   5.2067   5.2197   5.2885   5.9155   5.9213   5.9483
     5.9506   5.9565   6.0218   6.1782   6.2115   6.2216   6.2274   6.4097
     6.4116   6.4127   6.4171   6.4262   6.4277   6.4752   6.5022   6.5557
     6.6481   6.7467   6.8313   6.9189   6.9316   6.9592   6.9749   6.9837
     7.1982   7.2005   7.2032   7.2152   7.2326   7.2441   7.4022   7.4304
     7.4992   7.5219   7.5712   7.6449   7.9976   8.1338   8.2251   8.2525
     8.2690   8.2874   8.3009   8.3833   8.4591   8.5586   8.6414   8.6773
     8.6883   8.6917   8.7078   8.7139   8.7196   8.7292   8.9702   9.0554
     9.0793   9.1114   9.1321   9.2187   9.2556   9.2723   9.2823   9.3246
     9.3532   9.4135   9.4330   9.4459   9.4734   9.8703   9.8738   9.8777
     9.9058  10.1858  10.2363  10.3507  10.3653  10.4040  10.4961  10.5186
    10.5304  10.5361  10.5665  10.5763  10.6208  10.6268  10.6425  10.7744
    10.7831  10.7847  10.8289  10.9036  10.9732  11.0275  11.0478  11.0613
[...]
     atom   37 type  1   force =     0.00000000    0.00000000    0.00000000
     atom   38 type  1   force =     0.00000000    0.00000000    0.00000000
     atom   39 type  1   force =     0.00000000    0.00000000    0.00000000
     atom   40 type  1   force =     0.00000000    0.00000000    0.00000000
     atom   41 type  1   force =     0.00000000    0.00000000    0.00000000
     atom   42 type  1   force =     0.00000000    0.00000000    0.00000000
     atom   43 type  1   force =     0.00000000    0.00000000    0.00000000
     atom   44 type  1   force =     0.00000000    0.00000000    0.00000000
     atom   45 type  1   force =     0.00000000    0.00000000    0.00000000
     atom   46 type  1   force =     0.00000000    0.00000000    0.00000000
     atom   47 type  1   force =     0.00000000    0.00000000    0.00000000
     atom   48 type  1   force =     0.00000000    0.00000000    0.00000000
     atom   49 type  1   force =     0.00000000    0.00000000    0.00000000
     atom   50 type  1   force =     0.00000000    0.00000000    0.00000000
     atom   51 type  1   force =     0.00000000    0.00000000    0.00000000
     atom   52 type  1   force =     0.00000000    0.00000000    0.00000000
     atom   53 type  1   force =     0.00000000    0.00000000    0.00000000
     atom   54 type  1   force =     0.00000000    0.00000000    0.00000000
     atom   55 type  1   force =     0.00000000    0.00000000    0.00000000
     atom   56 type  1   force =     0.00000000    0.00000000    0.00000000
     atom   57 type  1   force =     0.00000000    0.00000000    0.00000000
     atom   58 type  1   force =     0.00000000    0.00000000    0.00000000
     atom   59 type  1   force =     0.00000000    0.00000000    0.00000000
     atom   60 type  1   force =     0.00000000    0.00000000    0.00000000
     atom   61 type  1   force =     0.00000000    0.00000000    0.00000000
     atom   62 type  1   force =     0.00000000    0.00000000    0.00000000
     atom   63 type  1   force =     0.00000000    0.00000000    0.00000000
     atom   64 type  1   force =     0.00000000    0.00000000    0.00000000
     atom   65 type  2   force =    -0.01877007    0.01256325   -0.00757570
     atom   66 type  3   force =     0.00000000    0.00000000    0.00000000
     atom   67 type  3   force =     0.00000000    0.00000000    0.00000000
     The Hubbard contrib.    to forces
     atom    1 type  1   force =     0.00000000    0.00000000    0.00000000
     atom    2 type  1   force =     0.00000000    0.00000000    0.00000000
     atom    3 type  1   force =     0.00000000    0.00000000    0.00000000
     atom    4 type  1   force =     0.00000000    0.00000000    0.00000000
     atom    5 type  1   force =     0.00000000    0.00000000    0.00000000
     atom    6 type  1   force =     0.00000000    0.00000000    0.00000000
     atom    7 type  1   force =     0.00000000    0.00000000    0.00000000
     atom    8 type  1   force =     0.00000000    0.00000000    0.00000000
     atom    9 type  1   force =     0.00000000    0.00000000    0.00000000
     atom   10 type  1   force =     0.00000000    0.00000000    0.00000000
     atom   11 type  1   force =     0.00000000    0.00000000    0.00000000
     atom   12 type  1   force =     0.00000000    0.00000000    0.00000000
     atom   13 type  1   force =     0.00000000    0.00000000    0.00000000
     atom   14 type  1   force =     0.00000000    0.00000000    0.00000000
     atom   15 type  1   force =     0.00000000    0.00000000    0.00000000
     atom   16 type  1   force =     0.00000000    0.00000000    0.00000000
     atom   17 type  1   force =     0.00000000    0.00000000    0.00000000
     atom   18 type  1   force =     0.00000000    0.00000000    0.00000000
     atom   19 type  1   force =     0.00000000    0.00000000    0.00000000
     atom   20 type  1   force =     0.00000000    0.00000000    0.00000000
     atom   21 type  1   force =     0.00000000    0.00000000    0.00000000
     atom   22 type  1   force =     0.00000000    0.00000000    0.00000000
     atom   23 type  1   force =     0.00000000    0.00000000    0.00000000
     atom   24 type  1   force =     0.00000000    0.00000000    0.00000000
     atom   25 type  1   force =     0.00000000    0.00000000    0.00000000
     atom   26 type  1   force =     0.00000000    0.00000000    0.00000000
     atom   27 type  1   force =     0.00000000    0.00000000    0.00000000
     atom   28 type  1   force =     0.00000000    0.00000000    0.00000000
     atom   29 type  1   force =     0.00000000    0.00000000    0.00000000
     atom   30 type  1   force =     0.00000000    0.00000000    0.00000000
     atom   31 type  1   force =     0.00000000    0.00000000    0.00000000
     atom   32 type  1   force =     0.00000000    0.00000000    0.00000000
     atom   33 type  1   force =     0.00000000    0.00000000    0.00000000
     atom   34 type  1   force =     0.00000000    0.00000000    0.00000000
     atom   35 type  1   force =     0.00000000    0.00000000    0.00000000
     atom   36 type  1   force =     0.00000000    0.00000000    0.00000000
     atom   37 type  1   force =     0.00000000    0.00000000    0.00000000
     atom   38 type  1   force =     0.00000000    0.00000000    0.00000000
     atom   39 type  1   force =     0.00000000    0.00000000    0.00000000
     atom   40 type  1   force =     0.00000000    0.00000000    0.00000000
     atom   41 type  1   force =     0.00000000    0.00000000    0.00000000
     atom   42 type  1   force =     0.00000000    0.00000000    0.00000000
     atom   43 type  1   force =     0.00000000    0.00000000    0.00000000
     atom   44 type  1   force =     0.00000000    0.00000000    0.00000000
     atom   45 type  1   force =     0.00000000    0.00000000    0.00000000
     atom   46 type  1   force =     0.00000000    0.00000000    0.00000000
     atom   47 type  1   force =     0.00000000    0.00000000    0.00000000
     atom   48 type  1   force =     0.00000000    0.00000000    0.00000000
     atom   49 type  1   force =     0.00000000    0.00000000    0.00000000
     atom   50 type  1   force =     0.00000000    0.00000000    0.00000000
     atom   51 type  1   force =     0.00000000    0.00000000    0.00000000
     atom   52 type  1   force =     0.00000000    0.00000000    0.00000000
     atom   53 type  1   force =     0.00000000    0.00000000    0.00000000
     atom   54 type  1   force =     0.00000000    0.00000000    0.00000000
     atom   55 type  1   force =     0.00000000    0.00000000    0.00000000
     atom   56 type  1   force =     0.00000000    0.00000000    0.00000000
     atom   57 type  1   force =     0.00000000    0.00000000    0.00000000
     atom   58 type  1   force =     0.00000000    0.00000000    0.00000000
     atom   59 type  1   force =     0.00000000    0.00000000    0.00000000
     atom   60 type  1   force =     0.00000000    0.00000000    0.00000000
     atom   61 type  1   force =     0.00000000    0.00000000    0.00000000
     atom   62 type  1   force =     0.00000000    0.00000000    0.00000000
     atom   63 type  1   force =     0.00000000    0.00000000    0.00000000
     atom   64 type  1   force =     0.00000000    0.00000000    0.00000000
     atom   65 type  2   force =     0.00000000    0.00000000    0.00000000
     atom   66 type  3   force =     0.00000000    0.00000000    0.00000000
     atom   67 type  3   force =     0.00000000    0.00000000    0.00000000
     The SCF correction term to forces
     atom    1 type  1   force =     0.00014282   -0.00021332   -0.00042438
     atom    2 type  1   force =    -0.00012623    0.00019021   -0.00044414
     atom    3 type  1   force =    -0.00007042   -0.00010891    0.00012987
     atom    4 type  1   force =     0.00007404   -0.00019083    0.00018826
     atom    5 type  1   force =    -0.00001221   -0.00024946   -0.00030105
     atom    6 type  1   force =     0.00000344    0.00001807   -0.00042818
     atom    7 type  1   force =     0.00004645    0.00011524   -0.00017928
     atom    8 type  1   force =    -0.00000959    0.00007365   -0.00002862
     atom    9 type  1   force =    -0.00041078    0.00010041   -0.00034728
     atom   10 type  1   force =     0.00036208   -0.00006075   -0.00020561
     atom   11 type  1   force =     0.00015412    0.00009733   -0.00004895
     atom   12 type  1   force =    -0.00016011    0.00017654   -0.00039369
     atom   13 type  1   force =    -0.00019222    0.00009199   -0.00045093
     atom   14 type  1   force =     0.00022766    0.00012067   -0.00024117
     atom   15 type  1   force =    -0.00000282   -0.00006327    0.00030518
     atom   16 type  1   force =    -0.00001399   -0.00012566   -0.00019035
     atom   17 type  1   force =    -0.00007971    0.00005622   -0.00045532
     atom   18 type  1   force =     0.00006353   -0.00008444   -0.00041668
     atom   19 type  1   force =    -0.00004416   -0.00018179    0.00014903
     atom   20 type  1   force =     0.00003859   -0.00012036    0.00016715
     atom   21 type  1   force =     0.00028189   -0.00024387   -0.00026367
     atom   22 type  1   force =    -0.00026928    0.00000944   -0.00044763
     atom   23 type  1   force =    -0.00015525    0.00018024   -0.00037973
     atom   24 type  1   force =     0.00011611    0.00004917    0.00017758
     atom   25 type  1   force =     0.00014812   -0.00003488   -0.00007752
     atom   26 type  1   force =    -0.00012936    0.00006293   -0.00040772
     atom   27 type  1   force =    -0.00000288    0.00009709   -0.00049246
     atom   28 type  1   force =     0.00004986    0.00017610    0.00011955
     atom   29 type  1   force =    -0.00025219    0.00031184   -0.00034392
     atom   30 type  1   force =     0.00021437   -0.00005912   -0.00037466
     atom   31 type  1   force =     0.00007818   -0.00020338   -0.00003853
     atom   32 type  1   force =    -0.00003491   -0.00000283    0.00010507
     atom   33 type  1   force =    -0.00002078    0.00001674   -0.00030541
     atom   34 type  1   force =     0.00004071   -0.00027732   -0.00008357
     atom   35 type  1   force =    -0.00004939   -0.00033839   -0.00031396
     atom   36 type  1   force =     0.00006222    0.00020689   -0.00038947
     atom   37 type  1   force =     0.00008316    0.00015886   -0.00004932
     atom   38 type  1   force =    -0.00006862    0.00005472   -0.00033805
     atom   39 type  1   force =    -0.00011764   -0.00035411   -0.00037646
     atom   40 type  1   force =     0.00020160   -0.00012057   -0.00023260
     atom   41 type  1   force =     0.00024108    0.00008804    0.00021531
     atom   42 type  1   force =    -0.00029114    0.00017729   -0.00029358
     atom   43 type  1   force =    -0.00034330    0.00002129   -0.00053757
     atom   44 type  1   force =     0.00031142    0.00011688   -0.00024453
     atom   45 type  1   force =     0.00007008   -0.00005202   -0.00003596
     atom   46 type  1   force =    -0.00009254   -0.00015810   -0.00000309
     atom   47 type  1   force =    -0.00033557    0.00019933   -0.00047147
     atom   48 type  1   force =     0.00024979    0.00028483   -0.00046788
     atom   49 type  1   force =     0.00003879   -0.00021201   -0.00017662
     atom   50 type  1   force =    -0.00005068   -0.00008673   -0.00018273
     atom   51 type  1   force =    -0.00006866   -0.00003045   -0.00035010
     atom   52 type  1   force =     0.00005995   -0.00010638   -0.00037706
     atom   53 type  1   force =    -0.00018818    0.00022903   -0.00033296
     atom   54 type  1   force =     0.00016499    0.00006736   -0.00009519
     atom   55 type  1   force =     0.00011451   -0.00029386   -0.00019235
     atom   56 type  1   force =    -0.00020549   -0.00019881   -0.00035093
     atom   57 type  1   force =    -0.00003389    0.00013694    0.00013046
     atom   58 type  1   force =     0.00009616    0.00013128   -0.00016063
     atom   59 type  1   force =     0.00014650   -0.00002662   -0.00026908
     atom   60 type  1   force =    -0.00007501    0.00011283   -0.00035856
     atom   61 type  1   force =     0.00014718   -0.00020910    0.00022727
     atom   62 type  1   force =    -0.00012023   -0.00006044   -0.00027453
     atom   63 type  1   force =    -0.00013209    0.00032694   -0.00057218
     atom   64 type  1   force =     0.00020631    0.00017825   -0.00036830
     atom   65 type  2   force =     0.00003028   -0.00001343    0.00009831
     atom   66 type  3   force =     0.00001300    0.00000198    0.00001480
     atom   67 type  3   force =     0.00000397   -0.00001231    0.00001476

     Total force =     0.031815     Total SCF correction =     0.003088


     Computing stress (Cartesian axis) and pressure


     negative rho (up, down):  1.339E-02 0.000E+00
          total   stress  (Ry/bohr**3)                   (kbar)     P=     -307.80
  -0.00209006   0.00000066   0.00000073         -307.46        0.10        0.11
   0.00000066  -0.00208941  -0.00000018            0.10     -307.36       -0.03
   0.00000073  -0.00000018  -0.00209778            0.11       -0.03     -308.59

     kinetic stress (kbar)  16837.73     -6.22     -5.37
                               -6.22  16831.74      1.98
                               -5.37      1.98  16937.58

     local   stress (kbar)**********    -11.49    -28.02
                              -11.49**********     23.40
                              -28.02     23.401549005.87

     nonloc. stress (kbar)  -1995.12      0.08     -0.20
                                0.08  -1995.07      0.09
                               -0.20      0.09  -2058.06

     hartree stress (kbar) 801616.21      0.95      8.98
                                0.95 801617.33     -9.05
                                8.98     -9.05-727279.81

     exc-cor stress (kbar)  -8394.16      0.07      0.07
                                0.07  -8394.09     -0.03
                                0.07     -0.03  -8405.04

     corecor stress (kbar)     -3.91      0.01      0.01
                                0.01     -3.90     -0.00
                                0.01     -0.00     -4.04

     ewald   stress (kbar) 721945.35     16.69     24.63
                               16.69 721961.81    -16.43
                               24.63    -16.43-828505.10

     hubbard stress (kbar)      0.00      0.00      0.00
                                0.00      0.00      0.00
                                0.00      0.00      0.00

     DFT-D   stress (kbar)      0.00      0.00      0.00
                                0.00      0.00      0.00
                                0.00      0.00      0.00

     XDM     stress (kbar)      0.00      0.00      0.00
                                0.00      0.00      0.00
                                0.00      0.00      0.00

     dft-nl  stress (kbar)      0.00      0.00      0.00
                                0.00      0.00      0.00
                                0.00      0.00      0.00

     TS-vdW  stress (kbar)      0.00      0.00      0.00
                                0.00      0.00      0.00
                                0.00      0.00      0.00

     MDB     stress (kbar)      0.00      0.00      0.00
                                0.00      0.00      0.00
                                0.00      0.00      0.00

     3D-RISM stress (kbar)      0.00      0.00      0.00
                                0.00      0.00      0.00
                                0.00      0.00      0.00


     Writing all to output data dir ./tmp/Zn002_optimized_topsite_H2O_scf.save/ :
     XML data file, charge density, pseudopotentials, collected wavefunctions

     init_run     :    129.20s CPU    130.38s WALL (       1 calls)
     electrons    :   7020.37s CPU   7076.31s WALL (       1 calls)
     forces       :    110.62s CPU    111.04s WALL (       1 calls)
     stress       :    312.02s CPU    313.04s WALL (       1 calls)

     Called by init_run:
     wfcinit      :    128.36s CPU    129.49s WALL (       1 calls)
     wfcinit:atom :      0.06s CPU      0.10s WALL (       5 calls)
     wfcinit:wfcr :    127.40s CPU    128.44s WALL (       5 calls)
     potinit      :      0.07s CPU      0.08s WALL (       1 calls)
     hinit0       :      0.05s CPU      0.06s WALL (       1 calls)

     Called by electrons:
     c_bands      :   6624.97s CPU   6676.14s WALL (      13 calls)
     sum_band     :    385.81s CPU    390.35s WALL (      13 calls)
     v_of_rho     :      0.47s CPU      0.50s WALL (      14 calls)
     v_h          :      0.02s CPU      0.02s WALL (      14 calls)
     v_xc         :      0.51s CPU      0.54s WALL (      16 calls)
     newd         :      9.22s CPU      9.41s WALL (      14 calls)
     PAW_pot      :      0.48s CPU      0.48s WALL (      14 calls)
     mix_rho      :      0.09s CPU      0.09s WALL (      13 calls)

     Called by c_bands:
     init_us_2    :      3.18s CPU      3.20s WALL (     145 calls)
     cegterg      :   6616.43s CPU   6667.51s WALL (      65 calls)

     Called by sum_band:
     sum_band:wei :      0.05s CPU      0.05s WALL (      13 calls)
     sum_band:loo :    379.12s CPU    383.46s WALL (      13 calls)
     sum_band:buf :      0.64s CPU      0.65s WALL (      65 calls)
     sum_band:ini :      1.43s CPU      1.43s WALL (      65 calls)
     sum_band:cal :    346.46s CPU    347.68s WALL (      65 calls)
     sum_band:bec :      2.41s CPU      2.42s WALL (      65 calls)
     addusdens    :      6.44s CPU      6.63s WALL (      13 calls)
                                        0.00s GPU  (      13 calls)
     addusd:skk   :      0.06s CPU      0.07s WALL (      39 calls)
                                        0.00s GPU  (      39 calls)

     Called by *egterg:
     cdiaghg      :    538.85s CPU    554.15s WALL (     396 calls)
     cegterg:over :   1167.71s CPU   1170.88s WALL (     331 calls)
     cegterg:upda :    530.92s CPU    533.01s WALL (     331 calls)
     cegterg:last :   1620.72s CPU   1626.18s WALL (     143 calls)
     cdiaghg:chol :     40.52s CPU     40.62s WALL (     396 calls)
     cdiaghg:inve :      8.71s CPU      8.73s WALL (     396 calls)
     cdiaghg:para :    198.56s CPU    201.98s WALL (     792 calls)
     h_psi        :   1799.26s CPU   1821.10s WALL (     401 calls)
     s_psi        :    748.24s CPU    750.04s WALL (     401 calls)
     g_psi        :      0.68s CPU      0.68s WALL (     331 calls)

     Called by h_psi:
     h_psi:calbec :    903.67s CPU    906.81s WALL (     401 calls)
     vloc_psi     :    146.42s CPU    162.40s WALL (     401 calls)
     add_vuspsi   :    747.92s CPU    749.76s WALL (     401 calls)

     General routines
     calbec       :   1386.61s CPU   1391.43s WALL (     491 calls)
     fft          :      0.34s CPU      0.38s WALL (     179 calls)
     ffts         :      0.02s CPU      0.02s WALL (      13 calls)
     fftw         :    159.05s CPU    176.59s WALL (  309589 calls)

     Parallel routines

     PAW routines
     PAW_pot      :      0.48s CPU      0.48s WALL (      14 calls)

     PWSCF        :      2h 6m CPU      2h 7m WALL


   This run was terminated on:  17:40:54  22Mar2025            

=------------------------------------------------------------------------------=
   JOB DONE.
=------------------------------------------------------------------------------=
Note: The following floating-point exceptions are signalling: IEEE_DENORMAL
Note: The following floating-point exceptions are signalling: IEEE_DENORMAL
Note: The following floating-point exceptions are signalling: IEEE_DENORMAL
Note: The following floating-point exceptions are signalling: IEEE_DENORMAL
Note: The following floating-point exceptions are signalling: IEEE_DENORMAL
Note: The following floating-point exceptions are signalling: IEEE_DENORMAL
Note: The following floating-point exceptions are signalling: IEEE_DENORMAL
