--------------------------------------------------------------------------
WARNING: There was an error initializing an OpenFabrics device.

  Local host:   ga00
  Local device: mlx5_0
--------------------------------------------------------------------------

     Program PWSCF v.7.3.1 starts on  4Apr2025 at 17:56: 6 

     This program is part of the open-source Quantum ESPRESSO suite
     for quantum simulation of materials; please cite
         "P. Giannozzi et al., J. Phys.:Condens. Matter 21 395502 (2009);
         "P. Giannozzi et al., J. Phys.:Condens. Matter 29 465901 (2017);
         "P. Giannozzi et al., J. Chem. Phys. 152 154105 (2020);
          URL http://www.quantum-espresso.org", 
     in publications or presentations arising from this work. More details at
     http://www.quantum-espresso.org/quote

     Parallel version (MPI), running on    29 processors

     MPI processes distributed on     1 nodes
     39682 MiB available memory on the printing compute node when the environment starts

     Waiting for input...
     Reading input from standard input
Warning: card &CELL ignored
Warning: card   CELL_DOFREE = 'ALL' ignored
Warning: card / ignored

     Current dimensions of program PWSCF are:
     Max number of different atomic species (ntypx) = 10
     Max number of k-points (npk) =  40000
     Max angular momentum in pseudopotentials (lmaxx) =  4
     Presently stress not available with electric field and gates


     R & G space division:  proc/nbgrp/npool/nimage =      29
     Subspace diagonalization in iterative solution of the eigenvalue problem:
     one sub-group per band group will be used
     custom distributed-memory algorithm (size of sub-group:  5*  5 procs)


     Parallelization info
     --------------------
     sticks:   dense  smooth     PW     G-vecs:    dense   smooth      PW
     Min         260     148     39                41414    17882    2463
     Max         262     149     40                41418    17893    2474
     Sum        7555    4303   1159              1201061   518755   71619

     Using Slab Decomposition



     bravais-lattice index     =            0
     lattice parameter (alat)  =      19.7617  a.u.
     unit-cell volume          =   15176.5939 (a.u.)^3
     number of atoms/cell      =           48
     number of atomic types    =            1
     number of electrons       =       959.00
     number of Kohn-Sham states=          576
     kinetic-energy cutoff     =      40.0000  Ry
     charge density cutoff     =     280.0000  Ry
     scf convergence threshold =      1.0E-06
     mixing beta               =       0.4000
     number of iterations used =            8  plain     mixing
     Exchange-correlation= SLA  PW   PBE  PBE
                           (   1   4   3   4   0   0   0)

     celldm(1)=  19.761696  celldm(2)=   0.000000  celldm(3)=   0.000000
     celldm(4)=   0.000000  celldm(5)=   0.000000  celldm(6)=   0.000000

     crystal axes: (cart. coord. in units of alat)
               a(1) = (   1.000000   0.000000   0.000000 )  
               a(2) = (  -0.500000   0.866025   0.000000 )  
               a(3) = (   0.000000   0.000000   2.270759 )  

     reciprocal axes: (cart. coord. in units 2 pi/alat)
               b(1) = (  1.000000  0.577350 -0.000000 )  
               b(2) = (  0.000000  1.154701  0.000000 )  
               b(3) = (  0.000000 -0.000000  0.440381 )  


     PseudoPot. # 1 for Zn read from file:
     /home/yongsang/Research/PSID_server_room/qe/[00]QE/qepseudo/SSSP_1.3.0_PBE_efficiency/Zn_pbe_v1.uspp.F.UPF
     MD5 check sum: df62231357ef9e81f77b2b3087fa5675
     Pseudo is Ultrasoft, Zval = 20.0
     Generated by new atomic code, or converted to UPF format
     Using radial grid of  943 points,  6 beta functions with: 
                l(1) =   0
                l(2) =   0
                l(3) =   1
                l(4) =   1
                l(5) =   2
                l(6) =   2
     Q(r) pseudized with  8 coefficients,  rinner =    1.100   1.100   1.100
                                                       1.100   1.100

     atomic species   valence    mass     pseudopotential
     Zn               20.00    65.38000     Zn( 1.00)

     No symmetry found


                                    s                        frac. trans.

      isym =  1     identity                                     

 cryst.   s( 1) = (     1          0          0      )
                  (     0          1          0      )
                  (     0          0          1      )

 cart.    s( 1) = (  1.0000000  0.0000000  0.0000000 )
                  (  0.0000000  1.0000000  0.0000000 )
                  (  0.0000000  0.0000000  1.0000000 )


   Cartesian axes

     site n.     atom                  positions (alat units)
         1        Zn     tau(   1) = (   0.0000000   0.1443375   0.1164998  )
         2        Zn     tau(   2) = (   0.5000000   0.1443375   0.1164998  )
         3        Zn     tau(   3) = (  -0.0000028   0.1443288   0.5893147  )
         4        Zn     tau(   4) = (   0.5000063   0.1444162   0.5894224  )
         5        Zn     tau(   5) = (  -0.1250000   0.3608439   0.1164998  )
         6        Zn     tau(   6) = (   0.3750000   0.3608439   0.1164998  )
         7        Zn     tau(   7) = (  -0.1250519   0.3608939   0.5893373  )
         8        Zn     tau(   8) = (   0.3750559   0.3609312   0.5893259  )
         9        Zn     tau(   9) = (  -0.2500000   0.5773502   0.1164998  )
        10        Zn     tau(  10) = (   0.2500000   0.5773502   0.1164998  )
        11        Zn     tau(  11) = (  -0.2500755   0.5773115   0.5893062  )
        12        Zn     tau(  12) = (   0.2500706   0.5773194   0.5893683  )
        13        Zn     tau(  13) = (  -0.3750000   0.7938567   0.1164998  )
        14        Zn     tau(  14) = (   0.1250000   0.7938567   0.1164998  )
        15        Zn     tau(  15) = (  -0.3750282   0.7937620   0.5892922  )
        16        Zn     tau(  16) = (   0.1250261   0.7938119   0.5894597  )
        17        Zn     tau(  17) = (   0.2500000   0.1443375   0.1164998  )
        18        Zn     tau(  18) = (   0.7500000   0.1443375   0.1164998  )
        19        Zn     tau(  19) = (   0.2499869   0.1443517   0.5893259  )
        20        Zn     tau(  20) = (   0.7500091   0.1443904   0.5894171  )
        21        Zn     tau(  21) = (   0.1250000   0.3608439   0.1164998  )
        22        Zn     tau(  22) = (   0.6250000   0.3608439   0.1164998  )
        23        Zn     tau(  23) = (   0.1250128   0.3608820   0.5893185  )
        24        Zn     tau(  24) = (   0.6249827   0.3609428   0.5893301  )
        25        Zn     tau(  25) = (   0.0000000   0.5773502   0.1164998  )
        26        Zn     tau(  26) = (   0.5000000   0.5773502   0.1164998  )
        27        Zn     tau(  27) = (  -0.0000277   0.5773140   0.5893837  )
        28        Zn     tau(  28) = (   0.5000305   0.5773158   0.5892824  )
        29        Zn     tau(  29) = (  -0.1250000   0.7938567   0.1164998  )
        30        Zn     tau(  30) = (   0.3750000   0.7938567   0.1164998  )
        31        Zn     tau(  31) = (  -0.1250544   0.7937943   0.5893864  )
        32        Zn     tau(  32) = (   0.3750529   0.7937806   0.5893662  )
        33        Zn     tau(  33) = (   0.1249604   0.0721258   0.3528222  )
        34        Zn     tau(  34) = (   0.6250402   0.0722582   0.3530318  )
        35        Zn     tau(  35) = (  -0.0000909   0.2887357   0.3529168  )
        36        Zn     tau(  36) = (   0.5000909   0.2888123   0.3530366  )
        37        Zn     tau(  37) = (  -0.1251119   0.5051366   0.3530212  )
        38        Zn     tau(  38) = (   0.3751115   0.5051777   0.3530364  )
        39        Zn     tau(  39) = (  -0.2500579   0.7215434   0.3529342  )
        40        Zn     tau(  40) = (   0.2500581   0.7216415   0.3530241  )
        41        Zn     tau(  41) = (   0.3750642   0.0722100   0.3529096  )
        42        Zn     tau(  42) = (   0.8749335   0.0721725   0.3529557  )
        43        Zn     tau(  43) = (   0.2500889   0.2887828   0.3529046  )
        44        Zn     tau(  44) = (   0.7499090   0.2887654   0.3530512  )
        45        Zn     tau(  45) = (   0.1250386   0.5051978   0.3529893  )
        46        Zn     tau(  46) = (   0.6249614   0.5051196   0.3530706  )
        47        Zn     tau(  47) = (   0.0000156   0.7216406   0.3529879  )
        48        Zn     tau(  48) = (   0.4999831   0.7215417   0.3529641  )

     --------------------------------------------
     DFT-D3 Dispersion Correction (3-body terms):
     --------------------------------------------
       Reference C6 values for interpolation: 

         atom   Coordination number   C6
         Zn         0.000           681.04
         Zn         1.942           306.91

       Values used:

         atom   Coordination number  R0_AB[au]  C6      C8
         Zn         6.782            3.053    306.91  23930.67
         Zn         6.779            3.053    306.91  23930.67
         Zn         6.779            3.053    306.91  23930.67
         Zn         6.779            3.053    306.91  23930.67
         Zn         6.780            3.053    306.91  23930.67
         Zn         6.780            3.053    306.91  23930.67
         Zn         6.786            3.053    306.91  23930.67
         Zn         6.788            3.053    306.91  23930.67
         Zn         6.780            3.053    306.91  23930.67
         Zn         6.778            3.053    306.91  23930.67
         Zn         6.791            3.053    306.91  23930.67
         Zn         6.785            3.053    306.91  23930.67
         Zn         6.782            3.053    306.91  23930.67
         Zn         6.777            3.053    306.91  23930.67
         Zn         6.783            3.053    306.91  23930.67
         Zn         6.777            3.053    306.91  23930.67
         Zn         6.782            3.053    306.91  23930.67
         Zn         6.779            3.053    306.91  23930.67
         Zn         6.777            3.053    306.91  23930.67
         Zn         6.781            3.053    306.91  23930.67
         Zn         6.780            3.053    306.91  23930.67
         Zn         6.779            3.053    306.91  23930.67
         Zn         6.782            3.053    306.91  23930.67
         Zn         6.793            3.053    306.91  23930.67
         Zn         6.778            3.053    306.91  23930.67
         Zn         6.780            3.053    306.91  23930.67
         Zn         6.782            3.053    306.91  23930.67
         Zn         6.795            3.053    306.91  23930.67
         Zn         6.779            3.053    306.91  23930.67
         Zn         6.779            3.053    306.91  23930.67
         Zn         6.777            3.053    306.91  23930.67
         Zn         6.783            3.053    306.91  23930.67
         Zn         8.379            3.053    306.91  23930.67
         Zn         8.379            3.053    306.91  23930.67
         Zn         8.381            3.053    306.91  23930.67
         Zn         8.387            3.053    306.91  23930.67
         Zn         8.386            3.053    306.91  23930.67
         Zn         8.390            3.053    306.91  23930.67
         Zn         8.383            3.053    306.91  23930.67
         Zn         8.381            3.053    306.91  23930.67
         Zn         8.377            3.053    306.91  23930.67
         Zn         8.380            3.053    306.91  23930.67
         Zn         8.381            3.053    306.91  23930.67
         Zn         8.387            3.053    306.91  23930.67
         Zn         8.382            3.053    306.91  23930.67
         Zn         8.394            3.053    306.91  23930.67
         Zn         8.378            3.053    306.91  23930.67
         Zn         8.387            3.053    306.91  23930.67

         Molecular C6 ( Ry / a.u.^6 ) =    707110.50


   Crystallographic axes

     site n.     atom                  positions (cryst. coord.)
         1        Zn     tau(   1) = (  0.0833333  0.1666666  0.0513044  )
         2        Zn     tau(   2) = (  0.5833333  0.1666666  0.0513044  )
         3        Zn     tau(   3) = (  0.0833255  0.1666566  0.2595232  )
         4        Zn     tau(   4) = (  0.5833850  0.1667575  0.2595707  )
         5        Zn     tau(   5) = (  0.0833333  0.4166666  0.0513044  )
         6        Zn     tau(   6) = (  0.5833333  0.4166666  0.0513044  )
         7        Zn     tau(   7) = (  0.0833103  0.4167244  0.2595332  )
         8        Zn     tau(   8) = (  0.5834397  0.4167674  0.2595282  )
         9        Zn     tau(   9) = (  0.0833333  0.6666666  0.0513044  )
        10        Zn     tau(  10) = (  0.5833333  0.6666666  0.0513044  )
        11        Zn     tau(  11) = (  0.0832354  0.6666219  0.2595195  )
        12        Zn     tau(  12) = (  0.5833861  0.6666310  0.2595469  )
        13        Zn     tau(  13) = (  0.0833333  0.9166667  0.0513044  )
        14        Zn     tau(  14) = (  0.5833334  0.9166667  0.0513044  )
        15        Zn     tau(  15) = (  0.0832505  0.9165574  0.2595133  )
        16        Zn     tau(  16) = (  0.5833336  0.9166150  0.2595871  )
        17        Zn     tau(  17) = (  0.3333333  0.1666666  0.0513044  )
        18        Zn     tau(  18) = (  0.8333334  0.1666666  0.0513044  )
        19        Zn     tau(  19) = (  0.3333283  0.1666830  0.2595282  )
        20        Zn     tau(  20) = (  0.8333729  0.1667277  0.2595683  )
        21        Zn     tau(  21) = (  0.3333333  0.4166666  0.0513044  )
        22        Zn     tau(  22) = (  0.8333333  0.4166666  0.0513044  )
        23        Zn     tau(  23) = (  0.3333682  0.4167106  0.2595249  )
        24        Zn     tau(  24) = (  0.8333732  0.4167809  0.2595300  )
        25        Zn     tau(  25) = (  0.3333333  0.6666666  0.0513044  )
        26        Zn     tau(  26) = (  0.8333333  0.6666666  0.0513044  )
        27        Zn     tau(  27) = (  0.3332848  0.6666248  0.2595536  )
        28        Zn     tau(  28) = (  0.8333439  0.6666269  0.2595090  )
        29        Zn     tau(  29) = (  0.3333334  0.9166667  0.0513044  )
        30        Zn     tau(  30) = (  0.8333334  0.9166667  0.0513044  )
        31        Zn     tau(  31) = (  0.3332430  0.9165947  0.2595548  )
        32        Zn     tau(  32) = (  0.8333424  0.9165789  0.2595459  )
        33        Zn     tau(  33) = (  0.1666023  0.0832837  0.1553763  )
        34        Zn     tau(  34) = (  0.6667585  0.0834366  0.1554686  )
        35        Zn     tau(  35) = (  0.1666108  0.3334033  0.1554180  )
        36        Zn     tau(  36) = (  0.6668367  0.3334917  0.1554708  )
        37        Zn     tau(  37) = (  0.1665288  0.5832815  0.1554640  )
        38        Zn     tau(  38) = (  0.6667759  0.5833289  0.1554707  )
        39        Zn     tau(  39) = (  0.1665254  0.8331665  0.1554257  )
        40        Zn     tau(  40) = (  0.6666980  0.8332799  0.1554653  )
        41        Zn     tau(  41) = (  0.4167547  0.0833809  0.1554148  )
        42        Zn     tau(  42) = (  0.9166023  0.0833376  0.1554351  )
        43        Zn     tau(  43) = (  0.4168177  0.3334577  0.1554126  )
        44        Zn     tau(  44) = (  0.9166278  0.3334375  0.1554772  )
        45        Zn     tau(  45) = (  0.4167147  0.5833521  0.1554499  )
        46        Zn     tau(  46) = (  0.9165924  0.5832619  0.1554857  )
        47        Zn     tau(  47) = (  0.4166549  0.8332788  0.1554493  )
        48        Zn     tau(  48) = (  0.9165654  0.8331646  0.1554388  )

     number of k points=     5  Marzari-Vanderbilt smearing, width (Ry)=  0.0200
                       cart. coord. in units 2pi/alat
        k(    1) = (   0.0000000   0.0000000   0.0000000), wk =   0.2222222
        k(    2) = (   0.0000000   0.3849002   0.0000000), wk =   0.4444444
        k(    3) = (   0.3333333   0.1924501   0.0000000), wk =   0.4444444
        k(    4) = (   0.3333333   0.5773503   0.0000000), wk =   0.4444444
        k(    5) = (   0.3333333  -0.1924501   0.0000000), wk =   0.4444444

                       cryst. coord.
        k(    1) = (   0.0000000   0.0000000   0.0000000), wk =   0.2222222
        k(    2) = (   0.0000000   0.3333333   0.0000000), wk =   0.4444444
        k(    3) = (   0.3333333   0.0000000   0.0000000), wk =   0.4444444
        k(    4) = (   0.3333333   0.3333333   0.0000000), wk =   0.4444444
        k(    5) = (   0.3333333  -0.3333333   0.0000000), wk =   0.4444444

     Dense  grid:  1201061 G-vectors     FFT dimensions: ( 108, 108, 240)

     Smooth grid:   518755 G-vectors     FFT dimensions: (  80,  80, 192)

     Dynamical RAM for                 wfc:      19.64 MB

     Dynamical RAM for     wfc (w. buffer):     117.86 MB

     Dynamical RAM for           str. fact:       0.63 MB

     Dynamical RAM for           local pot:       0.00 MB

     Dynamical RAM for          nlocal pot:      29.47 MB

     Dynamical RAM for                qrad:       1.34 MB

     Dynamical RAM for          rho,v,vnew:       4.30 MB

     Dynamical RAM for               rhoin:       1.43 MB

     Dynamical RAM for            rho*nmix:      10.11 MB

     Dynamical RAM for           G-vectors:       2.51 MB

     Dynamical RAM for          h,s,v(r/c):       2.42 MB

     Dynamical RAM for          <psi|beta>:       7.59 MB

     Dynamical RAM for                 psi:      39.29 MB

     Dynamical RAM for                hpsi:      39.29 MB

     Dynamical RAM for                spsi:      39.29 MB

     Dynamical RAM for      wfcinit/wfcrot:      51.48 MB

     Dynamical RAM for           addusdens:     147.88 MB

     Dynamical RAM for          addusforce:     207.79 MB

     Estimated static dynamical RAM per process >     162.81 MB

     Estimated max dynamical RAM per process >     380.71 MB

     Estimated total dynamical RAM >      10.78 GB

     Adding charged plate to compensate the charge of the system - add_gatefield
     see PRB 89, 245406 (2014), works only for 2D systems perpendicular to z
                                i.e. 3rd lattice vector is (0,0,c)

        prefactor of the potential in [Ha a.u.]:     0.018578
               position of the gate within cell:     0.90000
         ion-gate + gate-gate contribution to the total energy:   293.130855
                         gate-gate contribution:     0.138946


     Initial potential from superposition of free atoms

     starting charge     959.9932, renormalised to     959.0000

     negative rho (up, down):  3.973E-03 0.000E+00

     Adding external electric field

     Computed dipole along edir(3) : 
        Elec. dipole          3.7568 Ry au,          9.5487 Debye
        Ion. dipole           3.7662 Ry au,          9.5728 Debye
        Dipole               11.4622 Ry au,         29.1339 Debye
        Dipole field          0.0095 Ry au, 

        Potential amp.       -0.7666 Ry
        Total length         40.3866 bohr

     Starting wfcs are  624 randomized atomic wfcs
[ga00:3317538] 28 more processes have sent help message help-mpi-btl-openib.txt / error in device init
[ga00:3317538] Set MCA parameter "orte_base_help_aggregate" to 0 to see all help / error messages

     total cpu time spent up to now is       24.8 secs

     Self-consistent Calculation

     iteration #  1     ecut=    40.00 Ry     beta= 0.40
     Davidson diagonalization with overlap

---- Real-time Memory Report at c_bands before calling an iterative solver
           403 MiB given to the printing process from OS
             0 MiB allocation reported by mallinfo(arena+hblkhd)
         33216 MiB available memory on the node where the printing process lives
------------------
     ethr =  1.00E-02,  avg # of iterations =  7.0

     negative rho (up, down):  4.021E-03 0.000E+00

     Adding external electric field

     Computed dipole along edir(3) : 
        Elec. dipole          3.8021 Ry au,          9.6639 Debye
        Ion. dipole           3.7662 Ry au,          9.5728 Debye
        Dipole              -43.2536 Ry au,       -109.9397 Debye
        Dipole field         -0.0358 Ry au, 

        Potential amp.        2.8928 Ry
        Total length         40.3866 bohr


     total cpu time spent up to now is      124.3 secs

     total energy              =  -21855.33336173 Ry
     estimated scf accuracy    <      55.56321181 Ry

     iteration #  2     ecut=    40.00 Ry     beta= 0.40
     Davidson diagonalization with overlap

---- Real-time Memory Report at c_bands before calling an iterative solver
           524 MiB given to the printing process from OS
             0 MiB allocation reported by mallinfo(arena+hblkhd)
         33184 MiB available memory on the node where the printing process lives
------------------
     ethr =  5.79E-03,  avg # of iterations =  9.2

     negative rho (up, down):  1.024E-03 0.000E+00

     Adding external electric field

     Computed dipole along edir(3) : 
        Elec. dipole          3.7524 Ry au,          9.5377 Debye
        Ion. dipole           3.7662 Ry au,          9.5728 Debye
        Dipole               16.7165 Ry au,         42.4892 Debye
        Dipole field          0.0138 Ry au, 

        Potential amp.       -1.1180 Ry
        Total length         40.3866 bohr


     total cpu time spent up to now is      343.7 secs

     total energy              =  -21524.74722895 Ry
     estimated scf accuracy    <   22728.36463572 Ry

     iteration #  3     ecut=    40.00 Ry     beta= 0.40
     Davidson diagonalization with overlap

---- Real-time Memory Report at c_bands before calling an iterative solver
           525 MiB given to the printing process from OS
             0 MiB allocation reported by mallinfo(arena+hblkhd)
         33158 MiB available memory on the node where the printing process lives
------------------
     ethr =  5.79E-03,  avg # of iterations =  7.0

     negative rho (up, down):  9.393E-04 0.000E+00

     Adding external electric field

     Computed dipole along edir(3) : 
        Elec. dipole          3.7543 Ry au,          9.5425 Debye
        Ion. dipole           3.7662 Ry au,          9.5728 Debye
        Dipole               14.4151 Ry au,         36.6395 Debye
        Dipole field          0.0119 Ry au, 

        Potential amp.       -0.9641 Ry
        Total length         40.3866 bohr


     total cpu time spent up to now is      511.2 secs

     total energy              =  -21883.11009170 Ry
     estimated scf accuracy    <      83.69708928 Ry

     iteration #  4     ecut=    40.00 Ry     beta= 0.40
     Davidson diagonalization with overlap

---- Real-time Memory Report at c_bands before calling an iterative solver
           526 MiB given to the printing process from OS
             0 MiB allocation reported by mallinfo(arena+hblkhd)
         33164 MiB available memory on the node where the printing process lives
------------------
     ethr =  5.79E-03,  avg # of iterations =  3.2

     negative rho (up, down):  9.466E-04 0.000E+00

     Adding external electric field

     Computed dipole along edir(3) : 
        Elec. dipole          3.7548 Ry au,          9.5437 Debye
        Ion. dipole           3.7662 Ry au,          9.5728 Debye
        Dipole               13.8497 Ry au,         35.2024 Debye
        Dipole field          0.0115 Ry au, 

        Potential amp.       -0.9263 Ry
        Total length         40.3866 bohr


     total cpu time spent up to now is      591.3 secs

     total energy              =  -21887.84982249 Ry
     estimated scf accuracy    <       1.53692455 Ry

     iteration #  5     ecut=    40.00 Ry     beta= 0.40
     Davidson diagonalization with overlap

---- Real-time Memory Report at c_bands before calling an iterative solver
           527 MiB given to the printing process from OS
             0 MiB allocation reported by mallinfo(arena+hblkhd)
         33164 MiB available memory on the node where the printing process lives
------------------
     ethr =  1.60E-04,  avg # of iterations =  9.0

     negative rho (up, down):  1.020E-03 0.000E+00

     Adding external electric field

     Computed dipole along edir(3) : 
        Elec. dipole          3.7548 Ry au,          9.5438 Debye
        Ion. dipole           3.7662 Ry au,          9.5728 Debye
        Dipole               13.7788 Ry au,         35.0222 Debye
        Dipole field          0.0114 Ry au, 

        Potential amp.       -0.9215 Ry
        Total length         40.3866 bohr


     total cpu time spent up to now is      685.8 secs

     total energy              =  -21887.93329621 Ry
     estimated scf accuracy    <       0.98341985 Ry

     iteration #  6     ecut=    40.00 Ry     beta= 0.40
     Davidson diagonalization with overlap

---- Real-time Memory Report at c_bands before calling an iterative solver
           528 MiB given to the printing process from OS
             0 MiB allocation reported by mallinfo(arena+hblkhd)
         33247 MiB available memory on the node where the printing process lives
------------------
     ethr =  1.03E-04,  avg # of iterations =  3.6

     negative rho (up, down):  1.177E-03 0.000E+00

     Adding external electric field

     Computed dipole along edir(3) : 
        Elec. dipole          3.7556 Ry au,          9.5458 Debye
        Ion. dipole           3.7662 Ry au,          9.5728 Debye
        Dipole               12.8533 Ry au,         32.6698 Debye
        Dipole field          0.0106 Ry au, 

        Potential amp.       -0.8596 Ry
        Total length         40.3866 bohr


     total cpu time spent up to now is      763.1 secs

     total energy              =  -21887.88590512 Ry
     estimated scf accuracy    <       0.85868050 Ry

     iteration #  7     ecut=    40.00 Ry     beta= 0.40
     Davidson diagonalization with overlap

---- Real-time Memory Report at c_bands before calling an iterative solver
           529 MiB given to the printing process from OS
             0 MiB allocation reported by mallinfo(arena+hblkhd)
         33275 MiB available memory on the node where the printing process lives
------------------
     ethr =  8.95E-05,  avg # of iterations =  1.6

     negative rho (up, down):  1.278E-03 0.000E+00

     Adding external electric field

     Computed dipole along edir(3) : 
        Elec. dipole          3.7562 Ry au,          9.5474 Debye
        Ion. dipole           3.7662 Ry au,          9.5728 Debye
        Dipole               12.1003 Ry au,         30.7559 Debye
        Dipole field          0.0100 Ry au, 

        Potential amp.       -0.8093 Ry
        Total length         40.3866 bohr


     total cpu time spent up to now is      833.0 secs

     total energy              =  -21887.84700796 Ry
     estimated scf accuracy    <       0.65925325 Ry

     iteration #  8     ecut=    40.00 Ry     beta= 0.40
     Davidson diagonalization with overlap

---- Real-time Memory Report at c_bands before calling an iterative solver
           529 MiB given to the printing process from OS
             0 MiB allocation reported by mallinfo(arena+hblkhd)
         33354 MiB available memory on the node where the printing process lives
------------------
     ethr =  6.87E-05,  avg # of iterations =  1.0

     negative rho (up, down):  1.327E-03 0.000E+00

     Adding external electric field

     Computed dipole along edir(3) : 
        Elec. dipole          3.7569 Ry au,          9.5492 Debye
        Ion. dipole           3.7662 Ry au,          9.5728 Debye
        Dipole               11.2554 Ry au,         28.6084 Debye
        Dipole field          0.0093 Ry au, 

        Potential amp.       -0.7528 Ry
        Total length         40.3866 bohr


     total cpu time spent up to now is      894.6 secs

     total energy              =  -21887.81292907 Ry
     estimated scf accuracy    <       0.51572982 Ry

     iteration #  9     ecut=    40.00 Ry     beta= 0.40
     Davidson diagonalization with overlap

---- Real-time Memory Report at c_bands before calling an iterative solver
           530 MiB given to the printing process from OS
             0 MiB allocation reported by mallinfo(arena+hblkhd)
         33360 MiB available memory on the node where the printing process lives
------------------
     ethr =  5.38E-05,  avg # of iterations =  1.6

     negative rho (up, down):  1.353E-03 0.000E+00

     Adding external electric field

     Computed dipole along edir(3) : 
        Elec. dipole          3.7573 Ry au,          9.5502 Debye
        Ion. dipole           3.7662 Ry au,          9.5728 Debye
        Dipole               10.7681 Ry au,         27.3699 Debye
        Dipole field          0.0089 Ry au, 

        Potential amp.       -0.7202 Ry
        Total length         40.3866 bohr


     total cpu time spent up to now is      964.3 secs

     total energy              =  -21887.79493810 Ry
     estimated scf accuracy    <       0.40603653 Ry

     iteration # 10     ecut=    40.00 Ry     beta= 0.40
     Davidson diagonalization with overlap

---- Real-time Memory Report at c_bands before calling an iterative solver
           530 MiB given to the printing process from OS
             0 MiB allocation reported by mallinfo(arena+hblkhd)
         33389 MiB available memory on the node where the printing process lives
------------------
     ethr =  4.23E-05,  avg # of iterations =  3.2

     negative rho (up, down):  1.436E-03 0.000E+00

     Adding external electric field

     Computed dipole along edir(3) : 
        Elec. dipole          3.7589 Ry au,          9.5541 Debye
        Ion. dipole           3.7662 Ry au,          9.5728 Debye
        Dipole                8.8821 Ry au,         22.5762 Debye
        Dipole field          0.0074 Ry au, 

        Potential amp.       -0.5940 Ry
        Total length         40.3866 bohr


     total cpu time spent up to now is     1032.9 secs

     total energy              =  -21887.73434884 Ry
     estimated scf accuracy    <       0.35347829 Ry

     iteration # 11     ecut=    40.00 Ry     beta= 0.40
     Davidson diagonalization with overlap

---- Real-time Memory Report at c_bands before calling an iterative solver
           531 MiB given to the printing process from OS
             0 MiB allocation reported by mallinfo(arena+hblkhd)
         33418 MiB available memory on the node where the printing process lives
------------------
     ethr =  3.69E-05,  avg # of iterations =  3.0

     negative rho (up, down):  7.271E-03 0.000E+00

     Adding external electric field

     Computed dipole along edir(3) : 
        Elec. dipole          3.7629 Ry au,          9.5644 Debye
        Ion. dipole           3.7662 Ry au,          9.5728 Debye
        Dipole                4.0328 Ry au,         10.2503 Debye
        Dipole field          0.0033 Ry au, 

        Potential amp.       -0.2697 Ry
        Total length         40.3866 bohr


     total cpu time spent up to now is     1109.6 secs

     total energy              =  -21887.66184782 Ry
     estimated scf accuracy    <       0.18898282 Ry

     iteration # 12     ecut=    40.00 Ry     beta= 0.40
     Davidson diagonalization with overlap

---- Real-time Memory Report at c_bands before calling an iterative solver
           532 MiB given to the printing process from OS
             0 MiB allocation reported by mallinfo(arena+hblkhd)
         33493 MiB available memory on the node where the printing process lives
------------------
     ethr =  1.97E-05,  avg # of iterations = 11.0

     negative rho (up, down):  3.639E-03 0.000E+00

     Adding external electric field

     Computed dipole along edir(3) : 
        Elec. dipole          3.7628 Ry au,          9.5640 Debye
        Ion. dipole           3.7662 Ry au,          9.5728 Debye
        Dipole                4.2142 Ry au,         10.7113 Debye
        Dipole field          0.0035 Ry au, 

        Potential amp.       -0.2818 Ry
        Total length         40.3866 bohr


     total cpu time spent up to now is     1205.1 secs

     total energy              =  -21887.67600525 Ry
     estimated scf accuracy    <       0.00063767 Ry

     iteration # 13     ecut=    40.00 Ry     beta= 0.40
     Davidson diagonalization with overlap

---- Real-time Memory Report at c_bands before calling an iterative solver
           532 MiB given to the printing process from OS
             0 MiB allocation reported by mallinfo(arena+hblkhd)
         30482 MiB available memory on the node where the printing process lives
------------------
     ethr =  6.65E-08,  avg # of iterations =  5.6
