
     Program PWSCF v.7.3.1 starts on 12Apr2025 at  1:43:59 

     This program is part of the open-source Quantum ESPRESSO suite
     for quantum simulation of materials; please cite
         "P. Giannozzi et al., J. Phys.:Condens. Matter 21 395502 (2009);
         "P. Giannozzi et al., J. Phys.:Condens. Matter 29 465901 (2017);
         "P. Giannozzi et al., J. Chem. Phys. 152 154105 (2020);
          URL http://www.quantum-espresso.org", 
     in publications or presentations arising from this work. More details at
     http://www.quantum-espresso.org/quote

     Parallel version (MPI), running on    33 processors

     MPI processes distributed on     1 nodes
     24841 MiB available memory on the printing compute node when the environment starts

     Waiting for input...
     Reading input from standard input
Warning: card &CELL ignored
Warning: card   CELL_DOFREE = 'ALL' ignored
Warning: card / ignored

     Current dimensions of program PWSCF are:
     Max number of different atomic species (ntypx) = 10
     Max number of k-points (npk) =  40000
     Max angular momentum in pseudopotentials (lmaxx) =  4
     file C.pbe-n-kjpaw_psl.1.0.0.UPF: wavefunction(s)  2S 2P renormalized

     R & G space division:  proc/nbgrp/npool/nimage =      33
     Subspace diagonalization in iterative solution of the eigenvalue problem:
     one sub-group per band group will be used
     custom distributed-memory algorithm (size of sub-group:  5*  5 procs)


     Parallelization info
     --------------------
     sticks:   dense  smooth     PW     G-vecs:    dense   smooth      PW
     Min         270     154     42                40385    17444    2529
     Max         271     155     43                40396    17453    2536
     Sum        8941    5109   1411              1332973   575857   83601

     Using Slab Decomposition



     bravais-lattice index     =            0
     lattice parameter (alat)  =      20.9009  a.u.
     unit-cell volume          =   16846.7507 (a.u.)^3
     number of atoms/cell      =           62
     number of atomic types    =            4
     number of electrons       =       999.00
     number of Kohn-Sham states=          600
     kinetic-energy cutoff     =      40.0000  Ry
     charge density cutoff     =     280.0000  Ry
     scf convergence threshold =      1.0E-06
     mixing beta               =       0.4000
     number of iterations used =            8  plain     mixing
     energy convergence thresh.=      5.0E-05
     force convergence thresh. =      1.0E-03
     Exchange-correlation= PBE
                           (   1   4   3   4   0   0   0)
     nstep                     =          300


     celldm(1)=  20.900943  celldm(2)=   0.000000  celldm(3)=   0.000000
     celldm(4)=   0.000000  celldm(5)=   0.000000  celldm(6)=   0.000000

     crystal axes: (cart. coord. in units of alat)
               a(1) = (   1.000000   0.000000   0.000000 )  
               a(2) = (  -0.223489   0.918700   0.000000 )  
               a(3) = (  -4.200249  -1.021781   2.008375 )  

     reciprocal axes: (cart. coord. in units 2 pi/alat)
               b(1) = (  1.000000  0.243267  2.215131 )  
               b(2) = ( -0.000000  1.088495  0.553783 )  
               b(3) = (  0.000000 -0.000000  0.497915 )  


     PseudoPot. # 1 for Zn read from file:
     /home/ys/qepseudo/SSSP_1.3.0_PBE_efficiency/Zn_pbe_v1.uspp.F.UPF
     MD5 check sum: df62231357ef9e81f77b2b3087fa5675
     Pseudo is Ultrasoft, Zval = 20.0
     Generated by new atomic code, or converted to UPF format
     Using radial grid of  943 points,  6 beta functions with: 
                l(1) =   0
                l(2) =   0
                l(3) =   1
                l(4) =   1
                l(5) =   2
                l(6) =   2
     Q(r) pseudized with  8 coefficients,  rinner =    1.100   1.100   1.100
                                                       1.100   1.100

     PseudoPot. # 2 for N  read from file:
     /home/ys/qepseudo/SSSP_1.3.0_PBE_efficiency/N.pbe-n-radius_5.UPF
     MD5 check sum: 16739722b17309cd8fe442a2ace49922
     Pseudo is Ultrasoft + core correction, Zval =  5.0
     Generated using "atomic" code by A. Dal Corso  v.5.1
     Using radial grid of 1085 points,  4 beta functions with: 
                l(1) =   0
                l(2) =   0
                l(3) =   1
                l(4) =   1
     Q(r) pseudized with 0 coefficients 


     PseudoPot. # 3 for C  read from file:
     /home/ys/qepseudo/SSSP_1.3.0_PBE_efficiency/C.pbe-n-kjpaw_psl.1.0.0.UPF
     MD5 check sum: 5d2aebdfa2cae82b50a7e79e9516da0f
     Pseudo is Projector augmented-wave + core cor, Zval =  4.0
     Generated using "atomic" code by A. Dal Corso  v.5.1
     Shape of augmentation charge: PSQ
     Using radial grid of 1073 points,  4 beta functions with: 
                l(1) =   0
                l(2) =   0
                l(3) =   1
                l(4) =   1
     Q(r) pseudized with 0 coefficients 


     PseudoPot. # 4 for H  read from file:
     /home/ys/qepseudo/SSSP_1.3.0_PBE_efficiency/H.pbe-rrkjus_psl.1.0.0.UPF
     MD5 check sum: f52b6d4d1c606e5624b1dc7b2218f220
     Pseudo is Ultrasoft, Zval =  1.0
     Generated using "atomic" code by A. Dal Corso  v.5.1
     Using radial grid of  929 points,  2 beta functions with: 
                l(1) =   0
                l(2) =   0
     Q(r) pseudized with 0 coefficients 


     atomic species   valence    mass     pseudopotential
     Zn               20.00    65.38000     Zn( 1.00)
     N                 5.00    14.00674     N ( 1.00)
     C                 4.00    12.01070     C ( 1.00)
     H                 1.00     1.00794     H ( 1.00)

     No symmetry found


                                    s                        frac. trans.

      isym =  1     identity                                     

 cryst.   s( 1) = (     1          0          0      )
                  (     0          1          0      )
                  (     0          0          1      )

 cart.    s( 1) = (  1.0000000  0.0000000  0.0000000 )
                  (  0.0000000  1.0000000  0.0000000 )
                  (  0.0000000  0.0000000  1.0000000 )


   Cartesian axes

     site n.     atom                  positions (alat units)
         1        Zn     tau(   1) = (  -0.0970639   0.0980210   0.1082940  )
         2        Zn     tau(   2) = (  -0.2088085   0.5573710   0.1082940  )
         3        Zn     tau(   3) = (  -0.4441130   0.0137124   0.3270429  )
         4        Zn     tau(   4) = (  -0.5558205   0.4729630   0.3269792  )
         5        Zn     tau(   5) = (  -0.8040237  -0.0738066   0.5214585  )
         6        Zn     tau(   6) = (  -0.9151427   0.3843368   0.5223880  )
         7        Zn     tau(   7) = (  -0.1529361   0.3276960   0.1082940  )
         8        Zn     tau(   8) = (  -0.2646808   0.7870460   0.1082940  )
         9        Zn     tau(   9) = (  -0.4998133   0.2433320   0.3268370  )
        10        Zn     tau(  10) = (  -0.6117133   0.7026843   0.3271162  )
        11        Zn     tau(  11) = (  -0.8600900   0.1551295   0.5167183  )
        12        Zn     tau(  12) = (  -0.9709104   0.6149766   0.5206750  )
        13        Zn     tau(  13) = (   0.4029362   0.0980210   0.1082940  )
        14        Zn     tau(  14) = (   0.2911915   0.5573710   0.1082940  )
        15        Zn     tau(  15) = (   0.0553844   0.0135376   0.3229952  )
        16        Zn     tau(  16) = (  -0.0560364   0.4727831   0.3242606  )
        17        Zn     tau(  17) = (  -0.2994855  -0.0731365   0.5196936  )
        18        Zn     tau(  18) = (  -0.4113452   0.3859790   0.5196965  )
        19        Zn     tau(  19) = (   0.3470638   0.3276960   0.1082940  )
        20        Zn     tau(  20) = (   0.2353192   0.7870460   0.1082940  )
        21        Zn     tau(  21) = (  -0.0005679   0.2432705   0.3230981  )
        22        Zn     tau(  22) = (  -0.1118956   0.7027668   0.3239748  )
        23        Zn     tau(  23) = (  -0.3554026   0.1563120   0.5197326  )
        24        Zn     tau(  24) = (  -0.4671496   0.6158305   0.5196634  )
        25        Zn     tau(  25) = (   0.1529361   0.0372043   0.0773528  )
        26        Zn     tau(  26) = (   0.0411915   0.4965543   0.0773528  )
        27        Zn     tau(  27) = (  -0.2125073  -0.0521243   0.2662246  )
        28        Zn     tau(  28) = (  -0.3243114   0.4074005   0.2660537  )
        29        Zn     tau(  29) = (  -0.5764553  -0.1400471   0.4644755  )
        30        Zn     tau(  30) = (  -0.6876585   0.3191103   0.4649159  )
        31        Zn     tau(  31) = (   0.0970639   0.2668793   0.0773528  )
        32        Zn     tau(  32) = (  -0.0146808   0.7262293   0.0773528  )
        33        Zn     tau(  33) = (  -0.2683432   0.1775858   0.2662202  )
        34        Zn     tau(  34) = (  -0.3802609   0.6370249   0.2660263  )
        35        Zn     tau(  35) = (  -0.6318947   0.0895580   0.4648769  )
        36        Zn     tau(  36) = (  -0.7441099   0.5485924   0.4646875  )
        37        Zn     tau(  37) = (   0.6529362   0.0372043   0.0773528  )
        38        Zn     tau(  38) = (   0.5411915   0.4965543   0.0773528  )
        39        Zn     tau(  39) = (   0.2877639  -0.0519496   0.2667808  )
        40        Zn     tau(  40) = (   0.1761622   0.4073544   0.2661980  )
        41        Zn     tau(  41) = (  -0.0724077  -0.1391512   0.4659269  )
        42        Zn     tau(  42) = (  -0.1843113   0.3198979   0.4658512  )
        43        Zn     tau(  43) = (   0.5970639   0.2668793   0.0773528  )
        44        Zn     tau(  44) = (   0.4853193   0.7262293   0.0773528  )
        45        Zn     tau(  45) = (   0.2318490   0.1776028   0.2670079  )
        46        Zn     tau(  46) = (   0.1203569   0.6371400   0.2657590  )
        47        Zn     tau(  47) = (  -0.1281003   0.0904119   0.4663791  )
        48        Zn     tau(  48) = (  -0.2403614   0.5496827   0.4654021  )
        49        C      tau(  49) = (  -0.8630198   0.1194526   1.3258499  )
        50        C      tau(  50) = (  -0.8165832   0.0231516   1.0151388  )
        51        C      tau(  51) = (  -0.8814259   0.2378322   1.1368011  )
        52        C      tau(  52) = (  -0.8543574   0.1347415   0.9521679  )
        53        C      tau(  53) = (  -0.8489455   0.1237860   1.2040570  )
        54        C      tau(  54) = (  -0.8837921   0.2413003   1.0162029  )
        55        C      tau(  55) = (  -0.8046311   0.0243560   1.1353399  )
        56        N      tau(  56) = (  -0.8563549   0.1317313   0.8322527  )
        57        H      tau(  57) = (  -0.9052151   0.1924586   1.3771945  )
        58        H      tau(  58) = (  -0.8036521  -0.0573060   0.9585816  )
        59        H      tau(  59) = (  -0.8990655   0.3173231   1.1933218  )
        60        H      tau(  60) = (  -0.8338477   0.0383479   1.3725451  )
        61        H      tau(  61) = (  -0.8730310   0.2088241   0.7848333  )
        62        H      tau(  62) = (  -0.8380435   0.0548262   0.7855150  )

     --------------------------------------------
     DFT-D3 Dispersion Correction (3-body terms):
     --------------------------------------------
       Reference C6 values for interpolation: 

         atom   Coordination number   C6
         H          0.912             6.05
         H          0.000            15.18
         C          0.000            98.23
         C          0.987            86.49
         C          1.998            58.72
         C          2.999            51.56
         C          3.984            36.41
         N          0.000            50.54
         N          0.994            44.25
         N          2.014            39.35
         N          2.990            31.16
         Zn         0.000           681.04
         Zn         1.942           306.91

       Values used:

         atom   Coordination number  R0_AB[au]  C6      C8
         Zn         5.585            3.053    306.91  23930.67
         Zn         5.564            3.053    306.91  23930.67
         Zn         7.203            3.053    306.91  23930.67
         Zn         7.200            3.053    306.91  23930.67
         Zn         5.124            3.053    306.91  23930.67
         Zn         5.071            3.053    306.91  23930.67
         Zn         5.575            3.053    306.91  23930.67
         Zn         5.578            3.053    306.91  23930.67
         Zn         7.204            3.053    306.91  23930.67
         Zn         7.196            3.053    306.91  23930.67
         Zn         5.340            3.053    306.91  23930.67
         Zn         5.140            3.053    306.91  23930.67
         Zn         5.505            3.053    306.91  23930.67
         Zn         5.521            3.053    306.91  23930.67
         Zn         7.336            3.053    306.91  23930.67
         Zn         7.244            3.053    306.91  23930.67
         Zn         5.178            3.053    306.91  23930.67
         Zn         5.177            3.053    306.91  23930.67
         Zn         5.510            3.053    306.91  23930.67
         Zn         5.515            3.053    306.91  23930.67
         Zn         7.318            3.053    306.91  23930.67
         Zn         7.265            3.053    306.91  23930.67
         Zn         5.180            3.053    306.91  23930.67
         Zn         5.173            3.053    306.91  23930.67
         Zn         5.360            3.053    306.91  23930.67
         Zn         5.360            3.053    306.91  23930.67
         Zn         7.951            3.053    306.91  23930.67
         Zn         7.960            3.053    306.91  23930.67
         Zn         6.274            3.053    306.91  23930.67
         Zn         6.270            3.053    306.91  23930.67
         Zn         5.363            3.053    306.91  23930.67
         Zn         5.359            3.053    306.91  23930.67
         Zn         7.953            3.053    306.91  23930.67
         Zn         7.958            3.053    306.91  23930.67
         Zn         6.280            3.053    306.91  23930.67
         Zn         6.257            3.053    306.91  23930.67
         Zn         5.323            3.053    306.91  23930.67
         Zn         5.329            3.053    306.91  23930.67
         Zn         8.003            3.053    306.91  23930.67
         Zn         7.981            3.053    306.91  23930.67
         Zn         6.274            3.053    306.91  23930.67
         Zn         6.274            3.053    306.91  23930.67
         Zn         5.327            3.053    306.91  23930.67
         Zn         5.326            3.053    306.91  23930.67
         Zn         8.050            3.053    306.91  23930.67
         Zn         8.002            3.053    306.91  23930.67
         Zn         6.272            3.053    306.91  23930.67
         Zn         6.284            3.053    306.91  23930.67
         C          3.086            2.750     50.96   1473.93
         C          3.151            2.750     50.52   1461.27
         C          3.161            2.750     50.44   1458.75
         C          3.165            2.750     50.40   1457.76
         C          3.129            2.750     50.69   1466.15
         C          2.142            2.750     58.44   1690.18
         C          2.159            2.750     58.37   1688.07
         N          3.104            2.478     31.23    689.02
         H          0.999            2.062      6.18     74.73
         H          1.002            2.062      6.18     74.70
         H          1.002            2.062      6.18     74.70
         H          1.001            2.062      6.18     74.70
         H          1.010            2.062      6.17     74.61
         H          1.009            2.062      6.17     74.62

         Molecular C6 ( Ry / a.u.^6 ) =    830228.56


   Crystallographic axes

     site n.     atom                  positions (cryst. coord.)
         1        Zn     tau(   1) = (  0.1666667  0.1666667  0.0539212  )
         2        Zn     tau(   2) = (  0.1666668  0.6666667  0.0539212  )
         3        Zn     tau(   3) = (  0.2836659  0.1960367  0.1628396  )
         4        Zn     tau(   4) = (  0.2835376  0.6958931  0.1628079  )
         5        Zn     tau(   5) = (  0.3331207  0.2084367  0.2596420  )
         6        Zn     tau(   6) = (  0.3355117  0.7076380  0.2601048  )
         7        Zn     tau(   7) = (  0.1666668  0.4166667  0.0539212  )
         8        Zn     tau(   8) = (  0.1666667  0.9166667  0.0539212  )
         9        Zn     tau(   9) = (  0.2833681  0.4458622  0.1627370  )
        10        Zn     tau(  10) = (  0.2838319  0.9460195  0.1628761  )
        11        Zn     tau(  11) = (  0.3222467  0.4550073  0.2572818  )
        12        Zn     tau(  12) = (  0.3320566  0.9577396  0.2592519  )
        13        Zn     tau(  13) = (  0.6666668  0.1666667  0.0539212  )
        14        Zn     tau(  14) = (  0.6666667  0.6666667  0.0539212  )
        15        Zn     tau(  15) = (  0.7741545  0.1936048  0.1608242  )
        16        Zn     tau(  16) = (  0.7772558  0.6941918  0.1614542  )
        17        Zn     tau(  17) = (  0.8339123  0.2081886  0.2587632  )
        18        Zn     tau(  18) = (  0.8337468  0.7079351  0.2587647  )
        19        Zn     tau(  19) = (  0.6666668  0.4166667  0.0539212  )
        20        Zn     tau(  20) = (  0.6666668  0.9166667  0.0539212  )
        21        Zn     tau(  21) = (  0.7743166  0.4437248  0.1608754  )
        22        Zn     tau(  22) = (  0.7767111  0.9443696  0.1613119  )
        23        Zn     tau(  23) = (  0.8338989  0.4579638  0.2587827  )
        24        Zn     tau(  24) = (  0.8337841  0.9581088  0.2587482  )
        25        Zn     tau(  25) = (  0.3333333  0.0833333  0.0385151  )
        26        Zn     tau(  26) = (  0.3333333  0.5833333  0.0385151  )
        27        Zn     tau(  27) = (  0.3645349  0.0906935  0.1325572  )
        28        Zn     tau(  28) = (  0.3641395  0.5907892  0.1324721  )
        29        Zn     tau(  29) = (  0.4183502  0.1047780  0.2312693  )
        30        Zn     tau(  30) = (  0.4198202  0.6048122  0.2314886  )
        31        Zn     tau(  31) = (  0.3333333  0.3333333  0.0385151  )
        32        Zn     tau(  32) = (  0.3333333  0.8333333  0.0385151  )
        33        Zn     tau(  33) = (  0.3645703  0.3407293  0.1325550  )
        34        Zn     tau(  34) = (  0.3639893  0.8407189  0.1324585  )
        35        Zn     tau(  35) = (  0.4196551  0.3549242  0.2314692  )
        36        Zn     tau(  36) = (  0.4186883  0.8544758  0.2313749  )
        37        Zn     tau(  37) = (  0.8333333  0.0833333  0.0385151  )
        38        Zn     tau(  38) = (  0.8333333  0.5833333  0.0385151  )
        39        Zn     tau(  39) = (  0.8660808  0.0911918  0.1328342  )
        40        Zn     tau(  40) = (  0.8649217  0.5908189  0.1325440  )
        41        Zn     tau(  41) = (  0.9258307  0.1065570  0.2319920  )
        42        Zn     tau(  42) = (  0.9254308  0.6061875  0.2319543  )
        43        Zn     tau(  43) = (  0.8333333  0.3333333  0.0385151  )
        44        Zn     tau(  44) = (  0.8333333  0.8333333  0.0385151  )
        45        Zn     tau(  45) = (  0.8665115  0.3411840  0.1329472  )
        46        Zn     tau(  46) = (  0.8640431  0.8406962  0.1323254  )
        47        Zn     tau(  47) = (  0.9269848  0.3566855  0.2322171  )
        48        Zn     tau(  48) = (  0.9242849  0.8560584  0.2317307  )
        49        C      tau(  49) = (  2.1029708  0.8642564  0.6601606  )
        50        C      tau(  50) = (  1.4377145  0.5873668  0.5054528  )
        51        C      tau(  51) = (  1.6945946  0.8884199  0.5660303  )
        52        C      tau(  52) = (  1.2875977  0.6739596  0.4740987  )
        53        C      tau(  53) = (  1.8483119  0.8015264  0.5995180  )
        54        C      tau(  54) = (  1.4259312  0.8254098  0.5059827  )
        55        C      tau(  55) = (  1.7162209  0.6552430  0.5653028  )
        56        N      tau(  56) = (  1.0192401  0.6042761  0.4143911  )
        57        H      tau(  57) = (  2.1922703  0.9721567  0.6857258  )
        58        H      tau(  58) = (  1.3057914  0.4684687  0.4772921  )
        59        H      tau(  59) = (  1.8214932  1.0062455  0.5941728  )
        60        H      tau(  60) = (  2.2158487  0.8018333  0.6834108  )
        61        H      tau(  61) = (  0.9162777  0.6619311  0.3907802  )
        62        H      tau(  62) = (  0.9153127  0.4946827  0.3911197  )

     number of k points=     5  Marzari-Vanderbilt smearing, width (Ry)=  0.0200
                       cart. coord. in units 2pi/alat
        k(    1) = (   0.0000000   0.0000000   0.0000000), wk =   0.2222222
        k(    2) = (   0.0000000   0.3628315   0.1845943), wk =   0.4444444
        k(    3) = (   0.3333333   0.0810890   0.7383771), wk =   0.4444444
        k(    4) = (   0.3333333   0.4439205   0.9229714), wk =   0.4444444
        k(    5) = (   0.3333333  -0.2817426   0.5537829), wk =   0.4444444

                       cryst. coord.
        k(    1) = (   0.0000000   0.0000000   0.0000000), wk =   0.2222222
        k(    2) = (   0.0000000   0.3333333   0.0000000), wk =   0.4444444
        k(    3) = (   0.3333333   0.0000000   0.0000000), wk =   0.4444444
        k(    4) = (   0.3333333   0.3333333   0.0000000), wk =   0.4444444
        k(    5) = (   0.3333333  -0.3333333   0.0000000), wk =   0.4444444

     Dense  grid:  1332973 G-vectors     FFT dimensions: ( 120, 108, 540)

     Smooth grid:   575857 G-vectors     FFT dimensions: (  90,  80, 405)

     Dynamical RAM for                 wfc:      19.96 MB

     Dynamical RAM for     wfc (w. buffer):     119.75 MB

     Dynamical RAM for           str. fact:       2.47 MB

     Dynamical RAM for           local pot:       0.00 MB

     Dynamical RAM for          nlocal pot:      31.27 MB

     Dynamical RAM for                qrad:       5.37 MB

     Dynamical RAM for          rho,v,vnew:       6.89 MB

     Dynamical RAM for               rhoin:       2.30 MB

     Dynamical RAM for            rho*nmix:       9.86 MB

     Dynamical RAM for           G-vectors:       2.44 MB

     Dynamical RAM for          h,s,v(r/c):       2.64 MB

     Dynamical RAM for          <psi|beta>:       8.61 MB

     Dynamical RAM for                 psi:      39.92 MB

     Dynamical RAM for                hpsi:      39.92 MB

     Dynamical RAM for                spsi:      39.92 MB

     Dynamical RAM for      wfcinit/wfcrot:      54.08 MB

     Dynamical RAM for           addusdens:     144.24 MB

     Dynamical RAM for          addusforce:     202.67 MB

     Dynamical RAM for         addusstress:     123.90 MB

     Estimated static dynamical RAM per process >     181.98 MB

     Estimated max dynamical RAM per process >     394.51 MB

     Estimated total dynamical RAM >      12.71 GB

     Initial potential from superposition of free atoms

     starting charge     998.9929, renormalised to     999.0000

     negative rho (up, down):  1.751E-03 0.000E+00
     Starting wfcs are  662 randomized atomic wfcs
     Checking if some PAW data can be deallocated... 
       PAW data deallocated on   29 nodes for type:  3

     total cpu time spent up to now is      213.1 secs

     Self-consistent Calculation

     iteration #  1     ecut=    40.00 Ry     beta= 0.40
     Davidson diagonalization with overlap

---- Real-time Memory Report at c_bands before calling an iterative solver
           262 MiB given to the printing process from OS
             0 MiB allocation reported by mallinfo(arena+hblkhd)
         18156 MiB available memory on the node where the printing process lives
------------------
     ethr =  1.00E-02,  avg # of iterations =  7.6

     negative rho (up, down):  2.212E-03 0.000E+00

     total cpu time spent up to now is     1061.7 secs

     total energy              =  -22303.57845209 Ry
     estimated scf accuracy    <      14.22107099 Ry

     iteration #  2     ecut=    40.00 Ry     beta= 0.40
     Davidson diagonalization with overlap

---- Real-time Memory Report at c_bands before calling an iterative solver
           364 MiB given to the printing process from OS
             0 MiB allocation reported by mallinfo(arena+hblkhd)
         16834 MiB available memory on the node where the printing process lives
------------------
     ethr =  1.42E-03,  avg # of iterations =  9.4

     negative rho (up, down):  3.576E-03 0.000E+00

     total cpu time spent up to now is     1913.1 secs

     total energy              =  -22288.28006867 Ry
     estimated scf accuracy    <     358.19267237 Ry

     iteration #  3     ecut=    40.00 Ry     beta= 0.40
     Davidson diagonalization with overlap

---- Real-time Memory Report at c_bands before calling an iterative solver
           381 MiB given to the printing process from OS
             0 MiB allocation reported by mallinfo(arena+hblkhd)
         16814 MiB available memory on the node where the printing process lives
------------------
     ethr =  1.42E-03,  avg # of iterations =  9.2

     negative rho (up, down):  3.164E-03 0.000E+00

     total cpu time spent up to now is     3079.3 secs

     total energy              =  -22309.68725809 Ry
     estimated scf accuracy    <       9.58824066 Ry

     iteration #  4     ecut=    40.00 Ry     beta= 0.40
     Davidson diagonalization with overlap

---- Real-time Memory Report at c_bands before calling an iterative solver
           382 MiB given to the printing process from OS
             0 MiB allocation reported by mallinfo(arena+hblkhd)
         16788 MiB available memory on the node where the printing process lives
------------------
     ethr =  9.60E-04,  avg # of iterations =  3.0

     negative rho (up, down):  3.081E-03 0.000E+00

     total cpu time spent up to now is     3785.0 secs

     total energy              =  -22310.04162066 Ry
     estimated scf accuracy    <       6.28907218 Ry

     iteration #  5     ecut=    40.00 Ry     beta= 0.40
     Davidson diagonalization with overlap

---- Real-time Memory Report at c_bands before calling an iterative solver
           383 MiB given to the printing process from OS
             0 MiB allocation reported by mallinfo(arena+hblkhd)
         16764 MiB available memory on the node where the printing process lives
------------------
     ethr =  6.30E-04,  avg # of iterations =  2.0

     negative rho (up, down):  3.160E-03 0.000E+00

     total cpu time spent up to now is     4470.1 secs

     total energy              =  -22310.40628281 Ry
     estimated scf accuracy    <       0.55692528 Ry

     iteration #  6     ecut=    40.00 Ry     beta= 0.40
     Davidson diagonalization with overlap

---- Real-time Memory Report at c_bands before calling an iterative solver
           383 MiB given to the printing process from OS
             0 MiB allocation reported by mallinfo(arena+hblkhd)
         16740 MiB available memory on the node where the printing process lives
------------------
     ethr =  5.57E-05,  avg # of iterations = 11.4

     negative rho (up, down):  3.134E-03 0.000E+00

     total cpu time spent up to now is     5208.7 secs

     total energy              =  -22310.40413948 Ry
     estimated scf accuracy    <       0.23442056 Ry

     iteration #  7     ecut=    40.00 Ry     beta= 0.40
     Davidson diagonalization with overlap

---- Real-time Memory Report at c_bands before calling an iterative solver
           384 MiB given to the printing process from OS
             0 MiB allocation reported by mallinfo(arena+hblkhd)
         16716 MiB available memory on the node where the printing process lives
------------------
     ethr =  2.35E-05,  avg # of iterations =  4.6

     negative rho (up, down):  3.187E-03 0.000E+00

     total cpu time spent up to now is     5911.0 secs

     total energy              =  -22310.39008230 Ry
     estimated scf accuracy    <       0.27845510 Ry

     iteration #  8     ecut=    40.00 Ry     beta= 0.40
     Davidson diagonalization with overlap

---- Real-time Memory Report at c_bands before calling an iterative solver
           385 MiB given to the printing process from OS
             0 MiB allocation reported by mallinfo(arena+hblkhd)
         16692 MiB available memory on the node where the printing process lives
------------------
     ethr =  2.35E-05,  avg # of iterations =  3.0

     negative rho (up, down):  3.204E-03 0.000E+00

     total cpu time spent up to now is     6603.1 secs

     total energy              =  -22310.41556889 Ry
     estimated scf accuracy    <       0.05724852 Ry

     iteration #  9     ecut=    40.00 Ry     beta= 0.40
     Davidson diagonalization with overlap

---- Real-time Memory Report at c_bands before calling an iterative solver
           386 MiB given to the printing process from OS
             0 MiB allocation reported by mallinfo(arena+hblkhd)
         16667 MiB available memory on the node where the printing process lives
------------------
     c_bands:  1 eigenvalues not converged
     c_bands:  1 eigenvalues not converged
     ethr =  5.73E-06,  avg # of iterations = 15.0

     negative rho (up, down):  3.218E-03 0.000E+00

     total cpu time spent up to now is     7339.4 secs

     total energy              =  -22310.41521649 Ry
     estimated scf accuracy    <       0.11080645 Ry

     iteration # 10     ecut=    40.00 Ry     beta= 0.40
     Davidson diagonalization with overlap

---- Real-time Memory Report at c_bands before calling an iterative solver
           386 MiB given to the printing process from OS
             0 MiB allocation reported by mallinfo(arena+hblkhd)
         16646 MiB available memory on the node where the printing process lives
------------------
     ethr =  5.73E-06,  avg # of iterations =  2.4

     negative rho (up, down):  3.227E-03 0.000E+00

     total cpu time spent up to now is     8019.0 secs

     total energy              =  -22310.41933934 Ry
     estimated scf accuracy    <       0.00223345 Ry

     iteration # 11     ecut=    40.00 Ry     beta= 0.40
     Davidson diagonalization with overlap

---- Real-time Memory Report at c_bands before calling an iterative solver
           387 MiB given to the printing process from OS
             0 MiB allocation reported by mallinfo(arena+hblkhd)
         16649 MiB available memory on the node where the printing process lives
------------------
     c_bands:  2 eigenvalues not converged
     ethr =  2.24E-07,  avg # of iterations =  7.8

     negative rho (up, down):  3.234E-03 0.000E+00

     total cpu time spent up to now is     8720.0 secs

     total energy              =  -22310.41942336 Ry
     estimated scf accuracy    <       0.00069272 Ry

     iteration # 12     ecut=    40.00 Ry     beta= 0.40
     Davidson diagonalization with overlap

---- Real-time Memory Report at c_bands before calling an iterative solver
           387 MiB given to the printing process from OS
             0 MiB allocation reported by mallinfo(arena+hblkhd)
         16650 MiB available memory on the node where the printing process lives
------------------
     ethr =  6.93E-08,  avg # of iterations =  2.4

     negative rho (up, down):  3.238E-03 0.000E+00

     total cpu time spent up to now is     9397.7 secs

     total energy              =  -22310.41947357 Ry
     estimated scf accuracy    <       0.00087842 Ry

     iteration # 13     ecut=    40.00 Ry     beta= 0.40
     Davidson diagonalization with overlap

---- Real-time Memory Report at c_bands before calling an iterative solver
           387 MiB given to the printing process from OS
             0 MiB allocation reported by mallinfo(arena+hblkhd)
         16646 MiB available memory on the node where the printing process lives
------------------
     ethr =  6.93E-08,  avg # of iterations =  2.0

     negative rho (up, down):  3.242E-03 0.000E+00

     total cpu time spent up to now is    10076.9 secs

     total energy              =  -22310.41950484 Ry
     estimated scf accuracy    <       0.00007728 Ry

     iteration # 14     ecut=    40.00 Ry     beta= 0.40
     Davidson diagonalization with overlap

---- Real-time Memory Report at c_bands before calling an iterative solver
           387 MiB given to the printing process from OS
             0 MiB allocation reported by mallinfo(arena+hblkhd)
         16648 MiB available memory on the node where the printing process lives
------------------
     ethr =  7.74E-09,  avg # of iterations =  2.0

     negative rho (up, down):  3.243E-03 0.000E+00

     total cpu time spent up to now is    10759.2 secs

     total energy              =  -22310.41950520 Ry
     estimated scf accuracy    <       0.00015175 Ry

     iteration # 15     ecut=    40.00 Ry     beta= 0.40
     Davidson diagonalization with overlap

---- Real-time Memory Report at c_bands before calling an iterative solver
           387 MiB given to the printing process from OS
             0 MiB allocation reported by mallinfo(arena+hblkhd)
         16640 MiB available memory on the node where the printing process lives
------------------
     ethr =  7.74E-09,  avg # of iterations =  2.0

     negative rho (up, down):  3.245E-03 0.000E+00

     total cpu time spent up to now is    11434.8 secs

     total energy              =  -22310.41951623 Ry
     estimated scf accuracy    <       0.00005259 Ry

     iteration # 16     ecut=    40.00 Ry     beta= 0.40
     Davidson diagonalization with overlap

---- Real-time Memory Report at c_bands before calling an iterative solver
           387 MiB given to the printing process from OS
             0 MiB allocation reported by mallinfo(arena+hblkhd)
         16645 MiB available memory on the node where the printing process lives
------------------
     ethr =  5.26E-09,  avg # of iterations =  1.6

     negative rho (up, down):  3.246E-03 0.000E+00

     total cpu time spent up to now is    12060.4 secs

     total energy              =  -22310.41952018 Ry
     estimated scf accuracy    <       0.00000285 Ry

     iteration # 17     ecut=    40.00 Ry     beta= 0.40
     Davidson diagonalization with overlap

---- Real-time Memory Report at c_bands before calling an iterative solver
           387 MiB given to the printing process from OS
             0 MiB allocation reported by mallinfo(arena+hblkhd)
         16644 MiB available memory on the node where the printing process lives
------------------
     ethr =  2.86E-10,  avg # of iterations =  2.0

     negative rho (up, down):  3.246E-03 0.000E+00

     total cpu time spent up to now is    12741.7 secs

     total energy              =  -22310.41952043 Ry
     estimated scf accuracy    <       0.00000136 Ry

     iteration # 18     ecut=    40.00 Ry     beta= 0.40
     Davidson diagonalization with overlap

---- Real-time Memory Report at c_bands before calling an iterative solver
           387 MiB given to the printing process from OS
             0 MiB allocation reported by mallinfo(arena+hblkhd)
         16645 MiB available memory on the node where the printing process lives
------------------
     ethr =  1.36E-10,  avg # of iterations =  2.0

     negative rho (up, down):  3.247E-03 0.000E+00

     total cpu time spent up to now is    13416.8 secs

     End of self-consistent calculation

          k = 0.0000 0.0000 0.0000 ( 71933 PWs)   bands (ev):

  -125.2280-125.2265-125.2237-125.2234-125.2217-125.2208-125.2201-125.2192
  -125.1709-125.1698-125.1645-125.1633-125.1609-125.1600-125.1599-125.1589
  -125.0837-125.0822-125.0817-125.0802-125.0802-125.0794-125.0782-125.0779
  -125.0167-125.0161-125.0153-125.0153-125.0138-125.0130-125.0097-125.0068
  -124.9295-124.9284-124.9276-124.9264-124.9247-124.9242-124.9211-124.9161
  -124.9118-124.8684-124.8660-124.8645-124.8638-124.8632-124.8616-124.8582
   -79.3861 -79.3834 -79.3814 -79.3811 -79.3786 -79.3785 -79.3781 -79.3776
   -79.3770 -79.3759 -79.3755 -79.3751 -79.3746 -79.3744 -79.3741 -79.3727
   -79.3718 -79.3715 -79.3710 -79.3699 -79.3687 -79.3685 -79.3610 -79.3561
   -79.3289 -79.3259 -79.3248 -79.3220 -79.3213 -79.3209 -79.3198 -79.3186
   -79.3167 -79.3164 -79.3155 -79.3154 -79.3152 -79.3149 -79.3143 -79.3141
   -79.3119 -79.3110 -79.3108 -79.3097 -79.3091 -79.3089 -79.3028 -79.2967
   -79.2442 -79.2428 -79.2424 -79.2423 -79.2413 -79.2406 -79.2399 -79.2390
   -79.2384 -79.2377 -79.2324 -79.2311 -79.2307 -79.2302 -79.2300 -79.2296
   -79.2293 -79.2287 -79.2285 -79.2277 -79.2265 -79.2263 -79.2175 -79.2174
   -79.1781 -79.1780 -79.1773 -79.1767 -79.1765 -79.1750 -79.1747 -79.1741
   -79.1708 -79.1679 -79.1671 -79.1669 -79.1660 -79.1658 -79.1654 -79.1652
   -79.1639 -79.1638 -79.1621 -79.1611 -79.1603 -79.1576 -79.1532 -79.1484
   -79.0938 -79.0927 -79.0918 -79.0906 -79.0888 -79.0881 -79.0877 -79.0853
   -79.0847 -79.0815 -79.0806 -79.0795 -79.0795 -79.0786 -79.0773 -79.0758
   -79.0756 -79.0754 -79.0748 -79.0724 -79.0720 -79.0706 -79.0675 -79.0628
   -79.0628 -79.0574 -79.0520 -79.0380 -79.0360 -79.0344 -79.0340 -79.0331
   -79.0315 -79.0282 -79.0208 -79.0190 -79.0175 -79.0172 -79.0164 -79.0162
   -79.0147 -79.0119 -79.0114 -79.0040 -79.0038 -79.0028 -78.9926 -78.9914
   -18.9473 -15.8811 -13.8633 -13.1593 -11.3916 -10.0073  -9.1500  -8.2529
    -8.2216  -7.3598  -7.1840  -7.0967  -6.9592  -6.9519  -6.9492  -6.8883
    -6.8701  -6.8134  -6.7640  -6.7603  -6.7471  -6.7460  -6.7407  -6.7121
    -6.7081  -6.6846  -6.6833  -6.6763  -6.6657  -6.6249  -6.6021  -6.5914
    -6.5905  -6.5863  -6.5768  -6.5690  -6.5668  -6.5630  -6.5617  -6.5231
    -6.5223  -6.5198  -6.5186  -6.4990  -6.4984  -6.4960  -6.4942  -6.4862
    -6.4841  -6.4790  -6.4552  -6.4540  -6.4532  -6.4496  -6.4471  -6.4314
    -6.4308  -6.4154  -6.4147  -6.4138  -6.3937  -6.3912  -6.3898  -6.3636
    -6.3586  -6.3585  -6.3562  -6.3460  -6.3454  -6.3345  -6.3083  -6.3072
    -6.3041  -6.2852  -6.2810  -6.2793  -6.2691  -6.2675  -6.2662  -6.2552
    -6.2508  -6.2449  -6.2413  -6.2364  -6.2337  -6.2078  -6.2066  -6.1922
    -6.1907  -6.1848  -6.1824  -6.1810  -6.1759  -6.1501  -6.1480  -6.1464
    -6.1456  -6.1410  -6.1391  -6.1264  -6.1262  -6.1182  -6.1166  -6.0927
    -6.0882  -6.0845  -6.0841  -6.0823  -6.0743  -6.0733  -6.0663  -6.0643
    -6.0574  -6.0472  -6.0375  -6.0359  -6.0301  -6.0295  -6.0274  -6.0121
    -5.9985  -5.9968  -5.9961  -5.9920  -5.9902  -5.9809  -5.9706  -5.9703
    -5.9688  -5.9616  -5.9598  -5.9585  -5.9396  -5.9379  -5.9353  -5.9283
    -5.9250  -5.9240  -5.9205  -5.9177  -5.9030  -5.9007  -5.8898  -5.8887
    -5.8882  -5.8870  -5.8846  -5.8822  -5.8745  -5.8649  -5.8485  -5.8476
    -5.8435  -5.8422  -5.8368  -5.8354  -5.8311  -5.8289  -5.8085  -5.8047
    -5.8032  -5.8002  -5.7990  -5.7986  -5.7936  -5.7922  -5.7812  -5.7774
    -5.7742  -5.7689  -5.7671  -5.7659  -5.7631  -5.7620  -5.7594  -5.7500
    -5.7465  -5.7449  -5.7435  -5.7399  -5.7384  -5.7357  -5.7350  -5.7339
    -5.7134  -5.7130  -5.7036  -5.7034  -5.6989  -5.6986  -5.6929  -5.6842
    -5.6821  -5.6815  -5.6775  -5.6742  -5.6584  -5.6564  -5.6558  -5.6533
    -5.6514  -5.6495  -5.6453  -5.6440  -5.6409  -5.6362  -5.6337  -5.6319
    -5.6315  -5.6304  -5.6291  -5.6280  -5.6229  -5.6227  -5.6207  -5.6196
    -5.6181  -5.6107  -5.6069  -5.6011  -5.5988  -5.5902  -5.5896  -5.5799
    -5.5784  -5.5773  -5.5753  -5.5659  -5.5638  -5.5560  -5.5528  -5.5488
    -5.5473  -5.5357  -5.5290  -5.5246  -5.5236  -5.5107  -5.5100  -5.4992
    -5.4950  -5.4870  -5.4611  -5.4512  -5.4473  -5.4460  -5.4419  -5.4392
    -5.4388  -5.4288  -5.3888  -5.3839  -5.3692  -5.3355  -5.3320  -5.3035
    -5.2953  -5.2306  -5.2304  -5.0791  -4.8344  -4.6740  -4.3296  -4.3234
    -4.3081  -4.1100  -4.0176  -4.0171  -3.8804  -3.6815  -3.6811  -3.2665
    -2.8073  -2.3783  -2.2959  -2.2938  -2.1082  -2.0546  -2.0523  -1.8375
    -1.6822  -1.6789  -1.5028  -1.4976  -1.4963  -1.4925  -1.1969  -1.0581
    -0.9440  -0.7889  -0.7853  -0.5309  -0.3417  -0.2064  -0.1859  -0.1633
    -0.1603   0.2318   0.3161   0.3217   0.4693   0.4815   0.5082   0.5717
     0.5763   0.8133   0.8165   1.1952   1.2766   1.5983   1.6110   1.7625
     1.8524   1.8619   2.1605   2.1735   2.4095   2.4216   2.4245   2.4311
     2.5240   2.5246   2.9110   2.9151   2.9873   3.1177   3.1380   3.1856
     3.1945   3.4044   3.4600   3.6679   3.8802   3.9014   3.9115   4.1800
     4.2429   4.2662   4.2939   4.7936   4.8437   4.8893   4.9460   4.9976
     5.0509   5.3159   5.3801   5.3859   5.4261   5.4639   5.4902   5.4921
     5.5191   5.5633   5.6316   5.8308   5.8550   5.8609   5.8672   5.9314
     5.9914   6.0071   6.0307   6.0734   6.0987   6.1540   6.1707   6.1851
     6.2153   6.2641   6.2953   6.3354   6.3699   6.4487   6.4791   6.5297
     6.5442   6.5846   6.6601   6.6780   6.7635   6.8073   6.8912   6.9601
     6.9821   7.0923   7.1665   7.2173   7.2202   7.2360   7.3159   7.3866
     7.4445   7.4485   7.5303   7.5663   7.5913   7.6284   7.7078   7.7655
     7.8078   7.8668   7.8779   7.9314   7.9355   7.9459   7.9687   8.0756

     occupation numbers 
     1.0000   1.0000   1.0000   1.0000   1.0000   1.0000   1.0000   1.0000
     1.0000   1.0000   1.0000   1.0000   1.0000   1.0000   1.0000   1.0000
     1.0000   1.0000   1.0000   1.0000   1.0000   1.0000   1.0000   1.0000
     1.0000   1.0000   1.0000   1.0000   1.0000   1.0000   1.0000   1.0000
     1.0000   1.0000   1.0000   1.0000   1.0000   1.0000   1.0000   1.0000
     1.0000   1.0000   1.0000   1.0000   1.0000   1.0000   1.0000   1.0000
     1.0000   1.0000   1.0000   1.0000   1.0000   1.0000   1.0000   1.0000
     1.0000   1.0000   1.0000   1.0000   1.0000   1.0000   1.0000   1.0000
     1.0000   1.0000   1.0000   1.0000   1.0000   1.0000   1.0000   1.0000
     1.0000   1.0000   1.0000   1.0000   1.0000   1.0000   1.0000   1.0000
     1.0000   1.0000   1.0000   1.0000   1.0000   1.0000   1.0000   1.0000
     1.0000   1.0000   1.0000   1.0000   1.0000   1.0000   1.0000   1.0000
     1.0000   1.0000   1.0000   1.0000   1.0000   1.0000   1.0000   1.0000
     1.0000   1.0000   1.0000   1.0000   1.0000   1.0000   1.0000   1.0000
     1.0000   1.0000   1.0000   1.0000   1.0000   1.0000   1.0000   1.0000
     1.0000   1.0000   1.0000   1.0000   1.0000   1.0000   1.0000   1.0000
     1.0000   1.0000   1.0000   1.0000   1.0000   1.0000   1.0000   1.0000
     1.0000   1.0000   1.0000   1.0000   1.0000   1.0000   1.0000   1.0000
     1.0000   1.0000   1.0000   1.0000   1.0000   1.0000   1.0000   1.0000
     1.0000   1.0000   1.0000   1.0000   1.0000   1.0000   1.0000   1.0000
     1.0000   1.0000   1.0000   1.0000   1.0000   1.0000   1.0000   1.0000
     1.0000   1.0000   1.0000   1.0000   1.0000   1.0000   1.0000   1.0000
     1.0000   1.0000   1.0000   1.0000   1.0000   1.0000   1.0000   1.0000
     1.0000   1.0000   1.0000   1.0000   1.0000   1.0000   1.0000   1.0000
     1.0000   1.0000   1.0000   1.0000   1.0000   1.0000   1.0000   1.0000
     1.0000   1.0000   1.0000   1.0000   1.0000   1.0000   1.0000   1.0000
     1.0000   1.0000   1.0000   1.0000   1.0000   1.0000   1.0000   1.0000
     1.0000   1.0000   1.0000   1.0000   1.0000   1.0000   1.0000   1.0000
     1.0000   1.0000   1.0000   1.0000   1.0000   1.0000   1.0000   1.0000
     1.0000   1.0000   1.0000   1.0000   1.0000   1.0000   1.0000   1.0000
     1.0000   1.0000   1.0000   1.0000   1.0000   1.0000   1.0000   1.0000
     1.0000   1.0000   1.0000   1.0000   1.0000   1.0000   1.0000   1.0000
     1.0000   1.0000   1.0000   1.0000   1.0000   1.0000   1.0000   1.0000
     1.0000   1.0000   1.0000   1.0000   1.0000   1.0000   1.0000   1.0000
     1.0000   1.0000   1.0000   1.0000   1.0000   1.0000   1.0000   1.0000
     1.0000   1.0000   1.0000   1.0000   1.0000   1.0000   1.0000   1.0000
     1.0000   1.0000   1.0000   1.0000   1.0000   1.0000   1.0000   1.0000
     1.0000   1.0000   1.0000   1.0000   1.0000   1.0000   1.0000   1.0000
     1.0000   1.0000   1.0000   1.0000   1.0000   1.0000   1.0000   1.0000
     1.0000   1.0000   1.0000   1.0000   1.0000   1.0000   1.0000   1.0000
     1.0000   1.0000   1.0000   1.0000   1.0000   1.0000   1.0000   1.0000
     1.0000   1.0000   1.0000   1.0000   1.0000   1.0000   1.0000   1.0000
     1.0000   1.0000   1.0000   1.0000   1.0000   1.0000   1.0000   1.0000
     1.0000   1.0000   1.0000   1.0000   1.0000   1.0000   1.0000   1.0000
     1.0000   1.0000   1.0000   1.0000   1.0000   1.0000   1.0000   1.0000
     1.0000   1.0000   1.0000   1.0000   1.0000   1.0000   1.0000   1.0000
     1.0000   1.0000   1.0000   1.0000   1.0000   1.0000   1.0000   1.0000
     1.0000   1.0000   1.0000   1.0000   1.0000   1.0000   1.0000   1.0000
     1.0000   1.0000   1.0000   1.0000   1.0000   1.0000   1.0000   1.0000
     1.0000   1.0000   1.0000   1.0000   1.0000   1.0000   1.0000   1.0000
     1.0000   1.0000   1.0000   1.0000   1.0000   1.0000   1.0000   1.0000
     1.0000   1.0000   1.0000   1.0000   1.0000   1.0000   1.0000   1.0000
     1.0000   1.0000   1.0000   1.0000   1.0000   1.0000   1.0000   1.0000
     1.0000   1.0000   1.0000   1.0000   1.0000   1.0000   1.0000   1.0000
     1.0000   1.0000   1.0000   1.0000   1.0000   1.0000   1.0000   1.0000
     1.0000   1.0000   1.0000   1.0000   1.0000   1.0000   1.0000   1.0000
     1.0000   1.0000   1.0000   1.0000   1.0000   1.0000   1.0000   1.0000
     1.0000   1.0000   1.0000   1.0000   1.0000   1.0000   1.0000   1.0000
     1.0000   1.0000   1.0000   1.0000   1.0000   1.0000   1.0000   1.0000
     1.0000   1.0000   1.0000   1.0000   1.0000   1.0000   1.0000   1.0000
     1.0000   1.0000   1.0000   1.0000   1.0000   1.0000   1.0000   1.0000
     1.0000   1.0000   1.0001   1.0002   1.0022   1.0026   1.0039   1.0091
     1.0097   1.0727   1.0736   0.5806   0.3659   0.0122   0.0101   0.0008
     0.0001   0.0001   0.0000   0.0000   0.0000   0.0000   0.0000   0.0000
     0.0000   0.0000   0.0000   0.0000   0.0000   0.0000   0.0000   0.0000
     0.0000   0.0000   0.0000   0.0000   0.0000   0.0000   0.0000   0.0000
     0.0000   0.0000   0.0000   0.0000   0.0000   0.0000   0.0000   0.0000
     0.0000   0.0000   0.0000   0.0000   0.0000   0.0000   0.0000   0.0000
     0.0000   0.0000   0.0000   0.0000   0.0000   0.0000   0.0000   0.0000
     0.0000   0.0000   0.0000   0.0000   0.0000   0.0000   0.0000   0.0000
     0.0000   0.0000   0.0000   0.0000   0.0000   0.0000   0.0000   0.0000
     0.0000   0.0000   0.0000   0.0000   0.0000   0.0000   0.0000   0.0000
     0.0000   0.0000   0.0000   0.0000   0.0000   0.0000   0.0000   0.0000
     0.0000   0.0000   0.0000   0.0000   0.0000   0.0000   0.0000   0.0000
     0.0000   0.0000   0.0000   0.0000   0.0000   0.0000   0.0000   0.0000

          k = 0.0000 0.3628 0.1846 ( 71963 PWs)   bands (ev):

  -125.2280-125.2265-125.2236-125.2234-125.2217-125.2209-125.2200-125.2193
  -125.1709-125.1698-125.1645-125.1633-125.1609-125.1603-125.1596-125.1590
  -125.0837-125.0822-125.0817-125.0802-125.0801-125.0793-125.0782-125.0779
  -125.0167-125.0161-125.0156-125.0151-125.0138-125.0130-125.0097-125.0068
  -124.9295-124.9284-124.9276-124.9263-124.9247-124.9242-124.9211-124.9161
  -124.9118-124.8684-124.8660-124.8646-124.8638-124.8632-124.8616-124.8582
   -79.3845 -79.3834 -79.3814 -79.3800 -79.3795 -79.3786 -79.3784 -79.3782
   -79.3776 -79.3770 -79.3761 -79.3753 -79.3748 -79.3745 -79.3744 -79.3741
   -79.3726 -79.3717 -79.3707 -79.3699 -79.3671 -79.3626 -79.3624 -79.3578
   -79.3277 -79.3259 -79.3248 -79.3220 -79.3215 -79.3209 -79.3198 -79.3197
   -79.3186 -79.3163 -79.3157 -79.3155 -79.3154 -79.3147 -79.3143 -79.3141
   -79.3118 -79.3113 -79.3104 -79.3102 -79.3098 -79.3040 -79.3028 -79.2983
   -79.2442 -79.2427 -79.2414 -79.2412 -79.2407 -79.2406 -79.2399 -79.2390
   -79.2384 -79.2377 -79.2360 -79.2358 -79.2324 -79.2309 -79.2301 -79.2287
   -79.2286 -79.2277 -79.2266 -79.2264 -79.2240 -79.2238 -79.2191 -79.2188
   -79.1780 -79.1773 -79.1769 -79.1765 -79.1762 -79.1750 -79.1742 -79.1735
   -79.1717 -79.1708 -79.1679 -79.1671 -79.1670 -79.1668 -79.1659 -79.1653
   -79.1640 -79.1638 -79.1605 -79.1595 -79.1576 -79.1560 -79.1548 -79.1496
   -79.0938 -79.0927 -79.0918 -79.0906 -79.0888 -79.0881 -79.0861 -79.0848
   -79.0844 -79.0815 -79.0813 -79.0806 -79.0795 -79.0795 -79.0786 -79.0773
   -79.0765 -79.0758 -79.0753 -79.0724 -79.0692 -79.0675 -79.0662 -79.0644
   -79.0628 -79.0584 -79.0520 -79.0380 -79.0360 -79.0344 -79.0340 -79.0331
   -79.0315 -79.0282 -79.0208 -79.0190 -79.0176 -79.0173 -79.0162 -79.0149
   -79.0147 -79.0124 -79.0114 -79.0098 -79.0019 -78.9979 -78.9930 -78.9930
   -18.9473 -15.8811 -13.8633 -13.1593 -11.3916 -10.0073  -9.1500  -8.2524
    -8.0557  -7.5798  -7.2652  -7.1833  -6.9828  -6.9592  -6.8630  -6.8183
    -6.7879  -6.7394  -6.7376  -6.7359  -6.7169  -6.7138  -6.6983  -6.6860
    -6.6824  -6.6674  -6.6626  -6.6583  -6.6551  -6.6439  -6.6416  -6.6291
    -6.6220  -6.6162  -6.6099  -6.6015  -6.5919  -6.5765  -6.5714  -6.5615
    -6.5584  -6.5566  -6.5531  -6.5502  -6.5437  -6.5343  -6.5238  -6.5096
    -6.5042  -6.4997  -6.4744  -6.4716  -6.4690  -6.4531  -6.4309  -6.4239
    -6.4185  -6.4149  -6.4083  -6.3942  -6.3922  -6.3910  -6.3836  -6.3827
    -6.3539  -6.3501  -6.3471  -6.3393  -6.3371  -6.3315  -6.3208  -6.3201
    -6.3044  -6.2884  -6.2871  -6.2827  -6.2733  -6.2701  -6.2684  -6.2645
    -6.2584  -6.2549  -6.2528  -6.2463  -6.2331  -6.2311  -6.2273  -6.2209
    -6.2196  -6.2178  -6.2044  -6.1968  -6.1746  -6.1646  -6.1593  -6.1468
    -6.1367  -6.1348  -6.1329  -6.1313  -6.1293  -6.1281  -6.1108  -6.1071
    -6.1024  -6.0984  -6.0968  -6.0891  -6.0852  -6.0817  -6.0791  -6.0763
    -6.0756  -6.0716  -6.0639  -6.0527  -6.0504  -6.0401  -6.0391  -6.0335
    -6.0199  -6.0137  -6.0112  -6.0022  -6.0000  -5.9906  -5.9889  -5.9769
    -5.9748  -5.9700  -5.9676  -5.9574  -5.9561  -5.9554  -5.9409  -5.9299
    -5.9246  -5.9169  -5.9140  -5.9092  -5.9067  -5.9036  -5.9005  -5.8981
    -5.8966  -5.8819  -5.8807  -5.8750  -5.8684  -5.8662  -5.8489  -5.8417
    -5.8268  -5.8215  -5.8198  -5.8192  -5.8156  -5.8099  -5.7935  -5.7923
    -5.7843  -5.7799  -5.7786  -5.7781  -5.7760  -5.7735  -5.7710  -5.7660
    -5.7643  -5.7624  -5.7597  -5.7569  -5.7553  -5.7448  -5.7435  -5.7359
    -5.7278  -5.7242  -5.7193  -5.7181  -5.7142  -5.7121  -5.7016  -5.6977
    -5.6973  -5.6947  -5.6899  -5.6826  -5.6816  -5.6785  -5.6772  -5.6735
    -5.6702  -5.6670  -5.6656  -5.6633  -5.6557  -5.6513  -5.6498  -5.6484
    -5.6453  -5.6434  -5.6397  -5.6345  -5.6328  -5.6318  -5.6287  -5.6256
    -5.6223  -5.6189  -5.6147  -5.6138  -5.6102  -5.6052  -5.5974  -5.5940
    -5.5905  -5.5854  -5.5847  -5.5816  -5.5776  -5.5773  -5.5712  -5.5680
    -5.5638  -5.5585  -5.5534  -5.5466  -5.5433  -5.5401  -5.5372  -5.5350
    -5.5320  -5.5296  -5.5222  -5.5198  -5.5168  -5.5157  -5.5140  -5.5115
    -5.5029  -5.4991  -5.4842  -5.4805  -5.4798  -5.4786  -5.4725  -5.4599
    -5.4386  -5.4141  -5.4109  -5.3979  -5.3889  -5.3612  -5.3474  -5.3312
    -5.2707  -5.0796  -4.9615  -4.8842  -4.8763  -4.8341  -4.5504  -4.5197
    -4.3148  -4.2311  -3.8880  -3.8769  -3.4421  -3.2697  -3.2578  -3.2461
    -3.2365  -2.8039  -2.7170  -2.6762  -2.4944  -2.4377  -2.2076  -1.7444
    -1.7350  -1.6140  -1.5302  -1.4007  -1.3931  -1.1970  -1.0814  -1.0035
    -0.9529  -0.8196  -0.6881  -0.6473  -0.5332  -0.4800  -0.4564  -0.1780
     0.0756   0.1369   0.2319   0.3293   0.4732   0.5472   0.6417   0.7538
     0.8415   0.9396   1.2461   1.3264   1.3533   1.4828   1.5212   1.7353
     1.7713   1.9564   2.0854   2.1649   2.3375   2.4017   2.4078   2.5635
     2.6827   3.0156   3.0569   3.1752   3.3051   3.3987   3.4994   3.5436
     3.6903   3.7637   3.8008   3.8267   3.8415   3.9217   4.0459   4.2079
     4.2854   4.3850   4.4216   4.4358   4.4487   4.5570   4.6190   4.6994
     4.7729   4.8401   4.9033   4.9897   4.9976   5.0068   5.0922   5.1522
     5.2719   5.3046   5.3504   5.4974   5.5128   5.5389   5.5775   5.6325
     5.7744   5.8099   5.8376   5.9240   6.0091   6.1343   6.1727   6.2474
     6.2571   6.3080   6.3181   6.3582   6.4210   6.4741   6.4826   6.6378
     6.6789   6.6861   6.7597   6.7984   6.8897   6.9568   6.9928   7.0304
     7.0774   7.1033   7.1987   7.2626   7.2950   7.3092   7.3510   7.4005
     7.4593   7.4838   7.5381   7.5923   7.6409   7.6828   7.7301   7.7627
     7.7746   7.8021   7.8540   7.9120   7.9505   7.9948   8.0532   8.1045

     occupation numbers 
     1.0000   1.0000   1.0000   1.0000   1.0000   1.0000   1.0000   1.0000
     1.0000   1.0000   1.0000   1.0000   1.0000   1.0000   1.0000   1.0000
     1.0000   1.0000   1.0000   1.0000   1.0000   1.0000   1.0000   1.0000
     1.0000   1.0000   1.0000   1.0000   1.0000   1.0000   1.0000   1.0000
     1.0000   1.0000   1.0000   1.0000   1.0000   1.0000   1.0000   1.0000
     1.0000   1.0000   1.0000   1.0000   1.0000   1.0000   1.0000   1.0000
     1.0000   1.0000   1.0000   1.0000   1.0000   1.0000   1.0000   1.0000
     1.0000   1.0000   1.0000   1.0000   1.0000   1.0000   1.0000   1.0000
     1.0000   1.0000   1.0000   1.0000   1.0000   1.0000   1.0000   1.0000
     1.0000   1.0000   1.0000   1.0000   1.0000   1.0000   1.0000   1.0000
     1.0000   1.0000   1.0000   1.0000   1.0000   1.0000   1.0000   1.0000
     1.0000   1.0000   1.0000   1.0000   1.0000   1.0000   1.0000   1.0000
     1.0000   1.0000   1.0000   1.0000   1.0000   1.0000   1.0000   1.0000
     1.0000   1.0000   1.0000   1.0000   1.0000   1.0000   1.0000   1.0000
     1.0000   1.0000   1.0000   1.0000   1.0000   1.0000   1.0000   1.0000
     1.0000   1.0000   1.0000   1.0000   1.0000   1.0000   1.0000   1.0000
     1.0000   1.0000   1.0000   1.0000   1.0000   1.0000   1.0000   1.0000
     1.0000   1.0000   1.0000   1.0000   1.0000   1.0000   1.0000   1.0000
     1.0000   1.0000   1.0000   1.0000   1.0000   1.0000   1.0000   1.0000
     1.0000   1.0000   1.0000   1.0000   1.0000   1.0000   1.0000   1.0000
     1.0000   1.0000   1.0000   1.0000   1.0000   1.0000   1.0000   1.0000
     1.0000   1.0000   1.0000   1.0000   1.0000   1.0000   1.0000   1.0000
     1.0000   1.0000   1.0000   1.0000   1.0000   1.0000   1.0000   1.0000
     1.0000   1.0000   1.0000   1.0000   1.0000   1.0000   1.0000   1.0000
     1.0000   1.0000   1.0000   1.0000   1.0000   1.0000   1.0000   1.0000
     1.0000   1.0000   1.0000   1.0000   1.0000   1.0000   1.0000   1.0000
     1.0000   1.0000   1.0000   1.0000   1.0000   1.0000   1.0000   1.0000
     1.0000   1.0000   1.0000   1.0000   1.0000   1.0000   1.0000   1.0000
     1.0000   1.0000   1.0000   1.0000   1.0000   1.0000   1.0000   1.0000
     1.0000   1.0000   1.0000   1.0000   1.0000   1.0000   1.0000   1.0000
     1.0000   1.0000   1.0000   1.0000   1.0000   1.0000   1.0000   1.0000
     1.0000   1.0000   1.0000   1.0000   1.0000   1.0000   1.0000   1.0000
     1.0000   1.0000   1.0000   1.0000   1.0000   1.0000   1.0000   1.0000
     1.0000   1.0000   1.0000   1.0000   1.0000   1.0000   1.0000   1.0000
     1.0000   1.0000   1.0000   1.0000   1.0000   1.0000   1.0000   1.0000
     1.0000   1.0000   1.0000   1.0000   1.0000   1.0000   1.0000   1.0000
     1.0000   1.0000   1.0000   1.0000   1.0000   1.0000   1.0000   1.0000
     1.0000   1.0000   1.0000   1.0000   1.0000   1.0000   1.0000   1.0000
     1.0000   1.0000   1.0000   1.0000   1.0000   1.0000   1.0000   1.0000
     1.0000   1.0000   1.0000   1.0000   1.0000   1.0000   1.0000   1.0000
     1.0000   1.0000   1.0000   1.0000   1.0000   1.0000   1.0000   1.0000
     1.0000   1.0000   1.0000   1.0000   1.0000   1.0000   1.0000   1.0000
     1.0000   1.0000   1.0000   1.0000   1.0000   1.0000   1.0000   1.0000
     1.0000   1.0000   1.0000   1.0000   1.0000   1.0000   1.0000   1.0000
     1.0000   1.0000   1.0000   1.0000   1.0000   1.0000   1.0000   1.0000
     1.0000   1.0000   1.0000   1.0000   1.0000   1.0000   1.0000   1.0000
     1.0000   1.0000   1.0000   1.0000   1.0000   1.0000   1.0000   1.0000
     1.0000   1.0000   1.0000   1.0000   1.0000   1.0000   1.0000   1.0000
     1.0000   1.0000   1.0000   1.0000   1.0000   1.0000   1.0000   1.0000
     1.0000   1.0000   1.0000   1.0000   1.0000   1.0000   1.0000   1.0000
     1.0000   1.0000   1.0000   1.0000   1.0000   1.0000   1.0000   1.0000
     1.0000   1.0000   1.0000   1.0000   1.0000   1.0000   1.0000   1.0000
     1.0000   1.0000   1.0000   1.0000   1.0000   1.0000   1.0000   1.0000
     1.0000   1.0000   1.0000   1.0000   1.0000   1.0000   1.0000   1.0000
     1.0000   1.0000   1.0000   1.0000   1.0000   1.0000   1.0000   1.0000
     1.0000   1.0000   1.0000   1.0000   1.0000   1.0000   1.0000   1.0000
     1.0000   1.0000   1.0000   1.0000   1.0000   1.0000   1.0000   1.0000
     1.0000   1.0000   1.0000   1.0000   1.0000   1.0000   1.0000   1.0000
     1.0000   1.0000   1.0000   1.0000   1.0000   1.0000   1.0000   1.0000
     1.0000   1.0000   1.0000   1.0000   1.0000   1.0000   1.0000   1.0000
     1.0000   1.0000   1.0000   1.0000   1.0000   1.0000   1.0000   1.0000
     1.0000   1.0000   1.0000   1.0002   1.0023   1.0067   1.0205   1.0532
     1.0796   1.0682   0.4427   0.2556   0.2056   0.0559   0.0351   0.0013
     0.0007   0.0000   0.0000   0.0000   0.0000   0.0000   0.0000   0.0000
     0.0000   0.0000   0.0000   0.0000   0.0000   0.0000   0.0000   0.0000
     0.0000   0.0000   0.0000   0.0000   0.0000   0.0000   0.0000   0.0000
     0.0000   0.0000   0.0000   0.0000   0.0000   0.0000   0.0000   0.0000
     0.0000   0.0000   0.0000   0.0000   0.0000   0.0000   0.0000   0.0000
     0.0000   0.0000   0.0000   0.0000   0.0000   0.0000   0.0000   0.0000
     0.0000   0.0000   0.0000   0.0000   0.0000   0.0000   0.0000   0.0000
     0.0000   0.0000   0.0000   0.0000   0.0000   0.0000   0.0000   0.0000
     0.0000   0.0000   0.0000   0.0000   0.0000   0.0000   0.0000   0.0000
     0.0000   0.0000   0.0000   0.0000   0.0000   0.0000   0.0000   0.0000
     0.0000   0.0000   0.0000   0.0000   0.0000   0.0000   0.0000   0.0000
     0.0000   0.0000   0.0000   0.0000   0.0000   0.0000   0.0000   0.0000

          k = 0.3333 0.0811 0.7384 ( 72005 PWs)   bands (ev):

  -125.2280-125.2265-125.2237-125.2234-125.2217-125.2208-125.2201-125.2192
  -125.1709-125.1698-125.1645-125.1633-125.1609-125.1600-125.1599-125.1589
  -125.0837-125.0822-125.0817-125.0802-125.0802-125.0794-125.0782-125.0779
  -125.0167-125.0161-125.0153-125.0153-125.0138-125.0130-125.0097-125.0068
  -124.9295-124.9284-124.9276-124.9264-124.9247-124.9242-124.9211-124.9161
  -124.9118-124.8684-124.8660-124.8645-124.8638-124.8632-124.8616-124.8582
   -79.3861 -79.3834 -79.3814 -79.3811 -79.3786 -79.3785 -79.3781 -79.3776
   -79.3770 -79.3759 -79.3755 -79.3751 -79.3746 -79.3744 -79.3741 -79.3727
   -79.3718 -79.3715 -79.3710 -79.3699 -79.3687 -79.3685 -79.3610 -79.3561
   -79.3289 -79.3259 -79.3248 -79.3220 -79.3213 -79.3209 -79.3198 -79.3186
   -79.3167 -79.3164 -79.3155 -79.3154 -79.3152 -79.3149 -79.3143 -79.3141
   -79.3119 -79.3110 -79.3108 -79.3097 -79.3091 -79.3089 -79.3028 -79.2967
   -79.2442 -79.2428 -79.2424 -79.2423 -79.2413 -79.2406 -79.2399 -79.2390
   -79.2384 -79.2377 -79.2324 -79.2311 -79.2307 -79.2302 -79.2300 -79.2296
   -79.2293 -79.2287 -79.2285 -79.2277 -79.2265 -79.2263 -79.2175 -79.2174
   -79.1781 -79.1780 -79.1773 -79.1767 -79.1765 -79.1750 -79.1747 -79.1741
   -79.1708 -79.1679 -79.1671 -79.1669 -79.1660 -79.1658 -79.1654 -79.1652
   -79.1639 -79.1638 -79.1621 -79.1611 -79.1603 -79.1576 -79.1532 -79.1484
   -79.0938 -79.0927 -79.0918 -79.0906 -79.0888 -79.0881 -79.0877 -79.0854
   -79.0847 -79.0815 -79.0806 -79.0795 -79.0795 -79.0786 -79.0773 -79.0758
   -79.0756 -79.0754 -79.0748 -79.0724 -79.0720 -79.0706 -79.0675 -79.0628
   -79.0628 -79.0574 -79.0520 -79.0380 -79.0360 -79.0344 -79.0340 -79.0331
   -79.0315 -79.0282 -79.0208 -79.0190 -79.0175 -79.0172 -79.0164 -79.0162
   -79.0147 -79.0119 -79.0114 -79.0040 -79.0038 -79.0028 -78.9926 -78.9914
   -18.9473 -15.8811 -13.8633 -13.1593 -11.3916 -10.0073  -9.1500  -8.2524
    -8.0888  -7.7197  -7.1841  -6.9914  -6.9741  -6.9475  -6.8828  -6.8809
    -6.8745  -6.7937  -6.7828  -6.7803  -6.7790  -6.7452  -6.7359  -6.7301
    -6.6874  -6.6731  -6.6727  -6.6709  -6.6435  -6.6167  -6.6119  -6.6041
    -6.5935  -6.5904  -6.5766  -6.5716  -6.5683  -6.5590  -6.5524  -6.5279
    -6.5252  -6.5167  -6.5139  -6.5021  -6.4933  -6.4910  -6.4881  -6.4863
    -6.4852  -6.4836  -6.4725  -6.4558  -6.4516  -6.4494  -6.4472  -6.4318
    -6.4269  -6.4149  -6.4109  -6.4094  -6.3937  -6.3842  -6.3776  -6.3632
    -6.3575  -6.3507  -6.3500  -6.3495  -6.3467  -6.3407  -6.3161  -6.3009
    -6.2955  -6.2827  -6.2817  -6.2803  -6.2714  -6.2706  -6.2685  -6.2489
    -6.2427  -6.2375  -6.2367  -6.2296  -6.2227  -6.2161  -6.1966  -6.1920
    -6.1914  -6.1870  -6.1820  -6.1777  -6.1739  -6.1722  -6.1635  -6.1625
    -6.1575  -6.1526  -6.1358  -6.1320  -6.1305  -6.1279  -6.1151  -6.1090
    -6.1021  -6.0908  -6.0800  -6.0665  -6.0647  -6.0628  -6.0611  -6.0602
    -6.0595  -6.0589  -6.0462  -6.0375  -6.0310  -6.0296  -6.0217  -6.0136
    -6.0025  -5.9971  -5.9918  -5.9885  -5.9697  -5.9694  -5.9679  -5.9663
    -5.9631  -5.9616  -5.9612  -5.9598  -5.9585  -5.9373  -5.9364  -5.9350
    -5.9312  -5.9261  -5.9139  -5.9090  -5.9060  -5.8988  -5.8944  -5.8818
    -5.8798  -5.8786  -5.8662  -5.8651  -5.8632  -5.8509  -5.8477  -5.8460
    -5.8424  -5.8380  -5.8363  -5.8316  -5.8301  -5.8299  -5.8262  -5.8233
    -5.8189  -5.8097  -5.8053  -5.8023  -5.7981  -5.7905  -5.7859  -5.7846
    -5.7801  -5.7795  -5.7786  -5.7754  -5.7745  -5.7669  -5.7587  -5.7571
    -5.7542  -5.7522  -5.7453  -5.7368  -5.7338  -5.7310  -5.7291  -5.7263
    -5.7244  -5.7176  -5.7155  -5.7050  -5.7000  -5.6958  -5.6934  -5.6911
    -5.6899  -5.6877  -5.6791  -5.6739  -5.6711  -5.6694  -5.6643  -5.6541
    -5.6526  -5.6513  -5.6495  -5.6465  -5.6389  -5.6385  -5.6354  -5.6317
    -5.6273  -5.6231  -5.6184  -5.6169  -5.6149  -5.6144  -5.6103  -5.6071
    -5.5996  -5.5973  -5.5956  -5.5934  -5.5850  -5.5845  -5.5813  -5.5801
    -5.5775  -5.5658  -5.5641  -5.5629  -5.5606  -5.5555  -5.5536  -5.5462
    -5.5338  -5.5319  -5.5303  -5.5242  -5.5197  -5.5135  -5.5005  -5.4950
    -5.4885  -5.4574  -5.4560  -5.4557  -5.4499  -5.4448  -5.4405  -5.4403
    -5.4355  -5.4144  -5.3823  -5.3712  -5.3303  -5.3269  -5.3268  -5.2980
    -5.2902  -5.0918  -5.0752  -5.0015  -4.9702  -4.8342  -4.4733  -4.3963
    -4.3144  -4.1793  -3.9635  -3.8801  -3.8443  -3.4447  -3.3919  -3.3733
    -3.2660  -2.7866  -2.7364  -2.7314  -2.1860  -1.9080  -1.8581  -1.8568
    -1.7896  -1.5596  -1.4888  -1.2250  -1.1969  -1.0764  -1.0763  -0.9570
    -0.9401  -0.7598  -0.6051  -0.4516  -0.4106  -0.3474  -0.2957  -0.2908
    -0.2052  -0.1937   0.2307   0.4035   0.4718   0.5503   0.7293   0.7347
     0.7501   0.9398   1.2553   1.3173   1.4532   1.4639   1.5067   1.5116
     1.7663   1.7873   1.8967   1.9685   2.0812   2.1208   2.3169   2.6690
     2.7266   2.7596   2.9269   2.9406   2.9523   2.9653   3.4247   3.4403
     3.4803   3.6322   3.6694   3.7569   3.8982   4.0578   4.2092   4.2545
     4.3028   4.3277   4.4291   4.4421   4.5176   4.5243   4.6280   4.8292
     4.8802   4.9355   4.9413   4.9747   5.0161   5.0858   5.1096   5.3391
     5.3488   5.3848   5.4203   5.5789   5.5816   5.6639   5.7001   5.7368
     5.7932   6.0001   6.0794   6.0860   6.1037   6.2496   6.3318   6.3771
     6.3866   6.4944   6.5190   6.5799   6.5866   6.6178   6.6435   6.7365
     6.7692   6.8881   6.8949   6.9139   6.9220   6.9992   7.0476   7.1177
     7.1305   7.1465   7.2186   7.2417   7.2759   7.3542   7.4184   7.4408
     7.4550   7.4782   7.5322   7.5534   7.5905   7.5960   7.6443   7.7061
     7.7752   7.8135   7.8946   7.9443   7.9669   7.9800   8.0030   8.0139

     occupation numbers 
     1.0000   1.0000   1.0000   1.0000   1.0000   1.0000   1.0000   1.0000
     1.0000   1.0000   1.0000   1.0000   1.0000   1.0000   1.0000   1.0000
     1.0000   1.0000   1.0000   1.0000   1.0000   1.0000   1.0000   1.0000
     1.0000   1.0000   1.0000   1.0000   1.0000   1.0000   1.0000   1.0000
     1.0000   1.0000   1.0000   1.0000   1.0000   1.0000   1.0000   1.0000
     1.0000   1.0000   1.0000   1.0000   1.0000   1.0000   1.0000   1.0000
     1.0000   1.0000   1.0000   1.0000   1.0000   1.0000   1.0000   1.0000
     1.0000   1.0000   1.0000   1.0000   1.0000   1.0000   1.0000   1.0000
     1.0000   1.0000   1.0000   1.0000   1.0000   1.0000   1.0000   1.0000
     1.0000   1.0000   1.0000   1.0000   1.0000   1.0000   1.0000   1.0000
     1.0000   1.0000   1.0000   1.0000   1.0000   1.0000   1.0000   1.0000
     1.0000   1.0000   1.0000   1.0000   1.0000   1.0000   1.0000   1.0000
     1.0000   1.0000   1.0000   1.0000   1.0000   1.0000   1.0000   1.0000
     1.0000   1.0000   1.0000   1.0000   1.0000   1.0000   1.0000   1.0000
     1.0000   1.0000   1.0000   1.0000   1.0000   1.0000   1.0000   1.0000
     1.0000   1.0000   1.0000   1.0000   1.0000   1.0000   1.0000   1.0000
     1.0000   1.0000   1.0000   1.0000   1.0000   1.0000   1.0000   1.0000
     1.0000   1.0000   1.0000   1.0000   1.0000   1.0000   1.0000   1.0000
     1.0000   1.0000   1.0000   1.0000   1.0000   1.0000   1.0000   1.0000
     1.0000   1.0000   1.0000   1.0000   1.0000   1.0000   1.0000   1.0000
     1.0000   1.0000   1.0000   1.0000   1.0000   1.0000   1.0000   1.0000
     1.0000   1.0000   1.0000   1.0000   1.0000   1.0000   1.0000   1.0000
     1.0000   1.0000   1.0000   1.0000   1.0000   1.0000   1.0000   1.0000
     1.0000   1.0000   1.0000   1.0000   1.0000   1.0000   1.0000   1.0000
     1.0000   1.0000   1.0000   1.0000   1.0000   1.0000   1.0000   1.0000
     1.0000   1.0000   1.0000   1.0000   1.0000   1.0000   1.0000   1.0000
     1.0000   1.0000   1.0000   1.0000   1.0000   1.0000   1.0000   1.0000
     1.0000   1.0000   1.0000   1.0000   1.0000   1.0000   1.0000   1.0000
     1.0000   1.0000   1.0000   1.0000   1.0000   1.0000   1.0000   1.0000
     1.0000   1.0000   1.0000   1.0000   1.0000   1.0000   1.0000   1.0000
     1.0000   1.0000   1.0000   1.0000   1.0000   1.0000   1.0000   1.0000
     1.0000   1.0000   1.0000   1.0000   1.0000   1.0000   1.0000   1.0000
     1.0000   1.0000   1.0000   1.0000   1.0000   1.0000   1.0000   1.0000
     1.0000   1.0000   1.0000   1.0000   1.0000   1.0000   1.0000   1.0000
     1.0000   1.0000   1.0000   1.0000   1.0000   1.0000   1.0000   1.0000
     1.0000   1.0000   1.0000   1.0000   1.0000   1.0000   1.0000   1.0000
     1.0000   1.0000   1.0000   1.0000   1.0000   1.0000   1.0000   1.0000
     1.0000   1.0000   1.0000   1.0000   1.0000   1.0000   1.0000   1.0000
     1.0000   1.0000   1.0000   1.0000   1.0000   1.0000   1.0000   1.0000
     1.0000   1.0000   1.0000   1.0000   1.0000   1.0000   1.0000   1.0000
     1.0000   1.0000   1.0000   1.0000   1.0000   1.0000   1.0000   1.0000
     1.0000   1.0000   1.0000   1.0000   1.0000   1.0000   1.0000   1.0000
     1.0000   1.0000   1.0000   1.0000   1.0000   1.0000   1.0000   1.0000
     1.0000   1.0000   1.0000   1.0000   1.0000   1.0000   1.0000   1.0000
     1.0000   1.0000   1.0000   1.0000   1.0000   1.0000   1.0000   1.0000
     1.0000   1.0000   1.0000   1.0000   1.0000   1.0000   1.0000   1.0000
     1.0000   1.0000   1.0000   1.0000   1.0000   1.0000   1.0000   1.0000
     1.0000   1.0000   1.0000   1.0000   1.0000   1.0000   1.0000   1.0000
     1.0000   1.0000   1.0000   1.0000   1.0000   1.0000   1.0000   1.0000
     1.0000   1.0000   1.0000   1.0000   1.0000   1.0000   1.0000   1.0000
     1.0000   1.0000   1.0000   1.0000   1.0000   1.0000   1.0000   1.0000
     1.0000   1.0000   1.0000   1.0000   1.0000   1.0000   1.0000   1.0000
     1.0000   1.0000   1.0000   1.0000   1.0000   1.0000   1.0000   1.0000
     1.0000   1.0000   1.0000   1.0000   1.0000   1.0000   1.0000   1.0000
     1.0000   1.0000   1.0000   1.0000   1.0000   1.0000   1.0000   1.0000
     1.0000   1.0000   1.0000   1.0000   1.0000   1.0000   1.0000   1.0000
     1.0000   1.0000   1.0000   1.0000   1.0000   1.0000   1.0000   1.0000
     1.0000   1.0000   1.0000   1.0000   1.0000   1.0000   1.0000   1.0000
     1.0000   1.0000   1.0000   1.0000   1.0000   1.0000   1.0000   1.0000
     1.0000   1.0000   1.0000   1.0000   1.0000   1.0000   1.0000   1.0000
     1.0000   1.0000   1.0000   1.0000   1.0000   1.0000   1.0000   1.0000
     1.0000   1.0000   1.0000   1.0007   1.0022   1.0069   1.0449   1.0467
     1.0520   1.0680   0.4189   0.2741   0.0781   0.0695   0.0420   0.0395
     0.0007   0.0005   0.0000   0.0000   0.0000   0.0000   0.0000   0.0000
     0.0000   0.0000   0.0000   0.0000   0.0000   0.0000   0.0000   0.0000
     0.0000   0.0000   0.0000   0.0000   0.0000   0.0000   0.0000   0.0000
     0.0000   0.0000   0.0000   0.0000   0.0000   0.0000   0.0000   0.0000
     0.0000   0.0000   0.0000   0.0000   0.0000   0.0000   0.0000   0.0000
     0.0000   0.0000   0.0000   0.0000   0.0000   0.0000   0.0000   0.0000
     0.0000   0.0000   0.0000   0.0000   0.0000   0.0000   0.0000   0.0000
     0.0000   0.0000   0.0000   0.0000   0.0000   0.0000   0.0000   0.0000
     0.0000   0.0000   0.0000   0.0000   0.0000   0.0000   0.0000   0.0000
     0.0000   0.0000   0.0000   0.0000   0.0000   0.0000   0.0000   0.0000
     0.0000   0.0000   0.0000   0.0000   0.0000   0.0000   0.0000   0.0000
     0.0000   0.0000   0.0000   0.0000   0.0000   0.0000   0.0000   0.0000

          k = 0.3333 0.4439 0.9230 ( 71974 PWs)   bands (ev):

  -125.2280-125.2265-125.2236-125.2234-125.2217-125.2209-125.2200-125.2193
  -125.1709-125.1698-125.1645-125.1633-125.1609-125.1603-125.1596-125.1590
  -125.0837-125.0822-125.0817-125.0802-125.0801-125.0793-125.0782-125.0779
  -125.0167-125.0161-125.0156-125.0151-125.0138-125.0130-125.0097-125.0068
  -124.9295-124.9284-124.9276-124.9263-124.9247-124.9242-124.9211-124.9161
  -124.9118-124.8684-124.8660-124.8646-124.8638-124.8632-124.8616-124.8582
   -79.3845 -79.3834 -79.3814 -79.3800 -79.3795 -79.3786 -79.3784 -79.3782
   -79.3776 -79.3770 -79.3761 -79.3753 -79.3748 -79.3745 -79.3744 -79.3741
   -79.3726 -79.3717 -79.3707 -79.3699 -79.3671 -79.3626 -79.3624 -79.3578
   -79.3277 -79.3259 -79.3248 -79.3220 -79.3215 -79.3209 -79.3198 -79.3197
   -79.3186 -79.3163 -79.3157 -79.3155 -79.3154 -79.3147 -79.3143 -79.3141
   -79.3118 -79.3113 -79.3104 -79.3102 -79.3098 -79.3040 -79.3028 -79.2983
   -79.2442 -79.2427 -79.2414 -79.2412 -79.2407 -79.2406 -79.2399 -79.2390
   -79.2384 -79.2377 -79.2360 -79.2358 -79.2324 -79.2309 -79.2301 -79.2287
   -79.2286 -79.2277 -79.2266 -79.2264 -79.2240 -79.2238 -79.2191 -79.2188
   -79.1780 -79.1773 -79.1769 -79.1765 -79.1762 -79.1750 -79.1742 -79.1735
   -79.1717 -79.1708 -79.1679 -79.1671 -79.1670 -79.1668 -79.1659 -79.1653
   -79.1640 -79.1638 -79.1605 -79.1595 -79.1576 -79.1560 -79.1548 -79.1496
   -79.0938 -79.0927 -79.0918 -79.0906 -79.0888 -79.0881 -79.0861 -79.0848
   -79.0844 -79.0815 -79.0813 -79.0806 -79.0795 -79.0795 -79.0786 -79.0773
   -79.0765 -79.0758 -79.0753 -79.0724 -79.0692 -79.0675 -79.0662 -79.0644
   -79.0628 -79.0584 -79.0520 -79.0380 -79.0360 -79.0344 -79.0340 -79.0331
   -79.0315 -79.0282 -79.0208 -79.0190 -79.0176 -79.0172 -79.0162 -79.0149
   -79.0147 -79.0124 -79.0114 -79.0098 -79.0019 -78.9979 -78.9930 -78.9930
   -18.9473 -15.8811 -13.8633 -13.1593 -11.3916 -10.0073  -9.1500  -8.2523
    -7.8606  -7.6762  -7.5797  -7.1836  -6.9826  -6.8744  -6.8605  -6.8071
    -6.8020  -6.7626  -6.7475  -6.7116  -6.6988  -6.6980  -6.6879  -6.6856
    -6.6816  -6.6742  -6.6568  -6.6550  -6.6437  -6.6418  -6.6304  -6.6293
    -6.6284  -6.6168  -6.6147  -6.6014  -6.5959  -6.5927  -6.5898  -6.5602
    -6.5579  -6.5528  -6.5502  -6.5343  -6.5336  -6.5271  -6.5238  -6.5097
    -6.5046  -6.4994  -6.4766  -6.4688  -6.4531  -6.4523  -6.4432  -6.4305
    -6.4236  -6.4158  -6.4083  -6.3945  -6.3933  -6.3832  -6.3821  -6.3618
    -6.3539  -6.3505  -6.3452  -6.3416  -6.3386  -6.3313  -6.3216  -6.3195
    -6.3043  -6.2891  -6.2842  -6.2822  -6.2715  -6.2690  -6.2648  -6.2610
    -6.2571  -6.2545  -6.2488  -6.2341  -6.2320  -6.2252  -6.2205  -6.2183
    -6.2044  -6.2004  -6.1986  -6.1967  -6.1843  -6.1777  -6.1739  -6.1674
    -6.1647  -6.1471  -6.1332  -6.1309  -6.1295  -6.1286  -6.1248  -6.1106
    -6.1093  -6.1051  -6.1020  -6.0978  -6.0961  -6.0804  -6.0759  -6.0722
    -6.0711  -6.0639  -6.0530  -6.0461  -6.0404  -6.0341  -6.0306  -6.0244
    -6.0198  -6.0140  -6.0024  -5.9985  -5.9914  -5.9900  -5.9876  -5.9855
    -5.9771  -5.9745  -5.9687  -5.9566  -5.9469  -5.9431  -5.9355  -5.9233
    -5.9207  -5.9182  -5.9166  -5.9087  -5.9059  -5.9050  -5.9029  -5.8982
    -5.8958  -5.8939  -5.8815  -5.8750  -5.8661  -5.8650  -5.8535  -5.8504
    -5.8483  -5.8390  -5.8306  -5.8215  -5.8198  -5.8106  -5.8032  -5.7947
    -5.7933  -5.7924  -5.7811  -5.7801  -5.7791  -5.7779  -5.7731  -5.7665
    -5.7622  -5.7602  -5.7562  -5.7545  -5.7529  -5.7448  -5.7447  -5.7369
    -5.7324  -5.7265  -5.7240  -5.7230  -5.7180  -5.7141  -5.7059  -5.7047
    -5.7020  -5.7002  -5.6971  -5.6891  -5.6774  -5.6733  -5.6713  -5.6701
    -5.6669  -5.6639  -5.6629  -5.6599  -5.6558  -5.6541  -5.6512  -5.6505
    -5.6381  -5.6332  -5.6323  -5.6302  -5.6286  -5.6246  -5.6218  -5.6199
    -5.6188  -5.6182  -5.6145  -5.6077  -5.6050  -5.5982  -5.5972  -5.5938
    -5.5934  -5.5907  -5.5895  -5.5854  -5.5809  -5.5790  -5.5770  -5.5680
    -5.5663  -5.5625  -5.5582  -5.5536  -5.5455  -5.5405  -5.5360  -5.5326
    -5.5294  -5.5248  -5.5222  -5.5202  -5.5199  -5.5192  -5.5123  -5.5031
    -5.4997  -5.4974  -5.4862  -5.4816  -5.4803  -5.4784  -5.4727  -5.4608
    -5.4288  -5.4189  -5.4124  -5.3990  -5.3705  -5.3664  -5.3285  -5.1506
    -5.0797  -5.0031  -4.9616  -4.8843  -4.8766  -4.8338  -4.6047  -4.5202
    -4.3149  -4.2306  -4.0077  -3.8800  -3.6295  -3.2720  -3.2562  -3.2365
    -2.9732  -2.8034  -2.7169  -2.6732  -2.6136  -2.4376  -2.2078  -2.1224
    -2.1088  -1.9936  -1.9589  -1.4010  -1.3931  -1.1970  -1.0038  -0.9500
    -0.9339  -0.6879  -0.5332  -0.4798  -0.3366  -0.1780   0.0050   0.0909
     0.1365   0.2256   0.2320   0.5476   0.5930   0.6788   0.7686   0.7744
     0.8420   0.9505   1.1442   1.2612   1.4780   1.4834   1.6447   1.7379
     1.7721   1.9565   2.0861   2.1038   2.3372   2.3461   2.4110   2.4162
     2.6822   2.8516   2.9721   3.0147   3.0570   3.2312   3.2484   3.3962
     3.5001   3.5435   3.6297   3.7949   3.8093   3.8275   4.0462   4.1263
     4.1828   4.2259   4.2430   4.2866   4.4054   4.4244   4.5401   4.6022
     4.6965   4.8434   4.9738   5.0010   5.1492   5.1544   5.1594   5.1837
     5.3715   5.4251   5.4753   5.4986   5.5667   5.5871   5.6071   5.6298
     5.7748   5.9104   5.9272   6.0156   6.0950   6.1638   6.1940   6.2473
     6.2916   6.3061   6.3546   6.4189   6.4325   6.4873   6.5385   6.6475
     6.6785   6.7060   6.7373   6.7501   6.7612   6.7773   6.8795   7.0045
     7.0826   7.1007   7.1680   7.2325   7.2837   7.3353   7.3864   7.4580
     7.5278   7.5544   7.5628   7.6583   7.7011   7.7552   7.8027   7.8838
     7.9180   7.9611   7.9947   8.0527   8.0963   8.1649   8.1850   8.2044

     occupation numbers 
     1.0000   1.0000   1.0000   1.0000   1.0000   1.0000   1.0000   1.0000
     1.0000   1.0000   1.0000   1.0000   1.0000   1.0000   1.0000   1.0000
     1.0000   1.0000   1.0000   1.0000   1.0000   1.0000   1.0000   1.0000
     1.0000   1.0000   1.0000   1.0000   1.0000   1.0000   1.0000   1.0000
     1.0000   1.0000   1.0000   1.0000   1.0000   1.0000   1.0000   1.0000
     1.0000   1.0000   1.0000   1.0000   1.0000   1.0000   1.0000   1.0000
     1.0000   1.0000   1.0000   1.0000   1.0000   1.0000   1.0000   1.0000
     1.0000   1.0000   1.0000   1.0000   1.0000   1.0000   1.0000   1.0000
     1.0000   1.0000   1.0000   1.0000   1.0000   1.0000   1.0000   1.0000
     1.0000   1.0000   1.0000   1.0000   1.0000   1.0000   1.0000   1.0000
     1.0000   1.0000   1.0000   1.0000   1.0000   1.0000   1.0000   1.0000
     1.0000   1.0000   1.0000   1.0000   1.0000   1.0000   1.0000   1.0000
     1.0000   1.0000   1.0000   1.0000   1.0000   1.0000   1.0000   1.0000
     1.0000   1.0000   1.0000   1.0000   1.0000   1.0000   1.0000   1.0000
     1.0000   1.0000   1.0000   1.0000   1.0000   1.0000   1.0000   1.0000
     1.0000   1.0000   1.0000   1.0000   1.0000   1.0000   1.0000   1.0000
     1.0000   1.0000   1.0000   1.0000   1.0000   1.0000   1.0000   1.0000
     1.0000   1.0000   1.0000   1.0000   1.0000   1.0000   1.0000   1.0000
     1.0000   1.0000   1.0000   1.0000   1.0000   1.0000   1.0000   1.0000
     1.0000   1.0000   1.0000   1.0000   1.0000   1.0000   1.0000   1.0000
     1.0000   1.0000   1.0000   1.0000   1.0000   1.0000   1.0000   1.0000
     1.0000   1.0000   1.0000   1.0000   1.0000   1.0000   1.0000   1.0000
     1.0000   1.0000   1.0000   1.0000   1.0000   1.0000   1.0000   1.0000
     1.0000   1.0000   1.0000   1.0000   1.0000   1.0000   1.0000   1.0000
     1.0000   1.0000   1.0000   1.0000   1.0000   1.0000   1.0000   1.0000
     1.0000   1.0000   1.0000   1.0000   1.0000   1.0000   1.0000   1.0000
     1.0000   1.0000   1.0000   1.0000   1.0000   1.0000   1.0000   1.0000
     1.0000   1.0000   1.0000   1.0000   1.0000   1.0000   1.0000   1.0000
     1.0000   1.0000   1.0000   1.0000   1.0000   1.0000   1.0000   1.0000
     1.0000   1.0000   1.0000   1.0000   1.0000   1.0000   1.0000   1.0000
     1.0000   1.0000   1.0000   1.0000   1.0000   1.0000   1.0000   1.0000
     1.0000   1.0000   1.0000   1.0000   1.0000   1.0000   1.0000   1.0000
     1.0000   1.0000   1.0000   1.0000   1.0000   1.0000   1.0000   1.0000
     1.0000   1.0000   1.0000   1.0000   1.0000   1.0000   1.0000   1.0000
     1.0000   1.0000   1.0000   1.0000   1.0000   1.0000   1.0000   1.0000
     1.0000   1.0000   1.0000   1.0000   1.0000   1.0000   1.0000   1.0000
     1.0000   1.0000   1.0000   1.0000   1.0000   1.0000   1.0000   1.0000
     1.0000   1.0000   1.0000   1.0000   1.0000   1.0000   1.0000   1.0000
     1.0000   1.0000   1.0000   1.0000   1.0000   1.0000   1.0000   1.0000
     1.0000   1.0000   1.0000   1.0000   1.0000   1.0000   1.0000   1.0000
     1.0000   1.0000   1.0000   1.0000   1.0000   1.0000   1.0000   1.0000
     1.0000   1.0000   1.0000   1.0000   1.0000   1.0000   1.0000   1.0000
     1.0000   1.0000   1.0000   1.0000   1.0000   1.0000   1.0000   1.0000
     1.0000   1.0000   1.0000   1.0000   1.0000   1.0000   1.0000   1.0000
     1.0000   1.0000   1.0000   1.0000   1.0000   1.0000   1.0000   1.0000
     1.0000   1.0000   1.0000   1.0000   1.0000   1.0000   1.0000   1.0000
     1.0000   1.0000   1.0000   1.0000   1.0000   1.0000   1.0000   1.0000
     1.0000   1.0000   1.0000   1.0000   1.0000   1.0000   1.0000   1.0000
     1.0000   1.0000   1.0000   1.0000   1.0000   1.0000   1.0000   1.0000
     1.0000   1.0000   1.0000   1.0000   1.0000   1.0000   1.0000   1.0000
     1.0000   1.0000   1.0000   1.0000   1.0000   1.0000   1.0000   1.0000
     1.0000   1.0000   1.0000   1.0000   1.0000   1.0000   1.0000   1.0000
     1.0000   1.0000   1.0000   1.0000   1.0000   1.0000   1.0000   1.0000
     1.0000   1.0000   1.0000   1.0000   1.0000   1.0000   1.0000   1.0000
     1.0000   1.0000   1.0000   1.0000   1.0000   1.0000   1.0000   1.0000
     1.0000   1.0000   1.0000   1.0000   1.0000   1.0000   1.0000   1.0000
     1.0000   1.0000   1.0000   1.0000   1.0000   1.0000   1.0000   1.0000
     1.0000   1.0000   1.0000   1.0000   1.0000   1.0000   1.0000   1.0000
     1.0000   1.0000   1.0000   1.0000   1.0000   1.0000   1.0000   1.0000
     1.0000   1.0000   1.0000   1.0000   1.0000   1.0000   1.0000   1.0000
     1.0000   1.0000   1.0000   1.0000   1.0000   1.0000   1.0000   1.0000
     1.0000   1.0000   1.0000   1.0067   1.0119   1.0295   1.0583   1.0603
     1.0797   1.0617   0.7204   0.4038   0.0591   0.0556   0.0060   0.0012
[...]
     atom   55 type  3   force =    -2.55447110    7.10245661  -23.57200143
     atom   56 type  2   force =     0.06447461   -0.18307568  -60.30829728
     atom   57 type  4   force =     0.74003249   -1.86665691   -0.09401173
     atom   58 type  4   force =    -0.85362165    2.72160336   -8.63482891
     atom   59 type  4   force =     0.80099222   -2.66047047   -4.77111519
     atom   60 type  4   force =    -0.32611522    1.99555207    0.01543864
     atom   61 type  4   force =     0.80749744   -2.65092594  -12.74581622
     atom   62 type  4   force =    -0.69151744    2.52516362  -12.70049216
     The core correction contribution to forces
     atom    1 type  1   force =     0.00000000    0.00000000    0.00000000
     atom    2 type  1   force =     0.00000000    0.00000000    0.00000000
     atom    3 type  1   force =     0.00000000    0.00000000    0.00000000
     atom    4 type  1   force =     0.00000000    0.00000000    0.00000000
     atom    5 type  1   force =     0.00000000    0.00000000    0.00000000
     atom    6 type  1   force =     0.00000000    0.00000000    0.00000000
     atom    7 type  1   force =     0.00000000    0.00000000    0.00000000
     atom    8 type  1   force =     0.00000000    0.00000000    0.00000000
     atom    9 type  1   force =     0.00000000    0.00000000    0.00000000
     atom   10 type  1   force =     0.00000000    0.00000000    0.00000000
     atom   11 type  1   force =     0.00000000    0.00000000    0.00000000
     atom   12 type  1   force =     0.00000000    0.00000000    0.00000000
     atom   13 type  1   force =     0.00000000    0.00000000    0.00000000
     atom   14 type  1   force =     0.00000000    0.00000000    0.00000000
     atom   15 type  1   force =     0.00000000    0.00000000    0.00000000
     atom   16 type  1   force =     0.00000000    0.00000000    0.00000000
     atom   17 type  1   force =     0.00000000    0.00000000    0.00000000
     atom   18 type  1   force =     0.00000000    0.00000000    0.00000000
     atom   19 type  1   force =     0.00000000    0.00000000    0.00000000
     atom   20 type  1   force =     0.00000000    0.00000000    0.00000000
     atom   21 type  1   force =     0.00000000    0.00000000    0.00000000
     atom   22 type  1   force =     0.00000000    0.00000000    0.00000000
     atom   23 type  1   force =     0.00000000    0.00000000    0.00000000
     atom   24 type  1   force =     0.00000000    0.00000000    0.00000000
     atom   25 type  1   force =     0.00000000    0.00000000    0.00000000
     atom   26 type  1   force =     0.00000000    0.00000000    0.00000000
     atom   27 type  1   force =     0.00000000    0.00000000    0.00000000
     atom   28 type  1   force =     0.00000000    0.00000000    0.00000000
     atom   29 type  1   force =     0.00000000    0.00000000    0.00000000
     atom   30 type  1   force =     0.00000000    0.00000000    0.00000000
     atom   31 type  1   force =     0.00000000    0.00000000    0.00000000
     atom   32 type  1   force =     0.00000000    0.00000000    0.00000000
     atom   33 type  1   force =     0.00000000    0.00000000    0.00000000
     atom   34 type  1   force =     0.00000000    0.00000000    0.00000000
     atom   35 type  1   force =     0.00000000    0.00000000    0.00000000
     atom   36 type  1   force =     0.00000000    0.00000000    0.00000000
     atom   37 type  1   force =     0.00000000    0.00000000    0.00000000
     atom   38 type  1   force =     0.00000000    0.00000000    0.00000000
     atom   39 type  1   force =     0.00000000    0.00000000    0.00000000
     atom   40 type  1   force =     0.00000000    0.00000000    0.00000000
     atom   41 type  1   force =     0.00000000    0.00000000    0.00000000
     atom   42 type  1   force =     0.00000000    0.00000000    0.00000000
     atom   43 type  1   force =     0.00000000    0.00000000    0.00000000
     atom   44 type  1   force =     0.00000000    0.00000000    0.00000000
     atom   45 type  1   force =     0.00000000    0.00000000    0.00000000
     atom   46 type  1   force =     0.00000000    0.00000000    0.00000000
     atom   47 type  1   force =     0.00000000    0.00000000    0.00000000
     atom   48 type  1   force =     0.00000000    0.00000000    0.00000000
     atom   49 type  3   force =     0.00084985   -0.00044711   -0.00364433
     atom   50 type  3   force =     0.00051640   -0.00072536    0.00731990
     atom   51 type  3   force =    -0.00061049    0.00089000   -0.00705368
     atom   52 type  3   force =    -0.00044522    0.00236512    0.00573586
     atom   53 type  3   force =    -0.00009321   -0.00226050    0.00270665
     atom   54 type  3   force =    -0.00137381    0.00355658    0.00306475
     atom   55 type  3   force =     0.00108030   -0.00254489   -0.00237274
     atom   56 type  2   force =    -0.00018383    0.00050677   -0.00024694
     atom   57 type  4   force =     0.00000000    0.00000000    0.00000000
     atom   58 type  4   force =     0.00000000    0.00000000    0.00000000
     atom   59 type  4   force =     0.00000000    0.00000000    0.00000000
     atom   60 type  4   force =     0.00000000    0.00000000    0.00000000
     atom   61 type  4   force =     0.00000000    0.00000000    0.00000000
     atom   62 type  4   force =     0.00000000    0.00000000    0.00000000
     The Hubbard contrib.    to forces
     atom    1 type  1   force =     0.00000000    0.00000000    0.00000000
     atom    2 type  1   force =     0.00000000    0.00000000    0.00000000
     atom    3 type  1   force =     0.00000000    0.00000000    0.00000000
     atom    4 type  1   force =     0.00000000    0.00000000    0.00000000
     atom    5 type  1   force =     0.00000000    0.00000000    0.00000000
     atom    6 type  1   force =     0.00000000    0.00000000    0.00000000
     atom    7 type  1   force =     0.00000000    0.00000000    0.00000000
     atom    8 type  1   force =     0.00000000    0.00000000    0.00000000
     atom    9 type  1   force =     0.00000000    0.00000000    0.00000000
     atom   10 type  1   force =     0.00000000    0.00000000    0.00000000
     atom   11 type  1   force =     0.00000000    0.00000000    0.00000000
     atom   12 type  1   force =     0.00000000    0.00000000    0.00000000
     atom   13 type  1   force =     0.00000000    0.00000000    0.00000000
     atom   14 type  1   force =     0.00000000    0.00000000    0.00000000
     atom   15 type  1   force =     0.00000000    0.00000000    0.00000000
     atom   16 type  1   force =     0.00000000    0.00000000    0.00000000
     atom   17 type  1   force =     0.00000000    0.00000000    0.00000000
     atom   18 type  1   force =     0.00000000    0.00000000    0.00000000
     atom   19 type  1   force =     0.00000000    0.00000000    0.00000000
     atom   20 type  1   force =     0.00000000    0.00000000    0.00000000
     atom   21 type  1   force =     0.00000000    0.00000000    0.00000000
     atom   22 type  1   force =     0.00000000    0.00000000    0.00000000
     atom   23 type  1   force =     0.00000000    0.00000000    0.00000000
     atom   24 type  1   force =     0.00000000    0.00000000    0.00000000
     atom   25 type  1   force =     0.00000000    0.00000000    0.00000000
     atom   26 type  1   force =     0.00000000    0.00000000    0.00000000
     atom   27 type  1   force =     0.00000000    0.00000000    0.00000000
     atom   28 type  1   force =     0.00000000    0.00000000    0.00000000
     atom   29 type  1   force =     0.00000000    0.00000000    0.00000000
     atom   30 type  1   force =     0.00000000    0.00000000    0.00000000
     atom   31 type  1   force =     0.00000000    0.00000000    0.00000000
     atom   32 type  1   force =     0.00000000    0.00000000    0.00000000
     atom   33 type  1   force =     0.00000000    0.00000000    0.00000000
     atom   34 type  1   force =     0.00000000    0.00000000    0.00000000
     atom   35 type  1   force =     0.00000000    0.00000000    0.00000000
     atom   36 type  1   force =     0.00000000    0.00000000    0.00000000
     atom   37 type  1   force =     0.00000000    0.00000000    0.00000000
     atom   38 type  1   force =     0.00000000    0.00000000    0.00000000
     atom   39 type  1   force =     0.00000000    0.00000000    0.00000000
     atom   40 type  1   force =     0.00000000    0.00000000    0.00000000
     atom   41 type  1   force =     0.00000000    0.00000000    0.00000000
     atom   42 type  1   force =     0.00000000    0.00000000    0.00000000
     atom   43 type  1   force =     0.00000000    0.00000000    0.00000000
     atom   44 type  1   force =     0.00000000    0.00000000    0.00000000
     atom   45 type  1   force =     0.00000000    0.00000000    0.00000000
     atom   46 type  1   force =     0.00000000    0.00000000    0.00000000
     atom   47 type  1   force =     0.00000000    0.00000000    0.00000000
     atom   48 type  1   force =     0.00000000    0.00000000    0.00000000
     atom   49 type  3   force =     0.00000000    0.00000000    0.00000000
     atom   50 type  3   force =     0.00000000    0.00000000    0.00000000
     atom   51 type  3   force =     0.00000000    0.00000000    0.00000000
     atom   52 type  3   force =     0.00000000    0.00000000    0.00000000
     atom   53 type  3   force =     0.00000000    0.00000000    0.00000000
     atom   54 type  3   force =     0.00000000    0.00000000    0.00000000
     atom   55 type  3   force =     0.00000000    0.00000000    0.00000000
     atom   56 type  2   force =     0.00000000    0.00000000    0.00000000
     atom   57 type  4   force =     0.00000000    0.00000000    0.00000000
     atom   58 type  4   force =     0.00000000    0.00000000    0.00000000
     atom   59 type  4   force =     0.00000000    0.00000000    0.00000000
     atom   60 type  4   force =     0.00000000    0.00000000    0.00000000
     atom   61 type  4   force =     0.00000000    0.00000000    0.00000000
     atom   62 type  4   force =     0.00000000    0.00000000    0.00000000
     The SCF correction term to forces
     atom    1 type  1   force =    -0.00000000    0.00000000    0.00000000
     atom    2 type  1   force =    -0.00000000   -0.00000000    0.00000000
     atom    3 type  1   force =     0.00006448    0.00000994   -0.00000056
     atom    4 type  1   force =     0.00011190    0.00002977    0.00000914
     atom    5 type  1   force =     0.00005583   -0.00009002    0.00002103
     atom    6 type  1   force =    -0.00008019    0.00008835    0.00001222
     atom    7 type  1   force =    -0.00000000    0.00000000    0.00000000
     atom    8 type  1   force =    -0.00000000   -0.00000000    0.00000000
     atom    9 type  1   force =     0.00019073   -0.00003875    0.00001435
     atom   10 type  1   force =    -0.00001517    0.00007931   -0.00000560
     atom   11 type  1   force =    -0.00000862   -0.00002076    0.00006897
     atom   12 type  1   force =    -0.00001784    0.00001455   -0.00003407
     atom   13 type  1   force =     0.00000000   -0.00000000    0.00000000
     atom   14 type  1   force =     0.00000000    0.00000000    0.00000000
     atom   15 type  1   force =    -0.00008818   -0.00009147    0.00004403
     atom   16 type  1   force =    -0.00014174    0.00003034    0.00000519
     atom   17 type  1   force =    -0.00005713    0.00004568   -0.00004027
     atom   18 type  1   force =     0.00008856   -0.00003911   -0.00004391
     atom   19 type  1   force =     0.00000000    0.00000000   -0.00000000
     atom   20 type  1   force =     0.00000000    0.00000000    0.00000000
     atom   21 type  1   force =    -0.00022214    0.00006655    0.00003095
     atom   22 type  1   force =    -0.00001077   -0.00012316    0.00002113
     atom   23 type  1   force =     0.00000859    0.00001321   -0.00006774
     atom   24 type  1   force =     0.00002021   -0.00000366   -0.00001673
     atom   25 type  1   force =     0.00000000   -0.00000000   -0.00000000
     atom   26 type  1   force =    -0.00000000    0.00000000    0.00000000
     atom   27 type  1   force =    -0.00011696    0.00003995    0.00001633
     atom   28 type  1   force =     0.00005438   -0.00004507    0.00003496
     atom   29 type  1   force =     0.00006204    0.00001650   -0.00002697
     atom   30 type  1   force =     0.00012222    0.00002918    0.00004534
     atom   31 type  1   force =    -0.00000000    0.00000000   -0.00000000
     atom   32 type  1   force =     0.00000000   -0.00000000    0.00000000
     atom   33 type  1   force =    -0.00007573    0.00003788    0.00003001
     atom   34 type  1   force =     0.00001578   -0.00004547    0.00002160
     atom   35 type  1   force =     0.00017379   -0.00006479    0.00001444
     atom   36 type  1   force =     0.00001390    0.00011233    0.00000198
     atom   37 type  1   force =    -0.00000000    0.00000000    0.00000000
     atom   38 type  1   force =     0.00000000   -0.00000000    0.00000000
     atom   39 type  1   force =     0.00013360   -0.00011421    0.00005253
     atom   40 type  1   force =    -0.00004481    0.00014670    0.00002913
     atom   41 type  1   force =    -0.00005086   -0.00005948    0.00001338
     atom   42 type  1   force =    -0.00011559    0.00001911   -0.00004347
     atom   43 type  1   force =     0.00000000   -0.00000000    0.00000000
     atom   44 type  1   force =    -0.00000000    0.00000000    0.00000000
     atom   45 type  1   force =     0.00009688   -0.00002473    0.00004794
     atom   46 type  1   force =    -0.00000300    0.00005615    0.00003461
     atom   47 type  1   force =    -0.00016397    0.00003467    0.00000335
     atom   48 type  1   force =    -0.00000169   -0.00007483   -0.00003243
     atom   49 type  3   force =     0.00002925    0.00000778   -0.00000797
     atom   50 type  3   force =     0.00000867   -0.00001206    0.00003216
     atom   51 type  3   force =    -0.00000067   -0.00001031    0.00003186
     atom   52 type  3   force =     0.00000624   -0.00001623    0.00000882
     atom   53 type  3   force =     0.00000259   -0.00000087    0.00002867
     atom   54 type  3   force =     0.00000440    0.00000301    0.00003628
     atom   55 type  3   force =     0.00001083   -0.00000388    0.00001974
     atom   56 type  2   force =     0.00001460    0.00000756   -0.00000407
     atom   57 type  4   force =     0.00000708   -0.00000282   -0.00000457
     atom   58 type  4   force =     0.00000276   -0.00000320    0.00000201
     atom   59 type  4   force =    -0.00000010   -0.00000356    0.00000320
     atom   60 type  4   force =     0.00000491    0.00000596   -0.00000562
     atom   61 type  4   force =     0.00000075    0.00000188   -0.00000188
     atom   62 type  4   force =     0.00000233   -0.00000464   -0.00000114

     DFT-D3 dispersion contribution to forces:
     atom    1 type  1   force =    -0.00117095   -0.00028546    0.00228727
     atom    2 type  1   force =    -0.00121836   -0.00028599    0.00218458
     atom    3 type  1   force =     0.00107433    0.00024228    0.00058481
     atom    4 type  1   force =     0.00102631    0.00021857    0.00055768
     atom    5 type  1   force =     0.00020584    0.00059057   -0.00093759
     atom    6 type  1   force =     0.00049808   -0.00039387   -0.00110708
     atom    7 type  1   force =    -0.00119837   -0.00030932    0.00222423
     atom    8 type  1   force =    -0.00119196   -0.00026283    0.00225454
     atom    9 type  1   force =     0.00105697    0.00022833    0.00055360
     atom   10 type  1   force =     0.00107055    0.00023429    0.00061600
     atom   11 type  1   force =     0.00027717   -0.00003712   -0.00063323
     atom   12 type  1   force =     0.00036078    0.00013751   -0.00176048
     atom   13 type  1   force =    -0.00131145   -0.00030908    0.00206233
     atom   14 type  1   force =    -0.00129963   -0.00031208    0.00205075
     atom   15 type  1   force =     0.00085057    0.00018697    0.00038527
     atom   16 type  1   force =     0.00092382    0.00019077    0.00041240
     atom   17 type  1   force =     0.00069165    0.00017882   -0.00204412
     atom   18 type  1   force =     0.00063793    0.00015708   -0.00201644
     atom   19 type  1   force =    -0.00130284   -0.00031392    0.00206572
     atom   20 type  1   force =    -0.00130627   -0.00031498    0.00204407
     atom   21 type  1   force =     0.00086169    0.00017521    0.00038995
     atom   22 type  1   force =     0.00090223    0.00020881    0.00038542
     atom   23 type  1   force =     0.00065981    0.00015907   -0.00201707
     atom   24 type  1   force =     0.00066671    0.00016876   -0.00204337
     atom   25 type  1   force =     0.00055445    0.00013417    0.00270019
     atom   26 type  1   force =     0.00056003    0.00014151    0.00263524
     atom   27 type  1   force =    -0.00067528   -0.00013097    0.00005369
     atom   28 type  1   force =    -0.00072072   -0.00015390    0.00001944
     atom   29 type  1   force =    -0.00024766   -0.00000451   -0.00321548
     atom   30 type  1   force =    -0.00035659   -0.00019633   -0.00294841
     atom   31 type  1   force =     0.00055831    0.00013137    0.00268418
     atom   32 type  1   force =     0.00056171    0.00012395    0.00265586
     atom   33 type  1   force =    -0.00066795   -0.00015077    0.00004872
     atom   34 type  1   force =    -0.00072406   -0.00014040    0.00002777
     atom   35 type  1   force =    -0.00046281   -0.00003069   -0.00285684
     atom   36 type  1   force =    -0.00019714   -0.00009042   -0.00324752
     atom   37 type  1   force =     0.00059786    0.00014254    0.00256123
     atom   38 type  1   force =     0.00059446    0.00014193    0.00257565
     atom   39 type  1   force =    -0.00078639   -0.00016591    0.00008717
     atom   40 type  1   force =    -0.00077521   -0.00016866    0.00004789
     atom   41 type  1   force =     0.00018576    0.00010434   -0.00306575
     atom   42 type  1   force =     0.00013075   -0.00002008   -0.00312842
     atom   43 type  1   force =     0.00059210    0.00014426    0.00257150
     atom   44 type  1   force =     0.00059950    0.00014102    0.00255921
     atom   45 type  1   force =    -0.00079286   -0.00017183    0.00019276
     atom   46 type  1   force =    -0.00077887   -0.00016089    0.00002456
     atom   47 type  1   force =     0.00031677    0.00005950   -0.00287949
     atom   48 type  1   force =     0.00005450    0.00001922   -0.00321015
     atom   49 type  3   force =     0.00005108   -0.00016595   -0.00011941
     atom   50 type  3   force =     0.00010060   -0.00034478    0.00011871
     atom   51 type  3   force =    -0.00008209    0.00029623   -0.00038980
     atom   52 type  3   force =    -0.00007459    0.00022173   -0.00069520
     atom   53 type  3   force =     0.00008111   -0.00023646    0.00007469
     atom   54 type  3   force =    -0.00009420    0.00028778   -0.00011195
     atom   55 type  3   force =     0.00007000   -0.00021128   -0.00011370
     atom   56 type  2   force =    -0.00000633    0.00011729   -0.00132611
     atom   57 type  4   force =    -0.00001247   -0.00000909    0.00017419
     atom   58 type  4   force =     0.00002438   -0.00008483   -0.00006377
     atom   59 type  4   force =    -0.00002805    0.00014761   -0.00018210
     atom   60 type  4   force =    -0.00000118   -0.00000665    0.00000682
     atom   61 type  4   force =     0.00006421   -0.00003074   -0.00132851
     atom   62 type  4   force =     0.00002224    0.00006827   -0.00143615

     Total force =     0.005775     Total SCF correction =     0.000685

     DFT-D3 dispersion Force =     0.015183
     SCF correction compared to forces is large: reduce conv_thr to get better values


     Computing stress (Cartesian axis) and pressure


     negative rho (up, down):  3.250E-03 0.000E+00
