
     Program PWSCF v.7.3.1 starts on 31Mar2025 at  0:46:15 

     This program is part of the open-source Quantum ESPRESSO suite
     for quantum simulation of materials; please cite
         "P. Giannozzi et al., J. Phys.:Condens. Matter 21 395502 (2009);
         "P. Giannozzi et al., J. Phys.:Condens. Matter 29 465901 (2017);
         "P. Giannozzi et al., J. Chem. Phys. 152 154105 (2020);
          URL http://www.quantum-espresso.org", 
     in publications or presentations arising from this work. More details at
     http://www.quantum-espresso.org/quote

     Parallel version (MPI), running on    34 processors

     MPI processes distributed on     1 nodes
     18924 MiB available memory on the printing compute node when the environment starts

     Waiting for input...
     Reading input from standard input
Warning: card &CELL ignored
Warning: card   CELL_DOFREE = 'ALL' ignored
Warning: card / ignored

     Current dimensions of program PWSCF are:
     Max number of different atomic species (ntypx) = 10
     Max number of k-points (npk) =  40000
     Max angular momentum in pseudopotentials (lmaxx) =  4
     Message from routine input:
     WARNING: "startingwfc" set to atomic+random may spoil restart
     Message from routine input:
     WARNING: "startingpot" set to atomic may spoil restart
     file C.pbe-n-kjpaw_psl.1.0.0.UPF: wavefunction(s)  2S 2P renormalized

     R & G space division:  proc/nbgrp/npool/nimage =      34
     Subspace diagonalization in iterative solution of the eigenvalue problem:
     one sub-group per band group will be used
     custom distributed-memory algorithm (size of sub-group:  5*  5 procs)


     Parallelization info
     --------------------
     sticks:   dense  smooth     PW     G-vecs:    dense   smooth      PW
     Min         222     126     34                35322    15256    2100
     Max         223     127     35                35328    15267    2110
     Sum        7555    4303   1159              1201061   518755   71619

     Using Slab Decomposition



     bravais-lattice index     =            0
     lattice parameter (alat)  =      19.7617  a.u.
     unit-cell volume          =   15176.5939 (a.u.)^3
     number of atoms/cell      =           63
     number of atomic types    =            4
     number of electrons       =      1004.00
     number of Kohn-Sham states=          602
     kinetic-energy cutoff     =      40.0000  Ry
     charge density cutoff     =     280.0000  Ry
     scf convergence threshold =      1.0E-06
     mixing beta               =       0.4000
     number of iterations used =            8  plain     mixing
     energy convergence thresh.=      1.0E-05
     force convergence thresh. =      5.0E-04
     Exchange-correlation= PBE
                           (   1   4   3   4   0   0   0)
     nstep                     =          100


     celldm(1)=  19.761696  celldm(2)=   0.000000  celldm(3)=   0.000000
     celldm(4)=   0.000000  celldm(5)=   0.000000  celldm(6)=   0.000000

     crystal axes: (cart. coord. in units of alat)
               a(1) = (   1.000000   0.000000   0.000000 )  
               a(2) = (  -0.500000   0.866025   0.000000 )  
               a(3) = (   0.000000   0.000000   2.270759 )  

     reciprocal axes: (cart. coord. in units 2 pi/alat)
               b(1) = (  1.000000  0.577350 -0.000000 )  
               b(2) = (  0.000000  1.154701  0.000000 )  
               b(3) = (  0.000000 -0.000000  0.440381 )  


     PseudoPot. # 1 for Zn read from file:
     /home/ys/qepseudo/SSSP_1.3.0_PBE_efficiency/Zn_pbe_v1.uspp.F.UPF
     MD5 check sum: df62231357ef9e81f77b2b3087fa5675
     Pseudo is Ultrasoft, Zval = 20.0
     Generated by new atomic code, or converted to UPF format
     Using radial grid of  943 points,  6 beta functions with: 
                l(1) =   0
                l(2) =   0
                l(3) =   1
                l(4) =   1
                l(5) =   2
                l(6) =   2
     Q(r) pseudized with  8 coefficients,  rinner =    1.100   1.100   1.100
                                                       1.100   1.100

     PseudoPot. # 2 for N  read from file:
     /home/ys/qepseudo/SSSP_1.3.0_PBE_efficiency/N.pbe-n-radius_5.UPF
     MD5 check sum: 16739722b17309cd8fe442a2ace49922
     Pseudo is Ultrasoft + core correction, Zval =  5.0
     Generated using "atomic" code by A. Dal Corso  v.5.1
     Using radial grid of 1085 points,  4 beta functions with: 
                l(1) =   0
                l(2) =   0
                l(3) =   1
                l(4) =   1
     Q(r) pseudized with 0 coefficients 


     PseudoPot. # 3 for C  read from file:
     /home/ys/qepseudo/SSSP_1.3.0_PBE_efficiency/C.pbe-n-kjpaw_psl.1.0.0.UPF
     MD5 check sum: 5d2aebdfa2cae82b50a7e79e9516da0f
     Pseudo is Projector augmented-wave + core cor, Zval =  4.0
     Generated using "atomic" code by A. Dal Corso  v.5.1
     Shape of augmentation charge: PSQ
     Using radial grid of 1073 points,  4 beta functions with: 
                l(1) =   0
                l(2) =   0
                l(3) =   1
                l(4) =   1
     Q(r) pseudized with 0 coefficients 


     PseudoPot. # 4 for H  read from file:
     /home/ys/qepseudo/SSSP_1.3.0_PBE_efficiency/H.pbe-rrkjus_psl.1.0.0.UPF
     MD5 check sum: f52b6d4d1c606e5624b1dc7b2218f220
     Pseudo is Ultrasoft, Zval =  1.0
     Generated using "atomic" code by A. Dal Corso  v.5.1
     Using radial grid of  929 points,  2 beta functions with: 
                l(1) =   0
                l(2) =   0
     Q(r) pseudized with 0 coefficients 


     atomic species   valence    mass     pseudopotential
     Zn               20.00    65.38000     Zn( 1.00)
     N                 5.00    14.00674     N ( 1.00)
     C                 4.00    12.01070     C ( 1.00)
     H                 1.00     1.00794     H ( 1.00)

     No symmetry found


                                    s                        frac. trans.

      isym =  1     identity                                     

 cryst.   s( 1) = (     1          0          0      )
                  (     0          1          0      )
                  (     0          0          1      )

 cart.    s( 1) = (  1.0000000  0.0000000  0.0000000 )
                  (  0.0000000  1.0000000  0.0000000 )
                  (  0.0000000  0.0000000  1.0000000 )


   Cartesian axes

     site n.     atom                  positions (alat units)
         1        Zn     tau(   1) = (   0.0000000   0.1443375   0.1164998  )
         2        Zn     tau(   2) = (   0.5000000   0.1443375   0.1164998  )
         3        Zn     tau(   3) = (   0.0000668   0.1446344   0.5926182  )
         4        Zn     tau(   4) = (   0.4999153   0.1445827   0.5927848  )
         5        Zn     tau(   5) = (  -0.1250000   0.3608439   0.1164998  )
         6        Zn     tau(   6) = (   0.3750000   0.3608439   0.1164998  )
         7        Zn     tau(   7) = (  -0.1251770   0.3609676   0.5931884  )
         8        Zn     tau(   8) = (   0.3746806   0.3610966   0.5842804  )
         9        Zn     tau(   9) = (  -0.2500000   0.5773502   0.1164998  )
        10        Zn     tau(  10) = (   0.2500000   0.5773502   0.1164998  )
        11        Zn     tau(  11) = (  -0.2501432   0.5773866   0.5930455  )
        12        Zn     tau(  12) = (   0.2498241   0.5776268   0.5928374  )
        13        Zn     tau(  13) = (  -0.3750000   0.7938567   0.1164998  )
        14        Zn     tau(  14) = (   0.1250000   0.7938567   0.1164998  )
        15        Zn     tau(  15) = (  -0.3749054   0.7940581   0.5919911  )
        16        Zn     tau(  16) = (   0.1248834   0.7940737   0.5931316  )
        17        Zn     tau(  17) = (   0.2500000   0.1443375   0.1164998  )
        18        Zn     tau(  18) = (   0.7500000   0.1443375   0.1164998  )
        19        Zn     tau(  19) = (   0.2499640   0.1443799   0.5911997  )
        20        Zn     tau(  20) = (   0.7495477   0.1447067   0.5932616  )
        21        Zn     tau(  21) = (   0.1250000   0.3608439   0.1164998  )
        22        Zn     tau(  22) = (   0.6250000   0.3608439   0.1164998  )
        23        Zn     tau(  23) = (   0.1247912   0.3610407   0.5926649  )
        24        Zn     tau(  24) = (   0.6247822   0.3609742   0.5928148  )
        25        Zn     tau(  25) = (   0.0000000   0.5773502   0.1164998  )
        26        Zn     tau(  26) = (   0.5000000   0.5773502   0.1164998  )
        27        Zn     tau(  27) = (   0.0001926   0.5774578   0.5931663  )
        28        Zn     tau(  28) = (   0.5000439   0.5775805   0.5908255  )
        29        Zn     tau(  29) = (  -0.1250000   0.7938567   0.1164998  )
        30        Zn     tau(  30) = (   0.3750000   0.7938567   0.1164998  )
        31        Zn     tau(  31) = (  -0.1249481   0.7941994   0.5928670  )
        32        Zn     tau(  32) = (   0.3748419   0.7938773   0.5926988  )
        33        Zn     tau(  33) = (   0.1250492   0.0720662   0.3547634  )
        34        Zn     tau(  34) = (   0.6248991   0.0723009   0.3538995  )
        35        Zn     tau(  35) = (  -0.0001483   0.2888231   0.3540379  )
        36        Zn     tau(  36) = (   0.5005036   0.2883462   0.3555413  )
        37        Zn     tau(  37) = (  -0.1249548   0.5052626   0.3539839  )
        38        Zn     tau(  38) = (   0.3748520   0.5056893   0.3552779  )
        39        Zn     tau(  39) = (  -0.2500218   0.7219599   0.3544415  )
        40        Zn     tau(  40) = (   0.2497364   0.7219048   0.3538865  )
        41        Zn     tau(  41) = (   0.3750528   0.0720765   0.3549001  )
        42        Zn     tau(  42) = (   0.8749035   0.0722922   0.3541211  )
        43        Zn     tau(  43) = (   0.2495956   0.2885054   0.3553563  )
        44        Zn     tau(  44) = (   0.7498887   0.2886752   0.3538997  )
        45        Zn     tau(  45) = (   0.1247664   0.5054833   0.3542024  )
        46        Zn     tau(  46) = (   0.6251826   0.5052754   0.3546328  )
        47        Zn     tau(  47) = (   0.0000755   0.7218715   0.3540203  )
        48        Zn     tau(  48) = (   0.5001391   0.7219956   0.3546123  )
        49        C      tau(  49) = (   0.4059486   0.3678990   1.4445907  )
        50        C      tau(  50) = (   0.4023397   0.3669360   1.3083749  )
        51        C      tau(  51) = (   0.4606482   0.4656077   1.2372691  )
        52        C      tau(  52) = (   0.3411043   0.2668435   1.2419373  )
        53        C      tau(  53) = (   0.4581811   0.4642053   1.1046640  )
        54        C      tau(  54) = (   0.3384351   0.2654043   1.1093847  )
        55        C      tau(  55) = (   0.3972663   0.3638099   1.0377973  )
        56        N      tau(  56) = (   0.4089408   0.3680884   1.5562638  )
        57        N      tau(  57) = (   0.3958890   0.3614826   0.9068891  )
        58        H      tau(  58) = (   0.3520660   0.2903630   0.8580107  )
        59        H      tau(  59) = (   0.4370148   0.4317761   0.8546029  )
        60        H      tau(  60) = (   0.2957652   0.1899799   1.2960323  )
        61        H      tau(  61) = (   0.5083852   0.5432495   1.2877716  )
        62        H      tau(  62) = (   0.2908310   0.1871155   1.0592726  )
        63        H      tau(  63) = (   0.5040107   0.5412774   1.0509912  )

     --------------------------------------------
     DFT-D3 Dispersion Correction (3-body terms):
     --------------------------------------------
       Reference C6 values for interpolation: 

         atom   Coordination number   C6
         H          0.912             6.05
         H          0.000            15.18
         C          0.000            98.23
         C          0.987            86.49
         C          1.998            58.72
         C          2.999            51.56
         C          3.984            36.41
         N          0.000            50.54
         N          0.994            44.25
         N          2.014            39.35
         N          2.990            31.16
         Zn         0.000           681.04
         Zn         1.942           306.91

       Values used:

         atom   Coordination number  R0_AB[au]  C6      C8
         Zn         6.727            3.053    306.91  23930.67
         Zn         6.715            3.053    306.91  23930.67
         Zn         6.703            3.053    306.91  23930.67
         Zn         6.731            3.053    306.91  23930.67
         Zn         6.742            3.053    306.91  23930.67
         Zn         6.678            3.053    306.91  23930.67
         Zn         6.677            3.053    306.91  23930.67
         Zn         7.065            3.053    306.91  23930.67
         Zn         6.727            3.053    306.91  23930.67
         Zn         6.724            3.053    306.91  23930.67
         Zn         6.692            3.053    306.91  23930.67
         Zn         6.712            3.053    306.91  23930.67
         Zn         6.722            3.053    306.91  23930.67
         Zn         6.745            3.053    306.91  23930.67
         Zn         6.748            3.053    306.91  23930.67
         Zn         6.684            3.053    306.91  23930.67
         Zn         6.703            3.053    306.91  23930.67
         Zn         6.742            3.053    306.91  23930.67
         Zn         6.795            3.053    306.91  23930.67
         Zn         6.674            3.053    306.91  23930.67
         Zn         6.720            3.053    306.91  23930.67
         Zn         6.717            3.053    306.91  23930.67
         Zn         6.719            3.053    306.91  23930.67
         Zn         6.724            3.053    306.91  23930.67
         Zn         6.740            3.053    306.91  23930.67
         Zn         6.707            3.053    306.91  23930.67
         Zn         6.682            3.053    306.91  23930.67
         Zn         6.797            3.053    306.91  23930.67
         Zn         6.726            3.053    306.91  23930.67
         Zn         6.731            3.053    306.91  23930.67
         Zn         6.708            3.053    306.91  23930.67
         Zn         6.696            3.053    306.91  23930.67
         Zn         8.290            3.053    306.91  23930.67
         Zn         8.256            3.053    306.91  23930.67
         Zn         8.254            3.053    306.91  23930.67
         Zn         8.350            3.053    306.91  23930.67
         Zn         8.240            3.053    306.91  23930.67
         Zn         8.363            3.053    306.91  23930.67
         Zn         8.262            3.053    306.91  23930.67
         Zn         8.254            3.053    306.91  23930.67
         Zn         8.280            3.053    306.91  23930.67
         Zn         8.245            3.053    306.91  23930.67
         Zn         8.365            3.053    306.91  23930.67
         Zn         8.250            3.053    306.91  23930.67
         Zn         8.255            3.053    306.91  23930.67
         Zn         8.272            3.053    306.91  23930.67
         Zn         8.250            3.053    306.91  23930.67
         Zn         8.287            3.053    306.91  23930.67
         C          2.096            2.750     58.61   1695.23
         C          3.145            2.750     50.58   1462.73
         C          3.168            2.750     50.38   1457.16
         C          3.167            2.750     50.39   1457.29
         C          3.163            2.750     50.42   1458.32
         C          3.164            2.750     50.42   1458.13
         C          3.139            2.750     50.62   1463.93
         N          1.022            2.478     44.24    976.02
         N          3.098            2.478     31.24    689.09
         H          1.011            2.062      6.17     74.60
         H          1.011            2.062      6.17     74.60
         H          1.003            2.062      6.18     74.68
         H          1.004            2.062      6.18     74.68
         H          1.003            2.062      6.18     74.68
         H          1.003            2.062      6.18     74.68

         Molecular C6 ( Ry / a.u.^6 ) =    841009.60


   Crystallographic axes

     site n.     atom                  positions (cryst. coord.)
         1        Zn     tau(   1) = (  0.0833333  0.1666666  0.0513044  )
         2        Zn     tau(   2) = (  0.5833333  0.1666666  0.0513044  )
         3        Zn     tau(   3) = (  0.0835715  0.1670095  0.2609780  )
         4        Zn     tau(   4) = (  0.5833902  0.1669497  0.2610514  )
         5        Zn     tau(   5) = (  0.0833333  0.4166666  0.0513044  )
         6        Zn     tau(   6) = (  0.5833333  0.4166666  0.0513044  )
         7        Zn     tau(   7) = (  0.0832278  0.4168095  0.2612291  )
         8        Zn     tau(   8) = (  0.5831599  0.4169585  0.2573062  )
         9        Zn     tau(   9) = (  0.0833333  0.6666666  0.0513044  )
        10        Zn     tau(  10) = (  0.5833333  0.6666666  0.0513044  )
        11        Zn     tau(  11) = (  0.0832111  0.6667086  0.2611662  )
        12        Zn     tau(  12) = (  0.5833171  0.6669859  0.2610746  )
        13        Zn     tau(  13) = (  0.0833333  0.9166667  0.0513044  )
        14        Zn     tau(  14) = (  0.5833334  0.9166667  0.0513044  )
        15        Zn     tau(  15) = (  0.0835442  0.9168993  0.2607019  )
        16        Zn     tau(  16) = (  0.5833421  0.9169173  0.2612041  )
        17        Zn     tau(  17) = (  0.3333333  0.1666666  0.0513044  )
        18        Zn     tau(  18) = (  0.8333334  0.1666666  0.0513044  )
        19        Zn     tau(  19) = (  0.3333218  0.1667155  0.2603534  )
        20        Zn     tau(  20) = (  0.8330942  0.1670929  0.2612614  )
        21        Zn     tau(  21) = (  0.3333333  0.4166666  0.0513044  )
        22        Zn     tau(  22) = (  0.8333333  0.4166666  0.0513044  )
        23        Zn     tau(  23) = (  0.3332382  0.4168939  0.2609986  )
        24        Zn     tau(  24) = (  0.8331907  0.4168171  0.2610646  )
        25        Zn     tau(  25) = (  0.3333333  0.6666666  0.0513044  )
        26        Zn     tau(  26) = (  0.8333333  0.6666666  0.0513044  )
        27        Zn     tau(  27) = (  0.3335881  0.6667909  0.2612194  )
        28        Zn     tau(  28) = (  0.8335102  0.6669326  0.2601886  )
        29        Zn     tau(  29) = (  0.3333334  0.9166667  0.0513044  )
        30        Zn     tau(  30) = (  0.8333334  0.9166667  0.0513044  )
        31        Zn     tau(  31) = (  0.3335831  0.9170624  0.2610876  )
        32        Zn     tau(  32) = (  0.8331872  0.9166905  0.2610136  )
        33        Zn     tau(  33) = (  0.1666567  0.0832148  0.1562312  )
        34        Zn     tau(  34) = (  0.6666421  0.0834859  0.1558508  )
        35        Zn     tau(  35) = (  0.1666037  0.3335042  0.1559117  )
        36        Zn     tau(  36) = (  0.6669804  0.3329535  0.1565738  )
        37        Zn     tau(  37) = (  0.1667588  0.5834270  0.1558880  )
        38        Zn     tau(  38) = (  0.6668119  0.5839198  0.1564578  )
        39        Zn     tau(  39) = (  0.1668019  0.8336475  0.1560895  )
        40        Zn     tau(  40) = (  0.6665283  0.8335839  0.1558451  )
        41        Zn     tau(  41) = (  0.4166662  0.0832267  0.1562914  )
        42        Zn     tau(  42) = (  0.9166414  0.0834758  0.1559484  )
        43        Zn     tau(  43) = (  0.4161643  0.3331374  0.1564923  )
        44        Zn     tau(  44) = (  0.9165554  0.3333334  0.1558509  )
        45        Zn     tau(  45) = (  0.4166073  0.5836819  0.1559842  )
        46        Zn     tau(  46) = (  0.9169035  0.5834418  0.1561737  )
        47        Zn     tau(  47) = (  0.4168482  0.8335454  0.1559040  )
        48        Zn     tau(  48) = (  0.9169834  0.8336887  0.1561647  )
        49        C      tau(  49) = (  0.6183552  0.4248131  0.6361709  )
        50        C      tau(  50) = (  0.6141903  0.4237011  0.5761840  )
        51        C      tau(  51) = (  0.7294669  0.5376374  0.5448703  )
        52        C      tau(  52) = (  0.4951664  0.3081243  0.5469261  )
        53        C      tau(  53) = (  0.7261901  0.5360181  0.4864735  )
        54        C      tau(  54) = (  0.4916663  0.3064625  0.4885524  )
        55        C      tau(  55) = (  0.6073121  0.4200915  0.4570267  )
        56        N      tau(  56) = (  0.6214568  0.4250319  0.6853497  )
        57        N      tau(  57) = (  0.6045911  0.4174041  0.3993771  )
        58        H      tau(  58) = (  0.5197071  0.3352823  0.3778520  )
        59        H      tau(  59) = (  0.6863009  0.4985721  0.3763513  )
        60        H      tau(  60) = (  0.4054502  0.2193699  0.5707485  )
        61        H      tau(  61) = (  0.8220305  0.6272905  0.5671107  )
        62        H      tau(  62) = (  0.3988622  0.2160624  0.4664840  )
        63        H      tau(  63) = (  0.8165174  0.6250133  0.4628370  )

     number of k points=     5  Marzari-Vanderbilt smearing, width (Ry)=  0.0200
                       cart. coord. in units 2pi/alat
        k(    1) = (   0.0000000   0.0000000   0.0000000), wk =   0.2222222
        k(    2) = (   0.0000000   0.3849002   0.0000000), wk =   0.4444444
        k(    3) = (   0.3333333   0.1924501   0.0000000), wk =   0.4444444
        k(    4) = (   0.3333333   0.5773503   0.0000000), wk =   0.4444444
        k(    5) = (   0.3333333  -0.1924501   0.0000000), wk =   0.4444444

                       cryst. coord.
        k(    1) = (   0.0000000   0.0000000   0.0000000), wk =   0.2222222
        k(    2) = (   0.0000000   0.3333333   0.0000000), wk =   0.4444444
        k(    3) = (   0.3333333   0.0000000   0.0000000), wk =   0.4444444
        k(    4) = (   0.3333333   0.3333333   0.0000000), wk =   0.4444444
        k(    5) = (   0.3333333  -0.3333333   0.0000000), wk =   0.4444444

     Dense  grid:  1201061 G-vectors     FFT dimensions: ( 108, 108, 240)

     Smooth grid:   518755 G-vectors     FFT dimensions: (  80,  80, 192)

     Dynamical RAM for                 wfc:      17.51 MB

     Dynamical RAM for     wfc (w. buffer):     105.05 MB

     Dynamical RAM for           str. fact:       2.16 MB

     Dynamical RAM for           local pot:       0.00 MB

     Dynamical RAM for          nlocal pot:      27.57 MB

     Dynamical RAM for                qrad:       5.37 MB

     Dynamical RAM for          rho,v,vnew:       3.75 MB

     Dynamical RAM for               rhoin:       1.25 MB

     Dynamical RAM for            rho*nmix:       8.62 MB

     Dynamical RAM for           G-vectors:       2.14 MB

     Dynamical RAM for          h,s,v(r/c):       2.64 MB

     Dynamical RAM for          <psi|beta>:       8.71 MB

     Dynamical RAM for                 psi:      35.02 MB

     Dynamical RAM for                hpsi:      35.02 MB

     Dynamical RAM for                spsi:      35.02 MB

     Dynamical RAM for      wfcinit/wfcrot:      48.90 MB

     Dynamical RAM for           addusdens:     126.14 MB

     Dynamical RAM for          addusforce:     177.27 MB

     Dynamical RAM for         addusstress:     108.35 MB

     Estimated static dynamical RAM per process >     153.55 MB

     Estimated max dynamical RAM per process >     339.44 MB

     Estimated total dynamical RAM >      11.27 GB

     Atomic positions and unit cell read from directory:
     ./tmp/Zn002_3layer_ABN_relax.save/

     Cannot read rho : file not found

     Initial potential from superposition of free atoms

     starting charge    1003.9929, renormalised to    1004.0000

     negative rho (up, down):  1.589E-03 0.000E+00
     Starting wfcs are  666 randomized atomic wfcs
     Checking if some PAW data can be deallocated... 
       PAW data deallocated on   30 nodes for type:  3

     total cpu time spent up to now is       65.5 secs

     Self-consistent Calculation

     iteration #  1     ecut=    40.00 Ry     beta= 0.40
     Davidson diagonalization with overlap

---- Real-time Memory Report at c_bands before calling an iterative solver
           231 MiB given to the printing process from OS
             0 MiB allocation reported by mallinfo(arena+hblkhd)
         13127 MiB available memory on the node where the printing process lives
------------------
     c_bands:  1 eigenvalues not converged
     c_bands:  1 eigenvalues not converged
     c_bands:  1 eigenvalues not converged
     ethr =  1.00E-05,  avg # of iterations = 18.2

     negative rho (up, down):  2.195E-03 0.000E+00

     total cpu time spent up to now is     1318.5 secs

     total energy              =  -22326.28952711 Ry
     estimated scf accuracy    <      11.44675203 Ry

     iteration #  2     ecut=    40.00 Ry     beta= 0.40
     Davidson diagonalization with overlap

---- Real-time Memory Report at c_bands before calling an iterative solver
           323 MiB given to the printing process from OS
             0 MiB allocation reported by mallinfo(arena+hblkhd)
         11851 MiB available memory on the node where the printing process lives
------------------
     ethr =  1.14E-03,  avg # of iterations = 10.0

     negative rho (up, down):  3.636E-03 0.000E+00

     total cpu time spent up to now is     1774.6 secs

     total energy              =  -22308.79187055 Ry
     estimated scf accuracy    <     366.34832822 Ry

     iteration #  3     ecut=    40.00 Ry     beta= 0.40
     Davidson diagonalization with overlap

---- Real-time Memory Report at c_bands before calling an iterative solver
           336 MiB given to the printing process from OS
             0 MiB allocation reported by mallinfo(arena+hblkhd)
         11830 MiB available memory on the node where the printing process lives
------------------
     ethr =  1.14E-03,  avg # of iterations =  8.2

     negative rho (up, down):  3.233E-03 0.000E+00

     total cpu time spent up to now is     2310.1 secs

     total energy              =  -22330.73056609 Ry
     estimated scf accuracy    <       6.86932425 Ry

     iteration #  4     ecut=    40.00 Ry     beta= 0.40
     Davidson diagonalization with overlap

---- Real-time Memory Report at c_bands before calling an iterative solver
           337 MiB given to the printing process from OS
             0 MiB allocation reported by mallinfo(arena+hblkhd)
         11807 MiB available memory on the node where the printing process lives
------------------
     ethr =  6.84E-04,  avg # of iterations =  5.0

     negative rho (up, down):  3.102E-03 0.000E+00

     total cpu time spent up to now is     2689.6 secs

     total energy              =  -22331.10517837 Ry
     estimated scf accuracy    <       6.56044463 Ry

     iteration #  5     ecut=    40.00 Ry     beta= 0.40
     Davidson diagonalization with overlap

---- Real-time Memory Report at c_bands before calling an iterative solver
           338 MiB given to the printing process from OS
             0 MiB allocation reported by mallinfo(arena+hblkhd)
         11781 MiB available memory on the node where the printing process lives
------------------
     ethr =  6.53E-04,  avg # of iterations =  2.8

     negative rho (up, down):  3.055E-03 0.000E+00

     total cpu time spent up to now is     3053.5 secs

     total energy              =  -22331.54591299 Ry
     estimated scf accuracy    <       0.36052171 Ry

     iteration #  6     ecut=    40.00 Ry     beta= 0.40
     Davidson diagonalization with overlap

---- Real-time Memory Report at c_bands before calling an iterative solver
           338 MiB given to the printing process from OS
             0 MiB allocation reported by mallinfo(arena+hblkhd)
         11756 MiB available memory on the node where the printing process lives
------------------
     ethr =  3.59E-05,  avg # of iterations =  8.4

     negative rho (up, down):  3.139E-03 0.000E+00

     total cpu time spent up to now is     3456.0 secs

     total energy              =  -22331.54820338 Ry
     estimated scf accuracy    <       0.16760749 Ry

     iteration #  7     ecut=    40.00 Ry     beta= 0.40
     Davidson diagonalization with overlap

---- Real-time Memory Report at c_bands before calling an iterative solver
           339 MiB given to the printing process from OS
             0 MiB allocation reported by mallinfo(arena+hblkhd)
         11735 MiB available memory on the node where the printing process lives
------------------
     ethr =  1.67E-05,  avg # of iterations =  3.0

     negative rho (up, down):  3.213E-03 0.000E+00

     total cpu time spent up to now is     3824.2 secs

     total energy              =  -22331.54988132 Ry
     estimated scf accuracy    <       0.05433138 Ry

     iteration #  8     ecut=    40.00 Ry     beta= 0.40
     Davidson diagonalization with overlap

---- Real-time Memory Report at c_bands before calling an iterative solver
           340 MiB given to the printing process from OS
             0 MiB allocation reported by mallinfo(arena+hblkhd)
         11713 MiB available memory on the node where the printing process lives
------------------
     ethr =  5.41E-06,  avg # of iterations = 12.2

     negative rho (up, down):  3.249E-03 0.000E+00

     total cpu time spent up to now is     4218.8 secs

     total energy              =  -22331.54726108 Ry
     estimated scf accuracy    <       0.03844027 Ry

     iteration #  9     ecut=    40.00 Ry     beta= 0.40
     Davidson diagonalization with overlap

---- Real-time Memory Report at c_bands before calling an iterative solver
           340 MiB given to the printing process from OS
             0 MiB allocation reported by mallinfo(arena+hblkhd)
         11692 MiB available memory on the node where the printing process lives
------------------
     ethr =  3.83E-06,  avg # of iterations =  9.8

     negative rho (up, down):  3.274E-03 0.000E+00

     total cpu time spent up to now is     4591.0 secs

     total energy              =  -22331.54466066 Ry
     estimated scf accuracy    <       0.03223977 Ry

     iteration # 10     ecut=    40.00 Ry     beta= 0.40
     Davidson diagonalization with overlap

---- Real-time Memory Report at c_bands before calling an iterative solver
           341 MiB given to the printing process from OS
             0 MiB allocation reported by mallinfo(arena+hblkhd)
         11669 MiB available memory on the node where the printing process lives
------------------
     c_bands:  1 eigenvalues not converged
     c_bands:  1 eigenvalues not converged
     ethr =  3.21E-06,  avg # of iterations = 14.4

     negative rho (up, down):  3.303E-03 0.000E+00

     total cpu time spent up to now is     4977.1 secs

     total energy              =  -22331.54004129 Ry
     estimated scf accuracy    <       0.02679293 Ry

     iteration # 11     ecut=    40.00 Ry     beta= 0.40
     Davidson diagonalization with overlap

---- Real-time Memory Report at c_bands before calling an iterative solver
           342 MiB given to the printing process from OS
             0 MiB allocation reported by mallinfo(arena+hblkhd)
         11669 MiB available memory on the node where the printing process lives
------------------
     c_bands:  1 eigenvalues not converged
     c_bands:  2 eigenvalues not converged
     c_bands:  1 eigenvalues not converged
     ethr =  2.67E-06,  avg # of iterations = 17.6

     negative rho (up, down):  3.390E-03 0.000E+00

     total cpu time spent up to now is     5385.0 secs

     total energy              =  -22331.52644757 Ry
     estimated scf accuracy    <       0.01838607 Ry

     iteration # 12     ecut=    40.00 Ry     beta= 0.40
     Davidson diagonalization with overlap

---- Real-time Memory Report at c_bands before calling an iterative solver
           342 MiB given to the printing process from OS
             0 MiB allocation reported by mallinfo(arena+hblkhd)
         11669 MiB available memory on the node where the printing process lives
------------------
     ethr =  1.83E-06,  avg # of iterations = 17.8

     negative rho (up, down):  3.348E-03 0.000E+00

     total cpu time spent up to now is     5881.3 secs

     total energy              =  -22331.53001959 Ry
     estimated scf accuracy    <       0.00035259 Ry

     iteration # 13     ecut=    40.00 Ry     beta= 0.40
     Davidson diagonalization with overlap

---- Real-time Memory Report at c_bands before calling an iterative solver
           342 MiB given to the printing process from OS
             0 MiB allocation reported by mallinfo(arena+hblkhd)
         11670 MiB available memory on the node where the printing process lives
------------------
     ethr =  3.51E-08,  avg # of iterations =  3.0

     negative rho (up, down):  3.329E-03 0.000E+00

     total cpu time spent up to now is     6246.8 secs

     total energy              =  -22331.53004924 Ry
     estimated scf accuracy    <       0.00008624 Ry

     iteration # 14     ecut=    40.00 Ry     beta= 0.40
     Davidson diagonalization with overlap

---- Real-time Memory Report at c_bands before calling an iterative solver
           342 MiB given to the printing process from OS
             0 MiB allocation reported by mallinfo(arena+hblkhd)
         11668 MiB available memory on the node where the printing process lives
------------------
     ethr =  8.59E-09,  avg # of iterations =  2.0

     negative rho (up, down):  3.320E-03 0.000E+00

     total cpu time spent up to now is     6611.8 secs

     total energy              =  -22331.53005325 Ry
     estimated scf accuracy    <       0.00006834 Ry

     iteration # 15     ecut=    40.00 Ry     beta= 0.40
     Davidson diagonalization with overlap

---- Real-time Memory Report at c_bands before calling an iterative solver
           342 MiB given to the printing process from OS
             0 MiB allocation reported by mallinfo(arena+hblkhd)
         11669 MiB available memory on the node where the printing process lives
------------------
     ethr =  6.81E-09,  avg # of iterations =  2.0

     negative rho (up, down):  3.316E-03 0.000E+00

     total cpu time spent up to now is     6972.4 secs

     total energy              =  -22331.53005907 Ry
     estimated scf accuracy    <       0.00007788 Ry

     iteration # 16     ecut=    40.00 Ry     beta= 0.40
     Davidson diagonalization with overlap

---- Real-time Memory Report at c_bands before calling an iterative solver
           342 MiB given to the printing process from OS
             0 MiB allocation reported by mallinfo(arena+hblkhd)
         11666 MiB available memory on the node where the printing process lives
------------------
     ethr =  6.81E-09,  avg # of iterations =  1.0

     negative rho (up, down):  3.313E-03 0.000E+00

     total cpu time spent up to now is     7230.8 secs

     total energy              =  -22331.53006572 Ry
     estimated scf accuracy    <       0.00001247 Ry

     iteration # 17     ecut=    40.00 Ry     beta= 0.40
     Davidson diagonalization with overlap

---- Real-time Memory Report at c_bands before calling an iterative solver
           342 MiB given to the printing process from OS
             0 MiB allocation reported by mallinfo(arena+hblkhd)
         11666 MiB available memory on the node where the printing process lives
------------------
     ethr =  1.24E-09,  avg # of iterations =  2.0

     negative rho (up, down):  3.312E-03 0.000E+00

     total cpu time spent up to now is     7589.6 secs

     total energy              =  -22331.53006687 Ry
     estimated scf accuracy    <       0.00000162 Ry

     iteration # 18     ecut=    40.00 Ry     beta= 0.40
     Davidson diagonalization with overlap

---- Real-time Memory Report at c_bands before calling an iterative solver
           342 MiB given to the printing process from OS
             0 MiB allocation reported by mallinfo(arena+hblkhd)
         11668 MiB available memory on the node where the printing process lives
------------------
     ethr =  1.61E-10,  avg # of iterations =  2.0

     negative rho (up, down):  3.311E-03 0.000E+00

     total cpu time spent up to now is     7952.2 secs

     End of self-consistent calculation

          k = 0.0000 0.0000 0.0000 ( 64855 PWs)   bands (ev):

  -124.9359-124.9347-124.9341-124.9291-124.9280-124.9272-124.9258-124.9256
  -124.9249-124.9248-124.9237-124.9231-124.9227-124.9223-124.9219-124.9205
  -124.8052-124.7647-124.7629-124.7502-124.7492-124.7476-124.7468-124.7453
  -124.7439-124.7422-124.7410-124.7400-124.7393-124.7386-124.7379-124.7367
  -124.7354-124.7345-124.7335-124.7334-124.7330-124.7325-124.7324-124.7318
  -124.7318-124.7316-124.7313-124.7309-124.7305-124.7289-124.7287-124.7277
   -79.0996 -79.0981 -79.0978 -79.0915 -79.0909 -79.0899 -79.0896 -79.0893
   -79.0886 -79.0822 -79.0818 -79.0815 -79.0807 -79.0802 -79.0797 -79.0791
   -79.0785 -79.0779 -79.0771 -79.0764 -79.0756 -79.0755 -79.0750 -79.0743
   -79.0740 -79.0738 -79.0730 -79.0718 -79.0716 -79.0710 -79.0709 -79.0707
   -79.0696 -79.0690 -79.0689 -79.0685 -79.0684 -79.0682 -79.0677 -79.0663
   -79.0660 -79.0656 -79.0648 -79.0632 -79.0628 -79.0628 -79.0591 -79.0583
   -78.9622 -78.9532 -78.9528 -78.9207 -78.9187 -78.9173 -78.9151 -78.9150
   -78.9126 -78.9087 -78.9062 -78.9051 -78.9048 -78.9033 -78.9032 -78.9028
   -78.9013 -78.9005 -78.9004 -78.8996 -78.8988 -78.8985 -78.8983 -78.8982
   -78.8979 -78.8979 -78.8967 -78.8956 -78.8949 -78.8945 -78.8942 -78.8938
   -78.8935 -78.8934 -78.8923 -78.8922 -78.8921 -78.8915 -78.8913 -78.8912
   -78.8912 -78.8912 -78.8911 -78.8908 -78.8904 -78.8902 -78.8902 -78.8894
   -78.8891 -78.8889 -78.8887 -78.8887 -78.8881 -78.8879 -78.8873 -78.8873
   -78.8871 -78.8869 -78.8864 -78.8860 -78.8842 -78.8841 -78.8840 -78.8831
   -78.8822 -78.8811 -78.8809 -78.8807 -78.8805 -78.8801 -78.8800 -78.8798
   -78.8798 -78.8796 -78.8789 -78.8784 -78.8781 -78.8781 -78.8780 -78.8777
   -78.8773 -78.8767 -78.8765 -78.8738 -78.8719 -78.8717 -78.8715 -78.8710
   -78.8672 -78.8672 -78.8669 -78.8665 -78.8663 -78.8659 -78.8618 -78.8616
   -17.3933 -15.9221 -15.1007 -12.7237 -12.6533  -9.7784  -9.4804  -8.3942
    -7.5591  -7.2625  -7.1563  -7.0767  -6.9536  -6.8701  -6.8636  -6.8623
    -6.8592  -6.8551  -6.8516  -6.7636  -6.7625  -6.7622  -6.5792  -6.5784
    -6.5762  -6.5435  -6.5430  -6.5412  -6.4462  -6.4434  -6.4423  -6.4400
    -6.4398  -6.4370  -6.3977  -6.3970  -6.3966  -6.3948  -6.3945  -6.3936
    -6.3917  -6.3916  -6.3913  -6.3157  -6.3144  -6.3123  -6.3099  -6.3085
    -6.3069  -6.2827  -6.2814  -6.2809  -6.2803  -6.2793  -6.2787  -6.1947
    -6.1923  -6.1867  -6.1785  -6.1777  -6.1700  -6.1679  -6.1673  -6.1669
    -6.1421  -6.1271  -6.1259  -6.1244  -6.1224  -6.1205  -6.1191  -6.0790
    -6.0779  -6.0758  -6.0745  -6.0733  -6.0722  -6.0329  -6.0327  -6.0301
    -6.0284  -6.0273  -6.0260  -6.0177  -6.0173  -6.0172  -6.0168  -6.0164
    -6.0161  -5.9818  -5.9817  -5.9773  -5.9762  -5.9752  -5.9732  -5.9717
    -5.9698  -5.9695  -5.9693  -5.9685  -5.9466  -5.9459  -5.9452  -5.9445
    -5.9428  -5.9399  -5.8687  -5.8673  -5.8667  -5.8658  -5.8647  -5.8635
    -5.7954  -5.7953  -5.7735  -5.7734  -5.7479  -5.7474  -5.7466  -5.7386
    -5.7381  -5.7369  -5.7362  -5.7357  -5.7343  -5.7339  -5.7335  -5.7326
    -5.6804  -5.6798  -5.6765  -5.6685  -5.6670  -5.6668  -5.6652  -5.6647
    -5.6638  -5.6618  -5.6602  -5.6598  -5.6595  -5.6581  -5.6572  -5.6490
    -5.6489  -5.6486  -5.6483  -5.6476  -5.6474  -5.6385  -5.6375  -5.6329
    -5.6321  -5.6318  -5.6280  -5.5968  -5.5961  -5.5941  -5.5929  -5.5928
    -5.5910  -5.5890  -5.5877  -5.5869  -5.5861  -5.5856  -5.5852  -5.5840
    -5.5837  -5.5828  -5.5823  -5.5816  -5.5815  -5.5735  -5.5658  -5.5642
    -5.5634  -5.4690  -5.4688  -5.4670  -5.4664  -5.4662  -5.4655  -5.4654
    -5.4640  -5.4521  -5.4498  -5.4494  -5.4483  -5.4481  -5.4480  -5.4205
    -5.4186  -5.4142  -5.4115  -5.4106  -5.4096  -5.4062  -5.4060  -5.4047
    -5.3908  -5.3907  -5.3891  -5.3844  -5.3825  -5.3819  -5.3703  -5.3701
    -5.3698  -5.3689  -5.3688  -5.3687  -5.3305  -5.3296  -5.3270  -5.3246
    -5.3239  -5.3238  -5.3207  -5.3206  -5.3199  -5.3174  -5.3147  -5.3139
    -5.2851  -5.2843  -5.2836  -5.2782  -5.2777  -5.2767  -5.2763  -5.2762
    -5.2760  -5.2647  -5.2635  -5.2412  -5.2411  -5.2102  -5.2087  -5.2086
    -5.2077  -5.2066  -5.2064  -5.1732  -5.1732  -5.1729  -5.1726  -5.1723
    -5.1720  -5.1439  -5.1434  -5.1432  -4.9850  -4.9621  -4.9607  -4.9574
    -4.9432  -4.9432  -4.9431  -4.8486  -4.4281  -4.2713  -4.2702  -4.2702
    -4.2655  -4.2630  -4.2593  -3.9045  -3.6720  -3.3964  -2.7439  -2.5697
    -2.0039  -2.0035  -2.0012  -1.9987  -1.9982  -1.9872  -1.9094  -1.9070
    -1.9061  -1.9054  -1.9041  -1.9013  -1.8593  -1.4971  -1.2802  -0.6404
    -0.6342  -0.6336  -0.6142  -0.5547  -0.5026  -0.5015  -0.4996  -0.4982
    -0.4974  -0.4937   0.1049   0.1054   0.1060   0.4008   0.4012   0.4070
     0.8235   1.5597   1.5637   1.5654   1.5710   1.5734   1.5805   1.6419
     1.6538   1.6651   1.6688   1.6734   1.6828   2.4285   2.4299   2.4326
     3.0741   3.3231   3.3252   3.3264   4.1761   4.1840   4.1864   4.3985
     4.5714   4.7786   4.8328   4.8872   4.8953   4.9026   4.9205   5.1433
     5.4740   5.4873   5.4970   5.5014   5.5055   5.5146   5.6348   5.6354
     5.6402   5.6435   5.6469   5.6481   5.6504   5.7997   5.8035   5.8084
     5.8109   5.8153   5.8176   6.2461   6.3969   6.4617   6.5816   6.6328
     6.6402   6.6518   6.7314   6.7464   7.0169   7.1116   7.1201   7.1426
     7.1448   7.1462   7.1506   7.1529   7.1703   7.2956   7.3113   7.3148
     7.3155   7.3221   7.3242   7.3291   7.3631   7.4485   7.5432   7.5572
     7.6792   7.7131   7.9759   8.0507   8.0864   8.0942   8.1465   8.1610
     8.1842   8.1944   8.2140   8.3307   8.3359   8.3647   8.3941   8.4034
     8.4150   8.4253   8.4922   8.5084   8.5829   8.5960   8.6050   8.6505
     8.8707   9.1978

     occupation numbers 
     1.0000   1.0000   1.0000   1.0000   1.0000   1.0000   1.0000   1.0000
     1.0000   1.0000   1.0000   1.0000   1.0000   1.0000   1.0000   1.0000
     1.0000   1.0000   1.0000   1.0000   1.0000   1.0000   1.0000   1.0000
     1.0000   1.0000   1.0000   1.0000   1.0000   1.0000   1.0000   1.0000
     1.0000   1.0000   1.0000   1.0000   1.0000   1.0000   1.0000   1.0000
     1.0000   1.0000   1.0000   1.0000   1.0000   1.0000   1.0000   1.0000
     1.0000   1.0000   1.0000   1.0000   1.0000   1.0000   1.0000   1.0000
     1.0000   1.0000   1.0000   1.0000   1.0000   1.0000   1.0000   1.0000
     1.0000   1.0000   1.0000   1.0000   1.0000   1.0000   1.0000   1.0000
     1.0000   1.0000   1.0000   1.0000   1.0000   1.0000   1.0000   1.0000
     1.0000   1.0000   1.0000   1.0000   1.0000   1.0000   1.0000   1.0000
     1.0000   1.0000   1.0000   1.0000   1.0000   1.0000   1.0000   1.0000
     1.0000   1.0000   1.0000   1.0000   1.0000   1.0000   1.0000   1.0000
     1.0000   1.0000   1.0000   1.0000   1.0000   1.0000   1.0000   1.0000
     1.0000   1.0000   1.0000   1.0000   1.0000   1.0000   1.0000   1.0000
     1.0000   1.0000   1.0000   1.0000   1.0000   1.0000   1.0000   1.0000
     1.0000   1.0000   1.0000   1.0000   1.0000   1.0000   1.0000   1.0000
     1.0000   1.0000   1.0000   1.0000   1.0000   1.0000   1.0000   1.0000
     1.0000   1.0000   1.0000   1.0000   1.0000   1.0000   1.0000   1.0000
     1.0000   1.0000   1.0000   1.0000   1.0000   1.0000   1.0000   1.0000
     1.0000   1.0000   1.0000   1.0000   1.0000   1.0000   1.0000   1.0000
     1.0000   1.0000   1.0000   1.0000   1.0000   1.0000   1.0000   1.0000
     1.0000   1.0000   1.0000   1.0000   1.0000   1.0000   1.0000   1.0000
     1.0000   1.0000   1.0000   1.0000   1.0000   1.0000   1.0000   1.0000
     1.0000   1.0000   1.0000   1.0000   1.0000   1.0000   1.0000   1.0000
     1.0000   1.0000   1.0000   1.0000   1.0000   1.0000   1.0000   1.0000
     1.0000   1.0000   1.0000   1.0000   1.0000   1.0000   1.0000   1.0000
     1.0000   1.0000   1.0000   1.0000   1.0000   1.0000   1.0000   1.0000
     1.0000   1.0000   1.0000   1.0000   1.0000   1.0000   1.0000   1.0000
     1.0000   1.0000   1.0000   1.0000   1.0000   1.0000   1.0000   1.0000
     1.0000   1.0000   1.0000   1.0000   1.0000   1.0000   1.0000   1.0000
     1.0000   1.0000   1.0000   1.0000   1.0000   1.0000   1.0000   1.0000
     1.0000   1.0000   1.0000   1.0000   1.0000   1.0000   1.0000   1.0000
     1.0000   1.0000   1.0000   1.0000   1.0000   1.0000   1.0000   1.0000
     1.0000   1.0000   1.0000   1.0000   1.0000   1.0000   1.0000   1.0000
     1.0000   1.0000   1.0000   1.0000   1.0000   1.0000   1.0000   1.0000
     1.0000   1.0000   1.0000   1.0000   1.0000   1.0000   1.0000   1.0000
     1.0000   1.0000   1.0000   1.0000   1.0000   1.0000   1.0000   1.0000
     1.0000   1.0000   1.0000   1.0000   1.0000   1.0000   1.0000   1.0000
     1.0000   1.0000   1.0000   1.0000   1.0000   1.0000   1.0000   1.0000
     1.0000   1.0000   1.0000   1.0000   1.0000   1.0000   1.0000   1.0000
     1.0000   1.0000   1.0000   1.0000   1.0000   1.0000   1.0000   1.0000
     1.0000   1.0000   1.0000   1.0000   1.0000   1.0000   1.0000   1.0000
     1.0000   1.0000   1.0000   1.0000   1.0000   1.0000   1.0000   1.0000
     1.0000   1.0000   1.0000   1.0000   1.0000   1.0000   1.0000   1.0000
     1.0000   1.0000   1.0000   1.0000   1.0000   1.0000   1.0000   1.0000
     1.0000   1.0000   1.0000   1.0000   1.0000   1.0000   1.0000   1.0000
     1.0000   1.0000   1.0000   1.0000   1.0000   1.0000   1.0000   1.0000
     1.0000   1.0000   1.0000   1.0000   1.0000   1.0000   1.0000   1.0000
     1.0000   1.0000   1.0000   1.0000   1.0000   1.0000   1.0000   1.0000
     1.0000   1.0000   1.0000   1.0000   1.0000   1.0000   1.0000   1.0000
     1.0000   1.0000   1.0000   1.0000   1.0000   1.0000   1.0000   1.0000
     1.0000   1.0000   1.0000   1.0000   1.0000   1.0000   1.0000   1.0000
     1.0000   1.0000   1.0000   1.0000   1.0000   1.0000   1.0000   1.0000
     1.0000   1.0000   1.0000   1.0000   1.0000   1.0000   1.0000   1.0000
     1.0000   1.0000   1.0000   1.0000   1.0000   1.0000   1.0000   1.0000
     1.0000   1.0000   1.0000   1.0000   1.0000   1.0000   1.0000   1.0000
     1.0000   1.0000   1.0000   1.0000   1.0000   1.0000   1.0000   1.0000
     1.0000   1.0000   1.0000   1.0000   1.0000   1.0000   1.0000   1.0000
     1.0000   1.0000   1.0000   1.0000   1.0000   1.0000   1.0000   1.0000
     1.0000   1.0000   1.0000   1.0000   1.0000   1.0000   1.0000   1.0000
     1.0000   1.0000   1.0000   1.0000   1.0000   1.0000   1.0000   1.0000
     1.0023   0.5380   0.5269   0.5223   0.5071   0.5006   0.4813   0.3276
     0.3008   0.2768   0.2691   0.2598   0.2412   0.0000   0.0000   0.0000
     0.0000   0.0000   0.0000   0.0000   0.0000   0.0000   0.0000   0.0000
     0.0000   0.0000   0.0000   0.0000   0.0000   0.0000   0.0000   0.0000
     0.0000   0.0000   0.0000   0.0000   0.0000   0.0000   0.0000   0.0000
     0.0000   0.0000   0.0000   0.0000   0.0000   0.0000   0.0000   0.0000
     0.0000   0.0000   0.0000   0.0000   0.0000   0.0000   0.0000   0.0000
     0.0000   0.0000   0.0000   0.0000   0.0000   0.0000   0.0000   0.0000
     0.0000   0.0000   0.0000   0.0000   0.0000   0.0000   0.0000   0.0000
     0.0000   0.0000   0.0000   0.0000   0.0000   0.0000   0.0000   0.0000
     0.0000   0.0000   0.0000   0.0000   0.0000   0.0000   0.0000   0.0000
     0.0000   0.0000   0.0000   0.0000   0.0000   0.0000   0.0000   0.0000
     0.0000   0.0000   0.0000   0.0000   0.0000   0.0000   0.0000   0.0000
     0.0000   0.0000

          k = 0.0000 0.3849 0.0000 ( 64840 PWs)   bands (ev):

  -124.9359-124.9347-124.9341-124.9291-124.9280-124.9272-124.9259-124.9256
  -124.9249-124.9248-124.9237-124.9231-124.9227-124.9223-124.9219-124.9205
  -124.8052-124.7647-124.7629-124.7502-124.7492-124.7476-124.7468-124.7453
  -124.7439-124.7422-124.7409-124.7400-124.7393-124.7387-124.7379-124.7367
  -124.7353-124.7347-124.7335-124.7332-124.7330-124.7328-124.7322-124.7319
  -124.7317-124.7316-124.7312-124.7309-124.7305-124.7289-124.7287-124.7277
   -79.0986 -79.0969 -79.0965 -79.0930 -79.0923 -79.0909 -79.0898 -79.0877
   -79.0867 -79.0864 -79.0838 -79.0824 -79.0822 -79.0809 -79.0807 -79.0803
   -79.0796 -79.0777 -79.0763 -79.0753 -79.0750 -79.0738 -79.0735 -79.0731
   -79.0730 -79.0718 -79.0716 -79.0715 -79.0713 -79.0711 -79.0707 -79.0697
   -79.0696 -79.0690 -79.0685 -79.0683 -79.0682 -79.0679 -79.0678 -79.0674
   -79.0669 -79.0663 -79.0649 -79.0639 -79.0633 -79.0615 -79.0603 -79.0595
   -78.9622 -78.9532 -78.9528 -78.9207 -78.9187 -78.9167 -78.9163 -78.9153
   -78.9108 -78.9075 -78.9062 -78.9052 -78.9048 -78.9032 -78.9028 -78.9027
   -78.9017 -78.9013 -78.9008 -78.9001 -78.8996 -78.8991 -78.8979 -78.8971
   -78.8971 -78.8970 -78.8966 -78.8960 -78.8957 -78.8953 -78.8949 -78.8943
   -78.8938 -78.8937 -78.8937 -78.8934 -78.8922 -78.8922 -78.8920 -78.8918
   -78.8914 -78.8911 -78.8904 -78.8893 -78.8893 -78.8893 -78.8890 -78.8887
   -78.8887 -78.8886 -78.8883 -78.8883 -78.8877 -78.8874 -78.8872 -78.8871
   -78.8868 -78.8865 -78.8864 -78.8860 -78.8850 -78.8849 -78.8845 -78.8842
   -78.8842 -78.8839 -78.8836 -78.8831 -78.8819 -78.8818 -78.8817 -78.8803
   -78.8792 -78.8783 -78.8771 -78.8769 -78.8765 -78.8761 -78.8759 -78.8757
   -78.8743 -78.8740 -78.8735 -78.8731 -78.8729 -78.8723 -78.8711 -78.8706
   -78.8695 -78.8690 -78.8682 -78.8666 -78.8661 -78.8643 -78.8637 -78.8623
   -17.3933 -15.9221 -15.1007 -12.7237 -12.6533  -9.7784  -9.4804  -8.1836
    -7.5863  -7.5584  -7.1571  -7.1196  -7.0605  -7.0563  -7.0416  -6.8435
    -6.7341  -6.6884  -6.6876  -6.6810  -6.6505  -6.5989  -6.5983  -6.5874
    -6.5451  -6.5151  -6.5145  -6.5129  -6.4809  -6.4799  -6.4721  -6.4709
    -6.4629  -6.4496  -6.4179  -6.4176  -6.3893  -6.3887  -6.3818  -6.3799
    -6.3738  -6.3713  -6.3708  -6.3676  -6.3584  -6.3491  -6.3486  -6.3453
    -6.3441  -6.3191  -6.3182  -6.2898  -6.2886  -6.2870  -6.2866  -6.2724
    -6.2719  -6.2616  -6.2420  -6.2410  -6.1994  -6.1989  -6.1802  -6.1795
    -6.1704  -6.1630  -6.1607  -6.1511  -6.1486  -6.1227  -6.1221  -6.1209
    -6.1190  -6.1146  -6.1142  -6.0915  -6.0902  -6.0877  -6.0848  -6.0837
    -6.0720  -6.0712  -6.0606  -6.0591  -6.0441  -6.0423  -6.0419  -6.0383
    -6.0338  -6.0081  -5.9841  -5.9828  -5.9759  -5.9746  -5.9592  -5.9583
    -5.9571  -5.9483  -5.9477  -5.9384  -5.9298  -5.9224  -5.9211  -5.9023
    -5.9020  -5.8959  -5.8956  -5.8845  -5.8807  -5.8625  -5.8611  -5.8424
    -5.8372  -5.8296  -5.8198  -5.8195  -5.8150  -5.8040  -5.8023  -5.8007
    -5.7869  -5.7759  -5.7724  -5.7453  -5.7403  -5.7382  -5.7243  -5.7237
    -5.7221  -5.7116  -5.7072  -5.7061  -5.7031  -5.7016  -5.6948  -5.6721
    -5.6698  -5.6667  -5.6623  -5.6606  -5.6568  -5.6538  -5.6527  -5.6507
    -5.6444  -5.6431  -5.6336  -5.6326  -5.6311  -5.6205  -5.6156  -5.6132
    -5.6019  -5.6002  -5.5956  -5.5917  -5.5912  -5.5820  -5.5703  -5.5696
    -5.5613  -5.5605  -5.5473  -5.5451  -5.5374  -5.5363  -5.5319  -5.5317
    -5.5134  -5.5098  -5.5079  -5.5023  -5.5014  -5.4964  -5.4956  -5.4947
    -5.4929  -5.4796  -5.4544  -5.4517  -5.4484  -5.4439  -5.4432  -5.4361
    -5.4338  -5.4297  -5.4285  -5.4215  -5.4168  -5.4160  -5.4102  -5.4093
    -5.4088  -5.4082  -5.4078  -5.4062  -5.4060  -5.3992  -5.3988  -5.3882
    -5.3876  -5.3802  -5.3799  -5.3647  -5.3613  -5.3593  -5.3574  -5.3568
    -5.3516  -5.3514  -5.3296  -5.3257  -5.3228  -5.3202  -5.3192  -5.3179
    -5.3159  -5.3135  -5.3072  -5.3066  -5.3015  -5.2973  -5.2969  -5.2960
    -5.2885  -5.2879  -5.2758  -5.2752  -5.2733  -5.2592  -5.2574  -5.2571
    -5.2476  -5.2471  -5.2460  -5.2163  -5.2146  -5.2143  -5.2015  -5.1951
    -5.1949  -5.1891  -5.1876  -5.1823  -5.1822  -5.1770  -5.1603  -5.1556
    -5.1551  -5.0557  -5.0540  -5.0365  -5.0364  -5.0192  -5.0026  -4.9895
    -4.9361  -4.8476  -4.7801  -4.7786  -4.5480  -4.5452  -4.4286  -4.3926
    -3.9059  -3.6758  -3.5815  -3.5811  -3.5057  -3.5007  -3.2539  -2.9590
    -2.8118  -2.7427  -2.5703  -2.5452  -2.3288  -2.3256  -2.2249  -2.2224
    -1.8597  -1.7551  -1.7549  -1.4973  -1.3064  -1.2693  -1.2654  -1.2637
    -1.2474  -1.1408  -0.7383  -0.5546  -0.3574  -0.3571  -0.3350  -0.0811
    -0.0742   0.0508   0.0531   0.1888   0.1906   0.4529   0.7896   0.8292
     1.0326   1.0382   1.1923   1.2057   1.5819   1.5838   1.6018   1.6080
     2.5656   2.5689   2.5728   2.5744   2.9046   2.9054   3.1488   3.2104
     3.2265   3.2277   3.2779   3.6477   3.6486   3.8552   3.8705   3.8916
     3.9260   3.9295   4.2696   4.3299   4.3326   4.3662   4.4671   4.5393
     4.5997   4.8798   4.8816   5.1895   5.1987   5.2198   5.2680   5.2805
     5.3383   5.6162   5.6359   5.8228   5.8358   5.8500   5.8715   5.9713
     6.2238   6.2431   6.2488   6.3032   6.3515   6.3953   6.4062   6.4291
     6.4619   6.4761   6.5363   6.6030   6.6409   6.7255   6.7309   6.8773
     6.8986   6.9180   6.9303   6.9383   7.0349   7.0859   7.1507   7.3046
     7.4068   7.4297   7.5088   7.5558   7.5843   7.7820   7.8392   7.8566
     7.8750   7.8860   7.9945   8.0070   8.0423   8.1068   8.1486   8.2425
     8.2710   8.2728   8.3724   8.4270   8.4748   8.6364   8.6570   8.7415
     8.7964   8.8079   8.8162   8.8610   8.9452   8.9685   8.9719   8.9892
     9.0529   9.1050

     occupation numbers 
     1.0000   1.0000   1.0000   1.0000   1.0000   1.0000   1.0000   1.0000
     1.0000   1.0000   1.0000   1.0000   1.0000   1.0000   1.0000   1.0000
     1.0000   1.0000   1.0000   1.0000   1.0000   1.0000   1.0000   1.0000
     1.0000   1.0000   1.0000   1.0000   1.0000   1.0000   1.0000   1.0000
     1.0000   1.0000   1.0000   1.0000   1.0000   1.0000   1.0000   1.0000
     1.0000   1.0000   1.0000   1.0000   1.0000   1.0000   1.0000   1.0000
     1.0000   1.0000   1.0000   1.0000   1.0000   1.0000   1.0000   1.0000
     1.0000   1.0000   1.0000   1.0000   1.0000   1.0000   1.0000   1.0000
     1.0000   1.0000   1.0000   1.0000   1.0000   1.0000   1.0000   1.0000
     1.0000   1.0000   1.0000   1.0000   1.0000   1.0000   1.0000   1.0000
     1.0000   1.0000   1.0000   1.0000   1.0000   1.0000   1.0000   1.0000
     1.0000   1.0000   1.0000   1.0000   1.0000   1.0000   1.0000   1.0000
     1.0000   1.0000   1.0000   1.0000   1.0000   1.0000   1.0000   1.0000
     1.0000   1.0000   1.0000   1.0000   1.0000   1.0000   1.0000   1.0000
     1.0000   1.0000   1.0000   1.0000   1.0000   1.0000   1.0000   1.0000
     1.0000   1.0000   1.0000   1.0000   1.0000   1.0000   1.0000   1.0000
     1.0000   1.0000   1.0000   1.0000   1.0000   1.0000   1.0000   1.0000
     1.0000   1.0000   1.0000   1.0000   1.0000   1.0000   1.0000   1.0000
     1.0000   1.0000   1.0000   1.0000   1.0000   1.0000   1.0000   1.0000
     1.0000   1.0000   1.0000   1.0000   1.0000   1.0000   1.0000   1.0000
     1.0000   1.0000   1.0000   1.0000   1.0000   1.0000   1.0000   1.0000
     1.0000   1.0000   1.0000   1.0000   1.0000   1.0000   1.0000   1.0000
     1.0000   1.0000   1.0000   1.0000   1.0000   1.0000   1.0000   1.0000
     1.0000   1.0000   1.0000   1.0000   1.0000   1.0000   1.0000   1.0000
     1.0000   1.0000   1.0000   1.0000   1.0000   1.0000   1.0000   1.0000
     1.0000   1.0000   1.0000   1.0000   1.0000   1.0000   1.0000   1.0000
     1.0000   1.0000   1.0000   1.0000   1.0000   1.0000   1.0000   1.0000
     1.0000   1.0000   1.0000   1.0000   1.0000   1.0000   1.0000   1.0000
     1.0000   1.0000   1.0000   1.0000   1.0000   1.0000   1.0000   1.0000
     1.0000   1.0000   1.0000   1.0000   1.0000   1.0000   1.0000   1.0000
     1.0000   1.0000   1.0000   1.0000   1.0000   1.0000   1.0000   1.0000
     1.0000   1.0000   1.0000   1.0000   1.0000   1.0000   1.0000   1.0000
     1.0000   1.0000   1.0000   1.0000   1.0000   1.0000   1.0000   1.0000
     1.0000   1.0000   1.0000   1.0000   1.0000   1.0000   1.0000   1.0000
     1.0000   1.0000   1.0000   1.0000   1.0000   1.0000   1.0000   1.0000
     1.0000   1.0000   1.0000   1.0000   1.0000   1.0000   1.0000   1.0000
     1.0000   1.0000   1.0000   1.0000   1.0000   1.0000   1.0000   1.0000
     1.0000   1.0000   1.0000   1.0000   1.0000   1.0000   1.0000   1.0000
     1.0000   1.0000   1.0000   1.0000   1.0000   1.0000   1.0000   1.0000
     1.0000   1.0000   1.0000   1.0000   1.0000   1.0000   1.0000   1.0000
     1.0000   1.0000   1.0000   1.0000   1.0000   1.0000   1.0000   1.0000
     1.0000   1.0000   1.0000   1.0000   1.0000   1.0000   1.0000   1.0000
     1.0000   1.0000   1.0000   1.0000   1.0000   1.0000   1.0000   1.0000
     1.0000   1.0000   1.0000   1.0000   1.0000   1.0000   1.0000   1.0000
     1.0000   1.0000   1.0000   1.0000   1.0000   1.0000   1.0000   1.0000
     1.0000   1.0000   1.0000   1.0000   1.0000   1.0000   1.0000   1.0000
     1.0000   1.0000   1.0000   1.0000   1.0000   1.0000   1.0000   1.0000
     1.0000   1.0000   1.0000   1.0000   1.0000   1.0000   1.0000   1.0000
     1.0000   1.0000   1.0000   1.0000   1.0000   1.0000   1.0000   1.0000
     1.0000   1.0000   1.0000   1.0000   1.0000   1.0000   1.0000   1.0000
     1.0000   1.0000   1.0000   1.0000   1.0000   1.0000   1.0000   1.0000
     1.0000   1.0000   1.0000   1.0000   1.0000   1.0000   1.0000   1.0000
     1.0000   1.0000   1.0000   1.0000   1.0000   1.0000   1.0000   1.0000
     1.0000   1.0000   1.0000   1.0000   1.0000   1.0000   1.0000   1.0000
     1.0000   1.0000   1.0000   1.0000   1.0000   1.0000   1.0000   1.0000
     1.0000   1.0000   1.0000   1.0000   1.0000   1.0000   1.0000   1.0000
     1.0000   1.0000   1.0000   1.0000   1.0000   1.0000   1.0000   1.0000
     1.0000   1.0000   1.0000   1.0000   1.0000   1.0000   1.0000   1.0000
     1.0000   1.0000   1.0000   1.0000   1.0000   1.0000   1.0000   1.0000
     1.0000   1.0000   1.0000   1.0000   1.0000   1.0000   1.0000   1.0000
     1.0000   1.0000   1.0000   1.0000   1.0000   1.0000   1.0000   1.0000
     1.0000   1.0000   1.0000   1.0000   1.0000   1.0000   1.0014   1.0025
     1.0308   1.0324   1.0799   1.0820   0.4777   0.4725   0.4253   0.4096
     0.0000   0.0000   0.0000   0.0000   0.0000   0.0000   0.0000   0.0000
     0.0000   0.0000   0.0000   0.0000   0.0000   0.0000   0.0000   0.0000
     0.0000   0.0000   0.0000   0.0000   0.0000   0.0000   0.0000   0.0000
     0.0000   0.0000   0.0000   0.0000   0.0000   0.0000   0.0000   0.0000
     0.0000   0.0000   0.0000   0.0000   0.0000   0.0000   0.0000   0.0000
     0.0000   0.0000   0.0000   0.0000   0.0000   0.0000   0.0000   0.0000
     0.0000   0.0000   0.0000   0.0000   0.0000   0.0000   0.0000   0.0000
     0.0000   0.0000   0.0000   0.0000   0.0000   0.0000   0.0000   0.0000
     0.0000   0.0000   0.0000   0.0000   0.0000   0.0000   0.0000   0.0000
     0.0000   0.0000   0.0000   0.0000   0.0000   0.0000   0.0000   0.0000
     0.0000   0.0000   0.0000   0.0000   0.0000   0.0000   0.0000   0.0000
     0.0000   0.0000   0.0000   0.0000   0.0000   0.0000   0.0000   0.0000
     0.0000   0.0000

          k = 0.3333 0.1925 0.0000 ( 64840 PWs)   bands (ev):

  -124.9359-124.9347-124.9341-124.9291-124.9280-124.9272-124.9258-124.9256
  -124.9249-124.9247-124.9237-124.9231-124.9227-124.9223-124.9219-124.9205
  -124.8052-124.7647-124.7629-124.7502-124.7492-124.7476-124.7468-124.7453
  -124.7439-124.7422-124.7409-124.7400-124.7393-124.7387-124.7379-124.7367
  -124.7353-124.7347-124.7336-124.7332-124.7329-124.7327-124.7322-124.7319
  -124.7317-124.7316-124.7312-124.7309-124.7305-124.7289-124.7287-124.7277
   -79.0986 -79.0971 -79.0965 -79.0925 -79.0923 -79.0910 -79.0895 -79.0878
   -79.0872 -79.0864 -79.0839 -79.0826 -79.0822 -79.0808 -79.0805 -79.0803
   -79.0798 -79.0777 -79.0763 -79.0750 -79.0748 -79.0741 -79.0738 -79.0730
   -79.0725 -79.0718 -79.0715 -79.0715 -79.0713 -79.0711 -79.0707 -79.0696
   -79.0694 -79.0690 -79.0686 -79.0685 -79.0682 -79.0681 -79.0678 -79.0672
   -79.0669 -79.0663 -79.0650 -79.0640 -79.0630 -79.0618 -79.0605 -79.0592
   -78.9622 -78.9532 -78.9528 -78.9207 -78.9187 -78.9167 -78.9163 -78.9153
   -78.9108 -78.9074 -78.9062 -78.9052 -78.9048 -78.9032 -78.9030 -78.9028
   -78.9016 -78.9013 -78.9008 -78.9000 -78.8996 -78.8992 -78.8979 -78.8972
   -78.8971 -78.8970 -78.8966 -78.8960 -78.8957 -78.8954 -78.8949 -78.8943
   -78.8939 -78.8938 -78.8938 -78.8934 -78.8922 -78.8922 -78.8920 -78.8918
   -78.8912 -78.8911 -78.8904 -78.8893 -78.8893 -78.8890 -78.8890 -78.8887
   -78.8887 -78.8886 -78.8885 -78.8883 -78.8877 -78.8875 -78.8872 -78.8871
   -78.8868 -78.8864 -78.8864 -78.8860 -78.8850 -78.8848 -78.8846 -78.8842
   -78.8840 -78.8839 -78.8835 -78.8831 -78.8819 -78.8818 -78.8818 -78.8804
   -78.8792 -78.8783 -78.8770 -78.8769 -78.8766 -78.8761 -78.8759 -78.8758
   -78.8743 -78.8740 -78.8735 -78.8730 -78.8728 -78.8723 -78.8711 -78.8706
   -78.8696 -78.8689 -78.8682 -78.8666 -78.8661 -78.8643 -78.8637 -78.8624
   -17.3933 -15.9221 -15.1007 -12.7237 -12.6533  -9.7784  -9.4804  -8.1836
    -7.5863  -7.5585  -7.1571  -7.1197  -7.0605  -7.0564  -7.0415  -6.8435
    -6.7341  -6.6884  -6.6876  -6.6809  -6.6505  -6.5990  -6.5982  -6.5874
    -6.5452  -6.5151  -6.5145  -6.5129  -6.4809  -6.4799  -6.4721  -6.4709
    -6.4628  -6.4496  -6.4182  -6.4175  -6.3894  -6.3886  -6.3818  -6.3797
    -6.3741  -6.3714  -6.3707  -6.3674  -6.3584  -6.3490  -6.3484  -6.3454
    -6.3441  -6.3192  -6.3183  -6.2897  -6.2885  -6.2871  -6.2866  -6.2724
    -6.2718  -6.2616  -6.2420  -6.2411  -6.1994  -6.1988  -6.1804  -6.1796
    -6.1704  -6.1629  -6.1607  -6.1513  -6.1484  -6.1229  -6.1221  -6.1208
    -6.1188  -6.1146  -6.1143  -6.0913  -6.0903  -6.0877  -6.0849  -6.0837
    -6.0720  -6.0712  -6.0605  -6.0591  -6.0441  -6.0424  -6.0419  -6.0383
    -6.0338  -6.0081  -5.9841  -5.9828  -5.9759  -5.9745  -5.9593  -5.9584
    -5.9571  -5.9480  -5.9475  -5.9386  -5.9298  -5.9224  -5.9211  -5.9024
    -5.9020  -5.8959  -5.8955  -5.8844  -5.8807  -5.8624  -5.8611  -5.8423
    -5.8372  -5.8297  -5.8198  -5.8194  -5.8150  -5.8040  -5.8022  -5.8007
    -5.7869  -5.7759  -5.7725  -5.7454  -5.7403  -5.7382  -5.7244  -5.7238
    -5.7222  -5.7116  -5.7071  -5.7060  -5.7032  -5.7016  -5.6947  -5.6721
    -5.6698  -5.6666  -5.6624  -5.6607  -5.6567  -5.6539  -5.6527  -5.6506
    -5.6444  -5.6432  -5.6336  -5.6327  -5.6310  -5.6205  -5.6156  -5.6131
    -5.6019  -5.6002  -5.5955  -5.5916  -5.5913  -5.5820  -5.5703  -5.5695
    -5.5613  -5.5605  -5.5473  -5.5451  -5.5374  -5.5364  -5.5319  -5.5317
    -5.5134  -5.5098  -5.5080  -5.5023  -5.5012  -5.4964  -5.4957  -5.4948
    -5.4929  -5.4796  -5.4543  -5.4518  -5.4484  -5.4439  -5.4432  -5.4360
    -5.4339  -5.4297  -5.4285  -5.4216  -5.4169  -5.4160  -5.4102  -5.4094
    -5.4087  -5.4082  -5.4078  -5.4063  -5.4060  -5.3993  -5.3988  -5.3882
    -5.3876  -5.3802  -5.3799  -5.3648  -5.3612  -5.3594  -5.3574  -5.3568
    -5.3516  -5.3514  -5.3296  -5.3256  -5.3228  -5.3202  -5.3192  -5.3179
    -5.3159  -5.3135  -5.3072  -5.3066  -5.3015  -5.2972  -5.2970  -5.2960
    -5.2884  -5.2879  -5.2758  -5.2751  -5.2733  -5.2593  -5.2574  -5.2572
    -5.2476  -5.2471  -5.2460  -5.2163  -5.2146  -5.2143  -5.2015  -5.1951
    -5.1949  -5.1890  -5.1877  -5.1824  -5.1822  -5.1770  -5.1603  -5.1556
    -5.1551  -5.0557  -5.0541  -5.0365  -5.0364  -5.0192  -5.0026  -4.9897
    -4.9359  -4.8476  -4.7801  -4.7786  -4.5479  -4.5454  -4.4286  -4.3926
    -3.9059  -3.6757  -3.5815  -3.5811  -3.5055  -3.5009  -3.2539  -2.9589
    -2.8117  -2.7429  -2.5701  -2.5452  -2.3288  -2.3257  -2.2247  -2.2226
    -1.8597  -1.7551  -1.7549  -1.4973  -1.3063  -1.2689  -1.2657  -1.2638
    -1.2473  -1.1409  -0.7383  -0.5546  -0.3574  -0.3570  -0.3352  -0.0809
    -0.0744   0.0509   0.0530   0.1888   0.1907   0.4531   0.7903   0.8277
     1.0326   1.0383   1.1919   1.2066   1.5816   1.5841   1.6018   1.6080
     2.5659   2.5692   2.5722   2.5743   2.9046   2.9053   3.1489   3.2103
     3.2264   3.2276   3.2780   3.6478   3.6485   3.8554   3.8705   3.8917
     3.9263   3.9292   4.2696   4.3294   4.3331   4.3642   4.4661   4.5426
     4.5988   4.8798   4.8819   5.1897   5.1986   5.2187   5.2680   5.2805
     5.3391   5.6167   5.6358   5.8238   5.8355   5.8488   5.8719   5.9730
     6.2251   6.2424   6.2481   6.3016   6.3481   6.3959   6.4065   6.4311
     6.4597   6.4754   6.5327   6.6000   6.6374   6.7259   6.7314   6.8770
     6.9037   6.9173   6.9298   6.9384   7.0308   7.0853   7.1596   7.3057
     7.4235   7.4356   7.5067   7.5573   7.5848   7.7747   7.8334   7.8569
     7.8746   7.8835   7.9906   8.0072   8.0428   8.1065   8.1500   8.2429
     8.2717   8.2733   8.3697   8.4301   8.4697   8.6427   8.6641   8.7429
     8.7953   8.8082   8.8169   8.8682   8.9479   8.9698   8.9727   8.9943
     9.0498   9.1085

     occupation numbers 
     1.0000   1.0000   1.0000   1.0000   1.0000   1.0000   1.0000   1.0000
     1.0000   1.0000   1.0000   1.0000   1.0000   1.0000   1.0000   1.0000
     1.0000   1.0000   1.0000   1.0000   1.0000   1.0000   1.0000   1.0000
     1.0000   1.0000   1.0000   1.0000   1.0000   1.0000   1.0000   1.0000
     1.0000   1.0000   1.0000   1.0000   1.0000   1.0000   1.0000   1.0000
     1.0000   1.0000   1.0000   1.0000   1.0000   1.0000   1.0000   1.0000
     1.0000   1.0000   1.0000   1.0000   1.0000   1.0000   1.0000   1.0000
     1.0000   1.0000   1.0000   1.0000   1.0000   1.0000   1.0000   1.0000
     1.0000   1.0000   1.0000   1.0000   1.0000   1.0000   1.0000   1.0000
     1.0000   1.0000   1.0000   1.0000   1.0000   1.0000   1.0000   1.0000
     1.0000   1.0000   1.0000   1.0000   1.0000   1.0000   1.0000   1.0000
     1.0000   1.0000   1.0000   1.0000   1.0000   1.0000   1.0000   1.0000
     1.0000   1.0000   1.0000   1.0000   1.0000   1.0000   1.0000   1.0000
     1.0000   1.0000   1.0000   1.0000   1.0000   1.0000   1.0000   1.0000
     1.0000   1.0000   1.0000   1.0000   1.0000   1.0000   1.0000   1.0000
     1.0000   1.0000   1.0000   1.0000   1.0000   1.0000   1.0000   1.0000
     1.0000   1.0000   1.0000   1.0000   1.0000   1.0000   1.0000   1.0000
     1.0000   1.0000   1.0000   1.0000   1.0000   1.0000   1.0000   1.0000
     1.0000   1.0000   1.0000   1.0000   1.0000   1.0000   1.0000   1.0000
     1.0000   1.0000   1.0000   1.0000   1.0000   1.0000   1.0000   1.0000
     1.0000   1.0000   1.0000   1.0000   1.0000   1.0000   1.0000   1.0000
     1.0000   1.0000   1.0000   1.0000   1.0000   1.0000   1.0000   1.0000
     1.0000   1.0000   1.0000   1.0000   1.0000   1.0000   1.0000   1.0000
     1.0000   1.0000   1.0000   1.0000   1.0000   1.0000   1.0000   1.0000
     1.0000   1.0000   1.0000   1.0000   1.0000   1.0000   1.0000   1.0000
     1.0000   1.0000   1.0000   1.0000   1.0000   1.0000   1.0000   1.0000
     1.0000   1.0000   1.0000   1.0000   1.0000   1.0000   1.0000   1.0000
     1.0000   1.0000   1.0000   1.0000   1.0000   1.0000   1.0000   1.0000
     1.0000   1.0000   1.0000   1.0000   1.0000   1.0000   1.0000   1.0000
     1.0000   1.0000   1.0000   1.0000   1.0000   1.0000   1.0000   1.0000
     1.0000   1.0000   1.0000   1.0000   1.0000   1.0000   1.0000   1.0000
     1.0000   1.0000   1.0000   1.0000   1.0000   1.0000   1.0000   1.0000
     1.0000   1.0000   1.0000   1.0000   1.0000   1.0000   1.0000   1.0000
     1.0000   1.0000   1.0000   1.0000   1.0000   1.0000   1.0000   1.0000
     1.0000   1.0000   1.0000   1.0000   1.0000   1.0000   1.0000   1.0000
     1.0000   1.0000   1.0000   1.0000   1.0000   1.0000   1.0000   1.0000
     1.0000   1.0000   1.0000   1.0000   1.0000   1.0000   1.0000   1.0000
     1.0000   1.0000   1.0000   1.0000   1.0000   1.0000   1.0000   1.0000
     1.0000   1.0000   1.0000   1.0000   1.0000   1.0000   1.0000   1.0000
     1.0000   1.0000   1.0000   1.0000   1.0000   1.0000   1.0000   1.0000
     1.0000   1.0000   1.0000   1.0000   1.0000   1.0000   1.0000   1.0000
     1.0000   1.0000   1.0000   1.0000   1.0000   1.0000   1.0000   1.0000
     1.0000   1.0000   1.0000   1.0000   1.0000   1.0000   1.0000   1.0000
     1.0000   1.0000   1.0000   1.0000   1.0000   1.0000   1.0000   1.0000
     1.0000   1.0000   1.0000   1.0000   1.0000   1.0000   1.0000   1.0000
     1.0000   1.0000   1.0000   1.0000   1.0000   1.0000   1.0000   1.0000
     1.0000   1.0000   1.0000   1.0000   1.0000   1.0000   1.0000   1.0000
     1.0000   1.0000   1.0000   1.0000   1.0000   1.0000   1.0000   1.0000
     1.0000   1.0000   1.0000   1.0000   1.0000   1.0000   1.0000   1.0000
     1.0000   1.0000   1.0000   1.0000   1.0000   1.0000   1.0000   1.0000
     1.0000   1.0000   1.0000   1.0000   1.0000   1.0000   1.0000   1.0000
     1.0000   1.0000   1.0000   1.0000   1.0000   1.0000   1.0000   1.0000
     1.0000   1.0000   1.0000   1.0000   1.0000   1.0000   1.0000   1.0000
     1.0000   1.0000   1.0000   1.0000   1.0000   1.0000   1.0000   1.0000
     1.0000   1.0000   1.0000   1.0000   1.0000   1.0000   1.0000   1.0000
     1.0000   1.0000   1.0000   1.0000   1.0000   1.0000   1.0000   1.0000
     1.0000   1.0000   1.0000   1.0000   1.0000   1.0000   1.0000   1.0000
     1.0000   1.0000   1.0000   1.0000   1.0000   1.0000   1.0000   1.0000
     1.0000   1.0000   1.0000   1.0000   1.0000   1.0000   1.0000   1.0000
     1.0000   1.0000   1.0000   1.0000   1.0000   1.0000   1.0000   1.0000
     1.0000   1.0000   1.0000   1.0000   1.0000   1.0000   1.0000   1.0000
     1.0000   1.0000   1.0000   1.0000   1.0000   1.0000   1.0014   1.0025
     1.0308   1.0324   1.0798   1.0821   0.4785   0.4717   0.4252   0.4094
     0.0000   0.0000   0.0000   0.0000   0.0000   0.0000   0.0000   0.0000
     0.0000   0.0000   0.0000   0.0000   0.0000   0.0000   0.0000   0.0000
     0.0000   0.0000   0.0000   0.0000   0.0000   0.0000   0.0000   0.0000
     0.0000   0.0000   0.0000   0.0000   0.0000   0.0000   0.0000   0.0000
     0.0000   0.0000   0.0000   0.0000   0.0000   0.0000   0.0000   0.0000
     0.0000   0.0000   0.0000   0.0000   0.0000   0.0000   0.0000   0.0000
     0.0000   0.0000   0.0000   0.0000   0.0000   0.0000   0.0000   0.0000
     0.0000   0.0000   0.0000   0.0000   0.0000   0.0000   0.0000   0.0000
     0.0000   0.0000   0.0000   0.0000   0.0000   0.0000   0.0000   0.0000
     0.0000   0.0000   0.0000   0.0000   0.0000   0.0000   0.0000   0.0000
     0.0000   0.0000   0.0000   0.0000   0.0000   0.0000   0.0000   0.0000
     0.0000   0.0000   0.0000   0.0000   0.0000   0.0000   0.0000   0.0000
     0.0000   0.0000

          k = 0.3333 0.5774 0.0000 ( 64848 PWs)   bands (ev):

  -124.9359-124.9347-124.9341-124.9291-124.9280-124.9272-124.9259-124.9256
  -124.9249-124.9248-124.9237-124.9231-124.9227-124.9223-124.9219-124.9205
  -124.8052-124.7647-124.7629-124.7502-124.7492-124.7476-124.7468-124.7453
  -124.7439-124.7422-124.7409-124.7400-124.7393-124.7387-124.7379-124.7367
  -124.7353-124.7347-124.7337-124.7332-124.7328-124.7326-124.7322-124.7320
  -124.7317-124.7315-124.7312-124.7309-124.7305-124.7289-124.7286-124.7277
   -79.0981 -79.0966 -79.0957 -79.0927 -79.0919 -79.0906 -79.0904 -79.0894
   -79.0885 -79.0857 -79.0849 -79.0822 -79.0821 -79.0813 -79.0808 -79.0807
   -79.0803 -79.0776 -79.0773 -79.0750 -79.0745 -79.0738 -79.0730 -79.0722
   -79.0719 -79.0717 -79.0715 -79.0712 -79.0708 -79.0707 -79.0701 -79.0696
   -79.0690 -79.0688 -79.0685 -79.0682 -79.0681 -79.0678 -79.0674 -79.0672
   -79.0664 -79.0663 -79.0655 -79.0651 -79.0643 -79.0616 -79.0609 -79.0596
   -78.9622 -78.9532 -78.9528 -78.9207 -78.9187 -78.9163 -78.9162 -78.9153
   -78.9106 -78.9069 -78.9062 -78.9053 -78.9051 -78.9033 -78.9032 -78.9030
   -78.9027 -78.9017 -78.9013 -78.8996 -78.8994 -78.8989 -78.8979 -78.8971
   -78.8966 -78.8961 -78.8960 -78.8957 -78.8954 -78.8951 -78.8949 -78.8943
   -78.8940 -78.8935 -78.8934 -78.8933 -78.8929 -78.8926 -78.8923 -78.8922
   -78.8916 -78.8915 -78.8911 -78.8906 -78.8904 -78.8894 -78.8888 -78.8886
   -78.8885 -78.8882 -78.8877 -78.8876 -78.8875 -78.8874 -78.8873 -78.8872
   -78.8871 -78.8868 -78.8864 -78.8860 -78.8856 -78.8850 -78.8842 -78.8839
   -78.8836 -78.8832 -78.8831 -78.8829 -78.8828 -78.8826 -78.8814 -78.8803
   -78.8795 -78.8788 -78.8777 -78.8774 -78.8771 -78.8767 -78.8757 -78.8750
   -78.8730 -78.8726 -78.8723 -78.8719 -78.8713 -78.8708 -78.8707 -78.8702
   -78.8696 -78.8694 -78.8690 -78.8681 -78.8678 -78.8644 -78.8635 -78.8631
   -17.3933 -15.9221 -15.1007 -12.7237 -12.6533  -9.7784  -9.4805  -7.7906
    -7.7717  -7.7660  -7.5587  -7.1558  -7.0820  -6.7722  -6.7666  -6.7646
    -6.6575  -6.6525  -6.6508  -6.6332  -6.6323  -6.6313  -6.6296  -6.6279
    -6.6275  -6.5169  -6.5158  -6.5126  -6.4616  -6.4585  -6.4570  -6.4497
    -6.4481  -6.4455  -6.4441  -6.4416  -6.4393  -6.4233  -6.4212  -6.4186
    -6.4170  -6.4154  -6.4146  -6.4009  -6.3985  -6.3966  -6.3179  -6.3137
    -6.3097  -6.2915  -6.2891  -6.2868  -6.2855  -6.2840  -6.2835  -6.2618
    -6.2601  -6.2596  -6.2381  -6.2371  -6.2351  -6.2293  -6.2284  -6.2282
    -6.2010  -6.1993  -6.1987  -6.1978  -6.1396  -6.1352  -6.1292  -6.1283
    -6.1261  -6.1254  -6.1199  -6.1015  -6.1005  -6.1002  -6.0984  -6.0956
    -6.0927  -6.0902  -6.0579  -6.0570  -6.0495  -6.0481  -6.0439  -6.0106
    -6.0095  -6.0085  -5.9863  -5.9850  -5.9827  -5.9719  -5.9713  -5.9712
    -5.9659  -5.9643  -5.9625  -5.9188  -5.9177  -5.9167  -5.9096  -5.9059
    -5.9038  -5.9009  -5.9002  -5.8994  -5.8985  -5.8980  -5.8971  -5.8552
    -5.8541  -5.8516  -5.8251  -5.8241  -5.8234  -5.8206  -5.8197  -5.8183
    -5.8145  -5.7835  -5.7827  -5.7793  -5.7711  -5.7675  -5.7663  -5.7452
    -5.7435  -5.7284  -5.7247  -5.6931  -5.6803  -5.6769  -5.6759  -5.6745
    -5.6736  -5.6721  -5.6715  -5.6704  -5.6699  -5.6686  -5.6676  -5.6667
    -5.6609  -5.6602  -5.6594  -5.6504  -5.6494  -5.6448  -5.6166  -5.6163
    -5.6149  -5.5883  -5.5857  -5.5847  -5.5536  -5.5362  -5.5345  -5.5324
    -5.5215  -5.5207  -5.5192  -5.5181  -5.5146  -5.5125  -5.4789  -5.4754
    -5.4745  -5.4729  -5.4719  -5.4710  -5.4498  -5.4472  -5.4428  -5.4411
    -5.4401  -5.4397  -5.4366  -5.4362  -5.4354  -5.4277  -5.4227  -5.4212
    -5.4194  -5.4190  -5.4180  -5.4177  -5.4162  -5.4139  -5.4131  -5.4130
    -5.4122  -5.4117  -5.4112  -5.4099  -5.3914  -5.3908  -5.3895  -5.3623
    -5.3620  -5.3429  -5.3426  -5.3412  -5.3403  -5.3393  -5.3391  -5.3376
    -5.3374  -5.3371  -5.3166  -5.3162  -5.3147  -5.3139  -5.3133  -5.3129
    -5.3123  -5.3114  -5.3108  -5.3039  -5.2955  -5.2944  -5.2935  -5.2902
    -5.2888  -5.2886  -5.2824  -5.2821  -5.2816  -5.2673  -5.2666  -5.2659
    -5.2649  -5.2646  -5.2637  -5.2508  -5.2492  -5.2481  -5.2002  -5.1997
    -5.1988  -5.1452  -5.1449  -5.1386  -5.1364  -5.1343  -5.1341  -5.1204
    -5.1203  -5.1201  -5.1201  -5.1200  -5.1198  -5.0411  -5.0382  -5.0348
    -4.9794  -4.8473  -4.8085  -4.8079  -4.8073  -4.4286  -3.9067  -3.6934
    -3.6523  -3.6509  -3.6299  -3.3136  -3.3102  -3.3056  -3.3011  -3.2987
    -3.2965  -2.9657  -2.9639  -2.9533  -2.7412  -2.5678  -1.9021  -1.8999
    -1.8975  -1.8921  -1.8905  -1.8885  -1.8596  -1.4975  -1.4415  -1.4367
    -1.4309  -1.2741  -0.5545   0.1848   0.1972   0.2022   0.2233   0.2247
     0.2267   0.2276   0.2297   0.2303   0.2569   0.2585   0.2644   0.7619
     0.7723   0.7741   0.8458   1.3362   1.3428   1.3467   2.3308   2.3413
     2.3608   2.3623   2.5802   2.6367   2.8657   2.8687   2.8725   3.4935
     3.6562   3.6844   3.6880   3.9746   3.9781   3.9806   4.0231   4.2072
     4.2182   4.2327   4.2394   4.2474   4.2530   4.4561   4.5787   4.5848
     4.5861   4.5884   4.5942   4.5976   4.6015   4.6075   4.6802   4.6887
     4.6923   5.3920   5.4671   5.4829   5.5871   5.7708   5.7970   5.8834
     6.0657   6.0715   6.0757   6.0770   6.0788   6.0871   6.1543   6.2499
     6.2580   6.3014   6.4088   6.4953   6.8312   6.9358   6.9649   6.9811
     7.0323   7.0373   7.0644   7.0760   7.1531   7.1602   7.2145   7.2443
     7.3136   7.3273   7.3342   7.3738   7.4674   7.6859   7.7006   7.8342
     8.0589   8.0637   8.0690   8.0719   8.1737   8.2175   8.3500   8.3874
     8.4140   8.4199   8.4378   8.4835   8.5620   8.6474   8.7298   8.7742
     8.8239   8.8532   8.8573   8.9120   8.9546   9.0483   9.0802   9.1330
     9.1567   9.2181

     occupation numbers 
     1.0000   1.0000   1.0000   1.0000   1.0000   1.0000   1.0000   1.0000
     1.0000   1.0000   1.0000   1.0000   1.0000   1.0000   1.0000   1.0000
     1.0000   1.0000   1.0000   1.0000   1.0000   1.0000   1.0000   1.0000
     1.0000   1.0000   1.0000   1.0000   1.0000   1.0000   1.0000   1.0000
     1.0000   1.0000   1.0000   1.0000   1.0000   1.0000   1.0000   1.0000
     1.0000   1.0000   1.0000   1.0000   1.0000   1.0000   1.0000   1.0000
     1.0000   1.0000   1.0000   1.0000   1.0000   1.0000   1.0000   1.0000
     1.0000   1.0000   1.0000   1.0000   1.0000   1.0000   1.0000   1.0000
     1.0000   1.0000   1.0000   1.0000   1.0000   1.0000   1.0000   1.0000
     1.0000   1.0000   1.0000   1.0000   1.0000   1.0000   1.0000   1.0000
     1.0000   1.0000   1.0000   1.0000   1.0000   1.0000   1.0000   1.0000
     1.0000   1.0000   1.0000   1.0000   1.0000   1.0000   1.0000   1.0000
     1.0000   1.0000   1.0000   1.0000   1.0000   1.0000   1.0000   1.0000
     1.0000   1.0000   1.0000   1.0000   1.0000   1.0000   1.0000   1.0000
     1.0000   1.0000   1.0000   1.0000   1.0000   1.0000   1.0000   1.0000
     1.0000   1.0000   1.0000   1.0000   1.0000   1.0000   1.0000   1.0000
     1.0000   1.0000   1.0000   1.0000   1.0000   1.0000   1.0000   1.0000
     1.0000   1.0000   1.0000   1.0000   1.0000   1.0000   1.0000   1.0000
     1.0000   1.0000   1.0000   1.0000   1.0000   1.0000   1.0000   1.0000
     1.0000   1.0000   1.0000   1.0000   1.0000   1.0000   1.0000   1.0000
     1.0000   1.0000   1.0000   1.0000   1.0000   1.0000   1.0000   1.0000
     1.0000   1.0000   1.0000   1.0000   1.0000   1.0000   1.0000   1.0000
     1.0000   1.0000   1.0000   1.0000   1.0000   1.0000   1.0000   1.0000
     1.0000   1.0000   1.0000   1.0000   1.0000   1.0000   1.0000   1.0000
     1.0000   1.0000   1.0000   1.0000   1.0000   1.0000   1.0000   1.0000
     1.0000   1.0000   1.0000   1.0000   1.0000   1.0000   1.0000   1.0000
     1.0000   1.0000   1.0000   1.0000   1.0000   1.0000   1.0000   1.0000
     1.0000   1.0000   1.0000   1.0000   1.0000   1.0000   1.0000   1.0000
     1.0000   1.0000   1.0000   1.0000   1.0000   1.0000   1.0000   1.0000
     1.0000   1.0000   1.0000   1.0000   1.0000   1.0000   1.0000   1.0000
     1.0000   1.0000   1.0000   1.0000   1.0000   1.0000   1.0000   1.0000
     1.0000   1.0000   1.0000   1.0000   1.0000   1.0000   1.0000   1.0000
     1.0000   1.0000   1.0000   1.0000   1.0000   1.0000   1.0000   1.0000
     1.0000   1.0000   1.0000   1.0000   1.0000   1.0000   1.0000   1.0000
     1.0000   1.0000   1.0000   1.0000   1.0000   1.0000   1.0000   1.0000
     1.0000   1.0000   1.0000   1.0000   1.0000   1.0000   1.0000   1.0000
     1.0000   1.0000   1.0000   1.0000   1.0000   1.0000   1.0000   1.0000
     1.0000   1.0000   1.0000   1.0000   1.0000   1.0000   1.0000   1.0000
     1.0000   1.0000   1.0000   1.0000   1.0000   1.0000   1.0000   1.0000
     1.0000   1.0000   1.0000   1.0000   1.0000   1.0000   1.0000   1.0000
     1.0000   1.0000   1.0000   1.0000   1.0000   1.0000   1.0000   1.0000
     1.0000   1.0000   1.0000   1.0000   1.0000   1.0000   1.0000   1.0000
     1.0000   1.0000   1.0000   1.0000   1.0000   1.0000   1.0000   1.0000
     1.0000   1.0000   1.0000   1.0000   1.0000   1.0000   1.0000   1.0000
     1.0000   1.0000   1.0000   1.0000   1.0000   1.0000   1.0000   1.0000
     1.0000   1.0000   1.0000   1.0000   1.0000   1.0000   1.0000   1.0000
     1.0000   1.0000   1.0000   1.0000   1.0000   1.0000   1.0000   1.0000
     1.0000   1.0000   1.0000   1.0000   1.0000   1.0000   1.0000   1.0000
     1.0000   1.0000   1.0000   1.0000   1.0000   1.0000   1.0000   1.0000
     1.0000   1.0000   1.0000   1.0000   1.0000   1.0000   1.0000   1.0000
     1.0000   1.0000   1.0000   1.0000   1.0000   1.0000   1.0000   1.0000
[...]
     atom   26 type  1   force =    -0.00000000   -0.00000000    0.00000000
     atom   27 type  1   force =    -0.00000178   -0.00000094    0.00000620
     atom   28 type  1   force =    -0.00001167   -0.00002443   -0.00000372
     atom   29 type  1   force =    -0.00000000    0.00000000    0.00000000
     atom   30 type  1   force =     0.00000000   -0.00000000    0.00000000
     atom   31 type  1   force =    -0.00000204    0.00000520    0.00000358
     atom   32 type  1   force =     0.00000048   -0.00000973    0.00000953
     atom   33 type  1   force =     0.00001107    0.00001560    0.00000757
     atom   34 type  1   force =    -0.00001082    0.00000586    0.00000572
     atom   35 type  1   force =     0.00001207   -0.00000006    0.00000575
     atom   36 type  1   force =    -0.00002812    0.00001799    0.00000961
     atom   37 type  1   force =    -0.00000948    0.00000414   -0.00000336
     atom   38 type  1   force =     0.00000882   -0.00002374    0.00000698
     atom   39 type  1   force =     0.00000299   -0.00000827   -0.00000082
     atom   40 type  1   force =     0.00001020   -0.00000990    0.00000610
     atom   41 type  1   force =     0.00000243    0.00002786    0.00001041
     atom   42 type  1   force =    -0.00000430   -0.00000086   -0.00000676
     atom   43 type  1   force =     0.00002587    0.00000929    0.00000592
     atom   44 type  1   force =    -0.00001271    0.00000934    0.00000713
     atom   45 type  1   force =     0.00002461   -0.00001495    0.00001061
     atom   46 type  1   force =    -0.00002233   -0.00001008    0.00001113
     atom   47 type  1   force =    -0.00000677    0.00000401   -0.00000189
     atom   48 type  1   force =    -0.00000833   -0.00002472    0.00000654
     atom   49 type  3   force =    -0.00000312    0.00000131    0.00000280
     atom   50 type  3   force =    -0.00000343   -0.00000104   -0.00000001
     atom   51 type  3   force =    -0.00000197    0.00000128   -0.00000525
     atom   52 type  3   force =     0.00000227    0.00000021   -0.00000783
     atom   53 type  3   force =    -0.00000356   -0.00000077   -0.00001271
     atom   54 type  3   force =     0.00000319    0.00000067   -0.00000998
     atom   55 type  3   force =    -0.00000246   -0.00000539   -0.00000352
     atom   56 type  2   force =    -0.00000287    0.00000578    0.00000688
     atom   57 type  2   force =     0.00000631   -0.00001604    0.00000486
     atom   58 type  4   force =     0.00000145    0.00000005    0.00000114
     atom   59 type  4   force =     0.00000056   -0.00000131    0.00000010
     atom   60 type  4   force =     0.00000032   -0.00000018   -0.00000103
     atom   61 type  4   force =     0.00000033    0.00000110   -0.00000028
     atom   62 type  4   force =     0.00000171    0.00000175   -0.00000079
     atom   63 type  4   force =    -0.00000116   -0.00000142   -0.00000065

     DFT-D3 dispersion contribution to forces:
     atom    1 type  1   force =    -0.00000631   -0.00000738    0.00261589
     atom    2 type  1   force =    -0.00000341    0.00001500    0.00265251
     atom    3 type  1   force =     0.00010419    0.00004500   -0.00252962
     atom    4 type  1   force =    -0.00030754    0.00051075   -0.00173921
     atom    5 type  1   force =     0.00000144   -0.00000390    0.00261736
     atom    6 type  1   force =    -0.00000197    0.00000081    0.00270409
     atom    7 type  1   force =    -0.00002737    0.00000575   -0.00258163
     atom    8 type  1   force =     0.00009030    0.00000336   -0.00134073
     atom    9 type  1   force =    -0.00000937   -0.00000119    0.00263610
     atom   10 type  1   force =     0.00001814   -0.00001153    0.00266067
     atom   11 type  1   force =    -0.00015713   -0.00007441   -0.00244061
     atom   12 type  1   force =     0.00035620   -0.00044832   -0.00181998
     atom   13 type  1   force =    -0.00000097   -0.00000068    0.00262820
     atom   14 type  1   force =     0.00000302    0.00000007    0.00261858
     atom   15 type  1   force =    -0.00000392   -0.00002134   -0.00251030
     atom   16 type  1   force =    -0.00000773    0.00001018   -0.00258755
     atom   17 type  1   force =     0.00000386    0.00002123    0.00266046
     atom   18 type  1   force =     0.00000725   -0.00000468    0.00261680
     atom   19 type  1   force =     0.00029521    0.00041636   -0.00183025
     atom   20 type  1   force =    -0.00010939    0.00006638   -0.00252290
     atom   21 type  1   force =     0.00001810   -0.00001036    0.00265971
     atom   22 type  1   force =    -0.00001598   -0.00000434    0.00265401
     atom   23 type  1   force =     0.00054359   -0.00004379   -0.00187888
     atom   24 type  1   force =    -0.00060503    0.00005801   -0.00168130
     atom   25 type  1   force =     0.00000882   -0.00000629    0.00262255
     atom   26 type  1   force =    -0.00001629   -0.00001530    0.00266158
     atom   27 type  1   force =     0.00006161   -0.00003326   -0.00256910
     atom   28 type  1   force =    -0.00021349   -0.00048479   -0.00174403
     atom   29 type  1   force =    -0.00000418    0.00000631    0.00263386
     atom   30 type  1   force =     0.00000315    0.00000720    0.00261708
     atom   31 type  1   force =    -0.00000929    0.00013264   -0.00249058
     atom   32 type  1   force =     0.00001924   -0.00014007   -0.00249834
     atom   33 type  1   force =     0.00001415    0.00000724    0.00005592
     atom   34 type  1   force =    -0.00000724    0.00000806    0.00002613
     atom   35 type  1   force =     0.00000334    0.00000409    0.00002421
     atom   36 type  1   force =    -0.00001655    0.00000604    0.00011800
     atom   37 type  1   force =    -0.00000364   -0.00001054    0.00005502
     atom   38 type  1   force =     0.00001081   -0.00002546    0.00013773
     atom   39 type  1   force =     0.00000032    0.00000659    0.00001432
     atom   40 type  1   force =    -0.00000705   -0.00000053    0.00001499
     atom   41 type  1   force =    -0.00000613   -0.00006836   -0.00003739
     atom   42 type  1   force =     0.00000186   -0.00000252    0.00001534
     atom   43 type  1   force =     0.00002823    0.00000670    0.00012393
     atom   44 type  1   force =    -0.00001151    0.00000226    0.00002592
     atom   45 type  1   force =    -0.00006615    0.00003965   -0.00007059
     atom   46 type  1   force =     0.00005262    0.00003997   -0.00002776
     atom   47 type  1   force =     0.00001060    0.00000838    0.00005863
     atom   48 type  1   force =    -0.00000176   -0.00001853    0.00006796
     atom   49 type  3   force =     0.00000662    0.00000231    0.00011468
     atom   50 type  3   force =     0.00000222    0.00000479   -0.00004599
     atom   51 type  3   force =     0.00007452    0.00012332   -0.00010918
     atom   52 type  3   force =    -0.00007787   -0.00013081   -0.00009961
     atom   53 type  3   force =     0.00012066    0.00019792   -0.00026421
     atom   54 type  3   force =    -0.00011134   -0.00018848   -0.00023307
     atom   55 type  3   force =    -0.00000040   -0.00000424   -0.00093934
     atom   56 type  2   force =    -0.00001293   -0.00000436   -0.00036147
     atom   57 type  2   force =    -0.00002053   -0.00000196   -0.00189176
     atom   58 type  4   force =     0.00002314    0.00005202   -0.00191575
     atom   59 type  4   force =    -0.00004223   -0.00004259   -0.00193819
     atom   60 type  4   force =    -0.00000342   -0.00000589    0.00001654
     atom   61 type  4   force =     0.00000490    0.00000886    0.00001627
     atom   62 type  4   force =     0.00000181    0.00000197   -0.00021050
     atom   63 type  4   force =    -0.00000182   -0.00000332   -0.00023522

     Total force =     0.001571     Total SCF correction =     0.000121

     DFT-D3 dispersion Force =     0.014299


     Computing stress (Cartesian axis) and pressure


     negative rho (up, down):  3.309E-03 0.000E+00
          total   stress  (Ry/bohr**3)                   (kbar)     P=       -9.44
  -0.00009176   0.00000048   0.00000018          -13.50        0.07        0.03
   0.00000048  -0.00009123  -0.00000008            0.07      -13.42       -0.01
   0.00000018  -0.00000008  -0.00000954            0.03       -0.01       -1.40

     kinetic stress (kbar)  13008.22    -30.24     -1.05
                              -30.24  12976.10      0.19
                               -1.05      0.19  13016.70

     local   stress (kbar)**********   -819.18    -43.12
                             -819.18**********     -8.02
                              -43.12     -8.021165736.32

     nonloc. stress (kbar)  -1181.62      2.06      0.13
                                2.06  -1179.44      0.02
                                0.13      0.02  -1218.79

     hartree stress (kbar) 604144.04    309.62     16.95
                              309.62 604473.49      3.96
                               16.95      3.96-547028.05

     exc-cor stress (kbar)  -6328.00      1.47      0.06
                                1.47  -6326.43     -0.01
                                0.06     -0.01  -6333.46

     corecor stress (kbar)    -82.90     -0.43     -0.02
                               -0.43    -83.35      0.00
                               -0.02      0.00    -84.04

     ewald   stress (kbar) 545034.14    536.76     27.07
                              536.76 545604.85      3.84
                               27.07      3.84-624085.56

     hubbard stress (kbar)      0.00      0.00      0.00
                                0.00      0.00      0.00
                                0.00      0.00      0.00

     DFT-D   stress (kbar)    -10.31      0.01     -0.00
                                0.01    -10.31      0.00
                               -0.00      0.00     -4.51

     XDM     stress (kbar)      0.00      0.00      0.00
                                0.00      0.00      0.00
                                0.00      0.00      0.00

     dft-nl  stress (kbar)      0.00      0.00      0.00
                                0.00      0.00      0.00
                                0.00      0.00      0.00

     TS-vdW  stress (kbar)      0.00      0.00      0.00
                                0.00      0.00      0.00
                                0.00      0.00      0.00

     MDB     stress (kbar)      0.00      0.00      0.00
                                0.00      0.00      0.00
                                0.00      0.00      0.00

     3D-RISM stress (kbar)      0.00      0.00      0.00
                                0.00      0.00      0.00
                                0.00      0.00      0.00

     Energy error            =      9.0E-06 Ry
     Gradient error          =      4.7E-04 Ry/Bohr

     bfgs converged in  66 scf cycles and  62 bfgs steps
     (criteria: energy <  1.0E-05 Ry, force <  5.0E-04 Ry/Bohr)

     End of BFGS Geometry Optimization

     Final energy             =  -22331.5304769191 Ry

     File ./tmp/Zn002_3layer_ABN_relax.bfgs deleted, as requested
Begin final coordinates

ATOMIC_POSITIONS (angstrom)
Zn               0.0000000000        1.5094010000        1.2182900000    0   0   0
Zn               5.2287200000        1.5094010000        1.2182900000    0   0   0
Zn              -0.0001294365        1.5116752022        6.1797399235
Zn               5.2268868408        1.5132114550        6.1917379296
Zn              -1.3071800000        3.7735030000        1.2182900000    0   0   0
Zn               3.9215400000        3.7735030000        1.2182900000    0   0   0
Zn              -1.3083512393        3.7753835504        6.1768009359
Zn               3.9185408051        3.7758166775        6.0807123776
Zn              -2.6143600000        6.0376050000        1.2182900000    0   0   0
Zn               2.6143600000        6.0376050000        1.2182900000    0   0   0
Zn              -2.6162582095        6.0385473944        6.1811606259
Zn               2.6150922734        6.0381400698        6.1932251309
Zn              -3.9215400000        8.3017080000        1.2182900000    0   0   0
Zn               1.3071800000        8.3017080000        1.2182900000    0   0   0
Zn              -3.9218039330        8.3034132762        6.1770836354
Zn               1.3060649130        8.3032567821        6.1765914724
Zn               2.6143600000        1.5094010000        1.2182900000    0   0   0
Zn               7.8430800000        1.5094010000        1.2182900000    0   0   0
Zn               2.6140149536        1.5121654609        6.1765981603
Zn               7.8401453647        1.5122187526        6.1808951282
Zn               1.3071800000        3.7735030000        1.2182900000    0   0   0
Zn               6.5359000000        3.7735030000        1.2182900000    0   0   0
Zn               1.3079482652        3.7746060945        6.1907617163
Zn               6.5325928960        3.7751657636        6.1923255894
Zn               0.0000000000        6.0376050000        1.2182900000    0   0   0
Zn               5.2287200000        6.0376050000        1.2182900000    0   0   0
Zn               0.0011212803        6.0383223996        6.1801855465
Zn               5.2274374801        6.0388240278        6.1687046673
Zn              -1.3071800000        8.3017080000        1.2182900000    0   0   0
Zn               3.9215400000        8.3017080000        1.2182900000    0   0   0
Zn              -1.3079113630        8.3045559916        6.1800958198
Zn               3.9204002343        8.3024005584        6.1804052046
Zn               1.3070611136        0.7550737509        3.7035342813
Zn               6.5354130168        0.7550110277        3.7026102085
Zn              -0.0011101498        3.0201842284        3.7027524323
Zn               5.2325718705        3.0171576244        3.6897936978
Zn              -1.3073775826        5.2837036378        3.7045522497
Zn               3.9207930489        5.2882612609        3.6849539189
Zn              -2.6144813751        7.5480451751        3.7000198215
Zn               2.6130770599        7.5484763767        3.7025502122
Zn               3.9215694738        0.7543980704        3.7005299939
Zn               9.1493115328        0.7558453512        3.7011823979
Zn               2.6101078326        3.0174351805        3.6846108909
Zn               7.8430806776        3.0199692549        3.7027954198
Zn               1.3057290908        5.2847131369        3.7000023596
Zn               6.5370399486        5.2840956630        3.6997638099
Zn               0.0000766163        7.5480868063        3.7046319906
Zn               5.2288661172        7.5484800174        3.7036976561
C                4.2415230447        3.8489925286       15.1045538066
C                4.2097153019        3.8359883793       13.6811848183
C                4.8181868541        4.8668833670       12.9374982705
C                3.5707251288        2.7897864292       12.9865608242
C                4.7933827878        4.8509168589       11.5518804006
C                3.5442128935        2.7721414000       11.6011278093
C                4.1577620642        3.8010953853       10.8523811137
N                4.2693873939        3.8569335735       16.2722872611
N                4.1394384205        3.7797204059        9.4845923383
H                3.6820816320        3.0390207774        8.9693201256
H                4.5670510737        4.5132839516        8.9343307711
H                3.0935081139        1.9880304369       13.5498288034
H                5.3136514368        5.6829581923       13.4629188676
H                3.0443181965        1.9541199241       11.0792230087
H                5.2707581830        5.6571983111       10.9917763890
End final coordinates



     Writing all to output data dir ./tmp/Zn002_3layer_ABN_relax.save/ :
     XML data file, charge density, pseudopotentials, collected wavefunctions

     init_run     :     64.50s CPU     65.04s WALL (       1 calls)
     electrons    :  84409.93s CPU  85080.40s WALL (      25 calls)
     update_pot   :      4.16s CPU      4.30s WALL (      24 calls)
     forces       :   3662.57s CPU   3684.19s WALL (      25 calls)
     force_dftd3  :      5.33s CPU      5.77s WALL (      25 calls)
     stress       :   5008.14s CPU   5045.24s WALL (      25 calls)
     stres_dftd3  :      5.34s CPU      5.69s WALL (      25 calls)

     Called by init_run:
     wfcinit      :     62.85s CPU     63.33s WALL (       1 calls)
     wfcinit:atom :      0.04s CPU      0.06s WALL (       5 calls)
     wfcinit:wfcr :     62.27s CPU     62.65s WALL (       5 calls)
     potinit      :      0.14s CPU      0.16s WALL (       1 calls)
     hinit0       :      0.27s CPU      0.29s WALL (       1 calls)

     Called by electrons:
     c_bands      :  80292.16s CPU  80882.47s WALL (     212 calls)
     sum_band     :   3600.60s CPU   3656.66s WALL (     212 calls)
     v_of_rho     :     16.94s CPU     17.80s WALL (     213 calls)
     v_h          :      1.03s CPU      1.13s WALL (     213 calls)
     v_xc         :     19.25s CPU     20.32s WALL (     263 calls)
     newd         :    544.06s CPU    567.21s WALL (     213 calls)
     PAW_pot      :     15.71s CPU     15.77s WALL (     237 calls)
     mix_rho      :      1.70s CPU      2.06s WALL (     212 calls)
     energy_dftd3 :      3.16s CPU      3.17s WALL (      25 calls)

     Called by c_bands:
     init_us_2    :     46.32s CPU     46.75s WALL (    2495 calls)
     cegterg      :  80206.13s CPU  80784.53s WALL (    1060 calls)

     Called by sum_band:
     sum_band:wei :      0.51s CPU      0.53s WALL (     212 calls)
     sum_band:loo :   3097.83s CPU   3114.22s WALL (     212 calls)
     sum_band:buf :      8.53s CPU      8.87s WALL (    1060 calls)
     sum_band:ini :     20.09s CPU     20.19s WALL (    1060 calls)
     sum_band:cal :   2960.51s CPU   2974.68s WALL (    1180 calls)
     sum_band:bec :     27.16s CPU     27.23s WALL (    1180 calls)
     addusdens    :    497.29s CPU    534.97s WALL (     212 calls)
                                        0.00s GPU  (     212 calls)
     addusd:skk   :      2.74s CPU      5.53s WALL (     848 calls)
                                        0.00s GPU  (     848 calls)

     Called by *egterg:
     cdiaghg      :   2459.91s CPU   2558.79s WALL (    4235 calls)
     cegterg:over :  18759.66s CPU  18830.71s WALL (    3415 calls)
     cegterg:upda :   5099.30s CPU   5141.98s WALL (    3415 calls)
     cegterg:last :  32321.21s CPU  32480.41s WALL (    2186 calls)
     cdiaghg:chol :    175.68s CPU    176.26s WALL (    4235 calls)
     cdiaghg:inve :     26.09s CPU     26.18s WALL (    4235 calls)
     cdiaghg:para :    674.44s CPU    690.35s WALL (    8470 calls)
     h_psi        :  13157.81s CPU  13255.42s WALL (    4480 calls)
     s_psi        :   5494.82s CPU   5508.95s WALL (    4480 calls)
     g_psi        :      6.17s CPU      6.28s WALL (    3415 calls)

     Called by h_psi:
     h_psi:calbec :   5981.26s CPU   6011.61s WALL (    4480 calls)
     vloc_psi     :   1629.34s CPU   1642.86s WALL (    4480 calls)
     add_vuspsi   :   5531.78s CPU   5551.01s WALL (    4480 calls)

     General routines
     calbec       :  12707.25s CPU  12766.04s WALL (    6285 calls)
     fft          :     13.43s CPU     14.96s WALL (    3392 calls)
     ffts         :      0.43s CPU      0.50s WALL (     425 calls)
     fftw         :   1761.78s CPU   1775.66s WALL ( 3500854 calls)
     interpolate  :      0.85s CPU      0.97s WALL (     213 calls)

     Parallel routines

     PAW routines
     PAW_pot      :     15.71s CPU     15.77s WALL (     237 calls)

     PWSCF        :   1d 1h58m CPU   1d 2h10m WALL


   This run was terminated on:   2:57:14   1Apr2025            

=------------------------------------------------------------------------------=
   JOB DONE.
=------------------------------------------------------------------------------=
