
     Program PWSCF v.7.3.1 starts on 26Mar2025 at 22:30:31 

     This program is part of the open-source Quantum ESPRESSO suite
     for quantum simulation of materials; please cite
         "P. Giannozzi et al., J. Phys.:Condens. Matter 21 395502 (2009);
         "P. Giannozzi et al., J. Phys.:Condens. Matter 29 465901 (2017);
         "P. Giannozzi et al., J. Chem. Phys. 152 154105 (2020);
          URL http://www.quantum-espresso.org", 
     in publications or presentations arising from this work. More details at
     http://www.quantum-espresso.org/quote

     Parallel version (MPI), running on    33 processors

     MPI processes distributed on     1 nodes
     62020 MiB available memory on the printing compute node when the environment starts

     Waiting for input...
     Reading input from standard input

     Current dimensions of program PWSCF are:
     Max number of different atomic species (ntypx) = 10
     Max number of k-points (npk) =  40000
     Max angular momentum in pseudopotentials (lmaxx) =  4
     Found identity + ( -0.5000  0.0000  0.0000) symmetry
     This is a supercell, fractional translations are disabled

     R & G space division:  proc/nbgrp/npool/nimage =      33
     Subspace diagonalization in iterative solution of the eigenvalue problem:
     one sub-group per band group will be used
     custom distributed-memory algorithm (size of sub-group:  5*  5 procs)


     Parallelization info
     --------------------
     sticks:   dense  smooth     PW     G-vecs:    dense   smooth      PW
     Min         228     130     36                36393    15714    2270
     Max         230     131     37                36401    15723    2280
     Sum        7555    4303   1189              1201061   518755   75035

     Using Slab Decomposition



     bravais-lattice index     =            0
     lattice parameter (alat)  =      19.7617  a.u.
     unit-cell volume          =   15176.5939 (a.u.)^3
     number of atoms/cell      =           48
     number of atomic types    =            1
     number of electrons       =       960.00
     number of Kohn-Sham states=          576
     kinetic-energy cutoff     =      40.0000  Ry
     charge density cutoff     =     280.0000  Ry
     scf convergence threshold =      1.0E-05
     mixing beta               =       0.6000
     number of iterations used =            8  plain     mixing
     Exchange-correlation= SLA  PW   PBE  PBE
                           (   1   4   3   4   0   0   0)

     celldm(1)=  19.761696  celldm(2)=   0.000000  celldm(3)=   0.000000
     celldm(4)=   0.000000  celldm(5)=   0.000000  celldm(6)=   0.000000

     crystal axes: (cart. coord. in units of alat)
               a(1) = (   1.000000   0.000000   0.000000 )  
               a(2) = (  -0.500000   0.866025   0.000000 )  
               a(3) = (   0.000000   0.000000   2.270759 )  

     reciprocal axes: (cart. coord. in units 2 pi/alat)
               b(1) = (  1.000000  0.577350 -0.000000 )  
               b(2) = (  0.000000  1.154701  0.000000 )  
               b(3) = (  0.000000 -0.000000  0.440381 )  


     PseudoPot. # 1 for Zn read from file:
     /home/ys/qepseudo/SSSP_1.3.0_PBE_efficiency/Zn_pbe_v1.uspp.F.UPF
     MD5 check sum: df62231357ef9e81f77b2b3087fa5675
     Pseudo is Ultrasoft, Zval = 20.0
     Generated by new atomic code, or converted to UPF format
     Using radial grid of  943 points,  6 beta functions with: 
                l(1) =   0
                l(2) =   0
                l(3) =   1
                l(4) =   1
                l(5) =   2
                l(6) =   2
     Q(r) pseudized with  8 coefficients,  rinner =    1.100   1.100   1.100
                                                       1.100   1.100

     atomic species   valence    mass     pseudopotential
     Zn               20.00    65.38000     Zn( 1.00)

     No symmetry found


                                    s                        frac. trans.

      isym =  1     identity                                     

 cryst.   s( 1) = (     1          0          0      )
                  (     0          1          0      )
                  (     0          0          1      )

 cart.    s( 1) = (  1.0000000  0.0000000  0.0000000 )
                  (  0.0000000  1.0000000  0.0000000 )
                  (  0.0000000  0.0000000  1.0000000 )


   Cartesian axes

     site n.     atom                  positions (alat units)
         1        Zn     tau(   1) = (   0.0000000   0.1443375   0.1164998  )
         2        Zn     tau(   2) = (   0.5000000   0.1443375   0.1164998  )
         3        Zn     tau(   3) = (   0.0000000   0.1443375   0.5824993  )
         4        Zn     tau(   4) = (   0.5000000   0.1443375   0.5824993  )
         5        Zn     tau(   5) = (  -0.1250000   0.3608439   0.1164998  )
         6        Zn     tau(   6) = (   0.3750000   0.3608439   0.1164998  )
         7        Zn     tau(   7) = (  -0.1250000   0.3608439   0.5824993  )
         8        Zn     tau(   8) = (   0.3750000   0.3608439   0.5824993  )
         9        Zn     tau(   9) = (  -0.2500000   0.5773502   0.1164998  )
        10        Zn     tau(  10) = (   0.2500000   0.5773502   0.1164998  )
        11        Zn     tau(  11) = (  -0.2500000   0.5773502   0.5824993  )
        12        Zn     tau(  12) = (   0.2500000   0.5773502   0.5824993  )
        13        Zn     tau(  13) = (  -0.3750000   0.7938567   0.1164998  )
        14        Zn     tau(  14) = (   0.1250000   0.7938567   0.1164998  )
        15        Zn     tau(  15) = (  -0.3750000   0.7938567   0.5824993  )
        16        Zn     tau(  16) = (   0.1250000   0.7938567   0.5824993  )
        17        Zn     tau(  17) = (   0.2500000   0.1443375   0.1164998  )
        18        Zn     tau(  18) = (   0.7500000   0.1443375   0.1164998  )
        19        Zn     tau(  19) = (   0.2500000   0.1443375   0.5824993  )
        20        Zn     tau(  20) = (   0.7500000   0.1443375   0.5824993  )
        21        Zn     tau(  21) = (   0.1250000   0.3608439   0.1164998  )
        22        Zn     tau(  22) = (   0.6250000   0.3608439   0.1164998  )
        23        Zn     tau(  23) = (   0.1250000   0.3608439   0.5824993  )
        24        Zn     tau(  24) = (   0.6250000   0.3608439   0.5824993  )
        25        Zn     tau(  25) = (   0.0000000   0.5773502   0.1164998  )
        26        Zn     tau(  26) = (   0.5000000   0.5773502   0.1164998  )
        27        Zn     tau(  27) = (   0.0000000   0.5773502   0.5824993  )
        28        Zn     tau(  28) = (   0.5000000   0.5773502   0.5824993  )
        29        Zn     tau(  29) = (  -0.1250000   0.7938567   0.1164998  )
        30        Zn     tau(  30) = (   0.3750000   0.7938567   0.1164998  )
        31        Zn     tau(  31) = (  -0.1250000   0.7938567   0.5824993  )
        32        Zn     tau(  32) = (   0.3750000   0.7938567   0.5824993  )
        33        Zn     tau(  33) = (   0.1250000   0.0721688   0.3494996  )
        34        Zn     tau(  34) = (   0.6250000   0.0721688   0.3494996  )
        35        Zn     tau(  35) = (   0.0000000   0.2886752   0.3494996  )
        36        Zn     tau(  36) = (   0.5000000   0.2886752   0.3494996  )
        37        Zn     tau(  37) = (  -0.1250000   0.5051815   0.3494996  )
        38        Zn     tau(  38) = (   0.3750000   0.5051815   0.3494996  )
        39        Zn     tau(  39) = (  -0.2500000   0.7216879   0.3494996  )
        40        Zn     tau(  40) = (   0.2500000   0.7216879   0.3494996  )
        41        Zn     tau(  41) = (   0.3750000   0.0721688   0.3494996  )
        42        Zn     tau(  42) = (   0.8750000   0.0721688   0.3494996  )
        43        Zn     tau(  43) = (   0.2500000   0.2886752   0.3494996  )
        44        Zn     tau(  44) = (   0.7500000   0.2886752   0.3494996  )
        45        Zn     tau(  45) = (   0.1250000   0.5051815   0.3494996  )
        46        Zn     tau(  46) = (   0.6250000   0.5051815   0.3494996  )
        47        Zn     tau(  47) = (   0.0000000   0.7216879   0.3494996  )
        48        Zn     tau(  48) = (   0.5000000   0.7216879   0.3494996  )

   Crystallographic axes

     site n.     atom                  positions (cryst. coord.)
         1        Zn     tau(   1) = (  0.0833333  0.1666666  0.0513044  )
         2        Zn     tau(   2) = (  0.5833333  0.1666666  0.0513044  )
         3        Zn     tau(   3) = (  0.0833333  0.1666666  0.2565219  )
         4        Zn     tau(   4) = (  0.5833333  0.1666666  0.2565219  )
         5        Zn     tau(   5) = (  0.0833333  0.4166666  0.0513044  )
         6        Zn     tau(   6) = (  0.5833333  0.4166666  0.0513044  )
         7        Zn     tau(   7) = (  0.0833333  0.4166666  0.2565219  )
         8        Zn     tau(   8) = (  0.5833333  0.4166666  0.2565219  )
         9        Zn     tau(   9) = (  0.0833333  0.6666666  0.0513044  )
        10        Zn     tau(  10) = (  0.5833333  0.6666666  0.0513044  )
        11        Zn     tau(  11) = (  0.0833333  0.6666666  0.2565219  )
        12        Zn     tau(  12) = (  0.5833333  0.6666666  0.2565219  )
        13        Zn     tau(  13) = (  0.0833333  0.9166667  0.0513044  )
        14        Zn     tau(  14) = (  0.5833334  0.9166667  0.0513044  )
        15        Zn     tau(  15) = (  0.0833333  0.9166667  0.2565219  )
        16        Zn     tau(  16) = (  0.5833334  0.9166667  0.2565219  )
        17        Zn     tau(  17) = (  0.3333333  0.1666666  0.0513044  )
        18        Zn     tau(  18) = (  0.8333334  0.1666666  0.0513044  )
        19        Zn     tau(  19) = (  0.3333333  0.1666666  0.2565219  )
        20        Zn     tau(  20) = (  0.8333334  0.1666666  0.2565219  )
        21        Zn     tau(  21) = (  0.3333333  0.4166666  0.0513044  )
        22        Zn     tau(  22) = (  0.8333333  0.4166666  0.0513044  )
        23        Zn     tau(  23) = (  0.3333333  0.4166666  0.2565219  )
        24        Zn     tau(  24) = (  0.8333333  0.4166666  0.2565219  )
        25        Zn     tau(  25) = (  0.3333333  0.6666666  0.0513044  )
        26        Zn     tau(  26) = (  0.8333333  0.6666666  0.0513044  )
        27        Zn     tau(  27) = (  0.3333333  0.6666666  0.2565219  )
        28        Zn     tau(  28) = (  0.8333333  0.6666666  0.2565219  )
        29        Zn     tau(  29) = (  0.3333334  0.9166667  0.0513044  )
        30        Zn     tau(  30) = (  0.8333334  0.9166667  0.0513044  )
        31        Zn     tau(  31) = (  0.3333334  0.9166667  0.2565219  )
        32        Zn     tau(  32) = (  0.8333334  0.9166667  0.2565219  )
        33        Zn     tau(  33) = (  0.1666667  0.0833334  0.1539131  )
        34        Zn     tau(  34) = (  0.6666667  0.0833334  0.1539131  )
        35        Zn     tau(  35) = (  0.1666667  0.3333334  0.1539131  )
        36        Zn     tau(  36) = (  0.6666667  0.3333334  0.1539131  )
        37        Zn     tau(  37) = (  0.1666667  0.5833334  0.1539131  )
        38        Zn     tau(  38) = (  0.6666667  0.5833334  0.1539131  )
        39        Zn     tau(  39) = (  0.1666667  0.8333334  0.1539131  )
        40        Zn     tau(  40) = (  0.6666667  0.8333334  0.1539131  )
        41        Zn     tau(  41) = (  0.4166667  0.0833334  0.1539131  )
        42        Zn     tau(  42) = (  0.9166667  0.0833334  0.1539131  )
        43        Zn     tau(  43) = (  0.4166667  0.3333334  0.1539131  )
        44        Zn     tau(  44) = (  0.9166667  0.3333334  0.1539131  )
        45        Zn     tau(  45) = (  0.4166667  0.5833334  0.1539131  )
        46        Zn     tau(  46) = (  0.9166667  0.5833334  0.1539131  )
        47        Zn     tau(  47) = (  0.4166667  0.8333334  0.1539131  )
        48        Zn     tau(  48) = (  0.9166667  0.8333334  0.1539131  )

     number of k points=    10  Marzari-Vanderbilt smearing, width (Ry)=  0.0200
                       cart. coord. in units 2pi/alat
        k(    1) = (   0.0000000   0.0000000   0.0000000), wk =   0.1250000
        k(    2) = (   0.0000000   0.2886751   0.0000000), wk =   0.2500000
        k(    3) = (   0.0000000  -0.5773503   0.0000000), wk =   0.1250000
        k(    4) = (   0.2500000   0.1443376   0.0000000), wk =   0.2500000
        k(    5) = (   0.2500000   0.4330127   0.0000000), wk =   0.2500000
        k(    6) = (   0.2500000  -0.4330127   0.0000000), wk =   0.2500000
        k(    7) = (   0.2500000  -0.1443376   0.0000000), wk =   0.2500000
        k(    8) = (  -0.5000000  -0.2886751   0.0000000), wk =   0.1250000
        k(    9) = (  -0.5000000   0.0000000   0.0000000), wk =   0.2500000
        k(   10) = (  -0.5000000  -0.8660254   0.0000000), wk =   0.1250000

                       cryst. coord.
        k(    1) = (   0.0000000   0.0000000   0.0000000), wk =   0.1250000
        k(    2) = (   0.0000000   0.2500000   0.0000000), wk =   0.2500000
        k(    3) = (   0.0000000  -0.5000000   0.0000000), wk =   0.1250000
        k(    4) = (   0.2500000   0.0000000   0.0000000), wk =   0.2500000
        k(    5) = (   0.2500000   0.2500000   0.0000000), wk =   0.2500000
        k(    6) = (   0.2500000  -0.5000000   0.0000000), wk =   0.2500000
        k(    7) = (   0.2500000  -0.2500000   0.0000000), wk =   0.2500000
        k(    8) = (  -0.5000000   0.0000000   0.0000000), wk =   0.1250000
        k(    9) = (  -0.5000000   0.2500000   0.0000000), wk =   0.2500000
        k(   10) = (  -0.5000000  -0.5000000   0.0000000), wk =   0.1250000

     Dense  grid:  1201061 G-vectors     FFT dimensions: ( 108, 108, 240)

     Smooth grid:   518755 G-vectors     FFT dimensions: (  80,  80, 192)

     Dynamical RAM for                 wfc:      17.26 MB

     Dynamical RAM for     wfc (w. buffer):     189.88 MB

     Dynamical RAM for           str. fact:       0.56 MB

     Dynamical RAM for           local pot:       0.00 MB

     Dynamical RAM for          nlocal pot:      25.89 MB

     Dynamical RAM for                qrad:       1.34 MB

     Dynamical RAM for          rho,v,vnew:       3.80 MB

     Dynamical RAM for               rhoin:       1.27 MB

     Dynamical RAM for            rho*nmix:       8.89 MB

     Dynamical RAM for           G-vectors:       2.20 MB

     Dynamical RAM for          h,s,v(r/c):       2.42 MB

     Dynamical RAM for          <psi|beta>:       7.59 MB

     Dynamical RAM for                 psi:      34.52 MB

     Dynamical RAM for                hpsi:      34.52 MB

     Dynamical RAM for                spsi:      34.52 MB

     Dynamical RAM for      wfcinit/wfcrot:      46.32 MB

     Dynamical RAM for           addusdens:     129.95 MB

     Estimated static dynamical RAM per process >     229.61 MB

     Estimated max dynamical RAM per process >     368.45 MB

     Estimated total dynamical RAM >      11.87 GB

     Initial potential from superposition of free atoms

     starting charge     959.9932, renormalised to     960.0000

     negative rho (up, down):  4.194E-03 0.000E+00
     Starting wfcs are  624 randomized atomic wfcs

     total cpu time spent up to now is      117.5 secs

     Self-consistent Calculation

     iteration #  1     ecut=    40.00 Ry     beta= 0.60
     Davidson diagonalization with overlap

---- Real-time Memory Report at c_bands before calling an iterative solver
           298 MiB given to the printing process from OS
             0 MiB allocation reported by mallinfo(arena+hblkhd)
         54001 MiB available memory on the node where the printing process lives
------------------
     ethr =  1.00E-02,  avg # of iterations =  9.4

     Threshold (ethr) on eigenvalues was too large:
     Diagonalizing with lowered threshold

     Davidson diagonalization with overlap

---- Real-time Memory Report at c_bands before calling an iterative solver
           391 MiB given to the printing process from OS
             0 MiB allocation reported by mallinfo(arena+hblkhd)
         52856 MiB available memory on the node where the printing process lives
------------------
     ethr =  1.61E-04,  avg # of iterations = 11.2

     negative rho (up, down):  5.389E-03 0.000E+00

     total cpu time spent up to now is     1033.1 secs

     total energy              =  -22153.60808541 Ry
     estimated scf accuracy    <       1.57417206 Ry

     iteration #  2     ecut=    40.00 Ry     beta= 0.60
     Davidson diagonalization with overlap

---- Real-time Memory Report at c_bands before calling an iterative solver
           402 MiB given to the printing process from OS
             0 MiB allocation reported by mallinfo(arena+hblkhd)
         52764 MiB available memory on the node where the printing process lives
------------------
     ethr =  1.64E-04,  avg # of iterations =  3.5

     negative rho (up, down):  6.041E-03 0.000E+00

     total cpu time spent up to now is     1554.9 secs

     total energy              =  -22154.00569719 Ry
     estimated scf accuracy    <       1.38579599 Ry

     iteration #  3     ecut=    40.00 Ry     beta= 0.60
     Davidson diagonalization with overlap

---- Real-time Memory Report at c_bands before calling an iterative solver
           405 MiB given to the printing process from OS
             0 MiB allocation reported by mallinfo(arena+hblkhd)
         52736 MiB available memory on the node where the printing process lives
------------------
     ethr =  1.44E-04,  avg # of iterations =  2.5

     negative rho (up, down):  5.990E-03 0.000E+00

     total cpu time spent up to now is     2000.5 secs

     total energy              =  -22154.25297726 Ry
     estimated scf accuracy    <       0.01875499 Ry

     iteration #  4     ecut=    40.00 Ry     beta= 0.60
     Davidson diagonalization with overlap

---- Real-time Memory Report at c_bands before calling an iterative solver
           405 MiB given to the printing process from OS
             0 MiB allocation reported by mallinfo(arena+hblkhd)
         52720 MiB available memory on the node where the printing process lives
------------------
     ethr =  1.95E-06,  avg # of iterations = 12.0

     negative rho (up, down):  6.066E-03 0.000E+00

     total cpu time spent up to now is     2579.0 secs

     total energy              =  -22154.25360439 Ry
     estimated scf accuracy    <       0.01497358 Ry

     iteration #  5     ecut=    40.00 Ry     beta= 0.60
     Davidson diagonalization with overlap

---- Real-time Memory Report at c_bands before calling an iterative solver
           406 MiB given to the printing process from OS
             0 MiB allocation reported by mallinfo(arena+hblkhd)
         52701 MiB available memory on the node where the printing process lives
------------------
     ethr =  1.56E-06,  avg # of iterations =  2.8

     negative rho (up, down):  6.091E-03 0.000E+00

     total cpu time spent up to now is     2979.7 secs

     total energy              =  -22154.25476957 Ry
     estimated scf accuracy    <       0.00439681 Ry

     iteration #  6     ecut=    40.00 Ry     beta= 0.60
     Davidson diagonalization with overlap

---- Real-time Memory Report at c_bands before calling an iterative solver
           406 MiB given to the printing process from OS
             0 MiB allocation reported by mallinfo(arena+hblkhd)
         52681 MiB available memory on the node where the printing process lives
------------------
     ethr =  4.58E-07,  avg # of iterations =  2.0

     negative rho (up, down):  6.102E-03 0.000E+00

     total cpu time spent up to now is     3382.1 secs

     total energy              =  -22154.25527083 Ry
     estimated scf accuracy    <       0.00023945 Ry

     iteration #  7     ecut=    40.00 Ry     beta= 0.60
     Davidson diagonalization with overlap

---- Real-time Memory Report at c_bands before calling an iterative solver
           407 MiB given to the printing process from OS
             0 MiB allocation reported by mallinfo(arena+hblkhd)
         52663 MiB available memory on the node where the printing process lives
------------------
     ethr =  2.49E-08,  avg # of iterations =  2.0

     negative rho (up, down):  6.107E-03 0.000E+00

     total cpu time spent up to now is     3826.5 secs

     total energy              =  -22154.25529854 Ry
     estimated scf accuracy    <       0.00042821 Ry

     iteration #  8     ecut=    40.00 Ry     beta= 0.60
     Davidson diagonalization with overlap

---- Real-time Memory Report at c_bands before calling an iterative solver
           407 MiB given to the printing process from OS
             0 MiB allocation reported by mallinfo(arena+hblkhd)
         52644 MiB available memory on the node where the printing process lives
------------------
     ethr =  2.49E-08,  avg # of iterations =  1.0

     negative rho (up, down):  6.108E-03 0.000E+00

     total cpu time spent up to now is     4135.4 secs

     total energy              =  -22154.25533391 Ry
     estimated scf accuracy    <       0.00003160 Ry

     iteration #  9     ecut=    40.00 Ry     beta= 0.60
     Davidson diagonalization with overlap

---- Real-time Memory Report at c_bands before calling an iterative solver
           408 MiB given to the printing process from OS
             0 MiB allocation reported by mallinfo(arena+hblkhd)
         52626 MiB available memory on the node where the printing process lives
------------------
     ethr =  3.29E-09,  avg # of iterations =  2.0

     negative rho (up, down):  6.110E-03 0.000E+00

     total cpu time spent up to now is     4512.4 secs

     End of self-consistent calculation

          k = 0.0000 0.0000 0.0000 ( 64855 PWs)   bands (ev):

  -125.0678-125.0662-125.0662-125.0661-125.0659-125.0659-125.0657-125.0645
  -125.0645-125.0644-125.0644-125.0643-125.0642-125.0641-125.0639-125.0638
  -124.8641-124.8641-124.8625-124.8625-124.8624-124.8624-124.8624-124.8623
  -124.8623-124.8623-124.8623-124.8623-124.8622-124.8622-124.8609-124.8608
  -124.8608-124.8607-124.8607-124.8607-124.8607-124.8607-124.8606-124.8606
  -124.8606-124.8606-124.8605-124.8605-124.8604-124.8604-124.8604-124.8603
   -79.2343 -79.2342 -79.2342 -79.2277 -79.2277 -79.2275 -79.2275 -79.2275
   -79.2275 -79.2164 -79.2163 -79.2163 -79.2162 -79.2161 -79.2161 -79.2160
   -79.2143 -79.2143 -79.2142 -79.2142 -79.2141 -79.2141 -79.2141 -79.2141
   -79.2141 -79.2139 -79.2138 -79.2137 -79.2123 -79.2122 -79.2121 -79.2121
   -79.2120 -79.2119 -79.2118 -79.2116 -79.2115 -79.2076 -79.2076 -79.2076
   -79.2030 -79.2029 -79.2029 -79.2028 -79.2028 -79.2027 -79.1981 -79.1981
   -79.0272 -79.0272 -79.0272 -79.0272 -79.0272 -79.0272 -79.0207 -79.0207
   -79.0207 -79.0206 -79.0206 -79.0206 -79.0206 -79.0206 -79.0206 -79.0205
   -79.0205 -79.0205 -79.0205 -79.0205 -79.0189 -79.0188 -79.0188 -79.0187
   -79.0187 -79.0187 -79.0186 -79.0186 -79.0186 -79.0185 -79.0185 -79.0185
   -79.0170 -79.0170 -79.0169 -79.0169 -79.0169 -79.0168 -79.0168 -79.0168
   -79.0168 -79.0168 -79.0168 -79.0167 -79.0167 -79.0167 -79.0166 -79.0166
   -79.0165 -79.0164 -79.0094 -79.0093 -79.0093 -79.0093 -79.0093 -79.0093
   -79.0092 -79.0092 -79.0092 -79.0092 -79.0092 -79.0092 -79.0073 -79.0073
   -79.0073 -79.0073 -79.0072 -79.0072 -79.0072 -79.0072 -79.0072 -79.0072
   -79.0072 -79.0072 -79.0007 -79.0007 -79.0007 -79.0006 -79.0006 -79.0006
   -78.9960 -78.9960 -78.9960 -78.9960 -78.9960 -78.9959 -78.9959 -78.9959
   -78.9959 -78.9959 -78.9959 -78.9959 -78.9912 -78.9912 -78.9912 -78.9912
    -8.6227  -7.4005  -7.0922  -7.0689  -7.0689  -7.0688  -7.0688  -7.0687
    -7.0687  -6.9148  -6.9148  -6.9148  -6.7260  -6.7260  -6.7260  -6.6786
    -6.6786  -6.6786  -6.5893  -6.5893  -6.5893  -6.5892  -6.5892  -6.5892
    -6.5404  -6.5404  -6.5403  -6.5403  -6.5403  -6.5403  -6.5369  -6.5369
    -6.5369  -6.4793  -6.4793  -6.4792  -6.4792  -6.4791  -6.4791  -6.4326
    -6.4326  -6.4325  -6.4325  -6.4325  -6.4325  -6.3354  -6.3354  -6.3354
    -6.3353  -6.3352  -6.3352  -6.3339  -6.3338  -6.3338  -6.2738  -6.2737
    -6.2737  -6.2737  -6.2736  -6.2736  -6.2702  -6.2118  -6.2118  -6.2118
    -6.2117  -6.2117  -6.2117  -6.1721  -6.1721  -6.1721  -6.1721  -6.1721
    -6.1720  -6.1465  -6.1465  -6.1465  -6.1465  -6.1465  -6.1465  -6.1228
    -6.1228  -6.1228  -6.1228  -6.1228  -6.1228  -6.1226  -6.1226  -6.0980
    -6.0980  -6.0980  -6.0968  -6.0968  -6.0968  -6.0968  -6.0968  -6.0968
    -5.9947  -5.9947  -5.9946  -5.9946  -5.9946  -5.9946  -5.9172  -5.9172
    -5.8985  -5.8985  -5.8661  -5.8660  -5.8660  -5.8660  -5.8660  -5.8660
    -5.8639  -5.8639  -5.8639  -5.8639  -5.8638  -5.8638  -5.8323  -5.8323
    -5.8323  -5.7834  -5.7834  -5.7834  -5.7834  -5.7834  -5.7834  -5.7770
    -5.7770  -5.7770  -5.7770  -5.7770  -5.7770  -5.7766  -5.7766  -5.7766
    -5.7766  -5.7766  -5.7765  -5.7549  -5.7549  -5.7549  -5.7548  -5.7548
    -5.7548  -5.7454  -5.7453  -5.7453  -5.7453  -5.7452  -5.7452  -5.7285
    -5.7285  -5.7285  -5.7284  -5.7284  -5.7283  -5.7162  -5.7096  -5.7096
    -5.7096  -5.7096  -5.7095  -5.7095  -5.6973  -5.6973  -5.6973  -5.6108
    -5.6108  -5.5759  -5.5759  -5.5759  -5.5759  -5.5757  -5.5757  -5.5693
    -5.5693  -5.5693  -5.5693  -5.5692  -5.5692  -5.5463  -5.5463  -5.5463
    -5.5462  -5.5462  -5.5462  -5.5300  -5.5299  -5.5299  -5.5033  -5.5033
    -5.5033  -5.5032  -5.5032  -5.5032  -5.4947  -5.4947  -5.4946  -5.4946
    -5.4946  -5.4946  -5.4464  -5.4464  -5.4464  -5.4464  -5.4463  -5.4463
    -5.4341  -5.4341  -5.4341  -5.4338  -5.4338  -5.4338  -5.3976  -5.3976
    -5.3976  -5.3916  -5.3915  -5.3915  -5.3915  -5.3915  -5.3915  -5.3840
    -5.3840  -5.3627  -5.3627  -5.3202  -5.3202  -5.3202  -5.3202  -5.3201
    -5.3201  -5.2906  -5.2906  -5.2906  -5.2906  -5.2905  -5.2905  -5.2814
    -5.2814  -5.2814  -5.0722  -5.0722  -5.0722  -5.0721  -5.0721  -5.0721
    -4.3980  -4.3980  -4.3979  -4.3979  -4.3978  -4.3978  -3.4505  -2.1039
    -2.1039  -2.1039  -2.1039  -2.1039  -2.1039  -2.0205  -2.0205  -2.0205
    -2.0204  -2.0203  -2.0203  -0.8429  -0.8429  -0.8429  -0.7125  -0.6405
    -0.6405  -0.6405  -0.6405  -0.6405  -0.6405  -0.0849  -0.0849  -0.0849
     0.2447   0.2447   0.2447   1.5359   1.5359   1.5359   1.5359   1.5359
     1.5359   1.5804   1.5804   1.5804   1.5805   1.5805   1.5806   2.3087
     2.3087   2.3087   3.1077   3.3008   3.3008   3.3008   4.1411   4.1411
     4.1411   4.8832   4.8832   4.8832   4.8833   4.8833   4.8834   5.0741
     5.2651   5.4269   5.4269   5.4269   5.4269   5.4269   5.4269   5.4343
     5.4343   5.4344   5.4344   5.4344   5.4344   5.6048   5.6048   5.6048
     5.6048   5.6049   5.6049   6.1991   6.3976   6.5620   6.5620   6.5620
     6.8727   6.8727   6.8728   6.8728   6.8728   6.8728   7.0103   7.0103
     7.0104   7.0104   7.0104   7.0104   7.1011   7.1011   7.1011   7.1011
     7.1011   7.1011   7.1883   7.1883   7.1883   7.1883   7.1884   7.1884
     8.0381   8.0381   8.0381   8.0381   8.0381   8.0381   8.1446   8.1446
     8.1446   8.1446   8.1446   8.1446   8.1851   8.1851   8.1851   8.1851
     8.1851   8.1851   8.2063   8.3654   8.3755   8.3755   8.3755   9.2828

     occupation numbers 
     1.0000   1.0000   1.0000   1.0000   1.0000   1.0000   1.0000   1.0000
     1.0000   1.0000   1.0000   1.0000   1.0000   1.0000   1.0000   1.0000
     1.0000   1.0000   1.0000   1.0000   1.0000   1.0000   1.0000   1.0000
     1.0000   1.0000   1.0000   1.0000   1.0000   1.0000   1.0000   1.0000
     1.0000   1.0000   1.0000   1.0000   1.0000   1.0000   1.0000   1.0000
     1.0000   1.0000   1.0000   1.0000   1.0000   1.0000   1.0000   1.0000
     1.0000   1.0000   1.0000   1.0000   1.0000   1.0000   1.0000   1.0000
     1.0000   1.0000   1.0000   1.0000   1.0000   1.0000   1.0000   1.0000
     1.0000   1.0000   1.0000   1.0000   1.0000   1.0000   1.0000   1.0000
     1.0000   1.0000   1.0000   1.0000   1.0000   1.0000   1.0000   1.0000
     1.0000   1.0000   1.0000   1.0000   1.0000   1.0000   1.0000   1.0000
     1.0000   1.0000   1.0000   1.0000   1.0000   1.0000   1.0000   1.0000
     1.0000   1.0000   1.0000   1.0000   1.0000   1.0000   1.0000   1.0000
     1.0000   1.0000   1.0000   1.0000   1.0000   1.0000   1.0000   1.0000
     1.0000   1.0000   1.0000   1.0000   1.0000   1.0000   1.0000   1.0000
     1.0000   1.0000   1.0000   1.0000   1.0000   1.0000   1.0000   1.0000
     1.0000   1.0000   1.0000   1.0000   1.0000   1.0000   1.0000   1.0000
     1.0000   1.0000   1.0000   1.0000   1.0000   1.0000   1.0000   1.0000
     1.0000   1.0000   1.0000   1.0000   1.0000   1.0000   1.0000   1.0000
     1.0000   1.0000   1.0000   1.0000   1.0000   1.0000   1.0000   1.0000
     1.0000   1.0000   1.0000   1.0000   1.0000   1.0000   1.0000   1.0000
     1.0000   1.0000   1.0000   1.0000   1.0000   1.0000   1.0000   1.0000
     1.0000   1.0000   1.0000   1.0000   1.0000   1.0000   1.0000   1.0000
     1.0000   1.0000   1.0000   1.0000   1.0000   1.0000   1.0000   1.0000
     1.0000   1.0000   1.0000   1.0000   1.0000   1.0000   1.0000   1.0000
     1.0000   1.0000   1.0000   1.0000   1.0000   1.0000   1.0000   1.0000
     1.0000   1.0000   1.0000   1.0000   1.0000   1.0000   1.0000   1.0000
     1.0000   1.0000   1.0000   1.0000   1.0000   1.0000   1.0000   1.0000
     1.0000   1.0000   1.0000   1.0000   1.0000   1.0000   1.0000   1.0000
     1.0000   1.0000   1.0000   1.0000   1.0000   1.0000   1.0000   1.0000
     1.0000   1.0000   1.0000   1.0000   1.0000   1.0000   1.0000   1.0000
     1.0000   1.0000   1.0000   1.0000   1.0000   1.0000   1.0000   1.0000
     1.0000   1.0000   1.0000   1.0000   1.0000   1.0000   1.0000   1.0000
     1.0000   1.0000   1.0000   1.0000   1.0000   1.0000   1.0000   1.0000
     1.0000   1.0000   1.0000   1.0000   1.0000   1.0000   1.0000   1.0000
     1.0000   1.0000   1.0000   1.0000   1.0000   1.0000   1.0000   1.0000
     1.0000   1.0000   1.0000   1.0000   1.0000   1.0000   1.0000   1.0000
     1.0000   1.0000   1.0000   1.0000   1.0000   1.0000   1.0000   1.0000
     1.0000   1.0000   1.0000   1.0000   1.0000   1.0000   1.0000   1.0000
     1.0000   1.0000   1.0000   1.0000   1.0000   1.0000   1.0000   1.0000
     1.0000   1.0000   1.0000   1.0000   1.0000   1.0000   1.0000   1.0000
     1.0000   1.0000   1.0000   1.0000   1.0000   1.0000   1.0000   1.0000
     1.0000   1.0000   1.0000   1.0000   1.0000   1.0000   1.0000   1.0000
     1.0000   1.0000   1.0000   1.0000   1.0000   1.0000   1.0000   1.0000
     1.0000   1.0000   1.0000   1.0000   1.0000   1.0000   1.0000   1.0000
     1.0000   1.0000   1.0000   1.0000   1.0000   1.0000   1.0000   1.0000
     1.0000   1.0000   1.0000   1.0000   1.0000   1.0000   1.0000   1.0000
     1.0000   1.0000   1.0000   1.0000   1.0000   1.0000   1.0000   1.0000
     1.0000   1.0000   1.0000   1.0000   1.0000   1.0000   1.0000   1.0000
     1.0000   1.0000   1.0000   1.0000   1.0000   1.0000   1.0000   1.0000
     1.0000   1.0000   1.0000   1.0000   1.0000   1.0000   1.0000   1.0000
     1.0000   1.0000   1.0000   1.0000   1.0000   1.0000   1.0000   1.0000
     1.0000   1.0000   1.0000   1.0000   1.0000   1.0000   1.0000   1.0000
     1.0000   1.0000   1.0000   1.0000   1.0000   1.0000   1.0000   1.0000
     1.0000   1.0000   1.0000   1.0000   1.0000   1.0000   1.0000   1.0000
     1.0000   1.0000   1.0000   1.0000   1.0000   1.0000   1.0000   1.0000
     1.0000   1.0000   1.0000   1.0000   1.0000   1.0000   1.0000   1.0000
     1.0000   1.0000   1.0000   1.0000   1.0000   1.0000   1.0000   1.0000
     1.0000   1.0000   1.0000   1.0000   1.0000   1.0000   1.0000   1.0000
     1.0000   1.0000   1.0000   0.1849   0.1849   0.1849   0.1849   0.1849
     0.1849   0.1224   0.1223   0.1223   0.1222   0.1221   0.1221   0.0000
     0.0000   0.0000   0.0000   0.0000   0.0000   0.0000   0.0000   0.0000
     0.0000   0.0000   0.0000   0.0000   0.0000   0.0000   0.0000   0.0000
     0.0000   0.0000   0.0000   0.0000   0.0000   0.0000   0.0000   0.0000
     0.0000   0.0000   0.0000   0.0000   0.0000   0.0000   0.0000   0.0000
     0.0000   0.0000   0.0000   0.0000   0.0000   0.0000   0.0000   0.0000
     0.0000   0.0000   0.0000   0.0000   0.0000   0.0000   0.0000   0.0000
     0.0000   0.0000   0.0000   0.0000   0.0000   0.0000   0.0000   0.0000
     0.0000   0.0000   0.0000   0.0000   0.0000   0.0000   0.0000   0.0000
     0.0000   0.0000   0.0000   0.0000   0.0000   0.0000   0.0000   0.0000
     0.0000   0.0000   0.0000   0.0000   0.0000   0.0000   0.0000   0.0000
     0.0000   0.0000   0.0000   0.0000   0.0000   0.0000   0.0000   0.0000

          k = 0.0000 0.2887 0.0000 ( 64808 PWs)   bands (ev):

  -125.0676-125.0667-125.0663-125.0662-125.0656-125.0656-125.0653-125.0647
  -125.0647-125.0645-125.0644-125.0643-125.0641-125.0641-125.0638-125.0637
  -124.8640-124.8639-124.8631-124.8630-124.8627-124.8626-124.8626-124.8626
  -124.8620-124.8620-124.8619-124.8619-124.8617-124.8616-124.8611-124.8611
  -124.8610-124.8610-124.8608-124.8608-124.8607-124.8607-124.8607-124.8607
  -124.8605-124.8605-124.8605-124.8605-124.8603-124.8603-124.8603-124.8602
   -79.2335 -79.2335 -79.2329 -79.2289 -79.2289 -79.2280 -79.2280 -79.2261
   -79.2261 -79.2231 -79.2199 -79.2199 -79.2172 -79.2172 -79.2158 -79.2148
   -79.2143 -79.2143 -79.2136 -79.2135 -79.2132 -79.2132 -79.2132 -79.2129
   -79.2128 -79.2125 -79.2125 -79.2123 -79.2121 -79.2120 -79.2119 -79.2118
   -79.2115 -79.2115 -79.2105 -79.2105 -79.2093 -79.2083 -79.2083 -79.2072
   -79.2047 -79.2044 -79.2043 -79.2024 -79.2024 -79.2011 -79.1995 -79.1985
   -79.0265 -79.0265 -79.0264 -79.0264 -79.0259 -79.0258 -79.0219 -79.0219
   -79.0219 -79.0219 -79.0210 -79.0210 -79.0210 -79.0210 -79.0205 -79.0203
   -79.0195 -79.0193 -79.0191 -79.0191 -79.0191 -79.0191 -79.0190 -79.0190
   -79.0189 -79.0189 -79.0183 -79.0183 -79.0182 -79.0182 -79.0179 -79.0179
   -79.0173 -79.0173 -79.0172 -79.0172 -79.0170 -79.0169 -79.0169 -79.0169
   -79.0168 -79.0168 -79.0167 -79.0167 -79.0166 -79.0166 -79.0164 -79.0164
   -79.0164 -79.0164 -79.0162 -79.0161 -79.0130 -79.0130 -79.0129 -79.0129
   -79.0103 -79.0103 -79.0103 -79.0103 -79.0062 -79.0062 -79.0062 -79.0062
   -79.0059 -79.0059 -79.0059 -79.0059 -79.0036 -79.0036 -79.0035 -79.0035
   -79.0024 -79.0023 -79.0014 -79.0014 -79.0014 -79.0014 -79.0003 -79.0003
   -78.9978 -78.9977 -78.9975 -78.9974 -78.9974 -78.9974 -78.9955 -78.9955
   -78.9955 -78.9955 -78.9941 -78.9941 -78.9926 -78.9926 -78.9916 -78.9916
    -8.5039  -7.6204  -7.3006  -7.2485  -7.2485  -7.0296  -6.8986  -6.8724
    -6.8724  -6.8497  -6.8463  -6.8463  -6.7072  -6.6922  -6.6922  -6.6909
    -6.6753  -6.6633  -6.6389  -6.6389  -6.5904  -6.5809  -6.5774  -6.5774
    -6.5681  -6.5681  -6.5486  -6.5486  -6.5287  -6.5287  -6.5189  -6.5188
    -6.5173  -6.5126  -6.5126  -6.5097  -6.5097  -6.5026  -6.5026  -6.4867
    -6.4867  -6.4611  -6.4610  -6.4235  -6.4235  -6.3957  -6.3957  -6.3807
    -6.3807  -6.3763  -6.3225  -6.3178  -6.3177  -6.3161  -6.3161  -6.3157
    -6.3157  -6.2696  -6.2696  -6.2593  -6.2523  -6.2299  -6.2299  -6.2238
    -6.2238  -6.2219  -6.2219  -6.2219  -6.2092  -6.2092  -6.2053  -6.2053
    -6.1963  -6.1962  -6.1843  -6.1843  -6.1802  -6.1786  -6.1786  -6.1546
    -6.1383  -6.1241  -6.1241  -6.1150  -6.1150  -6.1010  -6.1010  -6.0934
    -6.0910  -6.0910  -6.0787  -6.0640  -6.0639  -6.0500  -6.0500  -6.0488
    -6.0488  -5.9597  -5.9597  -5.9593  -5.9593  -5.9443  -5.9417  -5.9377
    -5.9377  -5.9353  -5.9353  -5.9244  -5.9244  -5.9136  -5.9118  -5.9118
    -5.8936  -5.8936  -5.8900  -5.8858  -5.8817  -5.8745  -5.8744  -5.8694
    -5.8464  -5.8463  -5.8396  -5.8396  -5.8253  -5.8116  -5.7959  -5.7959
    -5.7959  -5.7958  -5.7870  -5.7870  -5.7769  -5.7769  -5.7761  -5.7736
    -5.7736  -5.7557  -5.7556  -5.7478  -5.7478  -5.7405  -5.7307  -5.7307
    -5.7145  -5.7131  -5.7131  -5.7058  -5.7058  -5.6980  -5.6980  -5.6954
    -5.6954  -5.6928  -5.6928  -5.6798  -5.6683  -5.6683  -5.6577  -5.6443
    -5.6397  -5.6397  -5.6339  -5.6339  -5.6189  -5.6189  -5.6173  -5.6168
    -5.6168  -5.6130  -5.6116  -5.6058  -5.6058  -5.5801  -5.5645  -5.5611
    -5.5611  -5.5566  -5.5566  -5.5482  -5.5482  -5.5460  -5.5460  -5.5439
    -5.5439  -5.5413  -5.5272  -5.5272  -5.5264  -5.5218  -5.5218  -5.5130
    -5.5130  -5.4920  -5.4920  -5.4627  -5.4608  -5.4580  -5.4580  -5.4546
    -5.4546  -5.4521  -5.4521  -5.4403  -5.4403  -5.4310  -5.4263  -5.4263
    -5.4240  -5.4198  -5.4149  -5.4145  -5.4027  -5.4027  -5.3999  -5.3999
    -5.3890  -5.3874  -5.3874  -5.3808  -5.3687  -5.3687  -5.3648  -5.3595
    -5.3458  -5.3458  -5.3419  -5.3330  -5.3203  -5.3203  -5.3141  -5.3118
    -5.3118  -5.3021  -5.3021  -5.2934  -5.2934  -5.2829  -5.2829  -5.1442
    -5.1442  -5.1302  -5.1302  -5.1247  -5.1246  -5.1063  -5.1056  -4.9475
    -4.9348  -4.6386  -4.6386  -3.8814  -3.8814  -3.4803  -3.3942  -3.3942
    -3.3655  -2.6739  -2.3021  -2.3021  -2.2223  -2.0215  -2.0215  -1.9717
    -1.9717  -1.5151  -1.5151  -1.2925  -1.2925  -1.1172  -0.7953  -0.5733
    -0.5733  -0.5612  -0.5612  -0.5523   0.0235   0.0235   0.2687   0.2687
     0.5597   0.5597   0.6332   0.8763   0.8980   0.8980   1.1833   1.1833
     1.5561   1.5561   2.2261   2.2261   2.6470   2.6962   2.6962   2.7208
     2.7822   2.7822   2.9497   2.9497   3.2196   3.5462   3.6904   3.6904
     3.9084   3.9084   4.1120   4.1848   4.1848   4.5560   4.5560   4.8014
     4.8014   4.8429   4.8429   5.1514   5.1514   5.1601   5.1602   5.1870
     5.3801   5.4258   5.4258   5.5681   5.6424   5.7932   5.7932   5.8065
     6.0889   6.0938   6.0938   6.2991   6.3128   6.3128   6.3152   6.5101
     6.5387   6.5387   6.5941   6.5941   6.7100   6.7579   6.7579   7.0098
     7.0098   7.0867   7.0867   7.1719   7.1719   7.2400   7.3086   7.3086
     7.4083   7.4233   7.4233   7.4470   7.4470   7.6564   7.6564   7.6674
     7.6674   7.6994   7.6994   7.7426   7.8555   7.8555   7.9457   7.9457
     8.0230   8.0230   8.1333   8.3097   8.3218   8.4771   8.6360   8.6360
     8.6959   8.7072   8.7072   8.8076   8.8076   8.8256   8.8361   8.8361

     occupation numbers 
     1.0000   1.0000   1.0000   1.0000   1.0000   1.0000   1.0000   1.0000
     1.0000   1.0000   1.0000   1.0000   1.0000   1.0000   1.0000   1.0000
     1.0000   1.0000   1.0000   1.0000   1.0000   1.0000   1.0000   1.0000
     1.0000   1.0000   1.0000   1.0000   1.0000   1.0000   1.0000   1.0000
     1.0000   1.0000   1.0000   1.0000   1.0000   1.0000   1.0000   1.0000
     1.0000   1.0000   1.0000   1.0000   1.0000   1.0000   1.0000   1.0000
     1.0000   1.0000   1.0000   1.0000   1.0000   1.0000   1.0000   1.0000
     1.0000   1.0000   1.0000   1.0000   1.0000   1.0000   1.0000   1.0000
     1.0000   1.0000   1.0000   1.0000   1.0000   1.0000   1.0000   1.0000
     1.0000   1.0000   1.0000   1.0000   1.0000   1.0000   1.0000   1.0000
     1.0000   1.0000   1.0000   1.0000   1.0000   1.0000   1.0000   1.0000
     1.0000   1.0000   1.0000   1.0000   1.0000   1.0000   1.0000   1.0000
     1.0000   1.0000   1.0000   1.0000   1.0000   1.0000   1.0000   1.0000
     1.0000   1.0000   1.0000   1.0000   1.0000   1.0000   1.0000   1.0000
     1.0000   1.0000   1.0000   1.0000   1.0000   1.0000   1.0000   1.0000
     1.0000   1.0000   1.0000   1.0000   1.0000   1.0000   1.0000   1.0000
     1.0000   1.0000   1.0000   1.0000   1.0000   1.0000   1.0000   1.0000
     1.0000   1.0000   1.0000   1.0000   1.0000   1.0000   1.0000   1.0000
     1.0000   1.0000   1.0000   1.0000   1.0000   1.0000   1.0000   1.0000
     1.0000   1.0000   1.0000   1.0000   1.0000   1.0000   1.0000   1.0000
     1.0000   1.0000   1.0000   1.0000   1.0000   1.0000   1.0000   1.0000
     1.0000   1.0000   1.0000   1.0000   1.0000   1.0000   1.0000   1.0000
     1.0000   1.0000   1.0000   1.0000   1.0000   1.0000   1.0000   1.0000
     1.0000   1.0000   1.0000   1.0000   1.0000   1.0000   1.0000   1.0000
     1.0000   1.0000   1.0000   1.0000   1.0000   1.0000   1.0000   1.0000
     1.0000   1.0000   1.0000   1.0000   1.0000   1.0000   1.0000   1.0000
     1.0000   1.0000   1.0000   1.0000   1.0000   1.0000   1.0000   1.0000
     1.0000   1.0000   1.0000   1.0000   1.0000   1.0000   1.0000   1.0000
     1.0000   1.0000   1.0000   1.0000   1.0000   1.0000   1.0000   1.0000
     1.0000   1.0000   1.0000   1.0000   1.0000   1.0000   1.0000   1.0000
     1.0000   1.0000   1.0000   1.0000   1.0000   1.0000   1.0000   1.0000
     1.0000   1.0000   1.0000   1.0000   1.0000   1.0000   1.0000   1.0000
     1.0000   1.0000   1.0000   1.0000   1.0000   1.0000   1.0000   1.0000
     1.0000   1.0000   1.0000   1.0000   1.0000   1.0000   1.0000   1.0000
     1.0000   1.0000   1.0000   1.0000   1.0000   1.0000   1.0000   1.0000
     1.0000   1.0000   1.0000   1.0000   1.0000   1.0000   1.0000   1.0000
     1.0000   1.0000   1.0000   1.0000   1.0000   1.0000   1.0000   1.0000
     1.0000   1.0000   1.0000   1.0000   1.0000   1.0000   1.0000   1.0000
     1.0000   1.0000   1.0000   1.0000   1.0000   1.0000   1.0000   1.0000
     1.0000   1.0000   1.0000   1.0000   1.0000   1.0000   1.0000   1.0000
     1.0000   1.0000   1.0000   1.0000   1.0000   1.0000   1.0000   1.0000
     1.0000   1.0000   1.0000   1.0000   1.0000   1.0000   1.0000   1.0000
     1.0000   1.0000   1.0000   1.0000   1.0000   1.0000   1.0000   1.0000
     1.0000   1.0000   1.0000   1.0000   1.0000   1.0000   1.0000   1.0000
     1.0000   1.0000   1.0000   1.0000   1.0000   1.0000   1.0000   1.0000
     1.0000   1.0000   1.0000   1.0000   1.0000   1.0000   1.0000   1.0000
     1.0000   1.0000   1.0000   1.0000   1.0000   1.0000   1.0000   1.0000
     1.0000   1.0000   1.0000   1.0000   1.0000   1.0000   1.0000   1.0000
     1.0000   1.0000   1.0000   1.0000   1.0000   1.0000   1.0000   1.0000
     1.0000   1.0000   1.0000   1.0000   1.0000   1.0000   1.0000   1.0000
     1.0000   1.0000   1.0000   1.0000   1.0000   1.0000   1.0000   1.0000
     1.0000   1.0000   1.0000   1.0000   1.0000   1.0000   1.0000   1.0000
     1.0000   1.0000   1.0000   1.0000   1.0000   1.0000   1.0000   1.0000
     1.0000   1.0000   1.0000   1.0000   1.0000   1.0000   1.0000   1.0000
     1.0000   1.0000   1.0000   1.0000   1.0000   1.0000   1.0000   1.0000
     1.0000   1.0000   1.0000   1.0000   1.0000   1.0000   1.0000   1.0000
     1.0000   1.0000   1.0000   1.0000   1.0000   1.0000   1.0000   1.0000
     1.0000   1.0000   1.0000   1.0000   1.0000   1.0000   1.0000   1.0000
     1.0000   1.0000   1.0000   1.0000   1.0000   1.0000   1.0000   1.0000
     1.0006   1.0006   1.0019   1.0374   1.0443   1.0443   0.9984   0.9984
     0.1542   0.1542   0.0000   0.0000   0.0000   0.0000   0.0000   0.0000
     0.0000   0.0000   0.0000   0.0000   0.0000   0.0000   0.0000   0.0000
     0.0000   0.0000   0.0000   0.0000   0.0000   0.0000   0.0000   0.0000
     0.0000   0.0000   0.0000   0.0000   0.0000   0.0000   0.0000   0.0000
     0.0000   0.0000   0.0000   0.0000   0.0000   0.0000   0.0000   0.0000
     0.0000   0.0000   0.0000   0.0000   0.0000   0.0000   0.0000   0.0000
     0.0000   0.0000   0.0000   0.0000   0.0000   0.0000   0.0000   0.0000
     0.0000   0.0000   0.0000   0.0000   0.0000   0.0000   0.0000   0.0000
     0.0000   0.0000   0.0000   0.0000   0.0000   0.0000   0.0000   0.0000
     0.0000   0.0000   0.0000   0.0000   0.0000   0.0000   0.0000   0.0000
     0.0000   0.0000   0.0000   0.0000   0.0000   0.0000   0.0000   0.0000
     0.0000   0.0000   0.0000   0.0000   0.0000   0.0000   0.0000   0.0000

          k = 0.0000-0.5774 0.0000 ( 64842 PWs)   bands (ev):

  -125.0674-125.0671-125.0664-125.0663-125.0652-125.0652-125.0652-125.0651
  -125.0648-125.0646-125.0645-125.0643-125.0641-125.0641-125.0638-125.0637
  -124.8637-124.8636-124.8635-124.8635-124.8627-124.8627-124.8627-124.8627
  -124.8615-124.8615-124.8615-124.8615-124.8615-124.8615-124.8614-124.8614
  -124.8612-124.8611-124.8610-124.8610-124.8608-124.8607-124.8607-124.8607
  -124.8605-124.8605-124.8605-124.8605-124.8602-124.8602-124.8602-124.8601
   -79.2317 -79.2315 -79.2314 -79.2313 -79.2291 -79.2289 -79.2279 -79.2279
   -79.2234 -79.2234 -79.2234 -79.2234 -79.2185 -79.2185 -79.2155 -79.2153
   -79.2144 -79.2144 -79.2131 -79.2130 -79.2130 -79.2130 -79.2126 -79.2125
   -79.2123 -79.2120 -79.2119 -79.2119 -79.2119 -79.2118 -79.2115 -79.2114
   -79.2106 -79.2104 -79.2103 -79.2102 -79.2070 -79.2070 -79.2070 -79.2070
   -79.2063 -79.2061 -79.2036 -79.2033 -79.2024 -79.2024 -79.1997 -79.1994
   -79.0246 -79.0246 -79.0245 -79.0245 -79.0244 -79.0243 -79.0243 -79.0243
   -79.0221 -79.0220 -79.0219 -79.0219 -79.0210 -79.0209 -79.0209 -79.0209
   -79.0202 -79.0200 -79.0200 -79.0198 -79.0191 -79.0191 -79.0190 -79.0190
   -79.0178 -79.0178 -79.0178 -79.0177 -79.0177 -79.0177 -79.0177 -79.0177
   -79.0174 -79.0173 -79.0173 -79.0172 -79.0170 -79.0169 -79.0168 -79.0168
   -79.0167 -79.0167 -79.0166 -79.0166 -79.0165 -79.0165 -79.0164 -79.0164
   -79.0164 -79.0164 -79.0164 -79.0164 -79.0164 -79.0163 -79.0163 -79.0163
   -79.0116 -79.0115 -79.0115 -79.0115 -79.0050 -79.0050 -79.0049 -79.0049
   -79.0036 -79.0035 -79.0035 -79.0035 -79.0033 -79.0033 -79.0033 -79.0033
   -79.0001 -79.0001 -79.0001 -79.0001 -79.0001 -79.0001 -79.0001 -79.0001
   -78.9994 -78.9993 -78.9992 -78.9992 -78.9966 -78.9966 -78.9964 -78.9964
   -78.9955 -78.9955 -78.9955 -78.9955 -78.9927 -78.9927 -78.9925 -78.9925
    -8.1561  -8.1559  -7.3172  -7.3172  -7.0261  -7.0260  -6.8643  -6.8641
    -6.8601  -6.8599  -6.7502  -6.7501  -6.7499  -6.7498  -6.6542  -6.6541
    -6.6474  -6.6474  -6.6474  -6.6473  -6.6253  -6.6252  -6.6075  -6.6074
    -6.6073  -6.6072  -6.5537  -6.5537  -6.5296  -6.5295  -6.5294  -6.5293
    -6.5063  -6.5063  -6.4878  -6.4878  -6.4878  -6.4878  -6.4636  -6.4636
    -6.4636  -6.4636  -6.4613  -6.4611  -6.4500  -6.4500  -6.4265  -6.4265
    -6.4225  -6.4225  -6.4223  -6.4223  -6.3107  -6.3107  -6.3017  -6.3017
    -6.2936  -6.2936  -6.2936  -6.2936  -6.2922  -6.2920  -6.2713  -6.2713
    -6.2711  -6.2711  -6.2365  -6.2364  -6.2217  -6.2217  -6.2217  -6.2217
    -6.2063  -6.2063  -6.2013  -6.2013  -6.1705  -6.1704  -6.1423  -6.1423
    -6.1124  -6.1124  -6.1039  -6.1039  -6.0831  -6.0831  -6.0830  -6.0830
    -6.0619  -6.0619  -6.0619  -6.0619  -6.0426  -6.0426  -6.0330  -6.0330
    -6.0264  -6.0263  -6.0229  -6.0227  -6.0096  -6.0093  -5.9905  -5.9904
    -5.9904  -5.9904  -5.9472  -5.9472  -5.9465  -5.9464  -5.9159  -5.9158
    -5.9060  -5.9060  -5.8723  -5.8722  -5.8721  -5.8721  -5.8157  -5.8155
    -5.8097  -5.8097  -5.8090  -5.8090  -5.8090  -5.8090  -5.8055  -5.8052
    -5.7878  -5.7878  -5.7857  -5.7855  -5.7761  -5.7761  -5.7760  -5.7760
    -5.7683  -5.7681  -5.7679  -5.7678  -5.7678  -5.7678  -5.7561  -5.7561
    -5.7542  -5.7542  -5.7542  -5.7542  -5.6759  -5.6759  -5.6745  -5.6745
    -5.6675  -5.6675  -5.6460  -5.6460  -5.6460  -5.6459  -5.6314  -5.6312
    -5.6244  -5.6244  -5.6052  -5.6051  -5.6050  -5.6050  -5.5949  -5.5949
    -5.5709  -5.5708  -5.5438  -5.5436  -5.5293  -5.5293  -5.5292  -5.5291
    -5.5270  -5.5270  -5.5270  -5.5270  -5.5237  -5.5237  -5.5216  -5.5214
    -5.4996  -5.4996  -5.4994  -5.4994  -5.4896  -5.4895  -5.4888  -5.4886
    -5.4871  -5.4871  -5.4797  -5.4797  -5.4646  -5.4646  -5.4645  -5.4645
    -5.4517  -5.4517  -5.4516  -5.4516  -5.4404  -5.4404  -5.4233  -5.4231
    -5.4160  -5.4160  -5.4159  -5.4159  -5.4129  -5.4129  -5.4119  -5.4119
    -5.4054  -5.4054  -5.4033  -5.4031  -5.4006  -5.4004  -5.3711  -5.3709
    -5.3632  -5.3632  -5.3632  -5.3632  -5.3248  -5.3248  -5.3248  -5.3248
    -5.2550  -5.2549  -5.2548  -5.2547  -5.2355  -5.2355  -5.2350  -5.2350
    -5.2348  -5.2348  -5.2023  -5.2021  -5.1996  -5.1994  -4.7024  -4.7024
    -4.4188  -4.4188  -4.4188  -4.4188  -3.7286  -3.7286  -3.1109  -3.1107
    -3.0619  -3.0619  -3.0619  -3.0619  -2.3917  -2.3917  -2.2401  -2.2400
    -1.7582  -1.7582  -1.7581  -1.7581  -0.7556  -0.7555  -0.7555  -0.7555
    -0.3258  -0.3258  -0.3257  -0.3257  -0.0905  -0.0904   0.0128   0.0129
     1.0210   1.0210   1.0491   1.0491   1.3378   1.3378   1.3697   1.3697
     1.3698   1.3698   2.2233   2.2233   2.8998   2.8998   2.8998   2.8999
     3.1015   3.1015   3.1015   3.1015   3.3220   3.3220   3.5549   3.5550
     3.8663   3.8663   3.8664   3.8664   3.9982   3.9982   4.2578   4.2578
     4.4469   4.4469   4.7457   4.7457   4.8578   4.8578   5.4823   5.4823
     5.5255   5.5256   5.7249   5.7250   5.8008   5.8008   5.9294   5.9295
     5.9296   5.9296   5.9829   5.9829   5.9830   5.9830   6.1538   6.1538
     6.1538   6.1538   6.4271   6.4271   6.5595   6.5595   6.6434   6.6434
     6.6628   6.6629   6.8473   6.8474   6.8664   6.8664   7.0136   7.0136
     7.0137   7.0137   7.5855   7.5855   7.7448   7.7448   8.0644   8.0644
     8.0904   8.0904   8.0904   8.0904   8.2786   8.2787   8.4766   8.4766
     8.4766   8.4766   8.6265   8.6265   8.6265   8.6265   8.6677   8.6677
     8.7364   8.7364   8.8112   8.8112   8.9993   8.9993   8.9994   8.9994

     occupation numbers 
     1.0000   1.0000   1.0000   1.0000   1.0000   1.0000   1.0000   1.0000
     1.0000   1.0000   1.0000   1.0000   1.0000   1.0000   1.0000   1.0000
     1.0000   1.0000   1.0000   1.0000   1.0000   1.0000   1.0000   1.0000
     1.0000   1.0000   1.0000   1.0000   1.0000   1.0000   1.0000   1.0000
     1.0000   1.0000   1.0000   1.0000   1.0000   1.0000   1.0000   1.0000
     1.0000   1.0000   1.0000   1.0000   1.0000   1.0000   1.0000   1.0000
     1.0000   1.0000   1.0000   1.0000   1.0000   1.0000   1.0000   1.0000
     1.0000   1.0000   1.0000   1.0000   1.0000   1.0000   1.0000   1.0000
     1.0000   1.0000   1.0000   1.0000   1.0000   1.0000   1.0000   1.0000
     1.0000   1.0000   1.0000   1.0000   1.0000   1.0000   1.0000   1.0000
     1.0000   1.0000   1.0000   1.0000   1.0000   1.0000   1.0000   1.0000
     1.0000   1.0000   1.0000   1.0000   1.0000   1.0000   1.0000   1.0000
     1.0000   1.0000   1.0000   1.0000   1.0000   1.0000   1.0000   1.0000
     1.0000   1.0000   1.0000   1.0000   1.0000   1.0000   1.0000   1.0000
     1.0000   1.0000   1.0000   1.0000   1.0000   1.0000   1.0000   1.0000
     1.0000   1.0000   1.0000   1.0000   1.0000   1.0000   1.0000   1.0000
     1.0000   1.0000   1.0000   1.0000   1.0000   1.0000   1.0000   1.0000
     1.0000   1.0000   1.0000   1.0000   1.0000   1.0000   1.0000   1.0000
     1.0000   1.0000   1.0000   1.0000   1.0000   1.0000   1.0000   1.0000
     1.0000   1.0000   1.0000   1.0000   1.0000   1.0000   1.0000   1.0000
     1.0000   1.0000   1.0000   1.0000   1.0000   1.0000   1.0000   1.0000
     1.0000   1.0000   1.0000   1.0000   1.0000   1.0000   1.0000   1.0000
     1.0000   1.0000   1.0000   1.0000   1.0000   1.0000   1.0000   1.0000
     1.0000   1.0000   1.0000   1.0000   1.0000   1.0000   1.0000   1.0000
     1.0000   1.0000   1.0000   1.0000   1.0000   1.0000   1.0000   1.0000
     1.0000   1.0000   1.0000   1.0000   1.0000   1.0000   1.0000   1.0000
     1.0000   1.0000   1.0000   1.0000   1.0000   1.0000   1.0000   1.0000
     1.0000   1.0000   1.0000   1.0000   1.0000   1.0000   1.0000   1.0000
     1.0000   1.0000   1.0000   1.0000   1.0000   1.0000   1.0000   1.0000
     1.0000   1.0000   1.0000   1.0000   1.0000   1.0000   1.0000   1.0000
     1.0000   1.0000   1.0000   1.0000   1.0000   1.0000   1.0000   1.0000
     1.0000   1.0000   1.0000   1.0000   1.0000   1.0000   1.0000   1.0000
     1.0000   1.0000   1.0000   1.0000   1.0000   1.0000   1.0000   1.0000
     1.0000   1.0000   1.0000   1.0000   1.0000   1.0000   1.0000   1.0000
     1.0000   1.0000   1.0000   1.0000   1.0000   1.0000   1.0000   1.0000
     1.0000   1.0000   1.0000   1.0000   1.0000   1.0000   1.0000   1.0000
     1.0000   1.0000   1.0000   1.0000   1.0000   1.0000   1.0000   1.0000
     1.0000   1.0000   1.0000   1.0000   1.0000   1.0000   1.0000   1.0000
     1.0000   1.0000   1.0000   1.0000   1.0000   1.0000   1.0000   1.0000
     1.0000   1.0000   1.0000   1.0000   1.0000   1.0000   1.0000   1.0000
     1.0000   1.0000   1.0000   1.0000   1.0000   1.0000   1.0000   1.0000
     1.0000   1.0000   1.0000   1.0000   1.0000   1.0000   1.0000   1.0000
     1.0000   1.0000   1.0000   1.0000   1.0000   1.0000   1.0000   1.0000
     1.0000   1.0000   1.0000   1.0000   1.0000   1.0000   1.0000   1.0000
     1.0000   1.0000   1.0000   1.0000   1.0000   1.0000   1.0000   1.0000
     1.0000   1.0000   1.0000   1.0000   1.0000   1.0000   1.0000   1.0000
     1.0000   1.0000   1.0000   1.0000   1.0000   1.0000   1.0000   1.0000
     1.0000   1.0000   1.0000   1.0000   1.0000   1.0000   1.0000   1.0000
     1.0000   1.0000   1.0000   1.0000   1.0000   1.0000   1.0000   1.0000
     1.0000   1.0000   1.0000   1.0000   1.0000   1.0000   1.0000   1.0000
     1.0000   1.0000   1.0000   1.0000   1.0000   1.0000   1.0000   1.0000
     1.0000   1.0000   1.0000   1.0000   1.0000   1.0000   1.0000   1.0000
     1.0000   1.0000   1.0000   1.0000   1.0000   1.0000   1.0000   1.0000
     1.0000   1.0000   1.0000   1.0000   1.0000   1.0000   1.0000   1.0000
     1.0000   1.0000   1.0000   1.0000   1.0000   1.0000   1.0000   1.0000
     1.0000   1.0000   1.0000   1.0000   1.0000   1.0000   1.0000   1.0000
     1.0000   1.0000   1.0000   1.0000   1.0000   1.0000   1.0000   1.0000
     1.0000   1.0000   1.0000   1.0000   1.0000   1.0000   1.0000   1.0000
     1.0000   1.0000   1.0000   1.0000   1.0000   1.0000   1.0000   1.0000
     1.0812   1.0812   1.0833   1.0833   0.6571   0.6571   0.5691   0.5690
     0.5689   0.5688   0.0000   0.0000   0.0000   0.0000   0.0000   0.0000
     0.0000   0.0000   0.0000   0.0000   0.0000   0.0000   0.0000   0.0000
     0.0000   0.0000   0.0000   0.0000   0.0000   0.0000   0.0000   0.0000
     0.0000   0.0000   0.0000   0.0000   0.0000   0.0000   0.0000   0.0000
     0.0000   0.0000   0.0000   0.0000   0.0000   0.0000   0.0000   0.0000
     0.0000   0.0000   0.0000   0.0000   0.0000   0.0000   0.0000   0.0000
     0.0000   0.0000   0.0000   0.0000   0.0000   0.0000   0.0000   0.0000
     0.0000   0.0000   0.0000   0.0000   0.0000   0.0000   0.0000   0.0000
     0.0000   0.0000   0.0000   0.0000   0.0000   0.0000   0.0000   0.0000
     0.0000   0.0000   0.0000   0.0000   0.0000   0.0000   0.0000   0.0000
     0.0000   0.0000   0.0000   0.0000   0.0000   0.0000   0.0000   0.0000
     0.0000   0.0000   0.0000   0.0000   0.0000   0.0000   0.0000   0.0000

          k = 0.2500 0.1443 0.0000 ( 64808 PWs)   bands (ev):

  -125.0676-125.0667-125.0663-125.0662-125.0657-125.0656-125.0653-125.0647
  -125.0647-125.0645-125.0644-125.0643-125.0641-125.0641-125.0638-125.0637
  -124.8640-124.8639-124.8631-124.8630-124.8627-124.8626-124.8626-124.8626
  -124.8620-124.8620-124.8619-124.8619-124.8617-124.8616-124.8611-124.8611
  -124.8610-124.8610-124.8608-124.8608-124.8607-124.8607-124.8606-124.8606
  -124.8606-124.8605-124.8605-124.8605-124.8603-124.8603-124.8603-124.8602
   -79.2335 -79.2335 -79.2329 -79.2289 -79.2289 -79.2280 -79.2280 -79.2261
   -79.2261 -79.2231 -79.2199 -79.2199 -79.2172 -79.2172 -79.2158 -79.2148
   -79.2143 -79.2142 -79.2136 -79.2135 -79.2132 -79.2132 -79.2132 -79.2129
   -79.2129 -79.2125 -79.2125 -79.2122 -79.2121 -79.2121 -79.2119 -79.2118
   -79.2115 -79.2115 -79.2105 -79.2105 -79.2093 -79.2083 -79.2083 -79.2072
   -79.2047 -79.2044 -79.2043 -79.2024 -79.2024 -79.2011 -79.1995 -79.1985
   -79.0265 -79.0265 -79.0264 -79.0264 -79.0259 -79.0258 -79.0219 -79.0219
   -79.0219 -79.0219 -79.0210 -79.0210 -79.0210 -79.0210 -79.0205 -79.0203
   -79.0195 -79.0193 -79.0191 -79.0191 -79.0191 -79.0191 -79.0190 -79.0190
   -79.0189 -79.0189 -79.0183 -79.0183 -79.0182 -79.0182 -79.0179 -79.0179
   -79.0173 -79.0173 -79.0172 -79.0172 -79.0170 -79.0169 -79.0169 -79.0168
   -79.0168 -79.0168 -79.0167 -79.0167 -79.0167 -79.0166 -79.0164 -79.0164
   -79.0164 -79.0164 -79.0162 -79.0161 -79.0130 -79.0130 -79.0129 -79.0129
   -79.0103 -79.0103 -79.0103 -79.0103 -79.0062 -79.0062 -79.0062 -79.0062
   -79.0059 -79.0059 -79.0059 -79.0059 -79.0036 -79.0036 -79.0035 -79.0035
   -79.0024 -79.0023 -79.0014 -79.0014 -79.0014 -79.0014 -79.0003 -79.0003
   -78.9978 -78.9977 -78.9975 -78.9974 -78.9974 -78.9974 -78.9955 -78.9955
   -78.9955 -78.9955 -78.9941 -78.9941 -78.9926 -78.9926 -78.9916 -78.9916
    -8.5039  -7.6204  -7.3006  -7.2485  -7.2485  -7.0296  -6.8986  -6.8724
    -6.8724  -6.8497  -6.8463  -6.8463  -6.7072  -6.6922  -6.6922  -6.6909
    -6.6753  -6.6633  -6.6389  -6.6389  -6.5904  -6.5809  -6.5774  -6.5774
    -6.5681  -6.5681  -6.5486  -6.5486  -6.5287  -6.5287  -6.5188  -6.5188
    -6.5173  -6.5126  -6.5126  -6.5097  -6.5097  -6.5026  -6.5026  -6.4867
    -6.4867  -6.4611  -6.4610  -6.4235  -6.4235  -6.3957  -6.3957  -6.3807
    -6.3807  -6.3763  -6.3225  -6.3177  -6.3177  -6.3161  -6.3161  -6.3157
    -6.3157  -6.2696  -6.2696  -6.2593  -6.2523  -6.2299  -6.2299  -6.2238
    -6.2238  -6.2219  -6.2219  -6.2219  -6.2092  -6.2092  -6.2053  -6.2053
    -6.1963  -6.1963  -6.1843  -6.1843  -6.1802  -6.1786  -6.1786  -6.1546
    -6.1383  -6.1241  -6.1241  -6.1150  -6.1150  -6.1010  -6.1010  -6.0934
    -6.0910  -6.0910  -6.0787  -6.0640  -6.0639  -6.0500  -6.0500  -6.0488
    -6.0488  -5.9597  -5.9597  -5.9593  -5.9593  -5.9443  -5.9417  -5.9377
    -5.9377  -5.9353  -5.9353  -5.9244  -5.9244  -5.9136  -5.9118  -5.9118
    -5.8936  -5.8936  -5.8900  -5.8858  -5.8817  -5.8744  -5.8744  -5.8694
    -5.8463  -5.8463  -5.8396  -5.8396  -5.8253  -5.8116  -5.7959  -5.7959
    -5.7959  -5.7958  -5.7870  -5.7870  -5.7769  -5.7769  -5.7761  -5.7736
    -5.7736  -5.7557  -5.7556  -5.7478  -5.7478  -5.7405  -5.7307  -5.7307
    -5.7145  -5.7131  -5.7131  -5.7058  -5.7058  -5.6980  -5.6980  -5.6954
    -5.6954  -5.6928  -5.6928  -5.6798  -5.6683  -5.6683  -5.6577  -5.6443
    -5.6397  -5.6397  -5.6339  -5.6339  -5.6189  -5.6189  -5.6173  -5.6168
    -5.6168  -5.6130  -5.6116  -5.6058  -5.6058  -5.5801  -5.5645  -5.5611
    -5.5611  -5.5566  -5.5566  -5.5483  -5.5482  -5.5460  -5.5460  -5.5439
    -5.5439  -5.5413  -5.5272  -5.5272  -5.5264  -5.5218  -5.5218  -5.5130
    -5.5130  -5.4920  -5.4920  -5.4627  -5.4608  -5.4580  -5.4580  -5.4546
    -5.4546  -5.4521  -5.4521  -5.4403  -5.4403  -5.4310  -5.4263  -5.4263
    -5.4240  -5.4198  -5.4149  -5.4145  -5.4027  -5.4027  -5.3999  -5.3999
    -5.3890  -5.3874  -5.3874  -5.3808  -5.3687  -5.3687  -5.3648  -5.3595
    -5.3458  -5.3458  -5.3419  -5.3330  -5.3203  -5.3203  -5.3141  -5.3118
    -5.3118  -5.3021  -5.3021  -5.2934  -5.2934  -5.2829  -5.2829  -5.1442
    -5.1442  -5.1302  -5.1302  -5.1246  -5.1246  -5.1063  -5.1056  -4.9475
    -4.9348  -4.6386  -4.6386  -3.8814  -3.8814  -3.4803  -3.3942  -3.3942
    -3.3655  -2.6739  -2.3021  -2.3021  -2.2223  -2.0215  -2.0215  -1.9717
    -1.9717  -1.5151  -1.5151  -1.2925  -1.2925  -1.1172  -0.7953  -0.5733
    -0.5733  -0.5612  -0.5612  -0.5523   0.0235   0.0235   0.2687   0.2687
     0.5597   0.5597   0.6332   0.8763   0.8980   0.8980   1.1833   1.1833
     1.5561   1.5561   2.2261   2.2261   2.6470   2.6962   2.6962   2.7208
     2.7822   2.7822   2.9497   2.9497   3.2196   3.5462   3.6904   3.6904
     3.9084   3.9084   4.1120   4.1848   4.1848   4.5560   4.5560   4.8014
     4.8014   4.8429   4.8429   5.1514   5.1514   5.1601   5.1602   5.1870
     5.3801   5.4258   5.4258   5.5681   5.6424   5.7932   5.7932   5.8065
     6.0889   6.0938   6.0938   6.2991   6.3128   6.3128   6.3152   6.5101
     6.5387   6.5387   6.5941   6.5941   6.7100   6.7579   6.7579   7.0098
     7.0098   7.0867   7.0867   7.1719   7.1719   7.2400   7.3086   7.3086
     7.4083   7.4233   7.4233   7.4470   7.4470   7.6564   7.6564   7.6674
     7.6674   7.6994   7.6994   7.7426   7.8555   7.8555   7.9457   7.9457
     8.0230   8.0230   8.1333   8.3097   8.3218   8.4771   8.6360   8.6360
     8.6959   8.7072   8.7072   8.8076   8.8076   8.8256   8.8361   8.8361

     occupation numbers 
     1.0000   1.0000   1.0000   1.0000   1.0000   1.0000   1.0000   1.0000
     1.0000   1.0000   1.0000   1.0000   1.0000   1.0000   1.0000   1.0000
     1.0000   1.0000   1.0000   1.0000   1.0000   1.0000   1.0000   1.0000
     1.0000   1.0000   1.0000   1.0000   1.0000   1.0000   1.0000   1.0000
     1.0000   1.0000   1.0000   1.0000   1.0000   1.0000   1.0000   1.0000
     1.0000   1.0000   1.0000   1.0000   1.0000   1.0000   1.0000   1.0000
     1.0000   1.0000   1.0000   1.0000   1.0000   1.0000   1.0000   1.0000
     1.0000   1.0000   1.0000   1.0000   1.0000   1.0000   1.0000   1.0000
     1.0000   1.0000   1.0000   1.0000   1.0000   1.0000   1.0000   1.0000
     1.0000   1.0000   1.0000   1.0000   1.0000   1.0000   1.0000   1.0000
     1.0000   1.0000   1.0000   1.0000   1.0000   1.0000   1.0000   1.0000
     1.0000   1.0000   1.0000   1.0000   1.0000   1.0000   1.0000   1.0000
     1.0000   1.0000   1.0000   1.0000   1.0000   1.0000   1.0000   1.0000
     1.0000   1.0000   1.0000   1.0000   1.0000   1.0000   1.0000   1.0000
     1.0000   1.0000   1.0000   1.0000   1.0000   1.0000   1.0000   1.0000
     1.0000   1.0000   1.0000   1.0000   1.0000   1.0000   1.0000   1.0000
     1.0000   1.0000   1.0000   1.0000   1.0000   1.0000   1.0000   1.0000
     1.0000   1.0000   1.0000   1.0000   1.0000   1.0000   1.0000   1.0000
     1.0000   1.0000   1.0000   1.0000   1.0000   1.0000   1.0000   1.0000
     1.0000   1.0000   1.0000   1.0000   1.0000   1.0000   1.0000   1.0000
     1.0000   1.0000   1.0000   1.0000   1.0000   1.0000   1.0000   1.0000
     1.0000   1.0000   1.0000   1.0000   1.0000   1.0000   1.0000   1.0000
     1.0000   1.0000   1.0000   1.0000   1.0000   1.0000   1.0000   1.0000
     1.0000   1.0000   1.0000   1.0000   1.0000   1.0000   1.0000   1.0000
     1.0000   1.0000   1.0000   1.0000   1.0000   1.0000   1.0000   1.0000
     1.0000   1.0000   1.0000   1.0000   1.0000   1.0000   1.0000   1.0000
     1.0000   1.0000   1.0000   1.0000   1.0000   1.0000   1.0000   1.0000
     1.0000   1.0000   1.0000   1.0000   1.0000   1.0000   1.0000   1.0000
     1.0000   1.0000   1.0000   1.0000   1.0000   1.0000   1.0000   1.0000
     1.0000   1.0000   1.0000   1.0000   1.0000   1.0000   1.0000   1.0000
     1.0000   1.0000   1.0000   1.0000   1.0000   1.0000   1.0000   1.0000
     1.0000   1.0000   1.0000   1.0000   1.0000   1.0000   1.0000   1.0000
     1.0000   1.0000   1.0000   1.0000   1.0000   1.0000   1.0000   1.0000
     1.0000   1.0000   1.0000   1.0000   1.0000   1.0000   1.0000   1.0000
     1.0000   1.0000   1.0000   1.0000   1.0000   1.0000   1.0000   1.0000
     1.0000   1.0000   1.0000   1.0000   1.0000   1.0000   1.0000   1.0000
     1.0000   1.0000   1.0000   1.0000   1.0000   1.0000   1.0000   1.0000
     1.0000   1.0000   1.0000   1.0000   1.0000   1.0000   1.0000   1.0000
     1.0000   1.0000   1.0000   1.0000   1.0000   1.0000   1.0000   1.0000
     1.0000   1.0000   1.0000   1.0000   1.0000   1.0000   1.0000   1.0000
     1.0000   1.0000   1.0000   1.0000   1.0000   1.0000   1.0000   1.0000
     1.0000   1.0000   1.0000   1.0000   1.0000   1.0000   1.0000   1.0000
     1.0000   1.0000   1.0000   1.0000   1.0000   1.0000   1.0000   1.0000
     1.0000   1.0000   1.0000   1.0000   1.0000   1.0000   1.0000   1.0000
     1.0000   1.0000   1.0000   1.0000   1.0000   1.0000   1.0000   1.0000
     1.0000   1.0000   1.0000   1.0000   1.0000   1.0000   1.0000   1.0000
     1.0000   1.0000   1.0000   1.0000   1.0000   1.0000   1.0000   1.0000
     1.0000   1.0000   1.0000   1.0000   1.0000   1.0000   1.0000   1.0000
     1.0000   1.0000   1.0000   1.0000   1.0000   1.0000   1.0000   1.0000
     1.0000   1.0000   1.0000   1.0000   1.0000   1.0000   1.0000   1.0000
     1.0000   1.0000   1.0000   1.0000   1.0000   1.0000   1.0000   1.0000
     1.0000   1.0000   1.0000   1.0000   1.0000   1.0000   1.0000   1.0000
     1.0000   1.0000   1.0000   1.0000   1.0000   1.0000   1.0000   1.0000
     1.0000   1.0000   1.0000   1.0000   1.0000   1.0000   1.0000   1.0000
     1.0000   1.0000   1.0000   1.0000   1.0000   1.0000   1.0000   1.0000
     1.0000   1.0000   1.0000   1.0000   1.0000   1.0000   1.0000   1.0000
     1.0000   1.0000   1.0000   1.0000   1.0000   1.0000   1.0000   1.0000
     1.0000   1.0000   1.0000   1.0000   1.0000   1.0000   1.0000   1.0000
     1.0000   1.0000   1.0000   1.0000   1.0000   1.0000   1.0000   1.0000
     1.0006   1.0006   1.0019   1.0374   1.0443   1.0443   0.9984   0.9984
     0.1542   0.1542   0.0000   0.0000   0.0000   0.0000   0.0000   0.0000
     0.0000   0.0000   0.0000   0.0000   0.0000   0.0000   0.0000   0.0000
     0.0000   0.0000   0.0000   0.0000   0.0000   0.0000   0.0000   0.0000
     0.0000   0.0000   0.0000   0.0000   0.0000   0.0000   0.0000   0.0000
     0.0000   0.0000   0.0000   0.0000   0.0000   0.0000   0.0000   0.0000
     0.0000   0.0000   0.0000   0.0000   0.0000   0.0000   0.0000   0.0000
     0.0000   0.0000   0.0000   0.0000   0.0000   0.0000   0.0000   0.0000
     0.0000   0.0000   0.0000   0.0000   0.0000   0.0000   0.0000   0.0000
     0.0000   0.0000   0.0000   0.0000   0.0000   0.0000   0.0000   0.0000
     0.0000   0.0000   0.0000   0.0000   0.0000   0.0000   0.0000   0.0000
     0.0000   0.0000   0.0000   0.0000   0.0000   0.0000   0.0000   0.0000
     0.0000   0.0000   0.0000   0.0000   0.0000   0.0000   0.0000   0.0000

          k = 0.2500 0.4330 0.0000 ( 64876 PWs)   bands (ev):

  -125.0674-125.0670-125.0668-125.0658-125.0657-125.0652-125.0650-125.0649
  -125.0647-125.0647-125.0645-125.0644-125.0641-125.0640-125.0638-125.0637
  -124.8638-124.8637-124.8633-124.8632-124.8632-124.8632-124.8621-124.8621
  -124.8621-124.8621-124.8616-124.8615-124.8614-124.8613-124.8613-124.8613
  -124.8611-124.8610-124.8610-124.8609-124.8609-124.8608-124.8608-124.8608
  -124.8605-124.8605-124.8604-124.8604-124.8603-124.8602-124.8601-124.8601
   -79.2326 -79.2309 -79.2309 -79.2304 -79.2303 -79.2283 -79.2282 -79.2262
   -79.2262 -79.2256 -79.2222 -79.2214 -79.2177 -79.2177 -79.2156 -79.2151
   -79.2149 -79.2142 -79.2142 -79.2137 -79.2137 -79.2131 -79.2129 -79.2128
   -79.2125 -79.2124 -79.2122 -79.2122 -79.2119 -79.2118 -79.2115 -79.2114
   -79.2108 -79.2091 -79.2089 -79.2077 -79.2076 -79.2075 -79.2069 -79.2069
   -79.2062 -79.2061 -79.2047 -79.2047 -79.2021 -79.2006 -79.2006 -79.1992
   -79.0256 -79.0255 -79.0239 -79.0239 -79.0239 -79.0239 -79.0234 -79.0234
   -79.0234 -79.0233 -79.0213 -79.0212 -79.0212 -79.0212 -79.0203 -79.0201
   -79.0198 -79.0196 -79.0196 -79.0195 -79.0192 -79.0192 -79.0192 -79.0191
   -79.0187 -79.0187 -79.0184 -79.0184 -79.0184 -79.0183 -79.0178 -79.0177
   -79.0177 -79.0175 -79.0175 -79.0175 -79.0173 -79.0172 -79.0172 -79.0171
   -79.0170 -79.0170 -79.0170 -79.0170 -79.0167 -79.0166 -79.0166 -79.0165
   -79.0164 -79.0164 -79.0163 -79.0162 -79.0152 -79.0152 -79.0144 -79.0144
   -79.0107 -79.0107 -79.0107 -79.0107 -79.0073 -79.0072 -79.0072 -79.0072
   -79.0039 -79.0039 -79.0022 -79.0021 -79.0020 -79.0020 -79.0007 -79.0007
   -79.0007 -79.0006 -79.0006 -79.0006 -79.0000 -79.0000 -79.0000 -78.9999
   -78.9993 -78.9993 -78.9992 -78.9992 -78.9978 -78.9978 -78.9978 -78.9978
   -78.9952 -78.9952 -78.9937 -78.9937 -78.9937 -78.9937 -78.9923 -78.9923
    -8.2701  -7.8234  -7.8233  -7.1121  -6.9146  -6.8403  -6.8403  -6.8039
    -6.8039  -6.7974  -6.7974  -6.7932  -6.7931  -6.7691  -6.7280  -6.7279
    -6.6988  -6.6986  -6.6556  -6.6556  -6.6237  -6.6098  -6.6098  -6.6048
    -6.6047  -6.5885  -6.5885  -6.5685  -6.5685  -6.5603  -6.5602  -6.5445
    -6.5346  -6.5345  -6.4925  -6.4924  -6.4725  -6.4725  -6.4695  -6.4622
    -6.4622  -6.4405  -6.4405  -6.4178  -6.4126  -6.4126  -6.4125  -6.4125
    -6.4035  -6.4035  -6.3926  -6.3705  -6.3704  -6.3128  -6.3026  -6.3026
    -6.2977  -6.2977  -6.2923  -6.2923  -6.2919  -6.2790  -6.2676  -6.2637
    -6.2636  -6.2550  -6.2496  -6.2495  -6.2440  -6.2440  -6.2422  -6.2228
    -6.2228  -6.2025  -6.2025  -6.1780  -6.1779  -6.1661  -6.1477  -6.1462
    -6.1420  -6.1419  -6.1184  -6.1183  -6.1084  -6.1084  -6.0951  -6.0895
    -6.0567  -6.0567  -6.0471  -6.0470  -6.0426  -6.0333  -6.0206  -6.0206
    -5.9979  -5.9923  -5.9922  -5.9897  -5.9808  -5.9808  -5.9731  -5.9731
    -5.9708  -5.9708  -5.9576  -5.9493  -5.9428  -5.9158  -5.9157  -5.9079
    -5.9079  -5.9071  -5.8993  -5.8915  -5.8915  -5.8867  -5.8863  -5.8777
    -5.8776  -5.8537  -5.8537  -5.8467  -5.8467  -5.8339  -5.8338  -5.8337
    -5.8330  -5.8290  -5.8290  -5.8092  -5.7970  -5.7970  -5.7943  -5.7731
    -5.7635  -5.7634  -5.7560  -5.7525  -5.7525  -5.7501  -5.7134  -5.7134
    -5.6948  -5.6947  -5.6920  -5.6919  -5.6579  -5.6546  -5.6546  -5.6538
    -5.6537  -5.6471  -5.6327  -5.6312  -5.6311  -5.6242  -5.6241  -5.5932
    -5.5929  -5.5929  -5.5925  -5.5925  -5.5831  -5.5831  -5.5814  -5.5814
    -5.5790  -5.5790  -5.5749  -5.5748  -5.5670  -5.5670  -5.5497  -5.5497
    -5.5492  -5.5491  -5.5454  -5.5407  -5.5370  -5.5370  -5.5152  -5.5152
    -5.5126  -5.5102  -5.5102  -5.5075  -5.5035  -5.4843  -5.4842  -5.4825
    -5.4799  -5.4799  -5.4667  -5.4618  -5.4618  -5.4602  -5.4602  -5.4582
    -5.4582  -5.4562  -5.4562  -5.4435  -5.4435  -5.4411  -5.4411  -5.4340
    -5.4340  -5.4312  -5.4185  -5.4185  -5.4103  -5.4103  -5.4101  -5.3993
    -5.3955  -5.3869  -5.3869  -5.3751  -5.3748  -5.3748  -5.3693  -5.3681
    -5.3653  -5.3652  -5.3358  -5.3282  -5.3282  -5.3090  -5.3089  -5.2822
    -5.2767  -5.2766  -5.2733  -5.2733  -5.2725  -5.2724  -5.2576  -5.2293
    -5.1878  -5.1878  -5.1837  -5.1837  -5.1446  -5.1446  -5.0650  -5.0650
    -4.4567  -4.2335  -4.2334  -4.0442  -4.0442  -3.2454  -3.2454  -3.1958
    -3.1452  -2.8776  -2.8776  -2.8500  -2.8499  -2.7808  -2.7807  -1.7963
    -1.7963  -1.7018  -1.7018  -1.4136  -1.4136  -0.8453  -0.4761  -0.4760
    -0.4125  -0.4125  -0.3235  -0.2416   0.2943   0.3498   0.3499   0.4231
     0.4231   0.6995   0.6995   0.7887   0.9698   0.9698   1.0863   1.4154
     1.4154   1.9756   1.9756   2.5306   2.5516   2.8203   2.9853   3.0903
     3.3256   3.3256   3.3637   3.3637   3.4433   3.4463   3.4464   3.5744
     3.5744   3.6669   3.8899   3.8899   4.3745   4.3745   4.3913   4.4244
     4.4431   4.4431   4.5664   4.5665   4.8784   4.9325   5.1387   5.1387
     5.2199   5.2199   5.4128   5.4438   5.4439   5.4518   5.4518   5.6100
     5.8639   5.8639   6.0695   6.0695   6.0901   6.1235   6.1235   6.5417
     6.5417   6.5471   6.6433   6.6454   6.6454   6.7350   6.9517   6.9986
     6.9986   7.0015   7.0096   7.0096   7.0435   7.0435   7.1632   7.1632
     7.1843   7.1843   7.2111   7.2111   7.2216   7.2216   7.4452   7.4452
     8.0916   8.2142   8.2142   8.3522   8.3616   8.3829   8.3829   8.5219
     8.5219   8.5389   8.5526   8.5821   8.5821   8.6230   8.6231   8.6577
     8.6780   8.6780   8.7000   8.7424   8.8051   8.8051   9.0123   9.0123

     occupation numbers 
     1.0000   1.0000   1.0000   1.0000   1.0000   1.0000   1.0000   1.0000
     1.0000   1.0000   1.0000   1.0000   1.0000   1.0000   1.0000   1.0000
     1.0000   1.0000   1.0000   1.0000   1.0000   1.0000   1.0000   1.0000
     1.0000   1.0000   1.0000   1.0000   1.0000   1.0000   1.0000   1.0000
     1.0000   1.0000   1.0000   1.0000   1.0000   1.0000   1.0000   1.0000
     1.0000   1.0000   1.0000   1.0000   1.0000   1.0000   1.0000   1.0000
     1.0000   1.0000   1.0000   1.0000   1.0000   1.0000   1.0000   1.0000
     1.0000   1.0000   1.0000   1.0000   1.0000   1.0000   1.0000   1.0000
     1.0000   1.0000   1.0000   1.0000   1.0000   1.0000   1.0000   1.0000
     1.0000   1.0000   1.0000   1.0000   1.0000   1.0000   1.0000   1.0000
     1.0000   1.0000   1.0000   1.0000   1.0000   1.0000   1.0000   1.0000
     1.0000   1.0000   1.0000   1.0000   1.0000   1.0000   1.0000   1.0000
     1.0000   1.0000   1.0000   1.0000   1.0000   1.0000   1.0000   1.0000
     1.0000   1.0000   1.0000   1.0000   1.0000   1.0000   1.0000   1.0000
     1.0000   1.0000   1.0000   1.0000   1.0000   1.0000   1.0000   1.0000
     1.0000   1.0000   1.0000   1.0000   1.0000   1.0000   1.0000   1.0000
     1.0000   1.0000   1.0000   1.0000   1.0000   1.0000   1.0000   1.0000
     1.0000   1.0000   1.0000   1.0000   1.0000   1.0000   1.0000   1.0000
     1.0000   1.0000   1.0000   1.0000   1.0000   1.0000   1.0000   1.0000
     1.0000   1.0000   1.0000   1.0000   1.0000   1.0000   1.0000   1.0000
     1.0000   1.0000   1.0000   1.0000   1.0000   1.0000   1.0000   1.0000
     1.0000   1.0000   1.0000   1.0000   1.0000   1.0000   1.0000   1.0000
     1.0000   1.0000   1.0000   1.0000   1.0000   1.0000   1.0000   1.0000
     1.0000   1.0000   1.0000   1.0000   1.0000   1.0000   1.0000   1.0000
     1.0000   1.0000   1.0000   1.0000   1.0000   1.0000   1.0000   1.0000
     1.0000   1.0000   1.0000   1.0000   1.0000   1.0000   1.0000   1.0000
     1.0000   1.0000   1.0000   1.0000   1.0000   1.0000   1.0000   1.0000
     1.0000   1.0000   1.0000   1.0000   1.0000   1.0000   1.0000   1.0000
     1.0000   1.0000   1.0000   1.0000   1.0000   1.0000   1.0000   1.0000
     1.0000   1.0000   1.0000   1.0000   1.0000   1.0000   1.0000   1.0000
     1.0000   1.0000   1.0000   1.0000   1.0000   1.0000   1.0000   1.0000
     1.0000   1.0000   1.0000   1.0000   1.0000   1.0000   1.0000   1.0000
     1.0000   1.0000   1.0000   1.0000   1.0000   1.0000   1.0000   1.0000
     1.0000   1.0000   1.0000   1.0000   1.0000   1.0000   1.0000   1.0000
     1.0000   1.0000   1.0000   1.0000   1.0000   1.0000   1.0000   1.0000
     1.0000   1.0000   1.0000   1.0000   1.0000   1.0000   1.0000   1.0000
     1.0000   1.0000   1.0000   1.0000   1.0000   1.0000   1.0000   1.0000
     1.0000   1.0000   1.0000   1.0000   1.0000   1.0000   1.0000   1.0000
     1.0000   1.0000   1.0000   1.0000   1.0000   1.0000   1.0000   1.0000
     1.0000   1.0000   1.0000   1.0000   1.0000   1.0000   1.0000   1.0000
     1.0000   1.0000   1.0000   1.0000   1.0000   1.0000   1.0000   1.0000
     1.0000   1.0000   1.0000   1.0000   1.0000   1.0000   1.0000   1.0000
     1.0000   1.0000   1.0000   1.0000   1.0000   1.0000   1.0000   1.0000
     1.0000   1.0000   1.0000   1.0000   1.0000   1.0000   1.0000   1.0000
     1.0000   1.0000   1.0000   1.0000   1.0000   1.0000   1.0000   1.0000
     1.0000   1.0000   1.0000   1.0000   1.0000   1.0000   1.0000   1.0000
     1.0000   1.0000   1.0000   1.0000   1.0000   1.0000   1.0000   1.0000
     1.0000   1.0000   1.0000   1.0000   1.0000   1.0000   1.0000   1.0000
     1.0000   1.0000   1.0000   1.0000   1.0000   1.0000   1.0000   1.0000
     1.0000   1.0000   1.0000   1.0000   1.0000   1.0000   1.0000   1.0000
     1.0000   1.0000   1.0000   1.0000   1.0000   1.0000   1.0000   1.0000
     1.0000   1.0000   1.0000   1.0000   1.0000   1.0000   1.0000   1.0000
     1.0000   1.0000   1.0000   1.0000   1.0000   1.0000   1.0000   1.0000
     1.0000   1.0000   1.0000   1.0000   1.0000   1.0000   1.0000   1.0000
     1.0000   1.0000   1.0000   1.0000   1.0000   1.0000   1.0000   1.0000
     1.0000   1.0000   1.0000   1.0000   1.0000   1.0000   1.0000   1.0000
     1.0000   1.0000   1.0000   1.0000   1.0000   1.0000   1.0000   1.0000
     1.0000   1.0000   1.0000   1.0000   1.0000   1.0000   1.0000   1.0000
     1.0000   1.0000   1.0000   1.0000   1.0000   1.0000   1.0000   1.0000
     1.0000   1.0052   1.0052   1.0159   1.0686   1.0686   1.0779   0.4454
     0.4451   0.0003   0.0003   0.0000   0.0000   0.0000   0.0000   0.0000
     0.0000   0.0000   0.0000   0.0000   0.0000   0.0000   0.0000   0.0000
     0.0000   0.0000   0.0000   0.0000   0.0000   0.0000   0.0000   0.0000
     0.0000   0.0000   0.0000   0.0000   0.0000   0.0000   0.0000   0.0000
     0.0000   0.0000   0.0000   0.0000   0.0000   0.0000   0.0000   0.0000
     0.0000   0.0000   0.0000   0.0000   0.0000   0.0000   0.0000   0.0000
     0.0000   0.0000   0.0000   0.0000   0.0000   0.0000   0.0000   0.0000
     0.0000   0.0000   0.0000   0.0000   0.0000   0.0000   0.0000   0.0000
     0.0000   0.0000   0.0000   0.0000   0.0000   0.0000   0.0000   0.0000
     0.0000   0.0000   0.0000   0.0000   0.0000   0.0000   0.0000   0.0000
     0.0000   0.0000   0.0000   0.0000   0.0000   0.0000   0.0000   0.0000
     0.0000   0.0000   0.0000   0.0000   0.0000   0.0000   0.0000   0.0000

          k = 0.2500-0.4330 0.0000 ( 64876 PWs)   bands (ev):

  -125.0674-125.0670-125.0667-125.0658-125.0657-125.0652-125.0651-125.0649
  -125.0648-125.0646-125.0645-125.0644-125.0641-125.0641-125.0638-125.0637
  -124.8638-124.8637-124.8634-124.8632-124.8632-124.8631-124.8621-124.8621
  -124.8621-124.8621-124.8616-124.8615-124.8615-124.8614-124.8613-124.8613
  -124.8611-124.8610-124.8610-124.8609-124.8609-124.8608-124.8608-124.8608
  -124.8605-124.8605-124.8605-124.8604-124.8603-124.8602-124.8601-124.8601
   -79.2326 -79.2309 -79.2309 -79.2304 -79.2303 -79.2284 -79.2281 -79.2262
   -79.2261 -79.2257 -79.2222 -79.2214 -79.2177 -79.2177 -79.2156 -79.2151
   -79.2148 -79.2143 -79.2142 -79.2137 -79.2137 -79.2131 -79.2129 -79.2127
   -79.2125 -79.2124 -79.2122 -79.2122 -79.2118 -79.2118 -79.2115 -79.2114
   -79.2108 -79.2092 -79.2089 -79.2077 -79.2076 -79.2075 -79.2069 -79.2069
   -79.2063 -79.2061 -79.2047 -79.2047 -79.2021 -79.2006 -79.2006 -79.1992
   -79.0256 -79.0255 -79.0239 -79.0239 -79.0239 -79.0239 -79.0234 -79.0234
   -79.0234 -79.0233 -79.0213 -79.0213 -79.0212 -79.0211 -79.0202 -79.0201
   -79.0198 -79.0196 -79.0196 -79.0195 -79.0192 -79.0192 -79.0191 -79.0191
   -79.0187 -79.0187 -79.0184 -79.0184 -79.0183 -79.0183 -79.0178 -79.0177
   -79.0177 -79.0176 -79.0175 -79.0175 -79.0173 -79.0172 -79.0172 -79.0171
   -79.0171 -79.0170 -79.0170 -79.0170 -79.0167 -79.0166 -79.0166 -79.0165
   -79.0164 -79.0164 -79.0163 -79.0162 -79.0152 -79.0152 -79.0144 -79.0144
   -79.0107 -79.0107 -79.0107 -79.0107 -79.0073 -79.0073 -79.0072 -79.0072
   -79.0039 -79.0039 -79.0022 -79.0021 -79.0020 -79.0020 -79.0008 -79.0007
   -79.0007 -79.0006 -79.0006 -79.0006 -79.0000 -79.0000 -79.0000 -78.9999
   -78.9993 -78.9993 -78.9992 -78.9992 -78.9978 -78.9978 -78.9978 -78.9978
   -78.9952 -78.9952 -78.9937 -78.9937 -78.9937 -78.9937 -78.9923 -78.9923
    -8.2701  -7.8234  -7.8233  -7.1121  -6.9146  -6.8403  -6.8403  -6.8039
    -6.8039  -6.7974  -6.7973  -6.7932  -6.7931  -6.7691  -6.7280  -6.7278
    -6.6988  -6.6986  -6.6556  -6.6556  -6.6237  -6.6098  -6.6098  -6.6048
    -6.6047  -6.5885  -6.5884  -6.5685  -6.5685  -6.5603  -6.5601  -6.5445
    -6.5346  -6.5345  -6.4925  -6.4924  -6.4725  -6.4725  -6.4695  -6.4622
    -6.4622  -6.4405  -6.4405  -6.4178  -6.4126  -6.4126  -6.4126  -6.4125
    -6.4035  -6.4035  -6.3926  -6.3705  -6.3703  -6.3128  -6.3026  -6.3026
    -6.2977  -6.2977  -6.2923  -6.2923  -6.2919  -6.2790  -6.2676  -6.2637
    -6.2636  -6.2550  -6.2496  -6.2494  -6.2440  -6.2440  -6.2422  -6.2228
    -6.2228  -6.2025  -6.2025  -6.1780  -6.1779  -6.1661  -6.1477  -6.1462
    -6.1420  -6.1419  -6.1184  -6.1183  -6.1084  -6.1084  -6.0951  -6.0895
    -6.0567  -6.0567  -6.0471  -6.0470  -6.0426  -6.0333  -6.0206  -6.0206
    -5.9979  -5.9923  -5.9922  -5.9897  -5.9808  -5.9808  -5.9731  -5.9731
    -5.9708  -5.9708  -5.9576  -5.9493  -5.9428  -5.9158  -5.9157  -5.9079
    -5.9079  -5.9071  -5.8993  -5.8915  -5.8915  -5.8867  -5.8863  -5.8777
    -5.8776  -5.8537  -5.8537  -5.8467  -5.8467  -5.8340  -5.8338  -5.8337
    -5.8330  -5.8290  -5.8290  -5.8092  -5.7971  -5.7970  -5.7943  -5.7731
    -5.7635  -5.7634  -5.7560  -5.7525  -5.7525  -5.7501  -5.7134  -5.7134
    -5.6948  -5.6947  -5.6920  -5.6919  -5.6579  -5.6546  -5.6546  -5.6538
    -5.6537  -5.6471  -5.6327  -5.6312  -5.6311  -5.6242  -5.6241  -5.5932
    -5.5929  -5.5928  -5.5925  -5.5925  -5.5832  -5.5831  -5.5814  -5.5814
    -5.5790  -5.5790  -5.5749  -5.5748  -5.5670  -5.5670  -5.5498  -5.5497
    -5.5492  -5.5491  -5.5454  -5.5407  -5.5370  -5.5370  -5.5152  -5.5152
    -5.5126  -5.5102  -5.5102  -5.5075  -5.5035  -5.4843  -5.4841  -5.4825
    -5.4799  -5.4798  -5.4667  -5.4618  -5.4618  -5.4603  -5.4601  -5.4583
    -5.4581  -5.4562  -5.4562  -5.4435  -5.4435  -5.4411  -5.4411  -5.4340
    -5.4340  -5.4312  -5.4185  -5.4185  -5.4103  -5.4103  -5.4101  -5.3993
[...]
     1.0000   1.0000   1.0000   1.0000   1.0000   1.0000   1.0000   1.0000
     1.0000   1.0000   1.0000   1.0000   1.0000   1.0000   1.0000   1.0000
     1.0000   1.0000   1.0000   1.0000   1.0000   1.0000   1.0000   1.0000
     1.0000   1.0000   1.0000   1.0000   1.0000   1.0000   1.0000   1.0000
     1.0000   1.0000   1.0000   1.0000   1.0000   1.0000   1.0000   1.0000
     1.0000   1.0000   1.0000   1.0000   1.0000   1.0000   1.0000   1.0000
     1.0000   1.0000   1.0000   1.0000   1.0000   1.0000   1.0000   1.0000
     1.0000   1.0000   1.0000   1.0000   1.0000   1.0000   1.0000   1.0000
     1.0000   1.0000   1.0000   1.0000   1.0000   1.0000   1.0000   1.0000
     1.0000   1.0000   1.0000   1.0000   1.0000   1.0000   1.0000   1.0000
     1.0000   1.0000   1.0000   1.0000   1.0000   1.0000   1.0000   1.0000
     1.0000   1.0000   1.0000   1.0000   1.0000   1.0000   1.0000   1.0000
     1.0000   1.0000   1.0000   1.0000   1.0000   1.0000   1.0000   1.0000
     1.0000   1.0000   1.0000   1.0000   1.0000   1.0000   1.0000   1.0000
     1.0000   1.0000   1.0000   1.0000   1.0000   1.0000   1.0000   1.0000
     1.0000   1.0000   1.0000   1.0000   1.0000   1.0000   1.0000   1.0000
     1.0000   1.0000   1.0000   1.0000   1.0000   1.0000   1.0000   1.0000
     1.0000   1.0000   1.0000   1.0000   1.0000   1.0000   1.0000   1.0000
     1.0000   1.0000   1.0000   1.0000   1.0000   1.0000   1.0000   1.0000
     1.0000   1.0000   1.0000   1.0000   1.0000   1.0000   1.0000   1.0000
     1.0000   1.0000   1.0000   1.0000   1.0000   1.0000   1.0000   1.0000
     1.0000   1.0000   1.0000   1.0000   1.0000   1.0000   1.0000   1.0000
     1.0000   1.0000   1.0000   1.0000   1.0000   1.0000   1.0000   1.0000
     1.0000   1.0000   1.0000   1.0000   1.0000   1.0000   1.0000   1.0000
     1.0000   1.0000   1.0000   1.0000   1.0000   1.0000   1.0000   1.0000
     1.0000   1.0000   1.0000   1.0000   1.0000   1.0000   1.0000   1.0000
     1.0000   1.0000   1.0000   1.0000   1.0000   1.0000   1.0000   1.0000
     1.0000   1.0000   1.0000   1.0000   1.0000   1.0000   1.0000   1.0000
     1.0000   1.0000   1.0000   1.0000   1.0000   1.0000   1.0000   1.0000
     1.0000   1.0000   1.0000   1.0000   1.0000   1.0000   1.0000   1.0000
     1.0000   1.0000   1.0000   1.0000   1.0000   1.0000   1.0000   1.0000
     1.0000   1.0000   1.0000   1.0000   1.0000   1.0000   1.0000   1.0000
     1.0000   1.0000   1.0000   1.0000   1.0000   1.0000   1.0000   1.0000
     1.0000   1.0000   1.0000   1.0000   1.0000   1.0000   1.0000   1.0000
     1.0000   1.0000   1.0000   1.0000   1.0000   1.0000   1.0000   1.0000
     1.0000   1.0000   1.0000   1.0000   1.0000   1.0000   1.0000   1.0000
     1.0000   1.0000   1.0000   1.0000   1.0000   1.0000   1.0000   1.0000
     1.0000   1.0000   1.0000   1.0000   1.0000   1.0000   1.0000   1.0000
     1.0000   1.0000   1.0000   1.0000   1.0000   1.0000   1.0000   1.0000
     1.0000   1.0000   1.0000   1.0000   1.0000   1.0000   1.0000   1.0000
     1.0000   1.0000   1.0000   1.0000   1.0000   1.0000   1.0000   1.0000
     1.0000   1.0000   1.0000   1.0000   1.0000   1.0000   1.0000   1.0000
     1.0000   1.0000   1.0000   1.0000   1.0000   1.0000   1.0000   1.0000
     1.0000   1.0000   1.0000   1.0000   1.0000   1.0000   1.0000   1.0000
     1.0000   1.0000   1.0000   1.0000   1.0000   1.0000   1.0000   1.0000
     1.0000   1.0000   1.0000   1.0000   1.0000   1.0000   1.0000   1.0000
     1.0000   1.0000   1.0000   1.0000   1.0000   1.0000   1.0000   1.0000
     1.0000   1.0000   1.0000   1.0000   1.0000   1.0000   1.0000   1.0000
     1.0000   1.0000   1.0000   1.0000   1.0000   1.0000   1.0000   1.0000
     1.0000   1.0000   1.0000   1.0000   1.0000   1.0000   1.0000   1.0000
     1.0000   1.0000   1.0000   1.0000   1.0000   1.0000   1.0000   1.0000
     1.0000   1.0000   1.0000   1.0000   1.0000   1.0000   1.0000   1.0000
     1.0000   1.0052   1.0052   1.0159   1.0686   1.0686   1.0779   0.4455
     0.4450   0.0003   0.0003   0.0000   0.0000   0.0000   0.0000   0.0000
     0.0000   0.0000   0.0000   0.0000   0.0000   0.0000   0.0000   0.0000
     0.0000   0.0000   0.0000   0.0000   0.0000   0.0000   0.0000   0.0000
     0.0000   0.0000   0.0000   0.0000   0.0000   0.0000   0.0000   0.0000
     0.0000   0.0000   0.0000   0.0000   0.0000   0.0000   0.0000   0.0000
     0.0000   0.0000   0.0000   0.0000   0.0000   0.0000   0.0000   0.0000
     0.0000   0.0000   0.0000   0.0000   0.0000   0.0000   0.0000   0.0000
     0.0000   0.0000   0.0000   0.0000   0.0000   0.0000   0.0000   0.0000
     0.0000   0.0000   0.0000   0.0000   0.0000   0.0000   0.0000   0.0000
     0.0000   0.0000   0.0000   0.0000   0.0000   0.0000   0.0000   0.0000
     0.0000   0.0000   0.0000   0.0000   0.0000   0.0000   0.0000   0.0000
     0.0000   0.0000   0.0000   0.0000   0.0000   0.0000   0.0000   0.0000

          k =-0.5000-0.8660 0.0000 ( 64842 PWs)   bands (ev):

  -125.0673-125.0672-125.0664-125.0663-125.0652-125.0652-125.0652-125.0651
  -125.0647-125.0647-125.0644-125.0643-125.0642-125.0641-125.0638-125.0637
  -124.8637-124.8636-124.8636-124.8635-124.8627-124.8627-124.8627-124.8627
  -124.8616-124.8616-124.8615-124.8615-124.8615-124.8615-124.8615-124.8614
  -124.8611-124.8611-124.8611-124.8611-124.8607-124.8607-124.8606-124.8606
  -124.8606-124.8606-124.8605-124.8605-124.8602-124.8602-124.8602-124.8601
   -79.2315 -79.2315 -79.2314 -79.2313 -79.2291 -79.2290 -79.2279 -79.2279
   -79.2234 -79.2234 -79.2234 -79.2234 -79.2185 -79.2185 -79.2155 -79.2154
   -79.2144 -79.2143 -79.2131 -79.2131 -79.2130 -79.2130 -79.2126 -79.2125
   -79.2121 -79.2121 -79.2119 -79.2119 -79.2119 -79.2119 -79.2115 -79.2114
   -79.2105 -79.2104 -79.2103 -79.2103 -79.2071 -79.2070 -79.2070 -79.2070
   -79.2063 -79.2061 -79.2035 -79.2034 -79.2024 -79.2024 -79.1996 -79.1994
   -79.0246 -79.0245 -79.0244 -79.0244 -79.0244 -79.0244 -79.0244 -79.0243
   -79.0221 -79.0220 -79.0220 -79.0219 -79.0210 -79.0209 -79.0209 -79.0209
   -79.0201 -79.0201 -79.0199 -79.0199 -79.0191 -79.0191 -79.0190 -79.0190
   -79.0178 -79.0178 -79.0178 -79.0178 -79.0177 -79.0177 -79.0177 -79.0177
   -79.0174 -79.0173 -79.0173 -79.0173 -79.0169 -79.0168 -79.0168 -79.0168
   -79.0168 -79.0167 -79.0167 -79.0167 -79.0164 -79.0164 -79.0164 -79.0164
   -79.0164 -79.0164 -79.0164 -79.0164 -79.0163 -79.0163 -79.0163 -79.0163
   -79.0116 -79.0115 -79.0115 -79.0115 -79.0050 -79.0050 -79.0049 -79.0049
   -79.0035 -79.0035 -79.0034 -79.0034 -79.0034 -79.0034 -79.0034 -79.0033
   -79.0001 -79.0001 -79.0001 -79.0001 -79.0001 -79.0001 -79.0001 -79.0001
   -78.9993 -78.9993 -78.9992 -78.9992 -78.9966 -78.9965 -78.9965 -78.9965
   -78.9955 -78.9955 -78.9955 -78.9955 -78.9927 -78.9926 -78.9926 -78.9925
    -8.1560  -8.1559  -7.3172  -7.3172  -7.0261  -7.0260  -6.8643  -6.8641
    -6.8601  -6.8600  -6.7501  -6.7501  -6.7499  -6.7499  -6.6542  -6.6541
    -6.6474  -6.6474  -6.6474  -6.6474  -6.6253  -6.6252  -6.6075  -6.6074
    -6.6073  -6.6073  -6.5537  -6.5537  -6.5295  -6.5295  -6.5294  -6.5294
    -6.5063  -6.5063  -6.4878  -6.4878  -6.4878  -6.4878  -6.4636  -6.4636
    -6.4636  -6.4636  -6.4613  -6.4612  -6.4500  -6.4500  -6.4265  -6.4265
    -6.4225  -6.4224  -6.4224  -6.4223  -6.3107  -6.3107  -6.3017  -6.3017
    -6.2936  -6.2936  -6.2936  -6.2936  -6.2921  -6.2920  -6.2713  -6.2712
    -6.2712  -6.2711  -6.2365  -6.2364  -6.2217  -6.2217  -6.2217  -6.2217
    -6.2063  -6.2063  -6.2013  -6.2013  -6.1705  -6.1704  -6.1423  -6.1423
    -6.1124  -6.1124  -6.1039  -6.1039  -6.0831  -6.0831  -6.0830  -6.0830
    -6.0619  -6.0619  -6.0619  -6.0619  -6.0426  -6.0426  -6.0330  -6.0330
    -6.0263  -6.0263  -6.0229  -6.0228  -6.0095  -6.0094  -5.9904  -5.9904
    -5.9904  -5.9904  -5.9472  -5.9472  -5.9465  -5.9464  -5.9158  -5.9158
    -5.9060  -5.9060  -5.8723  -5.8722  -5.8721  -5.8721  -5.8156  -5.8155
    -5.8097  -5.8097  -5.8090  -5.8090  -5.8090  -5.8090  -5.8054  -5.8053
    -5.7878  -5.7878  -5.7857  -5.7856  -5.7761  -5.7761  -5.7761  -5.7760
    -5.7682  -5.7681  -5.7679  -5.7679  -5.7678  -5.7678  -5.7561  -5.7561
    -5.7542  -5.7542  -5.7542  -5.7542  -5.6759  -5.6759  -5.6745  -5.6745
    -5.6675  -5.6675  -5.6460  -5.6460  -5.6460  -5.6460  -5.6313  -5.6312
    -5.6244  -5.6244  -5.6051  -5.6051  -5.6051  -5.6050  -5.5949  -5.5949
    -5.5709  -5.5708  -5.5438  -5.5437  -5.5293  -5.5293  -5.5292  -5.5292
    -5.5270  -5.5270  -5.5270  -5.5270  -5.5237  -5.5237  -5.5215  -5.5215
    -5.4996  -5.4995  -5.4995  -5.4994  -5.4896  -5.4895  -5.4888  -5.4887
    -5.4871  -5.4871  -5.4797  -5.4797  -5.4646  -5.4645  -5.4645  -5.4645
    -5.4517  -5.4517  -5.4516  -5.4516  -5.4404  -5.4404  -5.4233  -5.4232
    -5.4160  -5.4160  -5.4159  -5.4159  -5.4129  -5.4129  -5.4119  -5.4119
    -5.4054  -5.4054  -5.4032  -5.4032  -5.4005  -5.4004  -5.3711  -5.3710
    -5.3632  -5.3632  -5.3632  -5.3632  -5.3248  -5.3248  -5.3248  -5.3248
    -5.2549  -5.2549  -5.2548  -5.2548  -5.2355  -5.2355  -5.2349  -5.2349
    -5.2349  -5.2348  -5.2022  -5.2021  -5.1995  -5.1994  -4.7024  -4.7024
    -4.4188  -4.4188  -4.4188  -4.4188  -3.7286  -3.7286  -3.1108  -3.1108
    -3.0619  -3.0619  -3.0619  -3.0619  -2.3917  -2.3917  -2.2401  -2.2400
    -1.7582  -1.7582  -1.7581  -1.7581  -0.7555  -0.7555  -0.7555  -0.7555
    -0.3258  -0.3258  -0.3257  -0.3257  -0.0905  -0.0904   0.0128   0.0129
     1.0210   1.0210   1.0491   1.0491   1.3378   1.3378   1.3697   1.3697
     1.3697   1.3698   2.2233   2.2233   2.8998   2.8998   2.8998   2.8998
     3.1015   3.1015   3.1015   3.1015   3.3220   3.3220   3.5549   3.5550
     3.8664   3.8664   3.8664   3.8664   3.9982   3.9982   4.2578   4.2578
     4.4469   4.4469   4.7457   4.7457   4.8578   4.8578   5.4823   5.4823
     5.5256   5.5256   5.7249   5.7250   5.8008   5.8008   5.9295   5.9295
     5.9295   5.9296   5.9829   5.9829   5.9830   5.9830   6.1538   6.1538
     6.1538   6.1538   6.4271   6.4271   6.5595   6.5595   6.6434   6.6434
     6.6629   6.6629   6.8473   6.8473   6.8664   6.8664   7.0136   7.0136
     7.0137   7.0137   7.5855   7.5855   7.7448   7.7448   8.0644   8.0644
     8.0904   8.0904   8.0904   8.0904   8.2786   8.2786   8.4766   8.4766
     8.4766   8.4766   8.6265   8.6265   8.6265   8.6265   8.6677   8.6677
     8.7364   8.7364   8.8112   8.8112   8.9993   8.9993   8.9994   8.9994

     occupation numbers 
     1.0000   1.0000   1.0000   1.0000   1.0000   1.0000   1.0000   1.0000
     1.0000   1.0000   1.0000   1.0000   1.0000   1.0000   1.0000   1.0000
     1.0000   1.0000   1.0000   1.0000   1.0000   1.0000   1.0000   1.0000
     1.0000   1.0000   1.0000   1.0000   1.0000   1.0000   1.0000   1.0000
     1.0000   1.0000   1.0000   1.0000   1.0000   1.0000   1.0000   1.0000
     1.0000   1.0000   1.0000   1.0000   1.0000   1.0000   1.0000   1.0000
     1.0000   1.0000   1.0000   1.0000   1.0000   1.0000   1.0000   1.0000
     1.0000   1.0000   1.0000   1.0000   1.0000   1.0000   1.0000   1.0000
     1.0000   1.0000   1.0000   1.0000   1.0000   1.0000   1.0000   1.0000
     1.0000   1.0000   1.0000   1.0000   1.0000   1.0000   1.0000   1.0000
     1.0000   1.0000   1.0000   1.0000   1.0000   1.0000   1.0000   1.0000
     1.0000   1.0000   1.0000   1.0000   1.0000   1.0000   1.0000   1.0000
     1.0000   1.0000   1.0000   1.0000   1.0000   1.0000   1.0000   1.0000
     1.0000   1.0000   1.0000   1.0000   1.0000   1.0000   1.0000   1.0000
     1.0000   1.0000   1.0000   1.0000   1.0000   1.0000   1.0000   1.0000
     1.0000   1.0000   1.0000   1.0000   1.0000   1.0000   1.0000   1.0000
     1.0000   1.0000   1.0000   1.0000   1.0000   1.0000   1.0000   1.0000
     1.0000   1.0000   1.0000   1.0000   1.0000   1.0000   1.0000   1.0000
     1.0000   1.0000   1.0000   1.0000   1.0000   1.0000   1.0000   1.0000
     1.0000   1.0000   1.0000   1.0000   1.0000   1.0000   1.0000   1.0000
     1.0000   1.0000   1.0000   1.0000   1.0000   1.0000   1.0000   1.0000
     1.0000   1.0000   1.0000   1.0000   1.0000   1.0000   1.0000   1.0000
     1.0000   1.0000   1.0000   1.0000   1.0000   1.0000   1.0000   1.0000
     1.0000   1.0000   1.0000   1.0000   1.0000   1.0000   1.0000   1.0000
     1.0000   1.0000   1.0000   1.0000   1.0000   1.0000   1.0000   1.0000
     1.0000   1.0000   1.0000   1.0000   1.0000   1.0000   1.0000   1.0000
     1.0000   1.0000   1.0000   1.0000   1.0000   1.0000   1.0000   1.0000
     1.0000   1.0000   1.0000   1.0000   1.0000   1.0000   1.0000   1.0000
     1.0000   1.0000   1.0000   1.0000   1.0000   1.0000   1.0000   1.0000
     1.0000   1.0000   1.0000   1.0000   1.0000   1.0000   1.0000   1.0000
     1.0000   1.0000   1.0000   1.0000   1.0000   1.0000   1.0000   1.0000
     1.0000   1.0000   1.0000   1.0000   1.0000   1.0000   1.0000   1.0000
     1.0000   1.0000   1.0000   1.0000   1.0000   1.0000   1.0000   1.0000
     1.0000   1.0000   1.0000   1.0000   1.0000   1.0000   1.0000   1.0000
     1.0000   1.0000   1.0000   1.0000   1.0000   1.0000   1.0000   1.0000
     1.0000   1.0000   1.0000   1.0000   1.0000   1.0000   1.0000   1.0000
     1.0000   1.0000   1.0000   1.0000   1.0000   1.0000   1.0000   1.0000
     1.0000   1.0000   1.0000   1.0000   1.0000   1.0000   1.0000   1.0000
     1.0000   1.0000   1.0000   1.0000   1.0000   1.0000   1.0000   1.0000
     1.0000   1.0000   1.0000   1.0000   1.0000   1.0000   1.0000   1.0000
     1.0000   1.0000   1.0000   1.0000   1.0000   1.0000   1.0000   1.0000
     1.0000   1.0000   1.0000   1.0000   1.0000   1.0000   1.0000   1.0000
     1.0000   1.0000   1.0000   1.0000   1.0000   1.0000   1.0000   1.0000
     1.0000   1.0000   1.0000   1.0000   1.0000   1.0000   1.0000   1.0000
     1.0000   1.0000   1.0000   1.0000   1.0000   1.0000   1.0000   1.0000
     1.0000   1.0000   1.0000   1.0000   1.0000   1.0000   1.0000   1.0000
     1.0000   1.0000   1.0000   1.0000   1.0000   1.0000   1.0000   1.0000
     1.0000   1.0000   1.0000   1.0000   1.0000   1.0000   1.0000   1.0000
     1.0000   1.0000   1.0000   1.0000   1.0000   1.0000   1.0000   1.0000
     1.0000   1.0000   1.0000   1.0000   1.0000   1.0000   1.0000   1.0000
     1.0000   1.0000   1.0000   1.0000   1.0000   1.0000   1.0000   1.0000
     1.0000   1.0000   1.0000   1.0000   1.0000   1.0000   1.0000   1.0000
     1.0000   1.0000   1.0000   1.0000   1.0000   1.0000   1.0000   1.0000
     1.0000   1.0000   1.0000   1.0000   1.0000   1.0000   1.0000   1.0000
     1.0000   1.0000   1.0000   1.0000   1.0000   1.0000   1.0000   1.0000
     1.0000   1.0000   1.0000   1.0000   1.0000   1.0000   1.0000   1.0000
     1.0000   1.0000   1.0000   1.0000   1.0000   1.0000   1.0000   1.0000
     1.0000   1.0000   1.0000   1.0000   1.0000   1.0000   1.0000   1.0000
     1.0000   1.0000   1.0000   1.0000   1.0000   1.0000   1.0000   1.0000
     1.0812   1.0812   1.0833   1.0833   0.6571   0.6571   0.5690   0.5690
     0.5689   0.5689   0.0000   0.0000   0.0000   0.0000   0.0000   0.0000
     0.0000   0.0000   0.0000   0.0000   0.0000   0.0000   0.0000   0.0000
     0.0000   0.0000   0.0000   0.0000   0.0000   0.0000   0.0000   0.0000
     0.0000   0.0000   0.0000   0.0000   0.0000   0.0000   0.0000   0.0000
     0.0000   0.0000   0.0000   0.0000   0.0000   0.0000   0.0000   0.0000
     0.0000   0.0000   0.0000   0.0000   0.0000   0.0000   0.0000   0.0000
     0.0000   0.0000   0.0000   0.0000   0.0000   0.0000   0.0000   0.0000
     0.0000   0.0000   0.0000   0.0000   0.0000   0.0000   0.0000   0.0000
     0.0000   0.0000   0.0000   0.0000   0.0000   0.0000   0.0000   0.0000
     0.0000   0.0000   0.0000   0.0000   0.0000   0.0000   0.0000   0.0000
     0.0000   0.0000   0.0000   0.0000   0.0000   0.0000   0.0000   0.0000
     0.0000   0.0000   0.0000   0.0000   0.0000   0.0000   0.0000   0.0000

     the Fermi energy is     1.4328 ev

!    total energy              =  -22154.25533428 Ry
     estimated scf accuracy    <       0.00000181 Ry
     smearing contrib. (-TS)   =       0.00133048 Ry
     internal energy E=F+TS    =  -22154.25666476 Ry

     The total energy is F=E-TS. E is the sum of the following terms:
     one-electron contribution = -144865.53985508 Ry
     hartree contribution      =   72366.20008539 Ry
     xc contribution           =   -2024.16483877 Ry
     ewald contribution        =   52369.24794370 Ry

     convergence has been achieved in   9 iterations

     Writing all to output data dir ./tmp/Zn002.save/ :
     XML data file, charge density, pseudopotentials, collected wavefunctions

     init_run     :    116.58s CPU    117.35s WALL (       1 calls)
     electrons    :   4362.58s CPU   4394.99s WALL (       1 calls)

     Called by init_run:
     wfcinit      :    115.26s CPU    115.97s WALL (       1 calls)
     wfcinit:atom :      0.09s CPU      0.15s WALL (      10 calls)
     wfcinit:wfcr :    114.12s CPU    114.68s WALL (      10 calls)
     potinit      :      0.08s CPU      0.09s WALL (       1 calls)
     hinit0       :      0.04s CPU      0.04s WALL (       1 calls)

     Called by electrons:
     c_bands      :   4071.76s CPU   4102.26s WALL (      10 calls)
     sum_band     :    281.95s CPU    283.53s WALL (      10 calls)
     v_of_rho     :      0.70s CPU      0.73s WALL (      10 calls)
     v_h          :      0.05s CPU      0.05s WALL (      10 calls)
     v_xc         :      0.65s CPU      0.68s WALL (      10 calls)
     newd         :      8.95s CPU      9.20s WALL (      10 calls)
     mix_rho      :      0.08s CPU      0.09s WALL (      10 calls)

     Called by c_bands:
     init_us_2    :      4.40s CPU      4.42s WALL (     210 calls)
     cegterg      :   4063.36s CPU   4093.77s WALL (     100 calls)

     Called by sum_band:
     sum_band:wei :      0.04s CPU      0.04s WALL (      10 calls)
     sum_band:loo :    272.53s CPU    273.86s WALL (      10 calls)
     sum_band:buf :      0.87s CPU      0.88s WALL (     100 calls)
     sum_band:ini :      2.11s CPU      2.11s WALL (     100 calls)
     sum_band:cal :    233.12s CPU    234.15s WALL (     100 calls)
     sum_band:bec :      2.03s CPU      2.04s WALL (     100 calls)
     addusdens    :      9.13s CPU      9.38s WALL (      10 calls)
                                        0.00s GPU  (      10 calls)
     addusd:skk   :      0.09s CPU      0.10s WALL (      10 calls)
                                        0.00s GPU  (      10 calls)

     Called by *egterg:
     cdiaghg      :    306.89s CPU    319.49s WALL (     574 calls)
     cegterg:over :    651.01s CPU    653.09s WALL (     484 calls)
     cegterg:upda :    289.63s CPU    291.26s WALL (     484 calls)
     cegterg:last :    913.76s CPU    918.89s WALL (     190 calls)
     cdiaghg:chol :     19.46s CPU     19.51s WALL (     574 calls)
     cdiaghg:inve :      3.15s CPU      3.16s WALL (     574 calls)
     cdiaghg:para :     82.30s CPU     83.78s WALL (    1148 calls)
     h_psi        :   1276.44s CPU   1282.49s WALL (     594 calls)
     s_psi        :    533.56s CPU    534.82s WALL (     594 calls)
     g_psi        :      0.53s CPU      0.54s WALL (     484 calls)

     Called by h_psi:
     h_psi:calbec :    572.27s CPU    574.84s WALL (     594 calls)
     vloc_psi     :    158.77s CPU    160.00s WALL (     594 calls)
     add_vuspsi   :    543.64s CPU    544.95s WALL (     594 calls)

     General routines
     calbec       :    805.39s CPU    808.99s WALL (     694 calls)
     fft          :      0.54s CPU      0.59s WALL (     128 calls)
     ffts         :      0.02s CPU      0.02s WALL (      20 calls)
     fftw         :    166.99s CPU    168.25s WALL (  340032 calls)
     interpolate  :      0.05s CPU      0.05s WALL (      10 calls)

     Parallel routines

     PWSCF        :      1h14m CPU      1h15m WALL


   This run was terminated on:  23:45:54  26Mar2025            

=------------------------------------------------------------------------------=
   JOB DONE.
=------------------------------------------------------------------------------=
