--------------------------------------------------------------------------
By default, for Open MPI 4.0 and later, infiniband ports on a device
are not used by default.  The intent is to use UCX for these devices.
You can override this policy by setting the btl_openib_allow_ib MCA parameter
to true.

  Local host:              psid04
  Local adapter:           mlx5_0
  Local port:              1

--------------------------------------------------------------------------
--------------------------------------------------------------------------
WARNING: There was an error initializing an OpenFabrics device.

  Local host:   psid04
  Local device: mlx5_0
--------------------------------------------------------------------------

     Program PWSCF v.7.3.1 starts on 25Mar2025 at 22:15:17 

     This program is part of the open-source Quantum ESPRESSO suite
     for quantum simulation of materials; please cite
         "P. Giannozzi et al., J. Phys.:Condens. Matter 21 395502 (2009);
         "P. Giannozzi et al., J. Phys.:Condens. Matter 29 465901 (2017);
         "P. Giannozzi et al., J. Chem. Phys. 152 154105 (2020);
          URL http://www.quantum-espresso.org", 
     in publications or presentations arising from this work. More details at
     http://www.quantum-espresso.org/quote

     Parallel version (MPI), running on    33 processors

     MPI processes distributed on     1 nodes
     81285 MiB available memory on the printing compute node when the environment starts

     Waiting for input...
     Reading input from standard input

     Current dimensions of program PWSCF are:
     Max number of different atomic species (ntypx) = 10
     Max number of k-points (npk) =  40000
     Max angular momentum in pseudopotentials (lmaxx) =  4
     Found identity + ( -0.5000  0.0000  0.0000) symmetry
     This is a supercell, fractional translations are disabled

     R & G space division:  proc/nbgrp/npool/nimage =      33
     Subspace diagonalization in iterative solution of the eigenvalue problem:
     one sub-group per band group will be used
     custom distributed-memory algorithm (size of sub-group:  5*  5 procs)


     Parallelization info
     --------------------
     sticks:   dense  smooth     PW     G-vecs:    dense   smooth      PW
     Min         195     130     36                28871    15714    2270
     Max         196     131     37                28880    15723    2280
     Sum        6457    4303   1189               952925   518755   75035

     Using Slab Decomposition



     bravais-lattice index     =            0
     lattice parameter (alat)  =      19.7617  a.u.
     unit-cell volume          =   15176.5939 (a.u.)^3
     number of atoms/cell      =           48
     number of atomic types    =            1
     number of electrons       =       960.00
     number of Kohn-Sham states=          576
     kinetic-energy cutoff     =      40.0000  Ry
     charge density cutoff     =     240.0000  Ry
     scf convergence threshold =      1.0E-06
     mixing beta               =       0.4000
     number of iterations used =            8  plain     mixing
     Exchange-correlation= SLA  PW   PBE  PBE
                           (   1   4   3   4   0   0   0)

     celldm(1)=  19.761696  celldm(2)=   0.000000  celldm(3)=   0.000000
     celldm(4)=   0.000000  celldm(5)=   0.000000  celldm(6)=   0.000000

     crystal axes: (cart. coord. in units of alat)
               a(1) = (   1.000000   0.000000   0.000000 )  
               a(2) = (  -0.500000   0.866025   0.000000 )  
               a(3) = (   0.000000   0.000000   2.270759 )  

     reciprocal axes: (cart. coord. in units 2 pi/alat)
               b(1) = (  1.000000  0.577350 -0.000000 )  
               b(2) = (  0.000000  1.154701  0.000000 )  
               b(3) = (  0.000000 -0.000000  0.440381 )  


     PseudoPot. # 1 for Zn read from file:
     /home/ys/qepseudo/SSSP_1.3.0_PBE_efficiency/Zn_pbe_v1.uspp.F.UPF
     MD5 check sum: df62231357ef9e81f77b2b3087fa5675
     Pseudo is Ultrasoft, Zval = 20.0
     Generated by new atomic code, or converted to UPF format
     Using radial grid of  943 points,  6 beta functions with: 
                l(1) =   0
                l(2) =   0
                l(3) =   1
                l(4) =   1
                l(5) =   2
                l(6) =   2
     Q(r) pseudized with  8 coefficients,  rinner =    1.100   1.100   1.100
                                                       1.100   1.100

     atomic species   valence    mass     pseudopotential
     Zn               20.00    65.38000     Zn( 1.00)

     No symmetry found


                                    s                        frac. trans.

      isym =  1     identity                                     

 cryst.   s( 1) = (     1          0          0      )
                  (     0          1          0      )
                  (     0          0          1      )

 cart.    s( 1) = (  1.0000000  0.0000000  0.0000000 )
                  (  0.0000000  1.0000000  0.0000000 )
                  (  0.0000000  0.0000000  1.0000000 )


   Cartesian axes

     site n.     atom                  positions (alat units)
         1        Zn     tau(   1) = (   0.0000000   0.1443375   0.1164998  )
         2        Zn     tau(   2) = (   0.5000000   0.1443375   0.1164998  )
         3        Zn     tau(   3) = (   0.0000000   0.1443375   0.5824993  )
         4        Zn     tau(   4) = (   0.5000000   0.1443375   0.5824993  )
         5        Zn     tau(   5) = (  -0.1250000   0.3608439   0.1164998  )
         6        Zn     tau(   6) = (   0.3750000   0.3608439   0.1164998  )
         7        Zn     tau(   7) = (  -0.1250000   0.3608439   0.5824993  )
         8        Zn     tau(   8) = (   0.3750000   0.3608439   0.5824993  )
         9        Zn     tau(   9) = (  -0.2500000   0.5773502   0.1164998  )
        10        Zn     tau(  10) = (   0.2500000   0.5773502   0.1164998  )
        11        Zn     tau(  11) = (  -0.2500000   0.5773502   0.5824993  )
        12        Zn     tau(  12) = (   0.2500000   0.5773502   0.5824993  )
        13        Zn     tau(  13) = (  -0.3750000   0.7938567   0.1164998  )
        14        Zn     tau(  14) = (   0.1250000   0.7938567   0.1164998  )
        15        Zn     tau(  15) = (  -0.3750000   0.7938567   0.5824993  )
        16        Zn     tau(  16) = (   0.1250000   0.7938567   0.5824993  )
        17        Zn     tau(  17) = (   0.2500000   0.1443375   0.1164998  )
        18        Zn     tau(  18) = (   0.7500000   0.1443375   0.1164998  )
        19        Zn     tau(  19) = (   0.2500000   0.1443375   0.5824993  )
        20        Zn     tau(  20) = (   0.7500000   0.1443375   0.5824993  )
        21        Zn     tau(  21) = (   0.1250000   0.3608439   0.1164998  )
        22        Zn     tau(  22) = (   0.6250000   0.3608439   0.1164998  )
        23        Zn     tau(  23) = (   0.1250000   0.3608439   0.5824993  )
        24        Zn     tau(  24) = (   0.6250000   0.3608439   0.5824993  )
        25        Zn     tau(  25) = (   0.0000000   0.5773502   0.1164998  )
        26        Zn     tau(  26) = (   0.5000000   0.5773502   0.1164998  )
        27        Zn     tau(  27) = (   0.0000000   0.5773502   0.5824993  )
        28        Zn     tau(  28) = (   0.5000000   0.5773502   0.5824993  )
        29        Zn     tau(  29) = (  -0.1250000   0.7938567   0.1164998  )
        30        Zn     tau(  30) = (   0.3750000   0.7938567   0.1164998  )
        31        Zn     tau(  31) = (  -0.1250000   0.7938567   0.5824993  )
        32        Zn     tau(  32) = (   0.3750000   0.7938567   0.5824993  )
        33        Zn     tau(  33) = (   0.1250000   0.0721688   0.3494996  )
        34        Zn     tau(  34) = (   0.6250000   0.0721688   0.3494996  )
        35        Zn     tau(  35) = (   0.0000000   0.2886752   0.3494996  )
        36        Zn     tau(  36) = (   0.5000000   0.2886752   0.3494996  )
        37        Zn     tau(  37) = (  -0.1250000   0.5051815   0.3494996  )
        38        Zn     tau(  38) = (   0.3750000   0.5051815   0.3494996  )
        39        Zn     tau(  39) = (  -0.2500000   0.7216879   0.3494996  )
        40        Zn     tau(  40) = (   0.2500000   0.7216879   0.3494996  )
        41        Zn     tau(  41) = (   0.3750000   0.0721688   0.3494996  )
        42        Zn     tau(  42) = (   0.8750000   0.0721688   0.3494996  )
        43        Zn     tau(  43) = (   0.2500000   0.2886752   0.3494996  )
        44        Zn     tau(  44) = (   0.7500000   0.2886752   0.3494996  )
        45        Zn     tau(  45) = (   0.1250000   0.5051815   0.3494996  )
        46        Zn     tau(  46) = (   0.6250000   0.5051815   0.3494996  )
        47        Zn     tau(  47) = (   0.0000000   0.7216879   0.3494996  )
        48        Zn     tau(  48) = (   0.5000000   0.7216879   0.3494996  )

   Crystallographic axes

     site n.     atom                  positions (cryst. coord.)
         1        Zn     tau(   1) = (  0.0833333  0.1666666  0.0513044  )
         2        Zn     tau(   2) = (  0.5833333  0.1666666  0.0513044  )
         3        Zn     tau(   3) = (  0.0833333  0.1666666  0.2565219  )
         4        Zn     tau(   4) = (  0.5833333  0.1666666  0.2565219  )
         5        Zn     tau(   5) = (  0.0833333  0.4166666  0.0513044  )
         6        Zn     tau(   6) = (  0.5833333  0.4166666  0.0513044  )
         7        Zn     tau(   7) = (  0.0833333  0.4166666  0.2565219  )
         8        Zn     tau(   8) = (  0.5833333  0.4166666  0.2565219  )
         9        Zn     tau(   9) = (  0.0833333  0.6666666  0.0513044  )
        10        Zn     tau(  10) = (  0.5833333  0.6666666  0.0513044  )
        11        Zn     tau(  11) = (  0.0833333  0.6666666  0.2565219  )
        12        Zn     tau(  12) = (  0.5833333  0.6666666  0.2565219  )
        13        Zn     tau(  13) = (  0.0833333  0.9166667  0.0513044  )
        14        Zn     tau(  14) = (  0.5833334  0.9166667  0.0513044  )
        15        Zn     tau(  15) = (  0.0833333  0.9166667  0.2565219  )
        16        Zn     tau(  16) = (  0.5833334  0.9166667  0.2565219  )
        17        Zn     tau(  17) = (  0.3333333  0.1666666  0.0513044  )
        18        Zn     tau(  18) = (  0.8333334  0.1666666  0.0513044  )
        19        Zn     tau(  19) = (  0.3333333  0.1666666  0.2565219  )
        20        Zn     tau(  20) = (  0.8333334  0.1666666  0.2565219  )
        21        Zn     tau(  21) = (  0.3333333  0.4166666  0.0513044  )
        22        Zn     tau(  22) = (  0.8333333  0.4166666  0.0513044  )
        23        Zn     tau(  23) = (  0.3333333  0.4166666  0.2565219  )
        24        Zn     tau(  24) = (  0.8333333  0.4166666  0.2565219  )
        25        Zn     tau(  25) = (  0.3333333  0.6666666  0.0513044  )
        26        Zn     tau(  26) = (  0.8333333  0.6666666  0.0513044  )
        27        Zn     tau(  27) = (  0.3333333  0.6666666  0.2565219  )
        28        Zn     tau(  28) = (  0.8333333  0.6666666  0.2565219  )
        29        Zn     tau(  29) = (  0.3333334  0.9166667  0.0513044  )
        30        Zn     tau(  30) = (  0.8333334  0.9166667  0.0513044  )
        31        Zn     tau(  31) = (  0.3333334  0.9166667  0.2565219  )
        32        Zn     tau(  32) = (  0.8333334  0.9166667  0.2565219  )
        33        Zn     tau(  33) = (  0.1666667  0.0833334  0.1539131  )
        34        Zn     tau(  34) = (  0.6666667  0.0833334  0.1539131  )
        35        Zn     tau(  35) = (  0.1666667  0.3333334  0.1539131  )
        36        Zn     tau(  36) = (  0.6666667  0.3333334  0.1539131  )
        37        Zn     tau(  37) = (  0.1666667  0.5833334  0.1539131  )
        38        Zn     tau(  38) = (  0.6666667  0.5833334  0.1539131  )
        39        Zn     tau(  39) = (  0.1666667  0.8333334  0.1539131  )
        40        Zn     tau(  40) = (  0.6666667  0.8333334  0.1539131  )
        41        Zn     tau(  41) = (  0.4166667  0.0833334  0.1539131  )
        42        Zn     tau(  42) = (  0.9166667  0.0833334  0.1539131  )
        43        Zn     tau(  43) = (  0.4166667  0.3333334  0.1539131  )
        44        Zn     tau(  44) = (  0.9166667  0.3333334  0.1539131  )
        45        Zn     tau(  45) = (  0.4166667  0.5833334  0.1539131  )
        46        Zn     tau(  46) = (  0.9166667  0.5833334  0.1539131  )
        47        Zn     tau(  47) = (  0.4166667  0.8333334  0.1539131  )
        48        Zn     tau(  48) = (  0.9166667  0.8333334  0.1539131  )

     number of k points=    10  Marzari-Vanderbilt smearing, width (Ry)=  0.0200
                       cart. coord. in units 2pi/alat
        k(    1) = (   0.0000000   0.0000000   0.0000000), wk =   0.1250000
        k(    2) = (   0.0000000   0.2886751   0.0000000), wk =   0.2500000
        k(    3) = (   0.0000000  -0.5773503   0.0000000), wk =   0.1250000
        k(    4) = (   0.2500000   0.1443376   0.0000000), wk =   0.2500000
        k(    5) = (   0.2500000   0.4330127   0.0000000), wk =   0.2500000
        k(    6) = (   0.2500000  -0.4330127   0.0000000), wk =   0.2500000
        k(    7) = (   0.2500000  -0.1443376   0.0000000), wk =   0.2500000
        k(    8) = (  -0.5000000  -0.2886751   0.0000000), wk =   0.1250000
        k(    9) = (  -0.5000000   0.0000000   0.0000000), wk =   0.2500000
        k(   10) = (  -0.5000000  -0.8660254   0.0000000), wk =   0.1250000

                       cryst. coord.
        k(    1) = (   0.0000000   0.0000000   0.0000000), wk =   0.1250000
        k(    2) = (   0.0000000   0.2500000   0.0000000), wk =   0.2500000
        k(    3) = (   0.0000000  -0.5000000   0.0000000), wk =   0.1250000
        k(    4) = (   0.2500000   0.0000000   0.0000000), wk =   0.2500000
        k(    5) = (   0.2500000   0.2500000   0.0000000), wk =   0.2500000
        k(    6) = (   0.2500000  -0.5000000   0.0000000), wk =   0.2500000
        k(    7) = (   0.2500000  -0.2500000   0.0000000), wk =   0.2500000
        k(    8) = (  -0.5000000   0.0000000   0.0000000), wk =   0.1250000
        k(    9) = (  -0.5000000   0.2500000   0.0000000), wk =   0.2500000
        k(   10) = (  -0.5000000  -0.5000000   0.0000000), wk =   0.1250000

     Dense  grid:   952925 G-vectors     FFT dimensions: ( 100, 100, 225)

     Smooth grid:   518755 G-vectors     FFT dimensions: (  80,  80, 192)

     Dynamical RAM for                 wfc:      17.26 MB

     Dynamical RAM for     wfc (w. buffer):     189.88 MB

     Dynamical RAM for           str. fact:       0.44 MB

     Dynamical RAM for           local pot:       0.00 MB

     Dynamical RAM for          nlocal pot:      25.89 MB

     Dynamical RAM for                qrad:       1.24 MB

     Dynamical RAM for          rho,v,vnew:       2.92 MB

     Dynamical RAM for               rhoin:       0.97 MB

     Dynamical RAM for            rho*nmix:       7.05 MB

     Dynamical RAM for           G-vectors:       1.77 MB

     Dynamical RAM for          h,s,v(r/c):       2.42 MB

     Dynamical RAM for          <psi|beta>:       7.59 MB

     Dynamical RAM for                 psi:      34.52 MB

     Dynamical RAM for                hpsi:      34.52 MB

     Dynamical RAM for                spsi:      34.52 MB

     Dynamical RAM for      wfcinit/wfcrot:      46.32 MB

     Dynamical RAM for           addusdens:     103.12 MB

     Estimated static dynamical RAM per process >     226.68 MB

     Estimated max dynamical RAM per process >     347.32 MB

     Estimated total dynamical RAM >      11.19 GB

     Initial potential from superposition of free atoms

     starting charge     959.9932, renormalised to     960.0000

     negative rho (up, down):  3.795E-04 0.000E+00
     Starting wfcs are  624 randomized atomic wfcs
[psid04:47149] 32 more processes have sent help message help-mpi-btl-openib.txt / ib port not selected
[psid04:47149] Set MCA parameter "orte_base_help_aggregate" to 0 to see all help / error messages
[psid04:47149] 32 more processes have sent help message help-mpi-btl-openib.txt / error in device init

     total cpu time spent up to now is      133.9 secs

     Self-consistent Calculation

     iteration #  1     ecut=    40.00 Ry     beta= 0.40
     Davidson diagonalization with overlap

---- Real-time Memory Report at c_bands before calling an iterative solver
           296 MiB given to the printing process from OS
             0 MiB allocation reported by mallinfo(arena+hblkhd)
         73377 MiB available memory on the node where the printing process lives
------------------
     ethr =  1.00E-02,  avg # of iterations =  9.3

     Threshold (ethr) on eigenvalues was too large:
     Diagonalizing with lowered threshold

     Davidson diagonalization with overlap

---- Real-time Memory Report at c_bands before calling an iterative solver
           379 MiB given to the printing process from OS
             0 MiB allocation reported by mallinfo(arena+hblkhd)
         72469 MiB available memory on the node where the printing process lives
------------------
     ethr =  1.61E-04,  avg # of iterations = 11.6

     negative rho (up, down):  1.148E-03 0.000E+00

     total cpu time spent up to now is     1181.8 secs

     total energy              =  -22153.85661227 Ry
     estimated scf accuracy    <       1.57394149 Ry

     iteration #  2     ecut=    40.00 Ry     beta= 0.40
     Davidson diagonalization with overlap

---- Real-time Memory Report at c_bands before calling an iterative solver
           391 MiB given to the printing process from OS
             0 MiB allocation reported by mallinfo(arena+hblkhd)
         72348 MiB available memory on the node where the printing process lives
------------------
     ethr =  1.64E-04,  avg # of iterations =  2.5

     negative rho (up, down):  1.950E-03 0.000E+00

     total cpu time spent up to now is     1694.2 secs

     total energy              =  -22154.23533991 Ry
     estimated scf accuracy    <       0.27650059 Ry

     iteration #  3     ecut=    40.00 Ry     beta= 0.40
     Davidson diagonalization with overlap

---- Real-time Memory Report at c_bands before calling an iterative solver
           394 MiB given to the printing process from OS
             0 MiB allocation reported by mallinfo(arena+hblkhd)
         72326 MiB available memory on the node where the printing process lives
------------------
     c_bands:  1 eigenvalues not converged
     c_bands:  2 eigenvalues not converged
     ethr =  2.88E-05,  avg # of iterations =  8.9

     negative rho (up, down):  2.762E-03 0.000E+00

     total cpu time spent up to now is     2162.2 secs

     total energy              =  -22154.25234680 Ry
     estimated scf accuracy    <       0.04708489 Ry

     iteration #  4     ecut=    40.00 Ry     beta= 0.40
     Davidson diagonalization with overlap

---- Real-time Memory Report at c_bands before calling an iterative solver
           394 MiB given to the printing process from OS
             0 MiB allocation reported by mallinfo(arena+hblkhd)
         72303 MiB available memory on the node where the printing process lives
------------------
     ethr =  4.90E-06,  avg # of iterations = 10.9

     negative rho (up, down):  2.763E-03 0.000E+00

     total cpu time spent up to now is     2646.7 secs

     total energy              =  -22154.25367446 Ry
     estimated scf accuracy    <       0.01450467 Ry

     iteration #  5     ecut=    40.00 Ry     beta= 0.40
     Davidson diagonalization with overlap

---- Real-time Memory Report at c_bands before calling an iterative solver
           395 MiB given to the printing process from OS
             0 MiB allocation reported by mallinfo(arena+hblkhd)
         72280 MiB available memory on the node where the printing process lives
------------------
     ethr =  1.51E-06,  avg # of iterations =  4.3

     negative rho (up, down):  2.840E-03 0.000E+00

     total cpu time spent up to now is     3100.3 secs

     total energy              =  -22154.25471212 Ry
     estimated scf accuracy    <       0.00215216 Ry

     iteration #  6     ecut=    40.00 Ry     beta= 0.40
     Davidson diagonalization with overlap

---- Real-time Memory Report at c_bands before calling an iterative solver
           395 MiB given to the printing process from OS
             0 MiB allocation reported by mallinfo(arena+hblkhd)
         72262 MiB available memory on the node where the printing process lives
------------------
     ethr =  2.24E-07,  avg # of iterations =  2.0

     negative rho (up, down):  2.891E-03 0.000E+00

     total cpu time spent up to now is     3599.1 secs

     total energy              =  -22154.25513020 Ry
     estimated scf accuracy    <       0.00005123 Ry

     iteration #  7     ecut=    40.00 Ry     beta= 0.40
     Davidson diagonalization with overlap

---- Real-time Memory Report at c_bands before calling an iterative solver
           396 MiB given to the printing process from OS
             0 MiB allocation reported by mallinfo(arena+hblkhd)
         72240 MiB available memory on the node where the printing process lives
------------------
     ethr =  5.34E-09,  avg # of iterations =  2.9

     negative rho (up, down):  2.926E-03 0.000E+00

     total cpu time spent up to now is     4126.5 secs

     total energy              =  -22154.25511281 Ry
     estimated scf accuracy    <       0.00007322 Ry

     iteration #  8     ecut=    40.00 Ry     beta= 0.40
     Davidson diagonalization with overlap

---- Real-time Memory Report at c_bands before calling an iterative solver
           396 MiB given to the printing process from OS
             0 MiB allocation reported by mallinfo(arena+hblkhd)
         72223 MiB available memory on the node where the printing process lives
------------------
     ethr =  5.34E-09,  avg # of iterations =  2.0

     negative rho (up, down):  2.954E-03 0.000E+00

     total cpu time spent up to now is     4659.6 secs

     total energy              =  -22154.25512760 Ry
     estimated scf accuracy    <       0.00008557 Ry

     iteration #  9     ecut=    40.00 Ry     beta= 0.40
     Davidson diagonalization with overlap

---- Real-time Memory Report at c_bands before calling an iterative solver
           397 MiB given to the printing process from OS
             0 MiB allocation reported by mallinfo(arena+hblkhd)
         72204 MiB available memory on the node where the printing process lives
------------------
     ethr =  5.34E-09,  avg # of iterations =  1.3

     negative rho (up, down):  2.974E-03 0.000E+00

     total cpu time spent up to now is     5030.2 secs

     total energy              =  -22154.25512655 Ry
     estimated scf accuracy    <       0.00001605 Ry

     iteration # 10     ecut=    40.00 Ry     beta= 0.40
     Davidson diagonalization with overlap

---- Real-time Memory Report at c_bands before calling an iterative solver
           397 MiB given to the printing process from OS
             0 MiB allocation reported by mallinfo(arena+hblkhd)
         72187 MiB available memory on the node where the printing process lives
------------------
     ethr =  1.67E-09,  avg # of iterations =  2.0

     negative rho (up, down):  2.986E-03 0.000E+00

     total cpu time spent up to now is     5558.7 secs

     total energy              =  -22154.25513178 Ry
     estimated scf accuracy    <       0.00000231 Ry

     iteration # 11     ecut=    40.00 Ry     beta= 0.40
     Davidson diagonalization with overlap

---- Real-time Memory Report at c_bands before calling an iterative solver
           398 MiB given to the printing process from OS
             0 MiB allocation reported by mallinfo(arena+hblkhd)
         72181 MiB available memory on the node where the printing process lives
------------------
     ethr =  2.41E-10,  avg # of iterations =  1.0

     negative rho (up, down):  3.005E-03 0.000E+00

     total cpu time spent up to now is     5908.4 secs

     End of self-consistent calculation

          k = 0.0000 0.0000 0.0000 ( 64855 PWs)   bands (ev):

  -125.0674-125.0657-125.0657-125.0657-125.0657-125.0657-125.0657-125.0640
  -125.0640-125.0640-125.0640-125.0640-125.0639-125.0639-125.0639-125.0639
  -124.8631-124.8630-124.8614-124.8614-124.8614-124.8614-124.8614-124.8613
  -124.8613-124.8613-124.8613-124.8613-124.8613-124.8613-124.8596-124.8596
  -124.8596-124.8596-124.8596-124.8596-124.8596-124.8596-124.8596-124.8596
  -124.8596-124.8596-124.8596-124.8596-124.8596-124.8596-124.8596-124.8596
   -79.2338 -79.2338 -79.2338 -79.2271 -79.2271 -79.2271 -79.2271 -79.2271
   -79.2271 -79.2160 -79.2158 -79.2158 -79.2158 -79.2158 -79.2158 -79.2158
   -79.2141 -79.2141 -79.2140 -79.2140 -79.2140 -79.2140 -79.2137 -79.2137
   -79.2137 -79.2137 -79.2137 -79.2137 -79.2121 -79.2121 -79.2121 -79.2121
   -79.2121 -79.2121 -79.2120 -79.2120 -79.2120 -79.2071 -79.2071 -79.2071
   -79.2024 -79.2024 -79.2024 -79.2024 -79.2024 -79.2024 -79.1977 -79.1977
   -79.0261 -79.0261 -79.0261 -79.0260 -79.0260 -79.0260 -79.0201 -79.0199
   -79.0195 -79.0195 -79.0195 -79.0195 -79.0195 -79.0194 -79.0194 -79.0194
   -79.0194 -79.0194 -79.0194 -79.0194 -79.0181 -79.0181 -79.0181 -79.0181
   -79.0181 -79.0181 -79.0180 -79.0180 -79.0180 -79.0180 -79.0180 -79.0180
   -79.0162 -79.0162 -79.0162 -79.0162 -79.0162 -79.0162 -79.0162 -79.0162
   -79.0162 -79.0162 -79.0162 -79.0162 -79.0161 -79.0161 -79.0161 -79.0161
   -79.0161 -79.0161 -79.0081 -79.0081 -79.0081 -79.0081 -79.0081 -79.0081
   -79.0081 -79.0081 -79.0081 -79.0081 -79.0081 -79.0081 -79.0061 -79.0061
   -79.0061 -79.0061 -79.0061 -79.0061 -79.0061 -79.0061 -79.0061 -79.0061
   -79.0061 -79.0061 -78.9995 -78.9995 -78.9995 -78.9995 -78.9995 -78.9995
   -78.9948 -78.9948 -78.9948 -78.9948 -78.9948 -78.9948 -78.9948 -78.9948
   -78.9948 -78.9948 -78.9948 -78.9947 -78.9901 -78.9901 -78.9901 -78.9901
    -8.6222  -7.3999  -7.0916  -7.0682  -7.0682  -7.0682  -7.0682  -7.0682
    -7.0682  -6.9142  -6.9142  -6.9142  -6.7253  -6.7253  -6.7253  -6.6776
    -6.6776  -6.6776  -6.5886  -6.5886  -6.5886  -6.5886  -6.5886  -6.5886
    -6.5396  -6.5396  -6.5396  -6.5396  -6.5396  -6.5396  -6.5362  -6.5362
    -6.5362  -6.4790  -6.4789  -6.4789  -6.4789  -6.4789  -6.4789  -6.4319
    -6.4319  -6.4319  -6.4319  -6.4319  -6.4319  -6.3346  -6.3346  -6.3346
    -6.3346  -6.3346  -6.3346  -6.3333  -6.3333  -6.3333  -6.2731  -6.2731
    -6.2731  -6.2731  -6.2731  -6.2731  -6.2695  -6.2110  -6.2110  -6.2110
    -6.2110  -6.2110  -6.2110  -6.1713  -6.1713  -6.1713  -6.1713  -6.1713
    -6.1713  -6.1456  -6.1456  -6.1456  -6.1456  -6.1456  -6.1456  -6.1223
    -6.1223  -6.1223  -6.1223  -6.1223  -6.1223  -6.1220  -6.1220  -6.0975
    -6.0975  -6.0975  -6.0961  -6.0961  -6.0961  -6.0961  -6.0961  -6.0961
    -5.9939  -5.9939  -5.9939  -5.9939  -5.9939  -5.9939  -5.9161  -5.9161
    -5.8973  -5.8973  -5.8652  -5.8652  -5.8652  -5.8652  -5.8652  -5.8652
    -5.8634  -5.8634  -5.8634  -5.8634  -5.8634  -5.8634  -5.8322  -5.8322
    -5.8322  -5.7824  -5.7824  -5.7824  -5.7824  -5.7824  -5.7824  -5.7760
    -5.7760  -5.7760  -5.7760  -5.7760  -5.7760  -5.7756  -5.7756  -5.7756
    -5.7756  -5.7756  -5.7756  -5.7542  -5.7542  -5.7542  -5.7542  -5.7542
    -5.7542  -5.7451  -5.7451  -5.7451  -5.7451  -5.7451  -5.7451  -5.7279
    -5.7279  -5.7279  -5.7279  -5.7279  -5.7279  -5.7152  -5.7090  -5.7090
    -5.7090  -5.7090  -5.7090  -5.7090  -5.6966  -5.6966  -5.6966  -5.6106
    -5.6106  -5.5754  -5.5754  -5.5754  -5.5754  -5.5754  -5.5754  -5.5686
    -5.5686  -5.5686  -5.5686  -5.5686  -5.5686  -5.5457  -5.5457  -5.5457
    -5.5457  -5.5457  -5.5457  -5.5294  -5.5294  -5.5294  -5.5020  -5.5020
    -5.5020  -5.5020  -5.5020  -5.5020  -5.4935  -5.4935  -5.4935  -5.4935
    -5.4935  -5.4935  -5.4459  -5.4458  -5.4458  -5.4458  -5.4458  -5.4458
    -5.4334  -5.4334  -5.4334  -5.4333  -5.4333  -5.4333  -5.3966  -5.3966
    -5.3966  -5.3911  -5.3911  -5.3911  -5.3911  -5.3911  -5.3910  -5.3835
    -5.3835  -5.3622  -5.3622  -5.3191  -5.3191  -5.3191  -5.3191  -5.3191
    -5.3191  -5.2897  -5.2897  -5.2897  -5.2897  -5.2897  -5.2897  -5.2808
    -5.2808  -5.2808  -5.0710  -5.0710  -5.0710  -5.0708  -5.0708  -5.0708
    -4.3973  -4.3973  -4.3973  -4.3973  -4.3973  -4.3973  -3.4498  -2.1034
    -2.1034  -2.1034  -2.1034  -2.1034  -2.1034  -2.0198  -2.0198  -2.0198
    -2.0198  -2.0198  -2.0198  -0.8423  -0.8423  -0.8423  -0.7120  -0.6399
    -0.6399  -0.6399  -0.6399  -0.6399  -0.6399  -0.0843  -0.0843  -0.0843
     0.2452   0.2452   0.2452   1.5365   1.5365   1.5365   1.5365   1.5365
     1.5365   1.5809   1.5809   1.5809   1.5809   1.5809   1.5809   2.3093
     2.3093   2.3093   3.1101   3.3013   3.3013   3.3013   4.1416   4.1416
     4.1416   4.8856   4.8856   4.8856   4.8856   4.8856   4.8856   5.1113
     5.3663   5.4274   5.4274   5.4274   5.4274   5.4274   5.4274   5.4349
     5.4349   5.4349   5.4349   5.4349   5.4349   5.6054   5.6054   5.6054
     5.6054   5.6054   5.6054   6.2639   6.4780   6.5625   6.5625   6.5625
     6.9074   6.9074   6.9074   6.9074   6.9074   6.9074   7.0109   7.0109
     7.0109   7.0109   7.0109   7.0109   7.1890   7.1890   7.1890   7.1890
     7.1890   7.1890   7.2026   7.2026   7.2026   7.2026   7.2026   7.2026
     8.1023   8.1023   8.1023   8.1023   8.1023   8.1023   8.1461   8.1461
     8.1461   8.1461   8.1461   8.1461   8.2657   8.2657   8.2657   8.2657
     8.2657   8.2657   8.2802   8.3761   8.3761   8.3761   8.4235   9.2861

     occupation numbers 
     1.0000   1.0000   1.0000   1.0000   1.0000   1.0000   1.0000   1.0000
     1.0000   1.0000   1.0000   1.0000   1.0000   1.0000   1.0000   1.0000
     1.0000   1.0000   1.0000   1.0000   1.0000   1.0000   1.0000   1.0000
     1.0000   1.0000   1.0000   1.0000   1.0000   1.0000   1.0000   1.0000
     1.0000   1.0000   1.0000   1.0000   1.0000   1.0000   1.0000   1.0000
     1.0000   1.0000   1.0000   1.0000   1.0000   1.0000   1.0000   1.0000
     1.0000   1.0000   1.0000   1.0000   1.0000   1.0000   1.0000   1.0000
     1.0000   1.0000   1.0000   1.0000   1.0000   1.0000   1.0000   1.0000
     1.0000   1.0000   1.0000   1.0000   1.0000   1.0000   1.0000   1.0000
     1.0000   1.0000   1.0000   1.0000   1.0000   1.0000   1.0000   1.0000
     1.0000   1.0000   1.0000   1.0000   1.0000   1.0000   1.0000   1.0000
     1.0000   1.0000   1.0000   1.0000   1.0000   1.0000   1.0000   1.0000
     1.0000   1.0000   1.0000   1.0000   1.0000   1.0000   1.0000   1.0000
     1.0000   1.0000   1.0000   1.0000   1.0000   1.0000   1.0000   1.0000
     1.0000   1.0000   1.0000   1.0000   1.0000   1.0000   1.0000   1.0000
     1.0000   1.0000   1.0000   1.0000   1.0000   1.0000   1.0000   1.0000
     1.0000   1.0000   1.0000   1.0000   1.0000   1.0000   1.0000   1.0000
     1.0000   1.0000   1.0000   1.0000   1.0000   1.0000   1.0000   1.0000
     1.0000   1.0000   1.0000   1.0000   1.0000   1.0000   1.0000   1.0000
     1.0000   1.0000   1.0000   1.0000   1.0000   1.0000   1.0000   1.0000
     1.0000   1.0000   1.0000   1.0000   1.0000   1.0000   1.0000   1.0000
     1.0000   1.0000   1.0000   1.0000   1.0000   1.0000   1.0000   1.0000
     1.0000   1.0000   1.0000   1.0000   1.0000   1.0000   1.0000   1.0000
     1.0000   1.0000   1.0000   1.0000   1.0000   1.0000   1.0000   1.0000
     1.0000   1.0000   1.0000   1.0000   1.0000   1.0000   1.0000   1.0000
     1.0000   1.0000   1.0000   1.0000   1.0000   1.0000   1.0000   1.0000
     1.0000   1.0000   1.0000   1.0000   1.0000   1.0000   1.0000   1.0000
     1.0000   1.0000   1.0000   1.0000   1.0000   1.0000   1.0000   1.0000
     1.0000   1.0000   1.0000   1.0000   1.0000   1.0000   1.0000   1.0000
     1.0000   1.0000   1.0000   1.0000   1.0000   1.0000   1.0000   1.0000
     1.0000   1.0000   1.0000   1.0000   1.0000   1.0000   1.0000   1.0000
     1.0000   1.0000   1.0000   1.0000   1.0000   1.0000   1.0000   1.0000
     1.0000   1.0000   1.0000   1.0000   1.0000   1.0000   1.0000   1.0000
     1.0000   1.0000   1.0000   1.0000   1.0000   1.0000   1.0000   1.0000
     1.0000   1.0000   1.0000   1.0000   1.0000   1.0000   1.0000   1.0000
     1.0000   1.0000   1.0000   1.0000   1.0000   1.0000   1.0000   1.0000
     1.0000   1.0000   1.0000   1.0000   1.0000   1.0000   1.0000   1.0000
     1.0000   1.0000   1.0000   1.0000   1.0000   1.0000   1.0000   1.0000
     1.0000   1.0000   1.0000   1.0000   1.0000   1.0000   1.0000   1.0000
     1.0000   1.0000   1.0000   1.0000   1.0000   1.0000   1.0000   1.0000
     1.0000   1.0000   1.0000   1.0000   1.0000   1.0000   1.0000   1.0000
     1.0000   1.0000   1.0000   1.0000   1.0000   1.0000   1.0000   1.0000
     1.0000   1.0000   1.0000   1.0000   1.0000   1.0000   1.0000   1.0000
     1.0000   1.0000   1.0000   1.0000   1.0000   1.0000   1.0000   1.0000
     1.0000   1.0000   1.0000   1.0000   1.0000   1.0000   1.0000   1.0000
     1.0000   1.0000   1.0000   1.0000   1.0000   1.0000   1.0000   1.0000
     1.0000   1.0000   1.0000   1.0000   1.0000   1.0000   1.0000   1.0000
     1.0000   1.0000   1.0000   1.0000   1.0000   1.0000   1.0000   1.0000
     1.0000   1.0000   1.0000   1.0000   1.0000   1.0000   1.0000   1.0000
     1.0000   1.0000   1.0000   1.0000   1.0000   1.0000   1.0000   1.0000
     1.0000   1.0000   1.0000   1.0000   1.0000   1.0000   1.0000   1.0000
     1.0000   1.0000   1.0000   1.0000   1.0000   1.0000   1.0000   1.0000
     1.0000   1.0000   1.0000   1.0000   1.0000   1.0000   1.0000   1.0000
     1.0000   1.0000   1.0000   1.0000   1.0000   1.0000   1.0000   1.0000
     1.0000   1.0000   1.0000   1.0000   1.0000   1.0000   1.0000   1.0000
     1.0000   1.0000   1.0000   1.0000   1.0000   1.0000   1.0000   1.0000
     1.0000   1.0000   1.0000   1.0000   1.0000   1.0000   1.0000   1.0000
     1.0000   1.0000   1.0000   1.0000   1.0000   1.0000   1.0000   1.0000
     1.0000   1.0000   1.0000   1.0000   1.0000   1.0000   1.0000   1.0000
     1.0000   1.0000   1.0000   0.1848   0.1848   0.1848   0.1848   0.1848
     0.1848   0.1223   0.1223   0.1223   0.1223   0.1223   0.1223   0.0000
     0.0000   0.0000   0.0000   0.0000   0.0000   0.0000   0.0000   0.0000
     0.0000   0.0000   0.0000   0.0000   0.0000   0.0000   0.0000   0.0000
     0.0000   0.0000   0.0000   0.0000   0.0000   0.0000   0.0000   0.0000
     0.0000   0.0000   0.0000   0.0000   0.0000   0.0000   0.0000   0.0000
     0.0000   0.0000   0.0000   0.0000   0.0000   0.0000   0.0000   0.0000
     0.0000   0.0000   0.0000   0.0000   0.0000   0.0000   0.0000   0.0000
     0.0000   0.0000   0.0000   0.0000   0.0000   0.0000   0.0000   0.0000
     0.0000   0.0000   0.0000   0.0000   0.0000   0.0000   0.0000   0.0000
     0.0000   0.0000   0.0000   0.0000   0.0000   0.0000   0.0000   0.0000
     0.0000   0.0000   0.0000   0.0000   0.0000   0.0000   0.0000   0.0000
     0.0000   0.0000   0.0000   0.0000   0.0000   0.0000   0.0000   0.0000

          k = 0.0000 0.2887 0.0000 ( 64808 PWs)   bands (ev):

  -125.0673-125.0664-125.0660-125.0660-125.0653-125.0653-125.0650-125.0644
  -125.0644-125.0641-125.0640-125.0640-125.0639-125.0639-125.0637-125.0637
  -124.8630-124.8629-124.8620-124.8620-124.8616-124.8616-124.8616-124.8616
  -124.8610-124.8610-124.8609-124.8609-124.8607-124.8606-124.8600-124.8600
  -124.8600-124.8600-124.8598-124.8597-124.8596-124.8596-124.8596-124.8596
  -124.8596-124.8596-124.8596-124.8596-124.8594-124.8594-124.8593-124.8593
   -79.2330 -79.2330 -79.2324 -79.2284 -79.2284 -79.2275 -79.2275 -79.2256
   -79.2256 -79.2227 -79.2195 -79.2195 -79.2168 -79.2168 -79.2159 -79.2148
   -79.2144 -79.2143 -79.2136 -79.2136 -79.2133 -79.2127 -79.2127 -79.2125
   -79.2125 -79.2124 -79.2124 -79.2122 -79.2121 -79.2121 -79.2120 -79.2120
   -79.2118 -79.2117 -79.2101 -79.2100 -79.2088 -79.2079 -79.2079 -79.2068
   -79.2042 -79.2039 -79.2039 -79.2020 -79.2020 -79.2006 -79.1991 -79.1981
   -79.0253 -79.0253 -79.0253 -79.0253 -79.0247 -79.0247 -79.0208 -79.0208
   -79.0207 -79.0207 -79.0199 -79.0199 -79.0199 -79.0198 -79.0198 -79.0197
   -79.0189 -79.0187 -79.0184 -79.0184 -79.0183 -79.0183 -79.0180 -79.0180
   -79.0179 -79.0179 -79.0177 -79.0177 -79.0176 -79.0176 -79.0174 -79.0173
   -79.0167 -79.0167 -79.0166 -79.0166 -79.0164 -79.0163 -79.0162 -79.0162
   -79.0162 -79.0162 -79.0162 -79.0162 -79.0161 -79.0161 -79.0159 -79.0159
   -79.0159 -79.0159 -79.0150 -79.0150 -79.0118 -79.0118 -79.0118 -79.0118
   -79.0091 -79.0091 -79.0091 -79.0091 -79.0051 -79.0051 -79.0050 -79.0050
   -79.0048 -79.0048 -79.0047 -79.0047 -79.0024 -79.0024 -79.0024 -79.0024
   -79.0012 -79.0012 -79.0003 -79.0003 -79.0002 -79.0002 -78.9992 -78.9991
   -78.9966 -78.9966 -78.9963 -78.9963 -78.9963 -78.9963 -78.9944 -78.9944
   -78.9943 -78.9943 -78.9930 -78.9929 -78.9915 -78.9914 -78.9905 -78.9904
    -8.5034  -7.6199  -7.3000  -7.2479  -7.2479  -7.0291  -6.8981  -6.8719
    -6.8719  -6.8491  -6.8458  -6.8458  -6.7065  -6.6916  -6.6916  -6.6902
    -6.6747  -6.6623  -6.6379  -6.6379  -6.5895  -6.5802  -6.5768  -6.5768
    -6.5675  -6.5675  -6.5479  -6.5479  -6.5280  -6.5280  -6.5185  -6.5185
    -6.5167  -6.5120  -6.5120  -6.5090  -6.5090  -6.5021  -6.5021  -6.4865
    -6.4865  -6.4608  -6.4608  -6.4229  -6.4229  -6.3949  -6.3949  -6.3800
    -6.3800  -6.3757  -6.3220  -6.3172  -6.3172  -6.3154  -6.3154  -6.3150
    -6.3150  -6.2685  -6.2685  -6.2586  -6.2516  -6.2293  -6.2293  -6.2231
    -6.2231  -6.2214  -6.2214  -6.2213  -6.2081  -6.2081  -6.2045  -6.2045
    -6.1955  -6.1955  -6.1839  -6.1839  -6.1795  -6.1778  -6.1778  -6.1541
    -6.1377  -6.1233  -6.1233  -6.1141  -6.1141  -6.1006  -6.1006  -6.0928
    -6.0906  -6.0906  -6.0782  -6.0635  -6.0635  -6.0493  -6.0493  -6.0481
    -6.0481  -5.9586  -5.9586  -5.9586  -5.9586  -5.9432  -5.9406  -5.9371
    -5.9366  -5.9342  -5.9342  -5.9237  -5.9237  -5.9124  -5.9112  -5.9112
    -5.8931  -5.8931  -5.8888  -5.8850  -5.8811  -5.8741  -5.8741  -5.8682
    -5.8462  -5.8462  -5.8389  -5.8389  -5.8251  -5.8109  -5.7955  -5.7955
    -5.7948  -5.7948  -5.7863  -5.7863  -5.7763  -5.7763  -5.7759  -5.7729
    -5.7729  -5.7551  -5.7551  -5.7469  -5.7469  -5.7399  -5.7301  -5.7301
    -5.7137  -5.7123  -5.7123  -5.7047  -5.7047  -5.6971  -5.6971  -5.6950
    -5.6950  -5.6922  -5.6922  -5.6793  -5.6677  -5.6677  -5.6565  -5.6435
    -5.6391  -5.6391  -5.6329  -5.6329  -5.6179  -5.6179  -5.6171  -5.6160
    -5.6160  -5.6122  -5.6106  -5.6053  -5.6053  -5.5795  -5.5640  -5.5605
    -5.5605  -5.5559  -5.5559  -5.5478  -5.5478  -5.5454  -5.5454  -5.5431
    -5.5431  -5.5408  -5.5261  -5.5261  -5.5259  -5.5214  -5.5214  -5.5122
    -5.5122  -5.4911  -5.4911  -5.4619  -5.4603  -5.4573  -5.4573  -5.4539
    -5.4539  -5.4517  -5.4517  -5.4398  -5.4397  -5.4306  -5.4257  -5.4257
    -5.4235  -5.4188  -5.4144  -5.4140  -5.4016  -5.4016  -5.3995  -5.3995
    -5.3885  -5.3864  -5.3864  -5.3804  -5.3677  -5.3677  -5.3643  -5.3591
    -5.3449  -5.3449  -5.3407  -5.3319  -5.3197  -5.3197  -5.3135  -5.3107
    -5.3107  -5.3010  -5.3010  -5.2925  -5.2925  -5.2819  -5.2819  -5.1434
    -5.1434  -5.1289  -5.1289  -5.1234  -5.1234  -5.1051  -5.1044  -4.9469
    -4.9341  -4.6380  -4.6380  -3.8808  -3.8808  -3.4797  -3.3936  -3.3936
    -3.3649  -2.6732  -2.3015  -2.3015  -2.2218  -2.0209  -2.0209  -1.9711
    -1.9711  -1.5146  -1.5146  -1.2919  -1.2919  -1.1167  -0.7947  -0.5727
    -0.5727  -0.5606  -0.5606  -0.5519   0.0240   0.0240   0.2692   0.2692
     0.5603   0.5603   0.6337   0.8768   0.8985   0.8985   1.1838   1.1838
     1.5567   1.5567   2.2266   2.2266   2.6475   2.6968   2.6968   2.7212
     2.7828   2.7828   2.9502   2.9502   3.2220   3.5468   3.6909   3.6909
     3.9089   3.9089   4.1144   4.1853   4.1853   4.5584   4.5584   4.8020
     4.8020   4.8434   4.8434   5.1520   5.1520   5.1607   5.1607   5.2241
     5.4281   5.4282   5.4813   5.5686   5.6429   5.7938   5.7938   5.8086
     6.0943   6.0943   6.1249   6.3133   6.3133   6.3800   6.4006   6.5741
     6.5741   6.5905   6.5947   6.5947   6.7109   6.8594   6.8594   7.0104
     7.0104   7.0872   7.0872   7.1739   7.1739   7.3047   7.3092   7.3092
     7.4476   7.4476   7.4563   7.4563   7.4889   7.6572   7.6572   7.7618
     7.7641   7.7641   7.7647   7.7647   7.9362   7.9362   7.9464   7.9464
     8.0297   8.0297   8.2347   8.3319   8.3957   8.5353   8.6982   8.6991
     8.6991   8.7843   8.8082   8.8082   8.8279   8.8279   8.8367   8.8367

     occupation numbers 
     1.0000   1.0000   1.0000   1.0000   1.0000   1.0000   1.0000   1.0000
     1.0000   1.0000   1.0000   1.0000   1.0000   1.0000   1.0000   1.0000
     1.0000   1.0000   1.0000   1.0000   1.0000   1.0000   1.0000   1.0000
     1.0000   1.0000   1.0000   1.0000   1.0000   1.0000   1.0000   1.0000
     1.0000   1.0000   1.0000   1.0000   1.0000   1.0000   1.0000   1.0000
     1.0000   1.0000   1.0000   1.0000   1.0000   1.0000   1.0000   1.0000
     1.0000   1.0000   1.0000   1.0000   1.0000   1.0000   1.0000   1.0000
     1.0000   1.0000   1.0000   1.0000   1.0000   1.0000   1.0000   1.0000
     1.0000   1.0000   1.0000   1.0000   1.0000   1.0000   1.0000   1.0000
     1.0000   1.0000   1.0000   1.0000   1.0000   1.0000   1.0000   1.0000
     1.0000   1.0000   1.0000   1.0000   1.0000   1.0000   1.0000   1.0000
     1.0000   1.0000   1.0000   1.0000   1.0000   1.0000   1.0000   1.0000
     1.0000   1.0000   1.0000   1.0000   1.0000   1.0000   1.0000   1.0000
     1.0000   1.0000   1.0000   1.0000   1.0000   1.0000   1.0000   1.0000
     1.0000   1.0000   1.0000   1.0000   1.0000   1.0000   1.0000   1.0000
     1.0000   1.0000   1.0000   1.0000   1.0000   1.0000   1.0000   1.0000
     1.0000   1.0000   1.0000   1.0000   1.0000   1.0000   1.0000   1.0000
     1.0000   1.0000   1.0000   1.0000   1.0000   1.0000   1.0000   1.0000
     1.0000   1.0000   1.0000   1.0000   1.0000   1.0000   1.0000   1.0000
     1.0000   1.0000   1.0000   1.0000   1.0000   1.0000   1.0000   1.0000
     1.0000   1.0000   1.0000   1.0000   1.0000   1.0000   1.0000   1.0000
     1.0000   1.0000   1.0000   1.0000   1.0000   1.0000   1.0000   1.0000
     1.0000   1.0000   1.0000   1.0000   1.0000   1.0000   1.0000   1.0000
     1.0000   1.0000   1.0000   1.0000   1.0000   1.0000   1.0000   1.0000
     1.0000   1.0000   1.0000   1.0000   1.0000   1.0000   1.0000   1.0000
     1.0000   1.0000   1.0000   1.0000   1.0000   1.0000   1.0000   1.0000
     1.0000   1.0000   1.0000   1.0000   1.0000   1.0000   1.0000   1.0000
     1.0000   1.0000   1.0000   1.0000   1.0000   1.0000   1.0000   1.0000
     1.0000   1.0000   1.0000   1.0000   1.0000   1.0000   1.0000   1.0000
     1.0000   1.0000   1.0000   1.0000   1.0000   1.0000   1.0000   1.0000
     1.0000   1.0000   1.0000   1.0000   1.0000   1.0000   1.0000   1.0000
     1.0000   1.0000   1.0000   1.0000   1.0000   1.0000   1.0000   1.0000
     1.0000   1.0000   1.0000   1.0000   1.0000   1.0000   1.0000   1.0000
     1.0000   1.0000   1.0000   1.0000   1.0000   1.0000   1.0000   1.0000
     1.0000   1.0000   1.0000   1.0000   1.0000   1.0000   1.0000   1.0000
     1.0000   1.0000   1.0000   1.0000   1.0000   1.0000   1.0000   1.0000
     1.0000   1.0000   1.0000   1.0000   1.0000   1.0000   1.0000   1.0000
     1.0000   1.0000   1.0000   1.0000   1.0000   1.0000   1.0000   1.0000
     1.0000   1.0000   1.0000   1.0000   1.0000   1.0000   1.0000   1.0000
     1.0000   1.0000   1.0000   1.0000   1.0000   1.0000   1.0000   1.0000
     1.0000   1.0000   1.0000   1.0000   1.0000   1.0000   1.0000   1.0000
     1.0000   1.0000   1.0000   1.0000   1.0000   1.0000   1.0000   1.0000
     1.0000   1.0000   1.0000   1.0000   1.0000   1.0000   1.0000   1.0000
     1.0000   1.0000   1.0000   1.0000   1.0000   1.0000   1.0000   1.0000
     1.0000   1.0000   1.0000   1.0000   1.0000   1.0000   1.0000   1.0000
     1.0000   1.0000   1.0000   1.0000   1.0000   1.0000   1.0000   1.0000
     1.0000   1.0000   1.0000   1.0000   1.0000   1.0000   1.0000   1.0000
     1.0000   1.0000   1.0000   1.0000   1.0000   1.0000   1.0000   1.0000
     1.0000   1.0000   1.0000   1.0000   1.0000   1.0000   1.0000   1.0000
     1.0000   1.0000   1.0000   1.0000   1.0000   1.0000   1.0000   1.0000
     1.0000   1.0000   1.0000   1.0000   1.0000   1.0000   1.0000   1.0000
     1.0000   1.0000   1.0000   1.0000   1.0000   1.0000   1.0000   1.0000
     1.0000   1.0000   1.0000   1.0000   1.0000   1.0000   1.0000   1.0000
     1.0000   1.0000   1.0000   1.0000   1.0000   1.0000   1.0000   1.0000
     1.0000   1.0000   1.0000   1.0000   1.0000   1.0000   1.0000   1.0000
     1.0000   1.0000   1.0000   1.0000   1.0000   1.0000   1.0000   1.0000
     1.0000   1.0000   1.0000   1.0000   1.0000   1.0000   1.0000   1.0000
     1.0000   1.0000   1.0000   1.0000   1.0000   1.0000   1.0000   1.0000
     1.0000   1.0000   1.0000   1.0000   1.0000   1.0000   1.0000   1.0000
     1.0006   1.0006   1.0019   1.0374   1.0443   1.0443   0.9985   0.9985
     0.1541   0.1541   0.0000   0.0000   0.0000   0.0000   0.0000   0.0000
     0.0000   0.0000   0.0000   0.0000   0.0000   0.0000   0.0000   0.0000
     0.0000   0.0000   0.0000   0.0000   0.0000   0.0000   0.0000   0.0000
     0.0000   0.0000   0.0000   0.0000   0.0000   0.0000   0.0000   0.0000
     0.0000   0.0000   0.0000   0.0000   0.0000   0.0000   0.0000   0.0000
     0.0000   0.0000   0.0000   0.0000   0.0000   0.0000   0.0000   0.0000
     0.0000   0.0000   0.0000   0.0000   0.0000   0.0000   0.0000   0.0000
     0.0000   0.0000   0.0000   0.0000   0.0000   0.0000   0.0000   0.0000
     0.0000   0.0000   0.0000   0.0000   0.0000   0.0000   0.0000   0.0000
     0.0000   0.0000   0.0000   0.0000   0.0000   0.0000   0.0000   0.0000
     0.0000   0.0000   0.0000   0.0000   0.0000   0.0000   0.0000   0.0000
     0.0000   0.0000   0.0000   0.0000   0.0000   0.0000   0.0000   0.0000

          k = 0.0000-0.5774 0.0000 ( 64842 PWs)   bands (ev):

  -125.0669-125.0669-125.0661-125.0661-125.0648-125.0648-125.0648-125.0648
  -125.0645-125.0645-125.0640-125.0640-125.0639-125.0639-125.0636-125.0636
  -124.8626-124.8626-124.8625-124.8625-124.8617-124.8617-124.8617-124.8617
  -124.8605-124.8605-124.8605-124.8605-124.8604-124.8604-124.8604-124.8604
  -124.8601-124.8601-124.8601-124.8601-124.8596-124.8596-124.8596-124.8596
  -124.8596-124.8596-124.8596-124.8596-124.8593-124.8593-124.8592-124.8592
   -79.2310 -79.2310 -79.2310 -79.2310 -79.2285 -79.2285 -79.2275 -79.2275
   -79.2230 -79.2230 -79.2230 -79.2230 -79.2180 -79.2180 -79.2155 -79.2154
   -79.2145 -79.2144 -79.2131 -79.2131 -79.2130 -79.2130 -79.2126 -79.2126
   -79.2121 -79.2121 -79.2120 -79.2120 -79.2117 -79.2116 -79.2115 -79.2115
   -79.2099 -79.2099 -79.2099 -79.2099 -79.2066 -79.2066 -79.2066 -79.2066
   -79.2058 -79.2057 -79.2030 -79.2030 -79.2020 -79.2020 -79.1991 -79.1991
   -79.0233 -79.0233 -79.0233 -79.0233 -79.0233 -79.0233 -79.0232 -79.0232
   -79.0208 -79.0208 -79.0208 -79.0208 -79.0198 -79.0198 -79.0198 -79.0198
   -79.0195 -79.0195 -79.0193 -79.0193 -79.0185 -79.0185 -79.0184 -79.0184
   -79.0172 -79.0172 -79.0172 -79.0172 -79.0171 -79.0171 -79.0171 -79.0171
   -79.0168 -79.0168 -79.0167 -79.0167 -79.0162 -79.0162 -79.0162 -79.0162
   -79.0162 -79.0162 -79.0161 -79.0161 -79.0158 -79.0158 -79.0158 -79.0158
   -79.0153 -79.0153 -79.0153 -79.0153 -79.0152 -79.0152 -79.0152 -79.0152
   -79.0104 -79.0104 -79.0104 -79.0104 -79.0038 -79.0038 -79.0038 -79.0038
   -79.0023 -79.0023 -79.0023 -79.0023 -79.0022 -79.0022 -79.0022 -79.0022
   -78.9990 -78.9990 -78.9990 -78.9990 -78.9989 -78.9989 -78.9989 -78.9989
   -78.9981 -78.9981 -78.9981 -78.9981 -78.9954 -78.9954 -78.9953 -78.9953
   -78.9944 -78.9944 -78.9943 -78.9943 -78.9915 -78.9915 -78.9914 -78.9914
    -8.1555  -8.1555  -7.3166  -7.3166  -7.0254  -7.0254  -6.8636  -6.8636
    -6.8595  -6.8595  -6.7494  -6.7494  -6.7494  -6.7494  -6.6535  -6.6535
    -6.6468  -6.6468  -6.6468  -6.6468  -6.6242  -6.6242  -6.6069  -6.6069
    -6.6069  -6.6069  -6.5532  -6.5532  -6.5285  -6.5285  -6.5285  -6.5285
    -6.5057  -6.5057  -6.4874  -6.4874  -6.4874  -6.4874  -6.4628  -6.4628
    -6.4628  -6.4628  -6.4605  -6.4605  -6.4497  -6.4497  -6.4259  -6.4259
    -6.4215  -6.4215  -6.4215  -6.4215  -6.3100  -6.3100  -6.3011  -6.3011
    -6.2926  -6.2926  -6.2926  -6.2926  -6.2915  -6.2915  -6.2706  -6.2706
    -6.2706  -6.2706  -6.2357  -6.2357  -6.2209  -6.2209  -6.2209  -6.2209
    -6.2059  -6.2059  -6.2007  -6.2007  -6.1698  -6.1698  -6.1415  -6.1415
    -6.1115  -6.1115  -6.1031  -6.1031  -6.0826  -6.0826  -6.0826  -6.0826
    -6.0612  -6.0612  -6.0612  -6.0612  -6.0415  -6.0415  -6.0319  -6.0319
    -6.0256  -6.0256  -6.0223  -6.0223  -6.0089  -6.0089  -5.9900  -5.9900
    -5.9900  -5.9900  -5.9464  -5.9464  -5.9453  -5.9453  -5.9149  -5.9149
    -5.9055  -5.9055  -5.8719  -5.8719  -5.8719  -5.8719  -5.8146  -5.8145
    -5.8093  -5.8093  -5.8083  -5.8083  -5.8083  -5.8083  -5.8052  -5.8052
    -5.7872  -5.7872  -5.7844  -5.7844  -5.7754  -5.7754  -5.7754  -5.7754
    -5.7674  -5.7674  -5.7668  -5.7668  -5.7668  -5.7668  -5.7555  -5.7555
    -5.7537  -5.7537  -5.7537  -5.7537  -5.6751  -5.6751  -5.6736  -5.6736
    -5.6671  -5.6671  -5.6453  -5.6453  -5.6453  -5.6453  -5.6310  -5.6310
    -5.6236  -5.6236  -5.6045  -5.6045  -5.6045  -5.6045  -5.5942  -5.5942
    -5.5704  -5.5704  -5.5429  -5.5429  -5.5286  -5.5286  -5.5286  -5.5286
    -5.5264  -5.5264  -5.5264  -5.5264  -5.5227  -5.5227  -5.5210  -5.5210
    -5.4991  -5.4991  -5.4991  -5.4991  -5.4890  -5.4890  -5.4877  -5.4877
    -5.4862  -5.4862  -5.4787  -5.4787  -5.4641  -5.4641  -5.4641  -5.4641
    -5.4506  -5.4506  -5.4506  -5.4506  -5.4399  -5.4399  -5.4228  -5.4228
    -5.4151  -5.4151  -5.4151  -5.4151  -5.4125  -5.4125  -5.4111  -5.4111
    -5.4044  -5.4044  -5.4027  -5.4027  -5.3999  -5.3999  -5.3706  -5.3706
    -5.3623  -5.3623  -5.3623  -5.3623  -5.3237  -5.3237  -5.3237  -5.3237
    -5.2537  -5.2537  -5.2537  -5.2537  -5.2349  -5.2349  -5.2338  -5.2338
    -5.2338  -5.2338  -5.2009  -5.2009  -5.1982  -5.1982  -4.7018  -4.7018
    -4.4181  -4.4181  -4.4181  -4.4181  -3.7280  -3.7280  -3.1102  -3.1101
    -3.0613  -3.0613  -3.0613  -3.0613  -2.3911  -2.3911  -2.2395  -2.2395
    -1.7576  -1.7576  -1.7576  -1.7576  -0.7550  -0.7550  -0.7550  -0.7550
    -0.3252  -0.3252  -0.3252  -0.3252  -0.0900  -0.0900   0.0134   0.0134
     1.0216   1.0216   1.0496   1.0496   1.3384   1.3384   1.3703   1.3703
     1.3703   1.3703   2.2239   2.2239   2.9003   2.9003   2.9004   2.9004
     3.1020   3.1020   3.1020   3.1020   3.3226   3.3226   3.5574   3.5574
     3.8669   3.8669   3.8670   3.8670   3.9987   3.9987   4.2583   4.2584
     4.4493   4.4493   4.7463   4.7463   4.8584   4.8584   5.4828   5.4828
     5.5622   5.5622   5.8014   5.8014   5.8263   5.8263   5.9300   5.9300
     5.9300   5.9300   5.9835   5.9835   5.9835   5.9835   6.1558   6.1558
     6.1558   6.1558   6.4626   6.4626   6.5601   6.5601   6.7276   6.7276
     6.7449   6.7449   6.8680   6.8680   6.9279   6.9279   7.0145   7.0145
     7.0145   7.0145   7.6502   7.6502   7.8256   7.8256   8.0649   8.0649
     8.1098   8.1098   8.1098   8.1098   8.2809   8.2809   8.5779   8.5779
     8.5779   8.5779   8.6471   8.6471   8.6471   8.6471   8.7369   8.7369
     8.7414   8.7414   8.8695   8.8695   9.0015   9.0015   9.0015   9.0015

     occupation numbers 
     1.0000   1.0000   1.0000   1.0000   1.0000   1.0000   1.0000   1.0000
     1.0000   1.0000   1.0000   1.0000   1.0000   1.0000   1.0000   1.0000
     1.0000   1.0000   1.0000   1.0000   1.0000   1.0000   1.0000   1.0000
     1.0000   1.0000   1.0000   1.0000   1.0000   1.0000   1.0000   1.0000
     1.0000   1.0000   1.0000   1.0000   1.0000   1.0000   1.0000   1.0000
     1.0000   1.0000   1.0000   1.0000   1.0000   1.0000   1.0000   1.0000
     1.0000   1.0000   1.0000   1.0000   1.0000   1.0000   1.0000   1.0000
     1.0000   1.0000   1.0000   1.0000   1.0000   1.0000   1.0000   1.0000
     1.0000   1.0000   1.0000   1.0000   1.0000   1.0000   1.0000   1.0000
     1.0000   1.0000   1.0000   1.0000   1.0000   1.0000   1.0000   1.0000
     1.0000   1.0000   1.0000   1.0000   1.0000   1.0000   1.0000   1.0000
     1.0000   1.0000   1.0000   1.0000   1.0000   1.0000   1.0000   1.0000
     1.0000   1.0000   1.0000   1.0000   1.0000   1.0000   1.0000   1.0000
     1.0000   1.0000   1.0000   1.0000   1.0000   1.0000   1.0000   1.0000
     1.0000   1.0000   1.0000   1.0000   1.0000   1.0000   1.0000   1.0000
     1.0000   1.0000   1.0000   1.0000   1.0000   1.0000   1.0000   1.0000
     1.0000   1.0000   1.0000   1.0000   1.0000   1.0000   1.0000   1.0000
     1.0000   1.0000   1.0000   1.0000   1.0000   1.0000   1.0000   1.0000
     1.0000   1.0000   1.0000   1.0000   1.0000   1.0000   1.0000   1.0000
     1.0000   1.0000   1.0000   1.0000   1.0000   1.0000   1.0000   1.0000
     1.0000   1.0000   1.0000   1.0000   1.0000   1.0000   1.0000   1.0000
     1.0000   1.0000   1.0000   1.0000   1.0000   1.0000   1.0000   1.0000
     1.0000   1.0000   1.0000   1.0000   1.0000   1.0000   1.0000   1.0000
     1.0000   1.0000   1.0000   1.0000   1.0000   1.0000   1.0000   1.0000
     1.0000   1.0000   1.0000   1.0000   1.0000   1.0000   1.0000   1.0000
     1.0000   1.0000   1.0000   1.0000   1.0000   1.0000   1.0000   1.0000
     1.0000   1.0000   1.0000   1.0000   1.0000   1.0000   1.0000   1.0000
     1.0000   1.0000   1.0000   1.0000   1.0000   1.0000   1.0000   1.0000
     1.0000   1.0000   1.0000   1.0000   1.0000   1.0000   1.0000   1.0000
     1.0000   1.0000   1.0000   1.0000   1.0000   1.0000   1.0000   1.0000
     1.0000   1.0000   1.0000   1.0000   1.0000   1.0000   1.0000   1.0000
     1.0000   1.0000   1.0000   1.0000   1.0000   1.0000   1.0000   1.0000
     1.0000   1.0000   1.0000   1.0000   1.0000   1.0000   1.0000   1.0000
     1.0000   1.0000   1.0000   1.0000   1.0000   1.0000   1.0000   1.0000
     1.0000   1.0000   1.0000   1.0000   1.0000   1.0000   1.0000   1.0000
     1.0000   1.0000   1.0000   1.0000   1.0000   1.0000   1.0000   1.0000
     1.0000   1.0000   1.0000   1.0000   1.0000   1.0000   1.0000   1.0000
     1.0000   1.0000   1.0000   1.0000   1.0000   1.0000   1.0000   1.0000
     1.0000   1.0000   1.0000   1.0000   1.0000   1.0000   1.0000   1.0000
     1.0000   1.0000   1.0000   1.0000   1.0000   1.0000   1.0000   1.0000
     1.0000   1.0000   1.0000   1.0000   1.0000   1.0000   1.0000   1.0000
     1.0000   1.0000   1.0000   1.0000   1.0000   1.0000   1.0000   1.0000
     1.0000   1.0000   1.0000   1.0000   1.0000   1.0000   1.0000   1.0000
     1.0000   1.0000   1.0000   1.0000   1.0000   1.0000   1.0000   1.0000
     1.0000   1.0000   1.0000   1.0000   1.0000   1.0000   1.0000   1.0000
     1.0000   1.0000   1.0000   1.0000   1.0000   1.0000   1.0000   1.0000
     1.0000   1.0000   1.0000   1.0000   1.0000   1.0000   1.0000   1.0000
     1.0000   1.0000   1.0000   1.0000   1.0000   1.0000   1.0000   1.0000
     1.0000   1.0000   1.0000   1.0000   1.0000   1.0000   1.0000   1.0000
     1.0000   1.0000   1.0000   1.0000   1.0000   1.0000   1.0000   1.0000
     1.0000   1.0000   1.0000   1.0000   1.0000   1.0000   1.0000   1.0000
     1.0000   1.0000   1.0000   1.0000   1.0000   1.0000   1.0000   1.0000
     1.0000   1.0000   1.0000   1.0000   1.0000   1.0000   1.0000   1.0000
     1.0000   1.0000   1.0000   1.0000   1.0000   1.0000   1.0000   1.0000
     1.0000   1.0000   1.0000   1.0000   1.0000   1.0000   1.0000   1.0000
     1.0000   1.0000   1.0000   1.0000   1.0000   1.0000   1.0000   1.0000
     1.0000   1.0000   1.0000   1.0000   1.0000   1.0000   1.0000   1.0000
     1.0000   1.0000   1.0000   1.0000   1.0000   1.0000   1.0000   1.0000
     1.0000   1.0000   1.0000   1.0000   1.0000   1.0000   1.0000   1.0000
     1.0812   1.0812   1.0833   1.0833   0.6571   0.6571   0.5689   0.5689
     0.5689   0.5689   0.0000   0.0000   0.0000   0.0000   0.0000   0.0000
     0.0000   0.0000   0.0000   0.0000   0.0000   0.0000   0.0000   0.0000
     0.0000   0.0000   0.0000   0.0000   0.0000   0.0000   0.0000   0.0000
     0.0000   0.0000   0.0000   0.0000   0.0000   0.0000   0.0000   0.0000
     0.0000   0.0000   0.0000   0.0000   0.0000   0.0000   0.0000   0.0000
     0.0000   0.0000   0.0000   0.0000   0.0000   0.0000   0.0000   0.0000
     0.0000   0.0000   0.0000   0.0000   0.0000   0.0000   0.0000   0.0000
     0.0000   0.0000   0.0000   0.0000   0.0000   0.0000   0.0000   0.0000
     0.0000   0.0000   0.0000   0.0000   0.0000   0.0000   0.0000   0.0000
     0.0000   0.0000   0.0000   0.0000   0.0000   0.0000   0.0000   0.0000
     0.0000   0.0000   0.0000   0.0000   0.0000   0.0000   0.0000   0.0000
     0.0000   0.0000   0.0000   0.0000   0.0000   0.0000   0.0000   0.0000

          k = 0.2500 0.1443 0.0000 ( 64808 PWs)   bands (ev):

  -125.0673-125.0664-125.0660-125.0660-125.0653-125.0653-125.0650-125.0644
  -125.0644-125.0641-125.0640-125.0640-125.0639-125.0639-125.0637-125.0637
  -124.8630-124.8629-124.8620-124.8620-124.8616-124.8616-124.8616-124.8616
  -124.8610-124.8610-124.8609-124.8609-124.8607-124.8606-124.8600-124.8600
  -124.8600-124.8600-124.8598-124.8597-124.8596-124.8596-124.8596-124.8596
  -124.8596-124.8596-124.8596-124.8596-124.8594-124.8593-124.8593-124.8593
   -79.2330 -79.2330 -79.2324 -79.2284 -79.2284 -79.2275 -79.2275 -79.2256
   -79.2256 -79.2227 -79.2195 -79.2195 -79.2168 -79.2168 -79.2159 -79.2148
   -79.2144 -79.2143 -79.2136 -79.2136 -79.2133 -79.2127 -79.2127 -79.2125
   -79.2125 -79.2124 -79.2124 -79.2122 -79.2121 -79.2121 -79.2121 -79.2121
   -79.2118 -79.2118 -79.2101 -79.2100 -79.2088 -79.2079 -79.2079 -79.2068
   -79.2042 -79.2039 -79.2039 -79.2020 -79.2020 -79.2006 -79.1991 -79.1981
   -79.0253 -79.0253 -79.0253 -79.0253 -79.0247 -79.0247 -79.0208 -79.0208
   -79.0207 -79.0207 -79.0199 -79.0199 -79.0199 -79.0198 -79.0198 -79.0197
   -79.0189 -79.0187 -79.0184 -79.0184 -79.0183 -79.0183 -79.0180 -79.0180
   -79.0179 -79.0179 -79.0177 -79.0177 -79.0176 -79.0176 -79.0174 -79.0173
   -79.0167 -79.0166 -79.0166 -79.0166 -79.0164 -79.0163 -79.0162 -79.0162
   -79.0162 -79.0162 -79.0162 -79.0162 -79.0161 -79.0161 -79.0159 -79.0159
   -79.0159 -79.0159 -79.0150 -79.0150 -79.0118 -79.0118 -79.0118 -79.0118
   -79.0091 -79.0091 -79.0091 -79.0091 -79.0051 -79.0051 -79.0050 -79.0050
   -79.0048 -79.0048 -79.0047 -79.0047 -79.0024 -79.0024 -79.0024 -79.0024
   -79.0012 -79.0012 -79.0003 -79.0003 -79.0002 -79.0002 -78.9992 -78.9991
   -78.9966 -78.9966 -78.9963 -78.9963 -78.9963 -78.9963 -78.9944 -78.9944
   -78.9943 -78.9943 -78.9930 -78.9929 -78.9915 -78.9914 -78.9905 -78.9904
    -8.5034  -7.6199  -7.3000  -7.2479  -7.2479  -7.0291  -6.8981  -6.8719
    -6.8719  -6.8491  -6.8458  -6.8458  -6.7065  -6.6916  -6.6916  -6.6902
    -6.6747  -6.6623  -6.6379  -6.6379  -6.5895  -6.5802  -6.5768  -6.5768
    -6.5675  -6.5675  -6.5479  -6.5479  -6.5280  -6.5280  -6.5185  -6.5185
    -6.5167  -6.5120  -6.5120  -6.5090  -6.5090  -6.5021  -6.5021  -6.4865
    -6.4865  -6.4608  -6.4608  -6.4229  -6.4229  -6.3949  -6.3949  -6.3800
    -6.3800  -6.3757  -6.3220  -6.3172  -6.3172  -6.3154  -6.3154  -6.3150
    -6.3150  -6.2685  -6.2685  -6.2586  -6.2516  -6.2293  -6.2293  -6.2231
    -6.2231  -6.2214  -6.2214  -6.2213  -6.2081  -6.2081  -6.2045  -6.2045
    -6.1955  -6.1955  -6.1839  -6.1839  -6.1795  -6.1778  -6.1778  -6.1541
    -6.1377  -6.1233  -6.1233  -6.1141  -6.1141  -6.1006  -6.1006  -6.0928
    -6.0906  -6.0906  -6.0782  -6.0635  -6.0635  -6.0493  -6.0493  -6.0481
    -6.0481  -5.9586  -5.9586  -5.9586  -5.9586  -5.9432  -5.9406  -5.9371
    -5.9366  -5.9342  -5.9342  -5.9237  -5.9237  -5.9124  -5.9112  -5.9112
    -5.8931  -5.8931  -5.8888  -5.8850  -5.8811  -5.8741  -5.8741  -5.8682
    -5.8462  -5.8462  -5.8389  -5.8389  -5.8251  -5.8109  -5.7955  -5.7955
    -5.7948  -5.7948  -5.7863  -5.7863  -5.7763  -5.7763  -5.7759  -5.7729
    -5.7729  -5.7551  -5.7551  -5.7469  -5.7469  -5.7399  -5.7301  -5.7301
    -5.7137  -5.7123  -5.7123  -5.7047  -5.7047  -5.6971  -5.6971  -5.6950
    -5.6950  -5.6922  -5.6922  -5.6793  -5.6677  -5.6677  -5.6565  -5.6435
    -5.6391  -5.6391  -5.6329  -5.6329  -5.6179  -5.6179  -5.6171  -5.6160
    -5.6160  -5.6122  -5.6106  -5.6053  -5.6053  -5.5795  -5.5640  -5.5605
    -5.5605  -5.5559  -5.5559  -5.5478  -5.5478  -5.5454  -5.5454  -5.5431
    -5.5431  -5.5408  -5.5261  -5.5261  -5.5259  -5.5214  -5.5214  -5.5122
    -5.5122  -5.4911  -5.4911  -5.4619  -5.4603  -5.4573  -5.4573  -5.4539
    -5.4539  -5.4517  -5.4517  -5.4398  -5.4397  -5.4306  -5.4257  -5.4257
    -5.4235  -5.4188  -5.4144  -5.4140  -5.4016  -5.4016  -5.3995  -5.3995
    -5.3885  -5.3864  -5.3864  -5.3804  -5.3677  -5.3677  -5.3643  -5.3591
    -5.3449  -5.3449  -5.3407  -5.3319  -5.3197  -5.3197  -5.3135  -5.3107
    -5.3107  -5.3010  -5.3010  -5.2925  -5.2925  -5.2819  -5.2819  -5.1434
    -5.1434  -5.1289  -5.1289  -5.1234  -5.1234  -5.1051  -5.1044  -4.9469
    -4.9341  -4.6380  -4.6380  -3.8808  -3.8808  -3.4797  -3.3936  -3.3936
    -3.3649  -2.6732  -2.3015  -2.3015  -2.2218  -2.0209  -2.0209  -1.9711
    -1.9711  -1.5146  -1.5146  -1.2919  -1.2919  -1.1167  -0.7947  -0.5727
    -0.5727  -0.5606  -0.5606  -0.5519   0.0240   0.0240   0.2692   0.2692
     0.5603   0.5603   0.6337   0.8768   0.8985   0.8985   1.1838   1.1838
     1.5567   1.5567   2.2266   2.2266   2.6475   2.6968   2.6968   2.7213
     2.7828   2.7828   2.9502   2.9502   3.2220   3.5468   3.6909   3.6909
     3.9089   3.9089   4.1144   4.1853   4.1853   4.5584   4.5584   4.8020
     4.8020   4.8434   4.8434   5.1520   5.1520   5.1607   5.1607   5.2241
     5.4281   5.4282   5.4813   5.5686   5.6429   5.7938   5.7938   5.8086
     6.0943   6.0943   6.1249   6.3133   6.3133   6.3800   6.4006   6.5741
     6.5741   6.5905   6.5947   6.5947   6.7109   6.8594   6.8594   7.0104
     7.0104   7.0872   7.0872   7.1739   7.1739   7.3047   7.3092   7.3092
     7.4476   7.4476   7.4563   7.4563   7.4889   7.6572   7.6572   7.7618
     7.7641   7.7641   7.7647   7.7647   7.9362   7.9362   7.9464   7.9464
     8.0297   8.0297   8.2347   8.3319   8.3957   8.5353   8.6982   8.6991
     8.6991   8.7843   8.8082   8.8082   8.8279   8.8279   8.8367   8.8367

     occupation numbers 
     1.0000   1.0000   1.0000   1.0000   1.0000   1.0000   1.0000   1.0000
     1.0000   1.0000   1.0000   1.0000   1.0000   1.0000   1.0000   1.0000
     1.0000   1.0000   1.0000   1.0000   1.0000   1.0000   1.0000   1.0000
     1.0000   1.0000   1.0000   1.0000   1.0000   1.0000   1.0000   1.0000
     1.0000   1.0000   1.0000   1.0000   1.0000   1.0000   1.0000   1.0000
     1.0000   1.0000   1.0000   1.0000   1.0000   1.0000   1.0000   1.0000
     1.0000   1.0000   1.0000   1.0000   1.0000   1.0000   1.0000   1.0000
     1.0000   1.0000   1.0000   1.0000   1.0000   1.0000   1.0000   1.0000
     1.0000   1.0000   1.0000   1.0000   1.0000   1.0000   1.0000   1.0000
     1.0000   1.0000   1.0000   1.0000   1.0000   1.0000   1.0000   1.0000
     1.0000   1.0000   1.0000   1.0000   1.0000   1.0000   1.0000   1.0000
     1.0000   1.0000   1.0000   1.0000   1.0000   1.0000   1.0000   1.0000
     1.0000   1.0000   1.0000   1.0000   1.0000   1.0000   1.0000   1.0000
     1.0000   1.0000   1.0000   1.0000   1.0000   1.0000   1.0000   1.0000
     1.0000   1.0000   1.0000   1.0000   1.0000   1.0000   1.0000   1.0000
     1.0000   1.0000   1.0000   1.0000   1.0000   1.0000   1.0000   1.0000
     1.0000   1.0000   1.0000   1.0000   1.0000   1.0000   1.0000   1.0000
     1.0000   1.0000   1.0000   1.0000   1.0000   1.0000   1.0000   1.0000
     1.0000   1.0000   1.0000   1.0000   1.0000   1.0000   1.0000   1.0000
     1.0000   1.0000   1.0000   1.0000   1.0000   1.0000   1.0000   1.0000
     1.0000   1.0000   1.0000   1.0000   1.0000   1.0000   1.0000   1.0000
     1.0000   1.0000   1.0000   1.0000   1.0000   1.0000   1.0000   1.0000
     1.0000   1.0000   1.0000   1.0000   1.0000   1.0000   1.0000   1.0000
     1.0000   1.0000   1.0000   1.0000   1.0000   1.0000   1.0000   1.0000
     1.0000   1.0000   1.0000   1.0000   1.0000   1.0000   1.0000   1.0000
     1.0000   1.0000   1.0000   1.0000   1.0000   1.0000   1.0000   1.0000
     1.0000   1.0000   1.0000   1.0000   1.0000   1.0000   1.0000   1.0000
     1.0000   1.0000   1.0000   1.0000   1.0000   1.0000   1.0000   1.0000
     1.0000   1.0000   1.0000   1.0000   1.0000   1.0000   1.0000   1.0000
     1.0000   1.0000   1.0000   1.0000   1.0000   1.0000   1.0000   1.0000
     1.0000   1.0000   1.0000   1.0000   1.0000   1.0000   1.0000   1.0000
     1.0000   1.0000   1.0000   1.0000   1.0000   1.0000   1.0000   1.0000
     1.0000   1.0000   1.0000   1.0000   1.0000   1.0000   1.0000   1.0000
     1.0000   1.0000   1.0000   1.0000   1.0000   1.0000   1.0000   1.0000
     1.0000   1.0000   1.0000   1.0000   1.0000   1.0000   1.0000   1.0000
     1.0000   1.0000   1.0000   1.0000   1.0000   1.0000   1.0000   1.0000
     1.0000   1.0000   1.0000   1.0000   1.0000   1.0000   1.0000   1.0000
     1.0000   1.0000   1.0000   1.0000   1.0000   1.0000   1.0000   1.0000
     1.0000   1.0000   1.0000   1.0000   1.0000   1.0000   1.0000   1.0000
     1.0000   1.0000   1.0000   1.0000   1.0000   1.0000   1.0000   1.0000
     1.0000   1.0000   1.0000   1.0000   1.0000   1.0000   1.0000   1.0000
     1.0000   1.0000   1.0000   1.0000   1.0000   1.0000   1.0000   1.0000
     1.0000   1.0000   1.0000   1.0000   1.0000   1.0000   1.0000   1.0000
     1.0000   1.0000   1.0000   1.0000   1.0000   1.0000   1.0000   1.0000
     1.0000   1.0000   1.0000   1.0000   1.0000   1.0000   1.0000   1.0000
     1.0000   1.0000   1.0000   1.0000   1.0000   1.0000   1.0000   1.0000
     1.0000   1.0000   1.0000   1.0000   1.0000   1.0000   1.0000   1.0000
     1.0000   1.0000   1.0000   1.0000   1.0000   1.0000   1.0000   1.0000
     1.0000   1.0000   1.0000   1.0000   1.0000   1.0000   1.0000   1.0000
     1.0000   1.0000   1.0000   1.0000   1.0000   1.0000   1.0000   1.0000
     1.0000   1.0000   1.0000   1.0000   1.0000   1.0000   1.0000   1.0000
     1.0000   1.0000   1.0000   1.0000   1.0000   1.0000   1.0000   1.0000
     1.0000   1.0000   1.0000   1.0000   1.0000   1.0000   1.0000   1.0000
     1.0000   1.0000   1.0000   1.0000   1.0000   1.0000   1.0000   1.0000
     1.0000   1.0000   1.0000   1.0000   1.0000   1.0000   1.0000   1.0000
     1.0000   1.0000   1.0000   1.0000   1.0000   1.0000   1.0000   1.0000
     1.0000   1.0000   1.0000   1.0000   1.0000   1.0000   1.0000   1.0000
     1.0000   1.0000   1.0000   1.0000   1.0000   1.0000   1.0000   1.0000
     1.0000   1.0000   1.0000   1.0000   1.0000   1.0000   1.0000   1.0000
     1.0006   1.0006   1.0019   1.0374   1.0443   1.0443   0.9985   0.9985
     0.1541   0.1541   0.0000   0.0000   0.0000   0.0000   0.0000   0.0000
     0.0000   0.0000   0.0000   0.0000   0.0000   0.0000   0.0000   0.0000
     0.0000   0.0000   0.0000   0.0000   0.0000   0.0000   0.0000   0.0000
     0.0000   0.0000   0.0000   0.0000   0.0000   0.0000   0.0000   0.0000
     0.0000   0.0000   0.0000   0.0000   0.0000   0.0000   0.0000   0.0000
     0.0000   0.0000   0.0000   0.0000   0.0000   0.0000   0.0000   0.0000
     0.0000   0.0000   0.0000   0.0000   0.0000   0.0000   0.0000   0.0000
     0.0000   0.0000   0.0000   0.0000   0.0000   0.0000   0.0000   0.0000
     0.0000   0.0000   0.0000   0.0000   0.0000   0.0000   0.0000   0.0000
     0.0000   0.0000   0.0000   0.0000   0.0000   0.0000   0.0000   0.0000
     0.0000   0.0000   0.0000   0.0000   0.0000   0.0000   0.0000   0.0000
     0.0000   0.0000   0.0000   0.0000   0.0000   0.0000   0.0000   0.0000

          k = 0.2500 0.4330 0.0000 ( 64876 PWs)   bands (ev):

  -125.0670-125.0666-125.0666-125.0654-125.0654-125.0649-125.0647-125.0647
  -125.0643-125.0643-125.0642-125.0642-125.0638-125.0637-125.0637-125.0635
  -124.8627-124.8627-124.8622-124.8622-124.8622-124.8622-124.8611-124.8611
  -124.8611-124.8611-124.8605-124.8605-124.8604-124.8603-124.8603-124.8603
  -124.8600-124.8600-124.8599-124.8599-124.8599-124.8599-124.8598-124.8598
  -124.8595-124.8594-124.8594-124.8594-124.8594-124.8593-124.8592-124.8592
   -79.2321 -79.2305 -79.2305 -79.2299 -79.2299 -79.2278 -79.2278 -79.2257
   -79.2257 -79.2253 -79.2217 -79.2209 -79.2172 -79.2172 -79.2156 -79.2151
   -79.2150 -79.2138 -79.2138 -79.2138 -79.2137 -79.2131 -79.2129 -79.2129
   -79.2125 -79.2125 -79.2124 -79.2123 -79.2119 -79.2118 -79.2118 -79.2116
   -79.2104 -79.2086 -79.2086 -79.2071 -79.2071 -79.2071 -79.2065 -79.2065
   -79.2057 -79.2057 -79.2043 -79.2043 -79.2017 -79.2002 -79.2001 -79.1988
   -79.0244 -79.0244 -79.0228 -79.0228 -79.0227 -79.0227 -79.0222 -79.0222
   -79.0222 -79.0222 -79.0201 -79.0201 -79.0201 -79.0200 -79.0196 -79.0195
   -79.0191 -79.0191 -79.0190 -79.0190 -79.0180 -79.0180 -79.0180 -79.0180
   -79.0178 -79.0178 -79.0178 -79.0178 -79.0176 -79.0175 -79.0172 -79.0172
   -79.0170 -79.0170 -79.0169 -79.0169 -79.0166 -79.0166 -79.0165 -79.0165
   -79.0165 -79.0165 -79.0164 -79.0164 -79.0161 -79.0160 -79.0160 -79.0160
   -79.0159 -79.0159 -79.0158 -79.0157 -79.0141 -79.0140 -79.0133 -79.0132
   -79.0096 -79.0096 -79.0095 -79.0095 -79.0061 -79.0061 -79.0061 -79.0061
   -79.0028 -79.0027 -79.0010 -79.0009 -79.0009 -79.0009 -78.9995 -78.9995
   -78.9995 -78.9995 -78.9995 -78.9995 -78.9988 -78.9988 -78.9988 -78.9988
   -78.9981 -78.9981 -78.9981 -78.9981 -78.9966 -78.9966 -78.9966 -78.9966
   -78.9941 -78.9940 -78.9925 -78.9925 -78.9925 -78.9925 -78.9912 -78.9911
    -8.2696  -7.8228  -7.8228  -7.1114  -6.9140  -6.8397  -6.8397  -6.8033
    -6.8033  -6.7968  -6.7968  -6.7925  -6.7925  -6.7685  -6.7273  -6.7273
    -6.6981  -6.6981  -6.6550  -6.6550  -6.6232  -6.6088  -6.6088  -6.6042
    -6.6042  -6.5879  -6.5879  -6.5676  -6.5676  -6.5598  -6.5598  -6.5435
    -6.5342  -6.5342  -6.4915  -6.4915  -6.4717  -6.4717  -6.4689  -6.4616
    -6.4616  -6.4402  -6.4396  -6.4172  -6.4123  -6.4123  -6.4116  -6.4116
    -6.4028  -6.4027  -6.3924  -6.3695  -6.3695  -6.3122  -6.3015  -6.3015
    -6.2971  -6.2971  -6.2918  -6.2918  -6.2913  -6.2784  -6.2670  -6.2630
    -6.2630  -6.2547  -6.2489  -6.2489  -6.2434  -6.2434  -6.2414  -6.2219
    -6.2219  -6.2018  -6.2018  -6.1772  -6.1772  -6.1655  -6.1471  -6.1451
    -6.1410  -6.1410  -6.1180  -6.1180  -6.1078  -6.1078  -6.0946  -6.0885
    -6.0562  -6.0562  -6.0466  -6.0466  -6.0417  -6.0327  -6.0195  -6.0195
    -5.9970  -5.9917  -5.9917  -5.9887  -5.9797  -5.9797  -5.9721  -5.9721
    -5.9697  -5.9697  -5.9567  -5.9486  -5.9416  -5.9152  -5.9152  -5.9075
    -5.9075  -5.9061  -5.8985  -5.8911  -5.8911  -5.8861  -5.8860  -5.8770
    -5.8770  -5.8529  -5.8529  -5.8460  -5.8460  -5.8336  -5.8336  -5.8327
    -5.8323  -5.8288  -5.8288  -5.8080  -5.7968  -5.7968  -5.7933  -5.7722
    -5.7628  -5.7628  -5.7557  -5.7518  -5.7518  -5.7494  -5.7131  -5.7131
    -5.6936  -5.6936  -5.6914  -5.6914  -5.6573  -5.6540  -5.6540  -5.6531
    -5.6531  -5.6467  -5.6324  -5.6305  -5.6305  -5.6234  -5.6234  -5.5926
    -5.5924  -5.5924  -5.5915  -5.5915  -5.5825  -5.5825  -5.5806  -5.5806
    -5.5780  -5.5780  -5.5744  -5.5744  -5.5662  -5.5662  -5.5491  -5.5491
    -5.5485  -5.5485  -5.5448  -5.5402  -5.5365  -5.5365  -5.5146  -5.5146
    -5.5121  -5.5095  -5.5095  -5.5067  -5.5030  -5.4838  -5.4838  -5.4821
    -5.4788  -5.4788  -5.4662  -5.4608  -5.4608  -5.4596  -5.4596  -5.4572
    -5.4572  -5.4556  -5.4556  -5.4431  -5.4431  -5.4406  -5.4406  -5.4336
    -5.4336  -5.4304  -5.4180  -5.4180  -5.4093  -5.4093  -5.4091  -5.3988
    -5.3945  -5.3865  -5.3865  -5.3746  -5.3742  -5.3742  -5.3685  -5.3672
    -5.3642  -5.3642  -5.3347  -5.3273  -5.3273  -5.3078  -5.3078  -5.2816
    -5.2754  -5.2754  -5.2723  -5.2723  -5.2713  -5.2713  -5.2564  -5.2281
    -5.1866  -5.1866  -5.1825  -5.1825  -5.1437  -5.1437  -5.0644  -5.0644
    -4.4560  -4.2328  -4.2328  -4.0436  -4.0436  -3.2448  -3.2448  -3.1952
    -3.1446  -2.8771  -2.8771  -2.8493  -2.8493  -2.7802  -2.7802  -1.7957
    -1.7957  -1.7012  -1.7012  -1.4131  -1.4131  -0.8447  -0.4755  -0.4755
    -0.4119  -0.4119  -0.3229  -0.2411   0.2948   0.3503   0.3503   0.4237
     0.4237   0.7000   0.7000   0.7893   0.9704   0.9704   1.0869   1.4159
     1.4160   1.9761   1.9761   2.5312   2.5522   2.8208   2.9858   3.0909
     3.3262   3.3262   3.3643   3.3643   3.4457   3.4468   3.4468   3.5750
     3.5750   3.6674   3.8923   3.8923   4.3750   4.3750   4.3920   4.4249
     4.4437   4.4437   4.5670   4.5670   4.8790   4.9330   5.1393   5.1393
     5.2223   5.2223   5.4444   5.4444   5.4496   5.4524   5.4524   5.7113
     5.9002   5.9002   6.0924   6.1241   6.1241   6.1710   6.1710   6.5438
     6.5438   6.6119   6.6438   6.6460   6.6460   6.8155   6.9522   6.9994
     6.9994   7.0020   7.0440   7.0440   7.0743   7.0743   7.1637   7.1637
     7.2232   7.2232   7.2454   7.2454   7.2649   7.2649   7.5467   7.5467
     8.1231   8.2166   8.2166   8.3621   8.4471   8.4471   8.4484   8.5396
     8.5842   8.5842   8.6025   8.6025   8.6263   8.6582   8.6582   8.6582
     8.6785   8.6785   8.7513   8.7583   8.9013   8.9013   9.0859   9.0860

     occupation numbers 
     1.0000   1.0000   1.0000   1.0000   1.0000   1.0000   1.0000   1.0000
     1.0000   1.0000   1.0000   1.0000   1.0000   1.0000   1.0000   1.0000
     1.0000   1.0000   1.0000   1.0000   1.0000   1.0000   1.0000   1.0000
     1.0000   1.0000   1.0000   1.0000   1.0000   1.0000   1.0000   1.0000
     1.0000   1.0000   1.0000   1.0000   1.0000   1.0000   1.0000   1.0000
     1.0000   1.0000   1.0000   1.0000   1.0000   1.0000   1.0000   1.0000
     1.0000   1.0000   1.0000   1.0000   1.0000   1.0000   1.0000   1.0000
     1.0000   1.0000   1.0000   1.0000   1.0000   1.0000   1.0000   1.0000
     1.0000   1.0000   1.0000   1.0000   1.0000   1.0000   1.0000   1.0000
     1.0000   1.0000   1.0000   1.0000   1.0000   1.0000   1.0000   1.0000
     1.0000   1.0000   1.0000   1.0000   1.0000   1.0000   1.0000   1.0000
     1.0000   1.0000   1.0000   1.0000   1.0000   1.0000   1.0000   1.0000
     1.0000   1.0000   1.0000   1.0000   1.0000   1.0000   1.0000   1.0000
     1.0000   1.0000   1.0000   1.0000   1.0000   1.0000   1.0000   1.0000
     1.0000   1.0000   1.0000   1.0000   1.0000   1.0000   1.0000   1.0000
     1.0000   1.0000   1.0000   1.0000   1.0000   1.0000   1.0000   1.0000
     1.0000   1.0000   1.0000   1.0000   1.0000   1.0000   1.0000   1.0000
     1.0000   1.0000   1.0000   1.0000   1.0000   1.0000   1.0000   1.0000
     1.0000   1.0000   1.0000   1.0000   1.0000   1.0000   1.0000   1.0000
     1.0000   1.0000   1.0000   1.0000   1.0000   1.0000   1.0000   1.0000
     1.0000   1.0000   1.0000   1.0000   1.0000   1.0000   1.0000   1.0000
     1.0000   1.0000   1.0000   1.0000   1.0000   1.0000   1.0000   1.0000
     1.0000   1.0000   1.0000   1.0000   1.0000   1.0000   1.0000   1.0000
     1.0000   1.0000   1.0000   1.0000   1.0000   1.0000   1.0000   1.0000
     1.0000   1.0000   1.0000   1.0000   1.0000   1.0000   1.0000   1.0000
     1.0000   1.0000   1.0000   1.0000   1.0000   1.0000   1.0000   1.0000
     1.0000   1.0000   1.0000   1.0000   1.0000   1.0000   1.0000   1.0000
     1.0000   1.0000   1.0000   1.0000   1.0000   1.0000   1.0000   1.0000
     1.0000   1.0000   1.0000   1.0000   1.0000   1.0000   1.0000   1.0000
     1.0000   1.0000   1.0000   1.0000   1.0000   1.0000   1.0000   1.0000
     1.0000   1.0000   1.0000   1.0000   1.0000   1.0000   1.0000   1.0000
     1.0000   1.0000   1.0000   1.0000   1.0000   1.0000   1.0000   1.0000
     1.0000   1.0000   1.0000   1.0000   1.0000   1.0000   1.0000   1.0000
     1.0000   1.0000   1.0000   1.0000   1.0000   1.0000   1.0000   1.0000
     1.0000   1.0000   1.0000   1.0000   1.0000   1.0000   1.0000   1.0000
     1.0000   1.0000   1.0000   1.0000   1.0000   1.0000   1.0000   1.0000
     1.0000   1.0000   1.0000   1.0000   1.0000   1.0000   1.0000   1.0000
     1.0000   1.0000   1.0000   1.0000   1.0000   1.0000   1.0000   1.0000
     1.0000   1.0000   1.0000   1.0000   1.0000   1.0000   1.0000   1.0000
     1.0000   1.0000   1.0000   1.0000   1.0000   1.0000   1.0000   1.0000
     1.0000   1.0000   1.0000   1.0000   1.0000   1.0000   1.0000   1.0000
     1.0000   1.0000   1.0000   1.0000   1.0000   1.0000   1.0000   1.0000
     1.0000   1.0000   1.0000   1.0000   1.0000   1.0000   1.0000   1.0000
     1.0000   1.0000   1.0000   1.0000   1.0000   1.0000   1.0000   1.0000
     1.0000   1.0000   1.0000   1.0000   1.0000   1.0000   1.0000   1.0000
     1.0000   1.0000   1.0000   1.0000   1.0000   1.0000   1.0000   1.0000
     1.0000   1.0000   1.0000   1.0000   1.0000   1.0000   1.0000   1.0000
     1.0000   1.0000   1.0000   1.0000   1.0000   1.0000   1.0000   1.0000
     1.0000   1.0000   1.0000   1.0000   1.0000   1.0000   1.0000   1.0000
     1.0000   1.0000   1.0000   1.0000   1.0000   1.0000   1.0000   1.0000
     1.0000   1.0000   1.0000   1.0000   1.0000   1.0000   1.0000   1.0000
     1.0000   1.0000   1.0000   1.0000   1.0000   1.0000   1.0000   1.0000
     1.0000   1.0000   1.0000   1.0000   1.0000   1.0000   1.0000   1.0000
     1.0000   1.0000   1.0000   1.0000   1.0000   1.0000   1.0000   1.0000
     1.0000   1.0000   1.0000   1.0000   1.0000   1.0000   1.0000   1.0000
     1.0000   1.0000   1.0000   1.0000   1.0000   1.0000   1.0000   1.0000
     1.0000   1.0000   1.0000   1.0000   1.0000   1.0000   1.0000   1.0000
     1.0000   1.0000   1.0000   1.0000   1.0000   1.0000   1.0000   1.0000
     1.0000   1.0000   1.0000   1.0000   1.0000   1.0000   1.0000   1.0000
     1.0000   1.0052   1.0052   1.0159   1.0686   1.0686   1.0779   0.4452
     0.4452   0.0003   0.0003   0.0000   0.0000   0.0000   0.0000   0.0000
     0.0000   0.0000   0.0000   0.0000   0.0000   0.0000   0.0000   0.0000
     0.0000   0.0000   0.0000   0.0000   0.0000   0.0000   0.0000   0.0000
     0.0000   0.0000   0.0000   0.0000   0.0000   0.0000   0.0000   0.0000
     0.0000   0.0000   0.0000   0.0000   0.0000   0.0000   0.0000   0.0000
     0.0000   0.0000   0.0000   0.0000   0.0000   0.0000   0.0000   0.0000
     0.0000   0.0000   0.0000   0.0000   0.0000   0.0000   0.0000   0.0000
     0.0000   0.0000   0.0000   0.0000   0.0000   0.0000   0.0000   0.0000
     0.0000   0.0000   0.0000   0.0000   0.0000   0.0000   0.0000   0.0000
     0.0000   0.0000   0.0000   0.0000   0.0000   0.0000   0.0000   0.0000
     0.0000   0.0000   0.0000   0.0000   0.0000   0.0000   0.0000   0.0000
     0.0000   0.0000   0.0000   0.0000   0.0000   0.0000   0.0000   0.0000

          k = 0.2500-0.4330 0.0000 ( 64876 PWs)   bands (ev):

  -125.0670-125.0666-125.0666-125.0654-125.0654-125.0649-125.0647-125.0647
  -125.0643-125.0643-125.0642-125.0642-125.0638-125.0637-125.0637-125.0635
  -124.8627-124.8627-124.8623-124.8622-124.8622-124.8622-124.8611-124.8611
  -124.8611-124.8611-124.8605-124.8605-124.8604-124.8603-124.8603-124.8603
  -124.8600-124.8600-124.8599-124.8599-124.8599-124.8599-124.8598-124.8598
  -124.8595-124.8594-124.8594-124.8594-124.8594-124.8593-124.8592-124.8592
   -79.2321 -79.2305 -79.2304 -79.2299 -79.2299 -79.2278 -79.2278 -79.2257
   -79.2257 -79.2253 -79.2217 -79.2209 -79.2172 -79.2172 -79.2156 -79.2151
   -79.2150 -79.2138 -79.2137 -79.2137 -79.2137 -79.2131 -79.2129 -79.2129
   -79.2125 -79.2125 -79.2124 -79.2123 -79.2119 -79.2118 -79.2118 -79.2116
   -79.2104 -79.2086 -79.2086 -79.2071 -79.2071 -79.2071 -79.2065 -79.2065
   -79.2057 -79.2057 -79.2043 -79.2043 -79.2017 -79.2002 -79.2001 -79.1988
   -79.0244 -79.0244 -79.0228 -79.0228 -79.0227 -79.0227 -79.0222 -79.0222
   -79.0222 -79.0222 -79.0201 -79.0201 -79.0201 -79.0200 -79.0196 -79.0195
   -79.0191 -79.0191 -79.0190 -79.0190 -79.0180 -79.0180 -79.0180 -79.0180
   -79.0178 -79.0178 -79.0178 -79.0178 -79.0176 -79.0175 -79.0172 -79.0172
   -79.0170 -79.0170 -79.0169 -79.0169 -79.0166 -79.0166 -79.0165 -79.0165
   -79.0165 -79.0165 -79.0164 -79.0164 -79.0161 -79.0160 -79.0160 -79.0160
[...]
     1.0000   1.0000   1.0000   1.0000   1.0000   1.0000   1.0000   1.0000
     1.0000   1.0000   1.0000   1.0000   1.0000   1.0000   1.0000   1.0000
     1.0000   1.0000   1.0000   1.0000   1.0000   1.0000   1.0000   1.0000
     1.0000   1.0000   1.0000   1.0000   1.0000   1.0000   1.0000   1.0000
     1.0000   1.0000   1.0000   1.0000   1.0000   1.0000   1.0000   1.0000
     1.0000   1.0000   1.0000   1.0000   1.0000   1.0000   1.0000   1.0000
     1.0000   1.0000   1.0000   1.0000   1.0000   1.0000   1.0000   1.0000
     1.0000   1.0000   1.0000   1.0000   1.0000   1.0000   1.0000   1.0000
     1.0000   1.0000   1.0000   1.0000   1.0000   1.0000   1.0000   1.0000
     1.0000   1.0000   1.0000   1.0000   1.0000   1.0000   1.0000   1.0000
     1.0000   1.0000   1.0000   1.0000   1.0000   1.0000   1.0000   1.0000
     1.0000   1.0000   1.0000   1.0000   1.0000   1.0000   1.0000   1.0000
     1.0000   1.0000   1.0000   1.0000   1.0000   1.0000   1.0000   1.0000
     1.0000   1.0000   1.0000   1.0000   1.0000   1.0000   1.0000   1.0000
     1.0000   1.0000   1.0000   1.0000   1.0000   1.0000   1.0000   1.0000
     1.0000   1.0000   1.0000   1.0000   1.0000   1.0000   1.0000   1.0000
     1.0000   1.0000   1.0000   1.0000   1.0000   1.0000   1.0000   1.0000
     1.0000   1.0000   1.0000   1.0000   1.0000   1.0000   1.0000   1.0000
     1.0000   1.0000   1.0000   1.0000   1.0000   1.0000   1.0000   1.0000
     1.0000   1.0000   1.0000   1.0000   1.0000   1.0000   1.0000   1.0000
     1.0000   1.0000   1.0000   1.0000   1.0000   1.0000   1.0000   1.0000
     1.0000   1.0000   1.0000   1.0000   1.0000   1.0000   1.0000   1.0000
     1.0000   1.0000   1.0000   1.0000   1.0000   1.0000   1.0000   1.0000
     1.0000   1.0000   1.0000   1.0000   1.0000   1.0000   1.0000   1.0000
     1.0000   1.0000   1.0000   1.0000   1.0000   1.0000   1.0000   1.0000
     1.0000   1.0000   1.0000   1.0000   1.0000   1.0000   1.0000   1.0000
     1.0000   1.0000   1.0000   1.0000   1.0000   1.0000   1.0000   1.0000
     1.0000   1.0000   1.0000   1.0000   1.0000   1.0000   1.0000   1.0000
     1.0000   1.0000   1.0000   1.0000   1.0000   1.0000   1.0000   1.0000
     1.0000   1.0000   1.0000   1.0000   1.0000   1.0000   1.0000   1.0000
     1.0000   1.0000   1.0000   1.0000   1.0000   1.0000   1.0000   1.0000
     1.0000   1.0000   1.0000   1.0000   1.0000   1.0000   1.0000   1.0000
     1.0000   1.0000   1.0000   1.0000   1.0000   1.0000   1.0000   1.0000
     1.0000   1.0000   1.0000   1.0000   1.0000   1.0000   1.0000   1.0000
     1.0000   1.0000   1.0000   1.0000   1.0000   1.0000   1.0000   1.0000
     1.0000   1.0000   1.0000   1.0000   1.0000   1.0000   1.0000   1.0000
     1.0000   1.0000   1.0000   1.0000   1.0000   1.0000   1.0000   1.0000
     1.0000   1.0000   1.0000   1.0000   1.0000   1.0000   1.0000   1.0000
     1.0000   1.0000   1.0000   1.0000   1.0000   1.0000   1.0000   1.0000
     1.0000   1.0000   1.0000   1.0000   1.0000   1.0000   1.0000   1.0000
     1.0000   1.0052   1.0052   1.0159   1.0686   1.0686   1.0779   0.4452
     0.4452   0.0003   0.0003   0.0000   0.0000   0.0000   0.0000   0.0000
     0.0000   0.0000   0.0000   0.0000   0.0000   0.0000   0.0000   0.0000
     0.0000   0.0000   0.0000   0.0000   0.0000   0.0000   0.0000   0.0000
     0.0000   0.0000   0.0000   0.0000   0.0000   0.0000   0.0000   0.0000
     0.0000   0.0000   0.0000   0.0000   0.0000   0.0000   0.0000   0.0000
     0.0000   0.0000   0.0000   0.0000   0.0000   0.0000   0.0000   0.0000
     0.0000   0.0000   0.0000   0.0000   0.0000   0.0000   0.0000   0.0000
     0.0000   0.0000   0.0000   0.0000   0.0000   0.0000   0.0000   0.0000
     0.0000   0.0000   0.0000   0.0000   0.0000   0.0000   0.0000   0.0000
     0.0000   0.0000   0.0000   0.0000   0.0000   0.0000   0.0000   0.0000
     0.0000   0.0000   0.0000   0.0000   0.0000   0.0000   0.0000   0.0000
     0.0000   0.0000   0.0000   0.0000   0.0000   0.0000   0.0000   0.0000

          k =-0.5000-0.8660 0.0000 ( 64842 PWs)   bands (ev):

  -125.0669-125.0669-125.0661-125.0661-125.0648-125.0648-125.0648-125.0648
  -125.0645-125.0645-125.0640-125.0640-125.0639-125.0639-125.0636-125.0636
  -124.8626-124.8626-124.8625-124.8625-124.8617-124.8617-124.8617-124.8617
  -124.8605-124.8605-124.8605-124.8605-124.8604-124.8604-124.8604-124.8604
  -124.8601-124.8601-124.8601-124.8601-124.8596-124.8596-124.8596-124.8596
  -124.8596-124.8596-124.8596-124.8596-124.8593-124.8593-124.8592-124.8592
   -79.2310 -79.2310 -79.2310 -79.2310 -79.2285 -79.2285 -79.2275 -79.2275
   -79.2230 -79.2230 -79.2230 -79.2230 -79.2180 -79.2180 -79.2155 -79.2154
   -79.2145 -79.2145 -79.2131 -79.2131 -79.2131 -79.2130 -79.2126 -79.2126
   -79.2121 -79.2121 -79.2121 -79.2120 -79.2116 -79.2116 -79.2115 -79.2115
   -79.2099 -79.2099 -79.2099 -79.2099 -79.2066 -79.2066 -79.2066 -79.2066
   -79.2058 -79.2057 -79.2030 -79.2030 -79.2020 -79.2020 -79.1991 -79.1991
   -79.0233 -79.0233 -79.0233 -79.0233 -79.0233 -79.0233 -79.0232 -79.0232
   -79.0208 -79.0208 -79.0208 -79.0208 -79.0198 -79.0198 -79.0198 -79.0198
   -79.0195 -79.0195 -79.0193 -79.0193 -79.0185 -79.0185 -79.0184 -79.0184
   -79.0172 -79.0172 -79.0172 -79.0172 -79.0171 -79.0171 -79.0171 -79.0171
   -79.0168 -79.0168 -79.0167 -79.0167 -79.0162 -79.0162 -79.0162 -79.0162
   -79.0162 -79.0162 -79.0161 -79.0161 -79.0158 -79.0158 -79.0158 -79.0157
   -79.0153 -79.0153 -79.0153 -79.0153 -79.0152 -79.0152 -79.0152 -79.0152
   -79.0104 -79.0104 -79.0104 -79.0104 -79.0038 -79.0038 -79.0038 -79.0038
   -79.0023 -79.0023 -79.0023 -79.0023 -79.0022 -79.0022 -79.0022 -79.0022
   -78.9990 -78.9990 -78.9990 -78.9990 -78.9989 -78.9989 -78.9989 -78.9989
   -78.9981 -78.9981 -78.9981 -78.9981 -78.9954 -78.9954 -78.9953 -78.9953
   -78.9944 -78.9944 -78.9943 -78.9943 -78.9915 -78.9915 -78.9914 -78.9914
    -8.1555  -8.1555  -7.3166  -7.3166  -7.0254  -7.0254  -6.8636  -6.8636
    -6.8595  -6.8595  -6.7494  -6.7494  -6.7494  -6.7494  -6.6535  -6.6535
    -6.6468  -6.6468  -6.6468  -6.6468  -6.6242  -6.6242  -6.6069  -6.6069
    -6.6069  -6.6069  -6.5532  -6.5532  -6.5285  -6.5285  -6.5285  -6.5285
    -6.5057  -6.5057  -6.4874  -6.4874  -6.4874  -6.4874  -6.4628  -6.4628
    -6.4628  -6.4628  -6.4605  -6.4605  -6.4497  -6.4497  -6.4259  -6.4259
    -6.4215  -6.4215  -6.4215  -6.4215  -6.3100  -6.3100  -6.3011  -6.3011
    -6.2926  -6.2926  -6.2926  -6.2926  -6.2915  -6.2915  -6.2706  -6.2706
    -6.2706  -6.2706  -6.2357  -6.2357  -6.2209  -6.2209  -6.2209  -6.2209
    -6.2059  -6.2059  -6.2007  -6.2007  -6.1698  -6.1698  -6.1415  -6.1415
    -6.1115  -6.1115  -6.1031  -6.1031  -6.0826  -6.0826  -6.0826  -6.0826
    -6.0612  -6.0612  -6.0612  -6.0612  -6.0415  -6.0415  -6.0319  -6.0319
    -6.0256  -6.0256  -6.0223  -6.0223  -6.0089  -6.0089  -5.9900  -5.9900
    -5.9900  -5.9900  -5.9464  -5.9464  -5.9453  -5.9453  -5.9149  -5.9148
    -5.9055  -5.9055  -5.8719  -5.8719  -5.8719  -5.8719  -5.8146  -5.8145
    -5.8093  -5.8093  -5.8083  -5.8083  -5.8083  -5.8083  -5.8052  -5.8052
    -5.7872  -5.7872  -5.7844  -5.7844  -5.7754  -5.7754  -5.7754  -5.7754
    -5.7674  -5.7674  -5.7668  -5.7668  -5.7668  -5.7668  -5.7555  -5.7555
    -5.7537  -5.7537  -5.7537  -5.7537  -5.6751  -5.6751  -5.6736  -5.6736
    -5.6671  -5.6671  -5.6453  -5.6453  -5.6453  -5.6453  -5.6310  -5.6310
    -5.6236  -5.6236  -5.6045  -5.6045  -5.6045  -5.6045  -5.5942  -5.5942
    -5.5704  -5.5704  -5.5429  -5.5429  -5.5286  -5.5286  -5.5286  -5.5286
    -5.5264  -5.5264  -5.5264  -5.5264  -5.5227  -5.5227  -5.5210  -5.5210
    -5.4991  -5.4991  -5.4991  -5.4991  -5.4890  -5.4890  -5.4877  -5.4877
    -5.4862  -5.4862  -5.4787  -5.4787  -5.4641  -5.4641  -5.4641  -5.4641
    -5.4506  -5.4506  -5.4506  -5.4506  -5.4399  -5.4399  -5.4228  -5.4228
    -5.4151  -5.4151  -5.4151  -5.4151  -5.4125  -5.4125  -5.4111  -5.4111
    -5.4044  -5.4044  -5.4027  -5.4027  -5.3999  -5.3999  -5.3706  -5.3706
    -5.3623  -5.3623  -5.3623  -5.3623  -5.3237  -5.3237  -5.3237  -5.3237
    -5.2537  -5.2537  -5.2537  -5.2537  -5.2349  -5.2349  -5.2338  -5.2338
    -5.2338  -5.2338  -5.2009  -5.2009  -5.1982  -5.1982  -4.7018  -4.7018
    -4.4181  -4.4181  -4.4181  -4.4181  -3.7280  -3.7280  -3.1102  -3.1101
    -3.0613  -3.0613  -3.0613  -3.0613  -2.3911  -2.3911  -2.2395  -2.2395
    -1.7576  -1.7576  -1.7576  -1.7576  -0.7550  -0.7550  -0.7550  -0.7550
    -0.3252  -0.3252  -0.3252  -0.3252  -0.0900  -0.0900   0.0134   0.0134
     1.0216   1.0216   1.0496   1.0496   1.3384   1.3384   1.3703   1.3703
     1.3703   1.3703   2.2239   2.2239   2.9003   2.9003   2.9004   2.9004
     3.1020   3.1020   3.1020   3.1020   3.3226   3.3226   3.5574   3.5574
     3.8669   3.8669   3.8670   3.8670   3.9987   3.9987   4.2583   4.2584
     4.4493   4.4493   4.7463   4.7463   4.8584   4.8584   5.4828   5.4828
     5.5622   5.5622   5.8014   5.8014   5.8263   5.8263   5.9300   5.9300
     5.9300   5.9300   5.9835   5.9835   5.9835   5.9835   6.1558   6.1558
     6.1558   6.1558   6.4626   6.4626   6.5601   6.5601   6.7276   6.7276
     6.7449   6.7449   6.8680   6.8680   6.9279   6.9279   7.0145   7.0145
     7.0145   7.0145   7.6502   7.6502   7.8256   7.8256   8.0649   8.0649
     8.1098   8.1098   8.1098   8.1098   8.2809   8.2809   8.5779   8.5779
     8.5779   8.5779   8.6471   8.6471   8.6471   8.6471   8.7369   8.7369
     8.7414   8.7414   8.8695   8.8695   9.0014   9.0014   9.0014   9.0015

     occupation numbers 
     1.0000   1.0000   1.0000   1.0000   1.0000   1.0000   1.0000   1.0000
     1.0000   1.0000   1.0000   1.0000   1.0000   1.0000   1.0000   1.0000
     1.0000   1.0000   1.0000   1.0000   1.0000   1.0000   1.0000   1.0000
     1.0000   1.0000   1.0000   1.0000   1.0000   1.0000   1.0000   1.0000
     1.0000   1.0000   1.0000   1.0000   1.0000   1.0000   1.0000   1.0000
     1.0000   1.0000   1.0000   1.0000   1.0000   1.0000   1.0000   1.0000
     1.0000   1.0000   1.0000   1.0000   1.0000   1.0000   1.0000   1.0000
     1.0000   1.0000   1.0000   1.0000   1.0000   1.0000   1.0000   1.0000
     1.0000   1.0000   1.0000   1.0000   1.0000   1.0000   1.0000   1.0000
     1.0000   1.0000   1.0000   1.0000   1.0000   1.0000   1.0000   1.0000
     1.0000   1.0000   1.0000   1.0000   1.0000   1.0000   1.0000   1.0000
     1.0000   1.0000   1.0000   1.0000   1.0000   1.0000   1.0000   1.0000
     1.0000   1.0000   1.0000   1.0000   1.0000   1.0000   1.0000   1.0000
     1.0000   1.0000   1.0000   1.0000   1.0000   1.0000   1.0000   1.0000
     1.0000   1.0000   1.0000   1.0000   1.0000   1.0000   1.0000   1.0000
     1.0000   1.0000   1.0000   1.0000   1.0000   1.0000   1.0000   1.0000
     1.0000   1.0000   1.0000   1.0000   1.0000   1.0000   1.0000   1.0000
     1.0000   1.0000   1.0000   1.0000   1.0000   1.0000   1.0000   1.0000
     1.0000   1.0000   1.0000   1.0000   1.0000   1.0000   1.0000   1.0000
     1.0000   1.0000   1.0000   1.0000   1.0000   1.0000   1.0000   1.0000
     1.0000   1.0000   1.0000   1.0000   1.0000   1.0000   1.0000   1.0000
     1.0000   1.0000   1.0000   1.0000   1.0000   1.0000   1.0000   1.0000
     1.0000   1.0000   1.0000   1.0000   1.0000   1.0000   1.0000   1.0000
     1.0000   1.0000   1.0000   1.0000   1.0000   1.0000   1.0000   1.0000
     1.0000   1.0000   1.0000   1.0000   1.0000   1.0000   1.0000   1.0000
     1.0000   1.0000   1.0000   1.0000   1.0000   1.0000   1.0000   1.0000
     1.0000   1.0000   1.0000   1.0000   1.0000   1.0000   1.0000   1.0000
     1.0000   1.0000   1.0000   1.0000   1.0000   1.0000   1.0000   1.0000
     1.0000   1.0000   1.0000   1.0000   1.0000   1.0000   1.0000   1.0000
     1.0000   1.0000   1.0000   1.0000   1.0000   1.0000   1.0000   1.0000
     1.0000   1.0000   1.0000   1.0000   1.0000   1.0000   1.0000   1.0000
     1.0000   1.0000   1.0000   1.0000   1.0000   1.0000   1.0000   1.0000
     1.0000   1.0000   1.0000   1.0000   1.0000   1.0000   1.0000   1.0000
     1.0000   1.0000   1.0000   1.0000   1.0000   1.0000   1.0000   1.0000
     1.0000   1.0000   1.0000   1.0000   1.0000   1.0000   1.0000   1.0000
     1.0000   1.0000   1.0000   1.0000   1.0000   1.0000   1.0000   1.0000
     1.0000   1.0000   1.0000   1.0000   1.0000   1.0000   1.0000   1.0000
     1.0000   1.0000   1.0000   1.0000   1.0000   1.0000   1.0000   1.0000
     1.0000   1.0000   1.0000   1.0000   1.0000   1.0000   1.0000   1.0000
     1.0000   1.0000   1.0000   1.0000   1.0000   1.0000   1.0000   1.0000
     1.0000   1.0000   1.0000   1.0000   1.0000   1.0000   1.0000   1.0000
     1.0000   1.0000   1.0000   1.0000   1.0000   1.0000   1.0000   1.0000
     1.0000   1.0000   1.0000   1.0000   1.0000   1.0000   1.0000   1.0000
     1.0000   1.0000   1.0000   1.0000   1.0000   1.0000   1.0000   1.0000
     1.0000   1.0000   1.0000   1.0000   1.0000   1.0000   1.0000   1.0000
     1.0000   1.0000   1.0000   1.0000   1.0000   1.0000   1.0000   1.0000
     1.0000   1.0000   1.0000   1.0000   1.0000   1.0000   1.0000   1.0000
     1.0000   1.0000   1.0000   1.0000   1.0000   1.0000   1.0000   1.0000
     1.0000   1.0000   1.0000   1.0000   1.0000   1.0000   1.0000   1.0000
     1.0000   1.0000   1.0000   1.0000   1.0000   1.0000   1.0000   1.0000
     1.0000   1.0000   1.0000   1.0000   1.0000   1.0000   1.0000   1.0000
     1.0000   1.0000   1.0000   1.0000   1.0000   1.0000   1.0000   1.0000
     1.0000   1.0000   1.0000   1.0000   1.0000   1.0000   1.0000   1.0000
     1.0000   1.0000   1.0000   1.0000   1.0000   1.0000   1.0000   1.0000
     1.0000   1.0000   1.0000   1.0000   1.0000   1.0000   1.0000   1.0000
     1.0000   1.0000   1.0000   1.0000   1.0000   1.0000   1.0000   1.0000
     1.0000   1.0000   1.0000   1.0000   1.0000   1.0000   1.0000   1.0000
     1.0000   1.0000   1.0000   1.0000   1.0000   1.0000   1.0000   1.0000
     1.0000   1.0000   1.0000   1.0000   1.0000   1.0000   1.0000   1.0000
     1.0812   1.0812   1.0833   1.0833   0.6571   0.6571   0.5689   0.5689
     0.5689   0.5689   0.0000   0.0000   0.0000   0.0000   0.0000   0.0000
     0.0000   0.0000   0.0000   0.0000   0.0000   0.0000   0.0000   0.0000
     0.0000   0.0000   0.0000   0.0000   0.0000   0.0000   0.0000   0.0000
     0.0000   0.0000   0.0000   0.0000   0.0000   0.0000   0.0000   0.0000
     0.0000   0.0000   0.0000   0.0000   0.0000   0.0000   0.0000   0.0000
     0.0000   0.0000   0.0000   0.0000   0.0000   0.0000   0.0000   0.0000
     0.0000   0.0000   0.0000   0.0000   0.0000   0.0000   0.0000   0.0000
     0.0000   0.0000   0.0000   0.0000   0.0000   0.0000   0.0000   0.0000
     0.0000   0.0000   0.0000   0.0000   0.0000   0.0000   0.0000   0.0000
     0.0000   0.0000   0.0000   0.0000   0.0000   0.0000   0.0000   0.0000
     0.0000   0.0000   0.0000   0.0000   0.0000   0.0000   0.0000   0.0000
     0.0000   0.0000   0.0000   0.0000   0.0000   0.0000   0.0000   0.0000

     the Fermi energy is     1.4333 ev

!    total energy              =  -22154.25513094 Ry
     estimated scf accuracy    <       0.00000096 Ry
     smearing contrib. (-TS)   =       0.00133501 Ry
     internal energy E=F+TS    =  -22154.25646595 Ry

     The total energy is F=E-TS. E is the sum of the following terms:
     one-electron contribution = -144865.52007023 Ry
     hartree contribution      =   72366.17620090 Ry
     xc contribution           =   -2024.16054032 Ry
     ewald contribution        =   52369.24794369 Ry

     convergence has been achieved in  11 iterations

     Writing all to output data dir ./tmp/Zn002.save/ :
     XML data file, charge density, pseudopotentials, collected wavefunctions

     init_run     :    132.95s CPU    133.78s WALL (       1 calls)
     electrons    :   5736.86s CPU   5774.63s WALL (       1 calls)

     Called by init_run:
     wfcinit      :    131.87s CPU    132.65s WALL (       1 calls)
     wfcinit:atom :      0.10s CPU      0.17s WALL (      10 calls)
     wfcinit:wfcr :    130.60s CPU    131.22s WALL (      10 calls)
     potinit      :      0.06s CPU      0.07s WALL (       1 calls)
     hinit0       :      0.03s CPU      0.03s WALL (       1 calls)

     Called by electrons:
     c_bands      :   5349.01s CPU   5384.41s WALL (      12 calls)
     sum_band     :    378.15s CPU    380.19s WALL (      12 calls)
     v_of_rho     :      0.66s CPU      0.69s WALL (      12 calls)
     v_h          :      0.04s CPU      0.05s WALL (      12 calls)
     v_xc         :      0.62s CPU      0.64s WALL (      12 calls)
     newd         :      9.65s CPU      9.91s WALL (      12 calls)
     mix_rho      :      0.10s CPU      0.10s WALL (      12 calls)

     Called by c_bands:
     init_us_2    :      6.04s CPU      6.08s WALL (     250 calls)
     cegterg      :   5337.86s CPU   5373.08s WALL (     120 calls)

     Called by sum_band:
     sum_band:wei :      0.05s CPU      0.06s WALL (      12 calls)
     sum_band:loo :    367.38s CPU    369.13s WALL (      12 calls)
     sum_band:buf :      1.29s CPU      1.34s WALL (     120 calls)
     sum_band:ini :      2.89s CPU      2.90s WALL (     120 calls)
     sum_band:cal :    320.25s CPU    321.61s WALL (     120 calls)
     sum_band:bec :      2.46s CPU      2.47s WALL (     120 calls)
     addusdens    :     10.55s CPU     10.83s WALL (      12 calls)
                                        0.00s GPU  (      12 calls)
     addusd:skk   :      0.12s CPU      0.13s WALL (      12 calls)
                                        0.00s GPU  (      12 calls)

     Called by *egterg:
     cdiaghg      :    315.78s CPU    327.55s WALL (     697 calls)
     cegterg:over :    833.36s CPU    836.04s WALL (     587 calls)
     cegterg:upda :    350.09s CPU    352.17s WALL (     587 calls)
     cegterg:last :   1291.48s CPU   1298.35s WALL (     223 calls)
     cdiaghg:chol :     19.88s CPU     19.93s WALL (     697 calls)
     cdiaghg:inve :      3.22s CPU      3.23s WALL (     697 calls)
     cdiaghg:para :     82.06s CPU     83.56s WALL (    1394 calls)
     h_psi        :   1705.90s CPU   1713.77s WALL (     717 calls)
     s_psi        :    738.26s CPU    740.03s WALL (     717 calls)
     g_psi        :      0.68s CPU      0.68s WALL (     587 calls)

     Called by h_psi:
     h_psi:calbec :    761.76s CPU    765.04s WALL (     717 calls)
     vloc_psi     :    187.36s CPU    188.79s WALL (     717 calls)
     add_vuspsi   :    754.34s CPU    756.18s WALL (     717 calls)

     General routines
     calbec       :   1082.01s CPU   1086.65s WALL (     837 calls)
     fft          :      0.41s CPU      0.46s WALL (     154 calls)
     ffts         :      0.03s CPU      0.03s WALL (      24 calls)
     fftw         :    205.98s CPU    207.49s WALL (  398424 calls)
     interpolate  :      0.04s CPU      0.05s WALL (      12 calls)

     Parallel routines

     PWSCF        :      1h37m CPU      1h38m WALL


   This run was terminated on:  23:53:56  25Mar2025            

=------------------------------------------------------------------------------=
   JOB DONE.
=------------------------------------------------------------------------------=
Note: The following floating-point exceptions are signalling: IEEE_DENORMAL
Note: The following floating-point exceptions are signalling: IEEE_DENORMAL
Note: The following floating-point exceptions are signalling: IEEE_DENORMAL
Note: The following floating-point exceptions are signalling: IEEE_DENORMAL
Note: The following floating-point exceptions are signalling: IEEE_DENORMAL
Note: The following floating-point exceptions are signalling: IEEE_DENORMAL
Note: The following floating-point exceptions are signalling: IEEE_DENORMAL
Note: The following floating-point exceptions are signalling: IEEE_DENORMAL
Note: The following floating-point exceptions are signalling: IEEE_DENORMAL
Note: The following floating-point exceptions are signalling: IEEE_DENORMAL
Note: The following floating-point exceptions are signalling: IEEE_DENORMAL
Note: The following floating-point exceptions are signalling: IEEE_DENORMAL
