--------------------------------------------------------------------------
By default, for Open MPI 4.0 and later, infiniband ports on a device
are not used by default.  The intent is to use UCX for these devices.
You can override this policy by setting the btl_openib_allow_ib MCA parameter
to true.

  Local host:              psid08
  Local adapter:           mlx4_0
  Local port:              1

--------------------------------------------------------------------------
--------------------------------------------------------------------------
WARNING: There was an error initializing an OpenFabrics device.

  Local host:   psid08
  Local device: mlx4_0
--------------------------------------------------------------------------

     Program PWSCF v.7.3.1 starts on 26Mar2025 at 16:33:16 

     This program is part of the open-source Quantum ESPRESSO suite
     for quantum simulation of materials; please cite
         "P. Giannozzi et al., J. Phys.:Condens. Matter 21 395502 (2009);
         "P. Giannozzi et al., J. Phys.:Condens. Matter 29 465901 (2017);
         "P. Giannozzi et al., J. Chem. Phys. 152 154105 (2020);
          URL http://www.quantum-espresso.org", 
     in publications or presentations arising from this work. More details at
     http://www.quantum-espresso.org/quote

     Parallel version (MPI), running on    33 processors

     MPI processes distributed on     1 nodes
     132399 MiB available memory on the printing compute node when the environment starts

     Waiting for input...
     Reading input from standard input

     Current dimensions of program PWSCF are:
     Max number of different atomic species (ntypx) = 10
     Max number of k-points (npk) =  40000
     Max angular momentum in pseudopotentials (lmaxx) =  4
     Found identity + ( -0.5000  0.0000  0.0000) symmetry
     This is a supercell, fractional translations are disabled

     R & G space division:  proc/nbgrp/npool/nimage =      33
     Subspace diagonalization in iterative solution of the eigenvalue problem:
     one sub-group per band group will be used
     custom distributed-memory algorithm (size of sub-group:  5*  5 procs)


     Parallelization info
     --------------------
     sticks:   dense  smooth     PW     G-vecs:    dense   smooth      PW
     Min         228     130     36                36393    15714    2270
     Max         230     131     37                36401    15723    2280
     Sum        7555    4303   1189              1201061   518755   75035

     Using Slab Decomposition



     bravais-lattice index     =            0
     lattice parameter (alat)  =      19.7617  a.u.
     unit-cell volume          =   15176.5939 (a.u.)^3
     number of atoms/cell      =           48
     number of atomic types    =            1
     number of electrons       =       960.00
     number of Kohn-Sham states=          576
     kinetic-energy cutoff     =      40.0000  Ry
     charge density cutoff     =     280.0000  Ry
     scf convergence threshold =      1.0E-06
     mixing beta               =       0.4000
     number of iterations used =            8  plain     mixing
     Exchange-correlation= SLA  PW   PBE  PBE
                           (   1   4   3   4   0   0   0)

     celldm(1)=  19.761696  celldm(2)=   0.000000  celldm(3)=   0.000000
     celldm(4)=   0.000000  celldm(5)=   0.000000  celldm(6)=   0.000000

     crystal axes: (cart. coord. in units of alat)
               a(1) = (   1.000000   0.000000   0.000000 )  
               a(2) = (  -0.500000   0.866025   0.000000 )  
               a(3) = (   0.000000   0.000000   2.270759 )  

     reciprocal axes: (cart. coord. in units 2 pi/alat)
               b(1) = (  1.000000  0.577350 -0.000000 )  
               b(2) = (  0.000000  1.154701  0.000000 )  
               b(3) = (  0.000000 -0.000000  0.440381 )  


     PseudoPot. # 1 for Zn read from file:
     /home/ys/qepseudo/SSSP_1.3.0_PBE_efficiency/Zn_pbe_v1.uspp.F.UPF
     MD5 check sum: df62231357ef9e81f77b2b3087fa5675
     Pseudo is Ultrasoft, Zval = 20.0
     Generated by new atomic code, or converted to UPF format
     Using radial grid of  943 points,  6 beta functions with: 
                l(1) =   0
                l(2) =   0
                l(3) =   1
                l(4) =   1
                l(5) =   2
                l(6) =   2
     Q(r) pseudized with  8 coefficients,  rinner =    1.100   1.100   1.100
                                                       1.100   1.100

     atomic species   valence    mass     pseudopotential
     Zn               20.00    65.38000     Zn( 1.00)

     No symmetry found


                                    s                        frac. trans.

      isym =  1     identity                                     

 cryst.   s( 1) = (     1          0          0      )
                  (     0          1          0      )
                  (     0          0          1      )

 cart.    s( 1) = (  1.0000000  0.0000000  0.0000000 )
                  (  0.0000000  1.0000000  0.0000000 )
                  (  0.0000000  0.0000000  1.0000000 )


   Cartesian axes

     site n.     atom                  positions (alat units)
         1        Zn     tau(   1) = (   0.0000000   0.1443375   0.1164998  )
         2        Zn     tau(   2) = (   0.5000000   0.1443375   0.1164998  )
         3        Zn     tau(   3) = (   0.0000000   0.1443375   0.5824993  )
         4        Zn     tau(   4) = (   0.5000000   0.1443375   0.5824993  )
         5        Zn     tau(   5) = (  -0.1250000   0.3608439   0.1164998  )
         6        Zn     tau(   6) = (   0.3750000   0.3608439   0.1164998  )
         7        Zn     tau(   7) = (  -0.1250000   0.3608439   0.5824993  )
         8        Zn     tau(   8) = (   0.3750000   0.3608439   0.5824993  )
         9        Zn     tau(   9) = (  -0.2500000   0.5773502   0.1164998  )
        10        Zn     tau(  10) = (   0.2500000   0.5773502   0.1164998  )
        11        Zn     tau(  11) = (  -0.2500000   0.5773502   0.5824993  )
        12        Zn     tau(  12) = (   0.2500000   0.5773502   0.5824993  )
        13        Zn     tau(  13) = (  -0.3750000   0.7938567   0.1164998  )
        14        Zn     tau(  14) = (   0.1250000   0.7938567   0.1164998  )
        15        Zn     tau(  15) = (  -0.3750000   0.7938567   0.5824993  )
        16        Zn     tau(  16) = (   0.1250000   0.7938567   0.5824993  )
        17        Zn     tau(  17) = (   0.2500000   0.1443375   0.1164998  )
        18        Zn     tau(  18) = (   0.7500000   0.1443375   0.1164998  )
        19        Zn     tau(  19) = (   0.2500000   0.1443375   0.5824993  )
        20        Zn     tau(  20) = (   0.7500000   0.1443375   0.5824993  )
        21        Zn     tau(  21) = (   0.1250000   0.3608439   0.1164998  )
        22        Zn     tau(  22) = (   0.6250000   0.3608439   0.1164998  )
        23        Zn     tau(  23) = (   0.1250000   0.3608439   0.5824993  )
        24        Zn     tau(  24) = (   0.6250000   0.3608439   0.5824993  )
        25        Zn     tau(  25) = (   0.0000000   0.5773502   0.1164998  )
        26        Zn     tau(  26) = (   0.5000000   0.5773502   0.1164998  )
        27        Zn     tau(  27) = (   0.0000000   0.5773502   0.5824993  )
        28        Zn     tau(  28) = (   0.5000000   0.5773502   0.5824993  )
        29        Zn     tau(  29) = (  -0.1250000   0.7938567   0.1164998  )
        30        Zn     tau(  30) = (   0.3750000   0.7938567   0.1164998  )
        31        Zn     tau(  31) = (  -0.1250000   0.7938567   0.5824993  )
        32        Zn     tau(  32) = (   0.3750000   0.7938567   0.5824993  )
        33        Zn     tau(  33) = (   0.1250000   0.0721688   0.3494996  )
        34        Zn     tau(  34) = (   0.6250000   0.0721688   0.3494996  )
        35        Zn     tau(  35) = (   0.0000000   0.2886752   0.3494996  )
        36        Zn     tau(  36) = (   0.5000000   0.2886752   0.3494996  )
        37        Zn     tau(  37) = (  -0.1250000   0.5051815   0.3494996  )
        38        Zn     tau(  38) = (   0.3750000   0.5051815   0.3494996  )
        39        Zn     tau(  39) = (  -0.2500000   0.7216879   0.3494996  )
        40        Zn     tau(  40) = (   0.2500000   0.7216879   0.3494996  )
        41        Zn     tau(  41) = (   0.3750000   0.0721688   0.3494996  )
        42        Zn     tau(  42) = (   0.8750000   0.0721688   0.3494996  )
        43        Zn     tau(  43) = (   0.2500000   0.2886752   0.3494996  )
        44        Zn     tau(  44) = (   0.7500000   0.2886752   0.3494996  )
        45        Zn     tau(  45) = (   0.1250000   0.5051815   0.3494996  )
        46        Zn     tau(  46) = (   0.6250000   0.5051815   0.3494996  )
        47        Zn     tau(  47) = (   0.0000000   0.7216879   0.3494996  )
        48        Zn     tau(  48) = (   0.5000000   0.7216879   0.3494996  )

   Crystallographic axes

     site n.     atom                  positions (cryst. coord.)
         1        Zn     tau(   1) = (  0.0833333  0.1666666  0.0513044  )
         2        Zn     tau(   2) = (  0.5833333  0.1666666  0.0513044  )
         3        Zn     tau(   3) = (  0.0833333  0.1666666  0.2565219  )
         4        Zn     tau(   4) = (  0.5833333  0.1666666  0.2565219  )
         5        Zn     tau(   5) = (  0.0833333  0.4166666  0.0513044  )
         6        Zn     tau(   6) = (  0.5833333  0.4166666  0.0513044  )
         7        Zn     tau(   7) = (  0.0833333  0.4166666  0.2565219  )
         8        Zn     tau(   8) = (  0.5833333  0.4166666  0.2565219  )
         9        Zn     tau(   9) = (  0.0833333  0.6666666  0.0513044  )
        10        Zn     tau(  10) = (  0.5833333  0.6666666  0.0513044  )
        11        Zn     tau(  11) = (  0.0833333  0.6666666  0.2565219  )
        12        Zn     tau(  12) = (  0.5833333  0.6666666  0.2565219  )
        13        Zn     tau(  13) = (  0.0833333  0.9166667  0.0513044  )
        14        Zn     tau(  14) = (  0.5833334  0.9166667  0.0513044  )
        15        Zn     tau(  15) = (  0.0833333  0.9166667  0.2565219  )
        16        Zn     tau(  16) = (  0.5833334  0.9166667  0.2565219  )
        17        Zn     tau(  17) = (  0.3333333  0.1666666  0.0513044  )
        18        Zn     tau(  18) = (  0.8333334  0.1666666  0.0513044  )
        19        Zn     tau(  19) = (  0.3333333  0.1666666  0.2565219  )
        20        Zn     tau(  20) = (  0.8333334  0.1666666  0.2565219  )
        21        Zn     tau(  21) = (  0.3333333  0.4166666  0.0513044  )
        22        Zn     tau(  22) = (  0.8333333  0.4166666  0.0513044  )
        23        Zn     tau(  23) = (  0.3333333  0.4166666  0.2565219  )
        24        Zn     tau(  24) = (  0.8333333  0.4166666  0.2565219  )
        25        Zn     tau(  25) = (  0.3333333  0.6666666  0.0513044  )
        26        Zn     tau(  26) = (  0.8333333  0.6666666  0.0513044  )
        27        Zn     tau(  27) = (  0.3333333  0.6666666  0.2565219  )
        28        Zn     tau(  28) = (  0.8333333  0.6666666  0.2565219  )
        29        Zn     tau(  29) = (  0.3333334  0.9166667  0.0513044  )
        30        Zn     tau(  30) = (  0.8333334  0.9166667  0.0513044  )
        31        Zn     tau(  31) = (  0.3333334  0.9166667  0.2565219  )
        32        Zn     tau(  32) = (  0.8333334  0.9166667  0.2565219  )
        33        Zn     tau(  33) = (  0.1666667  0.0833334  0.1539131  )
        34        Zn     tau(  34) = (  0.6666667  0.0833334  0.1539131  )
        35        Zn     tau(  35) = (  0.1666667  0.3333334  0.1539131  )
        36        Zn     tau(  36) = (  0.6666667  0.3333334  0.1539131  )
        37        Zn     tau(  37) = (  0.1666667  0.5833334  0.1539131  )
        38        Zn     tau(  38) = (  0.6666667  0.5833334  0.1539131  )
        39        Zn     tau(  39) = (  0.1666667  0.8333334  0.1539131  )
        40        Zn     tau(  40) = (  0.6666667  0.8333334  0.1539131  )
        41        Zn     tau(  41) = (  0.4166667  0.0833334  0.1539131  )
        42        Zn     tau(  42) = (  0.9166667  0.0833334  0.1539131  )
        43        Zn     tau(  43) = (  0.4166667  0.3333334  0.1539131  )
        44        Zn     tau(  44) = (  0.9166667  0.3333334  0.1539131  )
        45        Zn     tau(  45) = (  0.4166667  0.5833334  0.1539131  )
        46        Zn     tau(  46) = (  0.9166667  0.5833334  0.1539131  )
        47        Zn     tau(  47) = (  0.4166667  0.8333334  0.1539131  )
        48        Zn     tau(  48) = (  0.9166667  0.8333334  0.1539131  )

     number of k points=    10  Marzari-Vanderbilt smearing, width (Ry)=  0.0010
                       cart. coord. in units 2pi/alat
        k(    1) = (   0.0000000   0.0000000   0.0000000), wk =   0.1250000
        k(    2) = (   0.0000000   0.2886751   0.0000000), wk =   0.2500000
        k(    3) = (   0.0000000  -0.5773503   0.0000000), wk =   0.1250000
        k(    4) = (   0.2500000   0.1443376   0.0000000), wk =   0.2500000
        k(    5) = (   0.2500000   0.4330127   0.0000000), wk =   0.2500000
        k(    6) = (   0.2500000  -0.4330127   0.0000000), wk =   0.2500000
        k(    7) = (   0.2500000  -0.1443376   0.0000000), wk =   0.2500000
        k(    8) = (  -0.5000000  -0.2886751   0.0000000), wk =   0.1250000
        k(    9) = (  -0.5000000   0.0000000   0.0000000), wk =   0.2500000
        k(   10) = (  -0.5000000  -0.8660254   0.0000000), wk =   0.1250000

                       cryst. coord.
        k(    1) = (   0.0000000   0.0000000   0.0000000), wk =   0.1250000
        k(    2) = (   0.0000000   0.2500000   0.0000000), wk =   0.2500000
        k(    3) = (   0.0000000  -0.5000000   0.0000000), wk =   0.1250000
        k(    4) = (   0.2500000   0.0000000   0.0000000), wk =   0.2500000
        k(    5) = (   0.2500000   0.2500000   0.0000000), wk =   0.2500000
        k(    6) = (   0.2500000  -0.5000000   0.0000000), wk =   0.2500000
        k(    7) = (   0.2500000  -0.2500000   0.0000000), wk =   0.2500000
        k(    8) = (  -0.5000000   0.0000000   0.0000000), wk =   0.1250000
        k(    9) = (  -0.5000000   0.2500000   0.0000000), wk =   0.2500000
        k(   10) = (  -0.5000000  -0.5000000   0.0000000), wk =   0.1250000

     Dense  grid:  1201061 G-vectors     FFT dimensions: ( 108, 108, 240)

     Smooth grid:   518755 G-vectors     FFT dimensions: (  80,  80, 192)

     Dynamical RAM for                 wfc:      17.26 MB

     Dynamical RAM for     wfc (w. buffer):     189.88 MB

     Dynamical RAM for           str. fact:       0.56 MB

     Dynamical RAM for           local pot:       0.00 MB

     Dynamical RAM for          nlocal pot:      25.89 MB

     Dynamical RAM for                qrad:       1.34 MB

     Dynamical RAM for          rho,v,vnew:       3.80 MB

     Dynamical RAM for               rhoin:       1.27 MB

     Dynamical RAM for            rho*nmix:       8.89 MB

     Dynamical RAM for           G-vectors:       2.20 MB

     Dynamical RAM for          h,s,v(r/c):       2.42 MB

     Dynamical RAM for          <psi|beta>:       7.59 MB

     Dynamical RAM for                 psi:      34.52 MB

     Dynamical RAM for                hpsi:      34.52 MB

     Dynamical RAM for                spsi:      34.52 MB

     Dynamical RAM for      wfcinit/wfcrot:      46.32 MB

     Dynamical RAM for           addusdens:     129.95 MB

     Estimated static dynamical RAM per process >     229.61 MB

     Estimated max dynamical RAM per process >     368.45 MB

     Estimated total dynamical RAM >      11.87 GB

     Initial potential from superposition of free atoms

     starting charge     959.9932, renormalised to     960.0000

     negative rho (up, down):  4.194E-03 0.000E+00
     Starting wfcs are  624 randomized atomic wfcs
[psid08:45975] 32 more processes have sent help message help-mpi-btl-openib.txt / ib port not selected
[psid08:45975] Set MCA parameter "orte_base_help_aggregate" to 0 to see all help / error messages
[psid08:45975] 32 more processes have sent help message help-mpi-btl-openib.txt / error in device init

     total cpu time spent up to now is      115.4 secs

     Self-consistent Calculation

     iteration #  1     ecut=    40.00 Ry     beta= 0.40
     Davidson diagonalization with overlap

---- Real-time Memory Report at c_bands before calling an iterative solver
           298 MiB given to the printing process from OS
             0 MiB allocation reported by mallinfo(arena+hblkhd)
        124373 MiB available memory on the node where the printing process lives
------------------
     ethr =  1.00E-02,  avg # of iterations =  9.4

     Threshold (ethr) on eigenvalues was too large:
     Diagonalizing with lowered threshold

     Davidson diagonalization with overlap

---- Real-time Memory Report at c_bands before calling an iterative solver
           391 MiB given to the printing process from OS
             0 MiB allocation reported by mallinfo(arena+hblkhd)
        123239 MiB available memory on the node where the printing process lives
------------------
     ethr =  1.61E-04,  avg # of iterations = 11.2

     negative rho (up, down):  4.986E-03 0.000E+00

     total cpu time spent up to now is     1012.2 secs

     total energy              =  -22153.85300215 Ry
     estimated scf accuracy    <       1.57905215 Ry

     iteration #  2     ecut=    40.00 Ry     beta= 0.40
     Davidson diagonalization with overlap

---- Real-time Memory Report at c_bands before calling an iterative solver
           400 MiB given to the printing process from OS
             0 MiB allocation reported by mallinfo(arena+hblkhd)
        123138 MiB available memory on the node where the printing process lives
------------------
     ethr =  1.64E-04,  avg # of iterations =  2.6

     negative rho (up, down):  5.515E-03 0.000E+00

     total cpu time spent up to now is     1450.3 secs

     total energy              =  -22154.23242935 Ry
     estimated scf accuracy    <       0.27764084 Ry

     iteration #  3     ecut=    40.00 Ry     beta= 0.40
     Davidson diagonalization with overlap

---- Real-time Memory Report at c_bands before calling an iterative solver
           403 MiB given to the printing process from OS
             0 MiB allocation reported by mallinfo(arena+hblkhd)
        123114 MiB available memory on the node where the printing process lives
------------------
     c_bands:  1 eigenvalues not converged
     ethr =  2.89E-05,  avg # of iterations =  8.3

     negative rho (up, down):  5.970E-03 0.000E+00

     total cpu time spent up to now is     1845.0 secs

     total energy              =  -22154.24952880 Ry
     estimated scf accuracy    <       0.04754451 Ry

     iteration #  4     ecut=    40.00 Ry     beta= 0.40
     Davidson diagonalization with overlap

---- Real-time Memory Report at c_bands before calling an iterative solver
           404 MiB given to the printing process from OS
             0 MiB allocation reported by mallinfo(arena+hblkhd)
        123095 MiB available memory on the node where the printing process lives
------------------
     ethr =  4.95E-06,  avg # of iterations = 11.9

     negative rho (up, down):  5.970E-03 0.000E+00

     total cpu time spent up to now is     2299.5 secs

     total energy              =  -22154.25122921 Ry
     estimated scf accuracy    <       0.01131017 Ry

     iteration #  5     ecut=    40.00 Ry     beta= 0.40
     Davidson diagonalization with overlap

---- Real-time Memory Report at c_bands before calling an iterative solver
           406 MiB given to the printing process from OS
             0 MiB allocation reported by mallinfo(arena+hblkhd)
        123074 MiB available memory on the node where the printing process lives
------------------
     ethr =  1.18E-06,  avg # of iterations =  2.3

     negative rho (up, down):  6.017E-03 0.000E+00

     total cpu time spent up to now is     2673.3 secs

     total energy              =  -22154.25184649 Ry
     estimated scf accuracy    <       0.00191305 Ry

     iteration #  6     ecut=    40.00 Ry     beta= 0.40
     Davidson diagonalization with overlap

---- Real-time Memory Report at c_bands before calling an iterative solver
           406 MiB given to the printing process from OS
             0 MiB allocation reported by mallinfo(arena+hblkhd)
        123059 MiB available memory on the node where the printing process lives
------------------
     ethr =  1.99E-07,  avg # of iterations =  2.0

     negative rho (up, down):  6.046E-03 0.000E+00

     total cpu time spent up to now is     3101.4 secs

     total energy              =  -22154.25222172 Ry
     estimated scf accuracy    <       0.00011097 Ry

     iteration #  7     ecut=    40.00 Ry     beta= 0.40
     Davidson diagonalization with overlap

---- Real-time Memory Report at c_bands before calling an iterative solver
           407 MiB given to the printing process from OS
             0 MiB allocation reported by mallinfo(arena+hblkhd)
        123038 MiB available memory on the node where the printing process lives
------------------
     ethr =  1.16E-08,  avg # of iterations =  2.0

     negative rho (up, down):  6.069E-03 0.000E+00

     total cpu time spent up to now is     3538.7 secs

     total energy              =  -22154.25221539 Ry
     estimated scf accuracy    <       0.00059184 Ry

     iteration #  8     ecut=    40.00 Ry     beta= 0.40
     Davidson diagonalization with overlap

---- Real-time Memory Report at c_bands before calling an iterative solver
           407 MiB given to the printing process from OS
             0 MiB allocation reported by mallinfo(arena+hblkhd)
        123023 MiB available memory on the node where the printing process lives
------------------
     ethr =  1.16E-08,  avg # of iterations =  2.0

     negative rho (up, down):  6.086E-03 0.000E+00

     total cpu time spent up to now is     3909.1 secs

     total energy              =  -22154.25224417 Ry
     estimated scf accuracy    <       0.00009139 Ry

     iteration #  9     ecut=    40.00 Ry     beta= 0.40
     Davidson diagonalization with overlap

---- Real-time Memory Report at c_bands before calling an iterative solver
           408 MiB given to the printing process from OS
             0 MiB allocation reported by mallinfo(arena+hblkhd)
        123005 MiB available memory on the node where the printing process lives
------------------
     ethr =  9.52E-09,  avg # of iterations =  1.8

     negative rho (up, down):  6.096E-03 0.000E+00

     total cpu time spent up to now is     4264.1 secs

     total energy              =  -22154.25224115 Ry
     estimated scf accuracy    <       0.00004868 Ry

     iteration # 10     ecut=    40.00 Ry     beta= 0.40
     Davidson diagonalization with overlap

---- Real-time Memory Report at c_bands before calling an iterative solver
           408 MiB given to the printing process from OS
             0 MiB allocation reported by mallinfo(arena+hblkhd)
        122983 MiB available memory on the node where the printing process lives
------------------
     ethr =  5.07E-09,  avg # of iterations =  2.0

     negative rho (up, down):  6.102E-03 0.000E+00

     total cpu time spent up to now is     4702.3 secs

     total energy              =  -22154.25224741 Ry
     estimated scf accuracy    <       0.00001384 Ry

     iteration # 11     ecut=    40.00 Ry     beta= 0.40
     Davidson diagonalization with overlap

---- Real-time Memory Report at c_bands before calling an iterative solver
           409 MiB given to the printing process from OS
             0 MiB allocation reported by mallinfo(arena+hblkhd)
        122983 MiB available memory on the node where the printing process lives
------------------
     ethr =  1.44E-09,  avg # of iterations =  2.0

     negative rho (up, down):  6.114E-03 0.000E+00

     total cpu time spent up to now is     5143.5 secs

     End of self-consistent calculation

          k = 0.0000 0.0000 0.0000 ( 64855 PWs)   bands (ev):

  -125.0280-125.0263-125.0263-125.0262-125.0262-125.0262-125.0262-125.0246
  -125.0246-125.0245-125.0245-125.0245-125.0245-125.0244-125.0244-125.0244
  -124.8519-124.8519-124.8503-124.8502-124.8502-124.8502-124.8502-124.8502
  -124.8502-124.8502-124.8501-124.8501-124.8501-124.8501-124.8485-124.8485
  -124.8485-124.8485-124.8485-124.8485-124.8485-124.8485-124.8485-124.8484
  -124.8484-124.8484-124.8484-124.8484-124.8483-124.8483-124.8483-124.8483
   -79.1939 -79.1939 -79.1939 -79.1873 -79.1873 -79.1872 -79.1872 -79.1872
   -79.1872 -79.1773 -79.1759 -79.1759 -79.1759 -79.1759 -79.1759 -79.1758
   -79.1753 -79.1753 -79.1753 -79.1753 -79.1752 -79.1752 -79.1739 -79.1739
   -79.1739 -79.1739 -79.1738 -79.1738 -79.1734 -79.1734 -79.1733 -79.1733
   -79.1733 -79.1733 -79.1732 -79.1732 -79.1732 -79.1673 -79.1672 -79.1672
   -79.1626 -79.1625 -79.1625 -79.1625 -79.1625 -79.1625 -79.1578 -79.1578
   -79.0147 -79.0147 -79.0147 -79.0146 -79.0146 -79.0146 -79.0093 -79.0090
   -79.0081 -79.0080 -79.0080 -79.0080 -79.0080 -79.0080 -79.0080 -79.0080
   -79.0080 -79.0080 -79.0079 -79.0079 -79.0074 -79.0073 -79.0073 -79.0073
   -79.0073 -79.0073 -79.0072 -79.0072 -79.0072 -79.0072 -79.0071 -79.0071
   -79.0055 -79.0055 -79.0054 -79.0054 -79.0054 -79.0054 -79.0054 -79.0054
   -79.0054 -79.0053 -79.0053 -79.0053 -79.0053 -79.0053 -79.0053 -79.0052
   -79.0052 -79.0052 -78.9967 -78.9967 -78.9967 -78.9967 -78.9967 -78.9967
   -78.9967 -78.9967 -78.9967 -78.9966 -78.9966 -78.9966 -78.9947 -78.9947
   -78.9947 -78.9947 -78.9947 -78.9947 -78.9947 -78.9946 -78.9946 -78.9946
   -78.9946 -78.9946 -78.9881 -78.9881 -78.9881 -78.9881 -78.9881 -78.9880
   -78.9834 -78.9834 -78.9834 -78.9834 -78.9834 -78.9834 -78.9834 -78.9833
   -78.9833 -78.9833 -78.9833 -78.9833 -78.9787 -78.9787 -78.9786 -78.9786
    -8.5932  -7.3852  -7.0661  -7.0384  -7.0383  -7.0383  -7.0383  -7.0383
    -7.0383  -6.8760  -6.8759  -6.8759  -6.7035  -6.7035  -6.7035  -6.6637
    -6.6637  -6.6637  -6.5619  -6.5619  -6.5619  -6.5619  -6.5619  -6.5619
    -6.5211  -6.5211  -6.5211  -6.5211  -6.5211  -6.5211  -6.5134  -6.5134
    -6.5134  -6.4468  -6.4468  -6.4467  -6.4467  -6.4467  -6.4467  -6.3956
    -6.3956  -6.3955  -6.3955  -6.3955  -6.3955  -6.3149  -6.3149  -6.3149
    -6.3135  -6.3135  -6.3135  -6.3135  -6.3134  -6.3134  -6.2470  -6.2470
    -6.2470  -6.2470  -6.2470  -6.2469  -6.2452  -6.1899  -6.1899  -6.1898
    -6.1898  -6.1898  -6.1898  -6.1498  -6.1498  -6.1498  -6.1498  -6.1498
    -6.1498  -6.1298  -6.1298  -6.1298  -6.1298  -6.1298  -6.1298  -6.0999
    -6.0999  -6.0999  -6.0999  -6.0999  -6.0999  -6.0825  -6.0825  -6.0825
    -6.0823  -6.0823  -6.0651  -6.0651  -6.0651  -6.0651  -6.0651  -6.0650
    -5.9662  -5.9662  -5.9661  -5.9661  -5.9661  -5.9661  -5.9028  -5.9028
    -5.8851  -5.8851  -5.8533  -5.8533  -5.8533  -5.8533  -5.8533  -5.8533
    -5.8448  -5.8448  -5.8448  -5.8448  -5.8448  -5.8448  -5.7997  -5.7997
    -5.7997  -5.7675  -5.7675  -5.7675  -5.7675  -5.7675  -5.7675  -5.7622
    -5.7622  -5.7622  -5.7622  -5.7622  -5.7622  -5.7578  -5.7578  -5.7578
    -5.7578  -5.7578  -5.7578  -5.7389  -5.7389  -5.7389  -5.7389  -5.7389
    -5.7389  -5.7123  -5.7123  -5.7123  -5.7122  -5.7122  -5.7122  -5.7014
    -5.6942  -5.6942  -5.6942  -5.6942  -5.6942  -5.6942  -5.6892  -5.6892
    -5.6892  -5.6891  -5.6891  -5.6891  -5.6751  -5.6751  -5.6751  -5.5763
    -5.5763  -5.5567  -5.5566  -5.5566  -5.5566  -5.5566  -5.5566  -5.5503
    -5.5503  -5.5503  -5.5503  -5.5503  -5.5503  -5.5309  -5.5309  -5.5309
    -5.5309  -5.5309  -5.5309  -5.5178  -5.5178  -5.5178  -5.4902  -5.4902
    -5.4902  -5.4902  -5.4901  -5.4901  -5.4814  -5.4814  -5.4814  -5.4814
    -5.4814  -5.4814  -5.4328  -5.4328  -5.4328  -5.4328  -5.4328  -5.4328
    -5.4153  -5.4153  -5.4153  -5.4120  -5.4120  -5.4120  -5.3830  -5.3830
    -5.3830  -5.3736  -5.3736  -5.3736  -5.3736  -5.3736  -5.3736  -5.3716
    -5.3716  -5.3474  -5.3474  -5.3050  -5.3050  -5.3050  -5.3050  -5.3050
    -5.3050  -5.2673  -5.2673  -5.2673  -5.2673  -5.2672  -5.2672  -5.2408
    -5.2408  -5.2408  -5.0592  -5.0592  -5.0592  -5.0591  -5.0591  -5.0591
    -4.3796  -4.3796  -4.3796  -4.3796  -4.3796  -4.3796  -3.4350  -2.0760
    -2.0760  -2.0760  -2.0760  -2.0760  -2.0760  -2.0026  -2.0026  -2.0026
    -2.0026  -2.0025  -2.0025  -0.8131  -0.8131  -0.8131  -0.6988  -0.6241
    -0.6241  -0.6241  -0.6241  -0.6241  -0.6241  -0.0593  -0.0593  -0.0593
     0.2610   0.2610   0.2610   1.5553   1.5553   1.5553   1.5553   1.5553
     1.5554   1.5952   1.5952   1.5952   1.5952   1.5953   1.5953   2.3253
     2.3253   2.3253   3.1182   3.3225   3.3225   3.3225   4.1580   4.1580
     4.1580   4.8924   4.8924   4.8924   4.8924   4.8925   4.8925   5.0694
     5.2565   5.4422   5.4422   5.4423   5.4423   5.4423   5.4423   5.4622
     5.4622   5.4622   5.4623   5.4623   5.4623   5.6334   5.6334   5.6334
     5.6334   5.6334   5.6334   6.1935   6.3924   6.5754   6.5754   6.5754
     6.8688   6.8688   6.8688   6.8688   6.8688   6.8688   7.0277   7.0277
     7.0277   7.0277   7.0277   7.0277   7.0925   7.0925   7.0925   7.0925
     7.0925   7.0925   7.2031   7.2031   7.2031   7.2031   7.2031   7.2031
     8.0327   8.0327   8.0327   8.0327   8.0327   8.0327   8.1547   8.1548
     8.1548   8.1548   8.1548   8.1548   8.1802   8.1802   8.1802   8.1802
     8.1802   8.1802   8.2008   8.3641   8.3926   8.3926   8.3926   9.3099

     occupation numbers 
     1.0000   1.0000   1.0000   1.0000   1.0000   1.0000   1.0000   1.0000
     1.0000   1.0000   1.0000   1.0000   1.0000   1.0000   1.0000   1.0000
     1.0000   1.0000   1.0000   1.0000   1.0000   1.0000   1.0000   1.0000
     1.0000   1.0000   1.0000   1.0000   1.0000   1.0000   1.0000   1.0000
     1.0000   1.0000   1.0000   1.0000   1.0000   1.0000   1.0000   1.0000
     1.0000   1.0000   1.0000   1.0000   1.0000   1.0000   1.0000   1.0000
     1.0000   1.0000   1.0000   1.0000   1.0000   1.0000   1.0000   1.0000
     1.0000   1.0000   1.0000   1.0000   1.0000   1.0000   1.0000   1.0000
     1.0000   1.0000   1.0000   1.0000   1.0000   1.0000   1.0000   1.0000
     1.0000   1.0000   1.0000   1.0000   1.0000   1.0000   1.0000   1.0000
     1.0000   1.0000   1.0000   1.0000   1.0000   1.0000   1.0000   1.0000
     1.0000   1.0000   1.0000   1.0000   1.0000   1.0000   1.0000   1.0000
     1.0000   1.0000   1.0000   1.0000   1.0000   1.0000   1.0000   1.0000
     1.0000   1.0000   1.0000   1.0000   1.0000   1.0000   1.0000   1.0000
     1.0000   1.0000   1.0000   1.0000   1.0000   1.0000   1.0000   1.0000
     1.0000   1.0000   1.0000   1.0000   1.0000   1.0000   1.0000   1.0000
     1.0000   1.0000   1.0000   1.0000   1.0000   1.0000   1.0000   1.0000
     1.0000   1.0000   1.0000   1.0000   1.0000   1.0000   1.0000   1.0000
     1.0000   1.0000   1.0000   1.0000   1.0000   1.0000   1.0000   1.0000
     1.0000   1.0000   1.0000   1.0000   1.0000   1.0000   1.0000   1.0000
     1.0000   1.0000   1.0000   1.0000   1.0000   1.0000   1.0000   1.0000
     1.0000   1.0000   1.0000   1.0000   1.0000   1.0000   1.0000   1.0000
     1.0000   1.0000   1.0000   1.0000   1.0000   1.0000   1.0000   1.0000
     1.0000   1.0000   1.0000   1.0000   1.0000   1.0000   1.0000   1.0000
     1.0000   1.0000   1.0000   1.0000   1.0000   1.0000   1.0000   1.0000
     1.0000   1.0000   1.0000   1.0000   1.0000   1.0000   1.0000   1.0000
     1.0000   1.0000   1.0000   1.0000   1.0000   1.0000   1.0000   1.0000
     1.0000   1.0000   1.0000   1.0000   1.0000   1.0000   1.0000   1.0000
     1.0000   1.0000   1.0000   1.0000   1.0000   1.0000   1.0000   1.0000
     1.0000   1.0000   1.0000   1.0000   1.0000   1.0000   1.0000   1.0000
     1.0000   1.0000   1.0000   1.0000   1.0000   1.0000   1.0000   1.0000
     1.0000   1.0000   1.0000   1.0000   1.0000   1.0000   1.0000   1.0000
     1.0000   1.0000   1.0000   1.0000   1.0000   1.0000   1.0000   1.0000
     1.0000   1.0000   1.0000   1.0000   1.0000   1.0000   1.0000   1.0000
     1.0000   1.0000   1.0000   1.0000   1.0000   1.0000   1.0000   1.0000
     1.0000   1.0000   1.0000   1.0000   1.0000   1.0000   1.0000   1.0000
     1.0000   1.0000   1.0000   1.0000   1.0000   1.0000   1.0000   1.0000
     1.0000   1.0000   1.0000   1.0000   1.0000   1.0000   1.0000   1.0000
     1.0000   1.0000   1.0000   1.0000   1.0000   1.0000   1.0000   1.0000
     1.0000   1.0000   1.0000   1.0000   1.0000   1.0000   1.0000   1.0000
     1.0000   1.0000   1.0000   1.0000   1.0000   1.0000   1.0000   1.0000
     1.0000   1.0000   1.0000   1.0000   1.0000   1.0000   1.0000   1.0000
     1.0000   1.0000   1.0000   1.0000   1.0000   1.0000   1.0000   1.0000
     1.0000   1.0000   1.0000   1.0000   1.0000   1.0000   1.0000   1.0000
     1.0000   1.0000   1.0000   1.0000   1.0000   1.0000   1.0000   1.0000
     1.0000   1.0000   1.0000   1.0000   1.0000   1.0000   1.0000   1.0000
     1.0000   1.0000   1.0000   1.0000   1.0000   1.0000   1.0000   1.0000
     1.0000   1.0000   1.0000   1.0000   1.0000   1.0000   1.0000   1.0000
     1.0000   1.0000   1.0000   1.0000   1.0000   1.0000   1.0000   1.0000
     1.0000   1.0000   1.0000   1.0000   1.0000   1.0000   1.0000   1.0000
     1.0000   1.0000   1.0000   1.0000   1.0000   1.0000   1.0000   1.0000
     1.0000   1.0000   1.0000   1.0000   1.0000   1.0000   1.0000   1.0000
     1.0000   1.0000   1.0000   1.0000   1.0000   1.0000   1.0000   1.0000
     1.0000   1.0000   1.0000   1.0000   1.0000   1.0000   1.0000   1.0000
     1.0000   1.0000   1.0000   1.0000   1.0000   1.0000   1.0000   1.0000
     1.0000   1.0000   1.0000   1.0000   1.0000   1.0000   1.0000   1.0000
     1.0000   1.0000   1.0000   1.0000   1.0000   1.0000   1.0000   1.0000
     1.0000   1.0000   1.0000   1.0000   1.0000   1.0000   1.0000   1.0000
     1.0000   1.0000   1.0000   1.0000   1.0000   1.0000   1.0000   1.0000
     1.0000   1.0000   1.0000   0.0000   0.0000   0.0000   0.0000   0.0000
     0.0000   0.0000   0.0000   0.0000   0.0000   0.0000   0.0000   0.0000
     0.0000   0.0000   0.0000   0.0000   0.0000   0.0000   0.0000   0.0000
     0.0000   0.0000   0.0000   0.0000   0.0000   0.0000   0.0000   0.0000
     0.0000   0.0000   0.0000   0.0000   0.0000   0.0000   0.0000   0.0000
     0.0000   0.0000   0.0000   0.0000   0.0000   0.0000   0.0000   0.0000
     0.0000   0.0000   0.0000   0.0000   0.0000   0.0000   0.0000   0.0000
     0.0000   0.0000   0.0000   0.0000   0.0000   0.0000   0.0000   0.0000
     0.0000   0.0000   0.0000   0.0000   0.0000   0.0000   0.0000   0.0000
     0.0000   0.0000   0.0000   0.0000   0.0000   0.0000   0.0000   0.0000
     0.0000   0.0000   0.0000   0.0000   0.0000   0.0000   0.0000   0.0000
     0.0000   0.0000   0.0000   0.0000   0.0000   0.0000   0.0000   0.0000
     0.0000   0.0000   0.0000   0.0000   0.0000   0.0000   0.0000   0.0000

          k = 0.0000 0.2887 0.0000 ( 64808 PWs)   bands (ev):

  -125.0278-125.0269-125.0265-125.0265-125.0258-125.0258-125.0255-125.0249
  -125.0249-125.0246-125.0245-125.0245-125.0245-125.0244-125.0242-125.0242
  -124.8518-124.8517-124.8509-124.8508-124.8505-124.8505-124.8504-124.8504
  -124.8498-124.8498-124.8498-124.8497-124.8495-124.8495-124.8489-124.8489
  -124.8488-124.8488-124.8486-124.8485-124.8485-124.8485-124.8485-124.8485
  -124.8484-124.8484-124.8484-124.8483-124.8482-124.8482-124.8481-124.8481
   -79.1931 -79.1931 -79.1925 -79.1886 -79.1885 -79.1877 -79.1876 -79.1857
   -79.1857 -79.1828 -79.1796 -79.1796 -79.1771 -79.1769 -79.1769 -79.1760
   -79.1756 -79.1756 -79.1748 -79.1748 -79.1745 -79.1738 -79.1737 -79.1734
   -79.1733 -79.1733 -79.1733 -79.1732 -79.1730 -79.1729 -79.1728 -79.1728
   -79.1725 -79.1725 -79.1702 -79.1702 -79.1690 -79.1680 -79.1680 -79.1669
   -79.1643 -79.1640 -79.1640 -79.1621 -79.1621 -79.1607 -79.1592 -79.1582
   -79.0139 -79.0139 -79.0139 -79.0138 -79.0133 -79.0132 -79.0093 -79.0093
   -79.0093 -79.0093 -79.0091 -79.0089 -79.0084 -79.0084 -79.0084 -79.0084
   -79.0080 -79.0079 -79.0076 -79.0076 -79.0075 -79.0075 -79.0069 -79.0069
   -79.0068 -79.0068 -79.0066 -79.0065 -79.0065 -79.0065 -79.0065 -79.0065
   -79.0058 -79.0058 -79.0058 -79.0057 -79.0055 -79.0055 -79.0054 -79.0054
   -79.0054 -79.0054 -79.0053 -79.0053 -79.0053 -79.0053 -79.0051 -79.0051
   -79.0050 -79.0050 -79.0036 -79.0035 -79.0004 -79.0004 -79.0003 -79.0003
   -78.9977 -78.9977 -78.9977 -78.9977 -78.9937 -78.9936 -78.9936 -78.9936
   -78.9934 -78.9934 -78.9933 -78.9933 -78.9910 -78.9910 -78.9910 -78.9910
   -78.9898 -78.9897 -78.9888 -78.9888 -78.9888 -78.9888 -78.9877 -78.9877
   -78.9852 -78.9851 -78.9849 -78.9849 -78.9848 -78.9848 -78.9829 -78.9829
   -78.9829 -78.9829 -78.9816 -78.9815 -78.9800 -78.9800 -78.9790 -78.9790
    -8.4744  -7.5908  -7.2853  -7.2188  -7.2188  -7.0033  -6.8599  -6.8337
    -6.8337  -6.8145  -6.8139  -6.8139  -6.6846  -6.6742  -6.6683  -6.6683
    -6.6481  -6.6471  -6.6237  -6.6237  -6.5700  -6.5593  -6.5483  -6.5483
    -6.5304  -6.5304  -6.5239  -6.5239  -6.5099  -6.5099  -6.4939  -6.4900
    -6.4900  -6.4876  -6.4876  -6.4872  -6.4872  -6.4657  -6.4657  -6.4545
    -6.4545  -6.4289  -6.4289  -6.3866  -6.3866  -6.3766  -6.3765  -6.3589
    -6.3589  -6.3518  -6.3032  -6.2987  -6.2987  -6.2948  -6.2948  -6.2922
    -6.2922  -6.2548  -6.2548  -6.2344  -6.2309  -6.2025  -6.2025  -6.1953
    -6.1953  -6.1949  -6.1949  -6.1932  -6.1932  -6.1907  -6.1842  -6.1842
    -6.1783  -6.1783  -6.1580  -6.1580  -6.1566  -6.1566  -6.1516  -6.1269
    -6.1028  -6.1028  -6.0999  -6.0999  -6.0982  -6.0777  -6.0777  -6.0750
    -6.0750  -6.0633  -6.0531  -6.0421  -6.0421  -6.0201  -6.0201  -6.0184
    -6.0183  -5.9460  -5.9460  -5.9320  -5.9320  -5.9298  -5.9259  -5.9235
    -5.9226  -5.9192  -5.9192  -5.9002  -5.8964  -5.8964  -5.8940  -5.8940
    -5.8767  -5.8767  -5.8752  -5.8626  -5.8561  -5.8514  -5.8514  -5.8417
    -5.8222  -5.8221  -5.8144  -5.8144  -5.7926  -5.7896  -5.7791  -5.7791
    -5.7742  -5.7742  -5.7659  -5.7659  -5.7556  -5.7556  -5.7546  -5.7545
    -5.7430  -5.7273  -5.7273  -5.7176  -5.7176  -5.7140  -5.7067  -5.7067
    -5.6926  -5.6926  -5.6926  -5.6910  -5.6910  -5.6836  -5.6835  -5.6741
    -5.6741  -5.6705  -5.6705  -5.6655  -5.6503  -5.6503  -5.6446  -5.6232
    -5.6203  -5.6203  -5.6135  -5.6135  -5.6030  -5.6030  -5.6012  -5.6012
    -5.5963  -5.5922  -5.5858  -5.5858  -5.5833  -5.5513  -5.5469  -5.5457
    -5.5457  -5.5377  -5.5376  -5.5334  -5.5334  -5.5293  -5.5293  -5.5233
    -5.5232  -5.5190  -5.5140  -5.5118  -5.5118  -5.5036  -5.5036  -5.4970
    -5.4970  -5.4780  -5.4780  -5.4412  -5.4405  -5.4360  -5.4360  -5.4340
    -5.4340  -5.4339  -5.4339  -5.4266  -5.4266  -5.4125  -5.4113  -5.4110
    -5.4110  -5.4051  -5.4026  -5.3976  -5.3876  -5.3876  -5.3826  -5.3826
    -5.3766  -5.3711  -5.3711  -5.3638  -5.3534  -5.3534  -5.3492  -5.3408
    -5.3288  -5.3228  -5.3228  -5.3189  -5.2969  -5.2969  -5.2870  -5.2870
    -5.2826  -5.2826  -5.2736  -5.2695  -5.2695  -5.2602  -5.2602  -5.1233
    -5.1233  -5.1171  -5.1171  -5.1111  -5.1111  -5.0933  -5.0926  -4.9273
    -4.9107  -4.6198  -4.6198  -3.8640  -3.8640  -3.4632  -3.3669  -3.3669
    -3.3498  -2.6568  -2.2846  -2.2846  -2.1942  -1.9935  -1.9935  -1.9552
    -1.9552  -1.4969  -1.4969  -1.2639  -1.2639  -1.0987  -0.7789  -0.5450
    -0.5449  -0.5449  -0.5449  -0.5385   0.0398   0.0398   0.2877   0.2877
     0.5859   0.5859   0.6477   0.8994   0.9143   0.9143   1.1980   1.1980
     1.5760   1.5760   2.2410   2.2410   2.6712   2.7195   2.7195   2.7358
     2.7989   2.7989   2.9709   2.9709   3.2299   3.5631   3.7148   3.7148
     3.9359   3.9359   4.1215   4.1999   4.1999   4.5653   4.5653   4.8193
     4.8193   4.8594   4.8594   5.1772   5.1772   5.1796   5.1796   5.1823
     5.3715   5.4349   5.4349   5.5820   5.6601   5.8073   5.8073   5.8167
     6.0846   6.1215   6.1215   6.2904   6.3095   6.3266   6.3266   6.5049
     6.5345   6.5345   6.6108   6.6108   6.7367   6.7492   6.7492   7.0278
     7.0278   7.1007   7.1007   7.1822   7.1822   7.2343   7.3295   7.3295
     7.4032   7.4198   7.4198   7.4707   7.4707   7.6594   7.6594   7.6724
     7.6724   7.6938   7.6938   7.7451   7.8504   7.8504   7.9729   7.9729
     8.0494   8.0494   8.1246   8.3164   8.3179   8.4758   8.6313   8.6313
     8.7034   8.7034   8.7066   8.8254   8.8254   8.8371   8.8371   8.8528

     occupation numbers 
     1.0000   1.0000   1.0000   1.0000   1.0000   1.0000   1.0000   1.0000
     1.0000   1.0000   1.0000   1.0000   1.0000   1.0000   1.0000   1.0000
     1.0000   1.0000   1.0000   1.0000   1.0000   1.0000   1.0000   1.0000
     1.0000   1.0000   1.0000   1.0000   1.0000   1.0000   1.0000   1.0000
     1.0000   1.0000   1.0000   1.0000   1.0000   1.0000   1.0000   1.0000
     1.0000   1.0000   1.0000   1.0000   1.0000   1.0000   1.0000   1.0000
     1.0000   1.0000   1.0000   1.0000   1.0000   1.0000   1.0000   1.0000
     1.0000   1.0000   1.0000   1.0000   1.0000   1.0000   1.0000   1.0000
     1.0000   1.0000   1.0000   1.0000   1.0000   1.0000   1.0000   1.0000
     1.0000   1.0000   1.0000   1.0000   1.0000   1.0000   1.0000   1.0000
     1.0000   1.0000   1.0000   1.0000   1.0000   1.0000   1.0000   1.0000
     1.0000   1.0000   1.0000   1.0000   1.0000   1.0000   1.0000   1.0000
     1.0000   1.0000   1.0000   1.0000   1.0000   1.0000   1.0000   1.0000
     1.0000   1.0000   1.0000   1.0000   1.0000   1.0000   1.0000   1.0000
     1.0000   1.0000   1.0000   1.0000   1.0000   1.0000   1.0000   1.0000
     1.0000   1.0000   1.0000   1.0000   1.0000   1.0000   1.0000   1.0000
     1.0000   1.0000   1.0000   1.0000   1.0000   1.0000   1.0000   1.0000
     1.0000   1.0000   1.0000   1.0000   1.0000   1.0000   1.0000   1.0000
     1.0000   1.0000   1.0000   1.0000   1.0000   1.0000   1.0000   1.0000
     1.0000   1.0000   1.0000   1.0000   1.0000   1.0000   1.0000   1.0000
     1.0000   1.0000   1.0000   1.0000   1.0000   1.0000   1.0000   1.0000
     1.0000   1.0000   1.0000   1.0000   1.0000   1.0000   1.0000   1.0000
     1.0000   1.0000   1.0000   1.0000   1.0000   1.0000   1.0000   1.0000
     1.0000   1.0000   1.0000   1.0000   1.0000   1.0000   1.0000   1.0000
     1.0000   1.0000   1.0000   1.0000   1.0000   1.0000   1.0000   1.0000
     1.0000   1.0000   1.0000   1.0000   1.0000   1.0000   1.0000   1.0000
     1.0000   1.0000   1.0000   1.0000   1.0000   1.0000   1.0000   1.0000
     1.0000   1.0000   1.0000   1.0000   1.0000   1.0000   1.0000   1.0000
     1.0000   1.0000   1.0000   1.0000   1.0000   1.0000   1.0000   1.0000
     1.0000   1.0000   1.0000   1.0000   1.0000   1.0000   1.0000   1.0000
     1.0000   1.0000   1.0000   1.0000   1.0000   1.0000   1.0000   1.0000
     1.0000   1.0000   1.0000   1.0000   1.0000   1.0000   1.0000   1.0000
     1.0000   1.0000   1.0000   1.0000   1.0000   1.0000   1.0000   1.0000
     1.0000   1.0000   1.0000   1.0000   1.0000   1.0000   1.0000   1.0000
     1.0000   1.0000   1.0000   1.0000   1.0000   1.0000   1.0000   1.0000
     1.0000   1.0000   1.0000   1.0000   1.0000   1.0000   1.0000   1.0000
     1.0000   1.0000   1.0000   1.0000   1.0000   1.0000   1.0000   1.0000
     1.0000   1.0000   1.0000   1.0000   1.0000   1.0000   1.0000   1.0000
     1.0000   1.0000   1.0000   1.0000   1.0000   1.0000   1.0000   1.0000
     1.0000   1.0000   1.0000   1.0000   1.0000   1.0000   1.0000   1.0000
     1.0000   1.0000   1.0000   1.0000   1.0000   1.0000   1.0000   1.0000
     1.0000   1.0000   1.0000   1.0000   1.0000   1.0000   1.0000   1.0000
     1.0000   1.0000   1.0000   1.0000   1.0000   1.0000   1.0000   1.0000
     1.0000   1.0000   1.0000   1.0000   1.0000   1.0000   1.0000   1.0000
     1.0000   1.0000   1.0000   1.0000   1.0000   1.0000   1.0000   1.0000
     1.0000   1.0000   1.0000   1.0000   1.0000   1.0000   1.0000   1.0000
     1.0000   1.0000   1.0000   1.0000   1.0000   1.0000   1.0000   1.0000
     1.0000   1.0000   1.0000   1.0000   1.0000   1.0000   1.0000   1.0000
     1.0000   1.0000   1.0000   1.0000   1.0000   1.0000   1.0000   1.0000
     1.0000   1.0000   1.0000   1.0000   1.0000   1.0000   1.0000   1.0000
     1.0000   1.0000   1.0000   1.0000   1.0000   1.0000   1.0000   1.0000
     1.0000   1.0000   1.0000   1.0000   1.0000   1.0000   1.0000   1.0000
     1.0000   1.0000   1.0000   1.0000   1.0000   1.0000   1.0000   1.0000
     1.0000   1.0000   1.0000   1.0000   1.0000   1.0000   1.0000   1.0000
     1.0000   1.0000   1.0000   1.0000   1.0000   1.0000   1.0000   1.0000
     1.0000   1.0000   1.0000   1.0000   1.0000   1.0000   1.0000   1.0000
     1.0000   1.0000   1.0000   1.0000   1.0000   1.0000   1.0000   1.0000
     1.0000   1.0000   1.0000   1.0000   1.0000   1.0000   1.0000   1.0000
     1.0000   1.0000   1.0000   1.0000   1.0000   1.0000   1.0000   1.0000
     1.0000   1.0000   1.0000   1.0000   1.0000   1.0000   1.0000   1.0000
     0.0000   0.0000   0.0000   0.0000   0.0000   0.0000   0.0000   0.0000
     0.0000   0.0000   0.0000   0.0000   0.0000   0.0000   0.0000   0.0000
     0.0000   0.0000   0.0000   0.0000   0.0000   0.0000   0.0000   0.0000
     0.0000   0.0000   0.0000   0.0000   0.0000   0.0000   0.0000   0.0000
     0.0000   0.0000   0.0000   0.0000   0.0000   0.0000   0.0000   0.0000
     0.0000   0.0000   0.0000   0.0000   0.0000   0.0000   0.0000   0.0000
     0.0000   0.0000   0.0000   0.0000   0.0000   0.0000   0.0000   0.0000
     0.0000   0.0000   0.0000   0.0000   0.0000   0.0000   0.0000   0.0000
     0.0000   0.0000   0.0000   0.0000   0.0000   0.0000   0.0000   0.0000
     0.0000   0.0000   0.0000   0.0000   0.0000   0.0000   0.0000   0.0000
     0.0000   0.0000   0.0000   0.0000   0.0000   0.0000   0.0000   0.0000
     0.0000   0.0000   0.0000   0.0000   0.0000   0.0000   0.0000   0.0000

          k = 0.0000-0.5774 0.0000 ( 64842 PWs)   bands (ev):

  -125.0275-125.0274-125.0266-125.0266-125.0254-125.0254-125.0254-125.0253
  -125.0250-125.0250-125.0245-125.0245-125.0245-125.0244-125.0241-125.0241
  -124.8514-124.8514-124.8514-124.8513-124.8506-124.8505-124.8505-124.8505
  -124.8493-124.8493-124.8493-124.8493-124.8493-124.8493-124.8493-124.8493
  -124.8490-124.8489-124.8489-124.8489-124.8485-124.8485-124.8485-124.8485
  -124.8484-124.8484-124.8484-124.8483-124.8481-124.8481-124.8480-124.8480
   -79.1911 -79.1911 -79.1911 -79.1911 -79.1886 -79.1886 -79.1876 -79.1876
   -79.1831 -79.1831 -79.1831 -79.1831 -79.1782 -79.1782 -79.1767 -79.1767
   -79.1757 -79.1757 -79.1743 -79.1743 -79.1743 -79.1742 -79.1739 -79.1738
   -79.1733 -79.1733 -79.1733 -79.1732 -79.1729 -79.1728 -79.1716 -79.1716
   -79.1700 -79.1700 -79.1700 -79.1700 -79.1667 -79.1667 -79.1667 -79.1667
   -79.1659 -79.1658 -79.1631 -79.1631 -79.1621 -79.1621 -79.1592 -79.1592
   -79.0119 -79.0119 -79.0119 -79.0119 -79.0118 -79.0118 -79.0118 -79.0118
   -79.0094 -79.0094 -79.0094 -79.0093 -79.0087 -79.0087 -79.0085 -79.0085
   -79.0084 -79.0084 -79.0083 -79.0083 -79.0077 -79.0077 -79.0076 -79.0076
   -79.0063 -79.0063 -79.0063 -79.0063 -79.0063 -79.0063 -79.0063 -79.0062
   -79.0059 -79.0059 -79.0059 -79.0058 -79.0054 -79.0054 -79.0054 -79.0054
   -79.0054 -79.0053 -79.0053 -79.0053 -79.0050 -79.0050 -79.0049 -79.0049
   -79.0039 -79.0039 -79.0039 -79.0039 -79.0038 -79.0038 -79.0038 -79.0038
   -78.9990 -78.9990 -78.9989 -78.9989 -78.9924 -78.9924 -78.9924 -78.9923
   -78.9909 -78.9909 -78.9909 -78.9909 -78.9908 -78.9908 -78.9908 -78.9908
   -78.9875 -78.9875 -78.9875 -78.9875 -78.9875 -78.9875 -78.9875 -78.9875
   -78.9867 -78.9867 -78.9867 -78.9866 -78.9840 -78.9839 -78.9839 -78.9839
   -78.9830 -78.9829 -78.9829 -78.9829 -78.9801 -78.9800 -78.9800 -78.9800
    -8.1264  -8.1264  -7.2877  -7.2877  -7.0104  -7.0104  -6.8372  -6.8372
    -6.8221  -6.8220  -6.7117  -6.7117  -6.7117  -6.7117  -6.6316  -6.6316
    -6.6121  -6.6121  -6.6121  -6.6120  -6.6088  -6.6088  -6.5794  -6.5794
    -6.5794  -6.5794  -6.5243  -6.5243  -6.5132  -6.5132  -6.5132  -6.5131
    -6.4871  -6.4871  -6.4582  -6.4582  -6.4582  -6.4582  -6.4413  -6.4413
    -6.4413  -6.4413  -6.4376  -6.4376  -6.4181  -6.4181  -6.4043  -6.4043
    -6.4043  -6.4043  -6.3895  -6.3895  -6.2896  -6.2896  -6.2769  -6.2769
    -6.2769  -6.2769  -6.2718  -6.2718  -6.2633  -6.2633  -6.2523  -6.2522
    -6.2522  -6.2522  -6.2105  -6.2105  -6.2015  -6.2015  -6.2015  -6.2015
    -6.1772  -6.1772  -6.1763  -6.1763  -6.1329  -6.1329  -6.1226  -6.1226
    -6.0972  -6.0972  -6.0833  -6.0833  -6.0644  -6.0644  -6.0644  -6.0644
    -6.0304  -6.0304  -6.0304  -6.0304  -6.0278  -6.0278  -6.0176  -6.0176
    -6.0079  -6.0078  -6.0035  -6.0035  -5.9718  -5.9718  -5.9718  -5.9718
    -5.9692  -5.9692  -5.9327  -5.9327  -5.9212  -5.9212  -5.8972  -5.8972
    -5.8905  -5.8905  -5.8434  -5.8434  -5.8433  -5.8433  -5.7991  -5.7991
    -5.7904  -5.7904  -5.7904  -5.7904  -5.7867  -5.7867  -5.7725  -5.7725
    -5.7724  -5.7723  -5.7685  -5.7685  -5.7523  -5.7523  -5.7523  -5.7523
    -5.7493  -5.7493  -5.7493  -5.7493  -5.7469  -5.7469  -5.7303  -5.7303
    -5.7303  -5.7303  -5.7183  -5.7183  -5.6610  -5.6610  -5.6593  -5.6593
    -5.6451  -5.6451  -5.6256  -5.6256  -5.6256  -5.6256  -5.6110  -5.6110
    -5.5997  -5.5997  -5.5875  -5.5874  -5.5874  -5.5874  -5.5767  -5.5767
    -5.5562  -5.5562  -5.5214  -5.5214  -5.5142  -5.5142  -5.5142  -5.5142
    -5.5070  -5.5070  -5.5064  -5.5064  -5.5053  -5.5053  -5.5053  -5.5053
    -5.4817  -5.4817  -5.4817  -5.4817  -5.4771  -5.4771  -5.4738  -5.4738
    -5.4669  -5.4669  -5.4658  -5.4658  -5.4471  -5.4471  -5.4471  -5.4471
    -5.4364  -5.4364  -5.4364  -5.4364  -5.4263  -5.4263  -5.4051  -5.4051
    -5.3964  -5.3964  -5.3908  -5.3907  -5.3898  -5.3898  -5.3898  -5.3898
    -5.3898  -5.3898  -5.3885  -5.3885  -5.3622  -5.3622  -5.3548  -5.3548
    -5.3387  -5.3387  -5.3387  -5.3387  -5.3098  -5.3098  -5.3098  -5.3098
    -5.2411  -5.2411  -5.2411  -5.2411  -5.2169  -5.2169  -5.2169  -5.2169
    -5.2135  -5.2135  -5.1891  -5.1891  -5.1863  -5.1863  -4.6834  -4.6834
    -4.3931  -4.3931  -4.3931  -4.3931  -3.7015  -3.7015  -3.0945  -3.0945
    -3.0451  -3.0451  -3.0451  -3.0451  -2.3743  -2.3743  -2.2235  -2.2235
    -1.7300  -1.7300  -1.7300  -1.7300  -0.7368  -0.7368  -0.7368  -0.7368
    -0.3094  -0.3094  -0.3094  -0.3094  -0.0763  -0.0763   0.0322   0.0322
     1.0515   1.0515   1.0637   1.0637   1.3637   1.3637   1.3929   1.3929
     1.3929   1.3929   2.2398   2.2398   2.9240   2.9240   2.9240   2.9240
     3.1165   3.1165   3.1166   3.1166   3.3383   3.3383   3.5650   3.5650
     3.8831   3.8831   3.8831   3.8831   4.0137   4.0137   4.2856   4.2856
     4.4563   4.4563   4.7650   4.7650   4.8853   4.8853   5.5018   5.5018
     5.5210   5.5210   5.7163   5.7163   5.8163   5.8163   5.9436   5.9436
     5.9436   5.9436   6.0009   6.0009   6.0009   6.0009   6.1638   6.1638
     6.1638   6.1638   6.4228   6.4228   6.5760   6.5760   6.6347   6.6347
     6.6572   6.6572   6.8422   6.8422   6.8766   6.8766   7.0405   7.0406
     7.0406   7.0406   7.5799   7.5799   7.7398   7.7398   8.0781   8.0781
     8.0929   8.0929   8.0929   8.0929   8.2955   8.2955   8.4679   8.4679
     8.4679   8.4679   8.6352   8.6352   8.6352   8.6352   8.6623   8.6623
     8.7548   8.7548   8.8099   8.8099   9.0106   9.0106   9.0106   9.0106

     occupation numbers 
     1.0000   1.0000   1.0000   1.0000   1.0000   1.0000   1.0000   1.0000
     1.0000   1.0000   1.0000   1.0000   1.0000   1.0000   1.0000   1.0000
     1.0000   1.0000   1.0000   1.0000   1.0000   1.0000   1.0000   1.0000
     1.0000   1.0000   1.0000   1.0000   1.0000   1.0000   1.0000   1.0000
     1.0000   1.0000   1.0000   1.0000   1.0000   1.0000   1.0000   1.0000
     1.0000   1.0000   1.0000   1.0000   1.0000   1.0000   1.0000   1.0000
     1.0000   1.0000   1.0000   1.0000   1.0000   1.0000   1.0000   1.0000
     1.0000   1.0000   1.0000   1.0000   1.0000   1.0000   1.0000   1.0000
     1.0000   1.0000   1.0000   1.0000   1.0000   1.0000   1.0000   1.0000
     1.0000   1.0000   1.0000   1.0000   1.0000   1.0000   1.0000   1.0000
     1.0000   1.0000   1.0000   1.0000   1.0000   1.0000   1.0000   1.0000
     1.0000   1.0000   1.0000   1.0000   1.0000   1.0000   1.0000   1.0000
     1.0000   1.0000   1.0000   1.0000   1.0000   1.0000   1.0000   1.0000
     1.0000   1.0000   1.0000   1.0000   1.0000   1.0000   1.0000   1.0000
     1.0000   1.0000   1.0000   1.0000   1.0000   1.0000   1.0000   1.0000
     1.0000   1.0000   1.0000   1.0000   1.0000   1.0000   1.0000   1.0000
     1.0000   1.0000   1.0000   1.0000   1.0000   1.0000   1.0000   1.0000
     1.0000   1.0000   1.0000   1.0000   1.0000   1.0000   1.0000   1.0000
     1.0000   1.0000   1.0000   1.0000   1.0000   1.0000   1.0000   1.0000
     1.0000   1.0000   1.0000   1.0000   1.0000   1.0000   1.0000   1.0000
     1.0000   1.0000   1.0000   1.0000   1.0000   1.0000   1.0000   1.0000
     1.0000   1.0000   1.0000   1.0000   1.0000   1.0000   1.0000   1.0000
     1.0000   1.0000   1.0000   1.0000   1.0000   1.0000   1.0000   1.0000
     1.0000   1.0000   1.0000   1.0000   1.0000   1.0000   1.0000   1.0000
     1.0000   1.0000   1.0000   1.0000   1.0000   1.0000   1.0000   1.0000
     1.0000   1.0000   1.0000   1.0000   1.0000   1.0000   1.0000   1.0000
     1.0000   1.0000   1.0000   1.0000   1.0000   1.0000   1.0000   1.0000
     1.0000   1.0000   1.0000   1.0000   1.0000   1.0000   1.0000   1.0000
     1.0000   1.0000   1.0000   1.0000   1.0000   1.0000   1.0000   1.0000
     1.0000   1.0000   1.0000   1.0000   1.0000   1.0000   1.0000   1.0000
     1.0000   1.0000   1.0000   1.0000   1.0000   1.0000   1.0000   1.0000
     1.0000   1.0000   1.0000   1.0000   1.0000   1.0000   1.0000   1.0000
     1.0000   1.0000   1.0000   1.0000   1.0000   1.0000   1.0000   1.0000
     1.0000   1.0000   1.0000   1.0000   1.0000   1.0000   1.0000   1.0000
     1.0000   1.0000   1.0000   1.0000   1.0000   1.0000   1.0000   1.0000
     1.0000   1.0000   1.0000   1.0000   1.0000   1.0000   1.0000   1.0000
     1.0000   1.0000   1.0000   1.0000   1.0000   1.0000   1.0000   1.0000
     1.0000   1.0000   1.0000   1.0000   1.0000   1.0000   1.0000   1.0000
     1.0000   1.0000   1.0000   1.0000   1.0000   1.0000   1.0000   1.0000
     1.0000   1.0000   1.0000   1.0000   1.0000   1.0000   1.0000   1.0000
     1.0000   1.0000   1.0000   1.0000   1.0000   1.0000   1.0000   1.0000
     1.0000   1.0000   1.0000   1.0000   1.0000   1.0000   1.0000   1.0000
     1.0000   1.0000   1.0000   1.0000   1.0000   1.0000   1.0000   1.0000
     1.0000   1.0000   1.0000   1.0000   1.0000   1.0000   1.0000   1.0000
     1.0000   1.0000   1.0000   1.0000   1.0000   1.0000   1.0000   1.0000
     1.0000   1.0000   1.0000   1.0000   1.0000   1.0000   1.0000   1.0000
     1.0000   1.0000   1.0000   1.0000   1.0000   1.0000   1.0000   1.0000
     1.0000   1.0000   1.0000   1.0000   1.0000   1.0000   1.0000   1.0000
     1.0000   1.0000   1.0000   1.0000   1.0000   1.0000   1.0000   1.0000
     1.0000   1.0000   1.0000   1.0000   1.0000   1.0000   1.0000   1.0000
     1.0000   1.0000   1.0000   1.0000   1.0000   1.0000   1.0000   1.0000
     1.0000   1.0000   1.0000   1.0000   1.0000   1.0000   1.0000   1.0000
     1.0000   1.0000   1.0000   1.0000   1.0000   1.0000   1.0000   1.0000
     1.0000   1.0000   1.0000   1.0000   1.0000   1.0000   1.0000   1.0000
     1.0000   1.0000   1.0000   1.0000   1.0000   1.0000   1.0000   1.0000
     1.0000   1.0000   1.0000   1.0000   1.0000   1.0000   1.0000   1.0000
     1.0000   1.0000   1.0000   1.0000   1.0000   1.0000   1.0000   1.0000
     1.0000   1.0000   1.0000   1.0000   1.0000   1.0000   1.0000   1.0000
     1.0000   1.0000   1.0000   1.0000   1.0000   1.0000   1.0000   1.0000
     1.0000   1.0000   1.0000   1.0000   1.0000   1.0000   1.0001   1.0001
     1.0001   1.0001   0.0000   0.0000   0.0000   0.0000   0.0000   0.0000
     0.0000   0.0000   0.0000   0.0000   0.0000   0.0000   0.0000   0.0000
     0.0000   0.0000   0.0000   0.0000   0.0000   0.0000   0.0000   0.0000
     0.0000   0.0000   0.0000   0.0000   0.0000   0.0000   0.0000   0.0000
     0.0000   0.0000   0.0000   0.0000   0.0000   0.0000   0.0000   0.0000
     0.0000   0.0000   0.0000   0.0000   0.0000   0.0000   0.0000   0.0000
     0.0000   0.0000   0.0000   0.0000   0.0000   0.0000   0.0000   0.0000
     0.0000   0.0000   0.0000   0.0000   0.0000   0.0000   0.0000   0.0000
     0.0000   0.0000   0.0000   0.0000   0.0000   0.0000   0.0000   0.0000
     0.0000   0.0000   0.0000   0.0000   0.0000   0.0000   0.0000   0.0000
     0.0000   0.0000   0.0000   0.0000   0.0000   0.0000   0.0000   0.0000
     0.0000   0.0000   0.0000   0.0000   0.0000   0.0000   0.0000   0.0000

          k = 0.2500 0.1443 0.0000 ( 64808 PWs)   bands (ev):

  -125.0278-125.0269-125.0265-125.0265-125.0258-125.0258-125.0256-125.0249
  -125.0249-125.0246-125.0245-125.0245-125.0245-125.0244-125.0242-125.0242
  -124.8518-124.8517-124.8509-124.8508-124.8505-124.8505-124.8504-124.8504
  -124.8498-124.8498-124.8498-124.8497-124.8495-124.8495-124.8489-124.8489
  -124.8488-124.8488-124.8486-124.8485-124.8485-124.8485-124.8485-124.8484
  -124.8484-124.8484-124.8483-124.8483-124.8482-124.8482-124.8481-124.8481
   -79.1931 -79.1931 -79.1925 -79.1886 -79.1886 -79.1877 -79.1876 -79.1857
   -79.1857 -79.1828 -79.1796 -79.1796 -79.1771 -79.1769 -79.1769 -79.1760
   -79.1756 -79.1756 -79.1748 -79.1748 -79.1745 -79.1738 -79.1737 -79.1734
   -79.1733 -79.1733 -79.1733 -79.1732 -79.1730 -79.1730 -79.1728 -79.1728
   -79.1725 -79.1725 -79.1702 -79.1702 -79.1690 -79.1680 -79.1680 -79.1669
   -79.1643 -79.1640 -79.1640 -79.1621 -79.1621 -79.1607 -79.1592 -79.1582
   -79.0139 -79.0139 -79.0139 -79.0138 -79.0133 -79.0132 -79.0093 -79.0093
   -79.0093 -79.0093 -79.0091 -79.0089 -79.0084 -79.0084 -79.0084 -79.0084
   -79.0080 -79.0079 -79.0076 -79.0076 -79.0075 -79.0075 -79.0069 -79.0069
   -79.0068 -79.0068 -79.0066 -79.0065 -79.0065 -79.0065 -79.0065 -79.0065
   -79.0058 -79.0058 -79.0058 -79.0057 -79.0055 -79.0055 -79.0054 -79.0054
   -79.0054 -79.0054 -79.0053 -79.0053 -79.0053 -79.0053 -79.0051 -79.0051
   -79.0050 -79.0050 -79.0036 -79.0035 -79.0004 -79.0004 -79.0003 -79.0003
   -78.9977 -78.9977 -78.9977 -78.9977 -78.9937 -78.9936 -78.9936 -78.9936
   -78.9934 -78.9934 -78.9933 -78.9933 -78.9910 -78.9910 -78.9910 -78.9910
   -78.9898 -78.9897 -78.9888 -78.9888 -78.9888 -78.9888 -78.9877 -78.9877
   -78.9852 -78.9851 -78.9849 -78.9849 -78.9848 -78.9848 -78.9829 -78.9829
   -78.9829 -78.9829 -78.9816 -78.9815 -78.9800 -78.9800 -78.9790 -78.9790
    -8.4744  -7.5908  -7.2853  -7.2188  -7.2188  -7.0033  -6.8599  -6.8337
    -6.8337  -6.8145  -6.8139  -6.8139  -6.6846  -6.6742  -6.6683  -6.6683
    -6.6481  -6.6471  -6.6237  -6.6237  -6.5700  -6.5593  -6.5483  -6.5483
    -6.5304  -6.5304  -6.5239  -6.5239  -6.5099  -6.5099  -6.4939  -6.4900
    -6.4900  -6.4876  -6.4876  -6.4872  -6.4872  -6.4657  -6.4657  -6.4545
    -6.4545  -6.4289  -6.4289  -6.3866  -6.3866  -6.3766  -6.3766  -6.3589
    -6.3589  -6.3518  -6.3032  -6.2987  -6.2987  -6.2948  -6.2948  -6.2922
    -6.2922  -6.2548  -6.2548  -6.2344  -6.2309  -6.2025  -6.2025  -6.1953
    -6.1953  -6.1949  -6.1949  -6.1932  -6.1932  -6.1907  -6.1842  -6.1842
    -6.1783  -6.1783  -6.1580  -6.1580  -6.1566  -6.1566  -6.1516  -6.1269
    -6.1028  -6.1028  -6.0999  -6.0999  -6.0982  -6.0777  -6.0777  -6.0750
    -6.0750  -6.0633  -6.0531  -6.0421  -6.0421  -6.0201  -6.0201  -6.0184
    -6.0183  -5.9460  -5.9460  -5.9320  -5.9320  -5.9298  -5.9259  -5.9235
    -5.9226  -5.9192  -5.9192  -5.9002  -5.8964  -5.8964  -5.8940  -5.8940
    -5.8767  -5.8767  -5.8752  -5.8626  -5.8561  -5.8514  -5.8514  -5.8417
    -5.8222  -5.8221  -5.8144  -5.8144  -5.7926  -5.7896  -5.7791  -5.7791
    -5.7742  -5.7742  -5.7659  -5.7659  -5.7556  -5.7556  -5.7546  -5.7545
    -5.7430  -5.7273  -5.7273  -5.7176  -5.7176  -5.7140  -5.7067  -5.7067
    -5.6926  -5.6926  -5.6926  -5.6910  -5.6910  -5.6836  -5.6835  -5.6741
    -5.6741  -5.6705  -5.6705  -5.6655  -5.6503  -5.6503  -5.6446  -5.6232
    -5.6203  -5.6203  -5.6135  -5.6135  -5.6030  -5.6030  -5.6012  -5.6012
    -5.5963  -5.5922  -5.5858  -5.5858  -5.5833  -5.5513  -5.5469  -5.5457
    -5.5457  -5.5377  -5.5376  -5.5334  -5.5334  -5.5293  -5.5293  -5.5233
    -5.5233  -5.5190  -5.5140  -5.5118  -5.5118  -5.5036  -5.5036  -5.4970
    -5.4970  -5.4780  -5.4780  -5.4412  -5.4405  -5.4360  -5.4360  -5.4340
    -5.4340  -5.4339  -5.4339  -5.4266  -5.4266  -5.4125  -5.4113  -5.4110
    -5.4110  -5.4051  -5.4026  -5.3976  -5.3876  -5.3876  -5.3826  -5.3826
    -5.3766  -5.3711  -5.3711  -5.3638  -5.3534  -5.3534  -5.3492  -5.3408
    -5.3288  -5.3228  -5.3228  -5.3189  -5.2969  -5.2969  -5.2870  -5.2870
    -5.2826  -5.2826  -5.2736  -5.2695  -5.2695  -5.2602  -5.2602  -5.1233
    -5.1233  -5.1171  -5.1171  -5.1111  -5.1111  -5.0933  -5.0926  -4.9273
    -4.9107  -4.6198  -4.6198  -3.8640  -3.8640  -3.4632  -3.3669  -3.3669
    -3.3498  -2.6568  -2.2846  -2.2846  -2.1942  -1.9935  -1.9935  -1.9552
    -1.9552  -1.4969  -1.4969  -1.2639  -1.2639  -1.0987  -0.7789  -0.5450
    -0.5449  -0.5449  -0.5449  -0.5385   0.0398   0.0398   0.2877   0.2877
     0.5859   0.5859   0.6477   0.8994   0.9143   0.9143   1.1980   1.1980
     1.5760   1.5760   2.2410   2.2410   2.6712   2.7195   2.7195   2.7358
     2.7989   2.7989   2.9708   2.9709   3.2299   3.5631   3.7148   3.7148
     3.9359   3.9359   4.1215   4.1999   4.1999   4.5653   4.5653   4.8193
     4.8193   4.8594   4.8594   5.1772   5.1772   5.1796   5.1796   5.1823
     5.3715   5.4349   5.4349   5.5820   5.6601   5.8073   5.8073   5.8167
     6.0846   6.1215   6.1215   6.2904   6.3095   6.3266   6.3266   6.5049
     6.5345   6.5345   6.6108   6.6108   6.7367   6.7492   6.7492   7.0278
     7.0278   7.1007   7.1007   7.1822   7.1822   7.2343   7.3295   7.3295
     7.4032   7.4198   7.4198   7.4707   7.4707   7.6594   7.6594   7.6724
     7.6724   7.6938   7.6938   7.7451   7.8504   7.8504   7.9729   7.9729
     8.0494   8.0494   8.1246   8.3164   8.3179   8.4758   8.6312   8.6313
     8.7034   8.7034   8.7066   8.8254   8.8254   8.8371   8.8371   8.8528

     occupation numbers 
     1.0000   1.0000   1.0000   1.0000   1.0000   1.0000   1.0000   1.0000
     1.0000   1.0000   1.0000   1.0000   1.0000   1.0000   1.0000   1.0000
     1.0000   1.0000   1.0000   1.0000   1.0000   1.0000   1.0000   1.0000
     1.0000   1.0000   1.0000   1.0000   1.0000   1.0000   1.0000   1.0000
     1.0000   1.0000   1.0000   1.0000   1.0000   1.0000   1.0000   1.0000
     1.0000   1.0000   1.0000   1.0000   1.0000   1.0000   1.0000   1.0000
     1.0000   1.0000   1.0000   1.0000   1.0000   1.0000   1.0000   1.0000
     1.0000   1.0000   1.0000   1.0000   1.0000   1.0000   1.0000   1.0000
     1.0000   1.0000   1.0000   1.0000   1.0000   1.0000   1.0000   1.0000
     1.0000   1.0000   1.0000   1.0000   1.0000   1.0000   1.0000   1.0000
     1.0000   1.0000   1.0000   1.0000   1.0000   1.0000   1.0000   1.0000
     1.0000   1.0000   1.0000   1.0000   1.0000   1.0000   1.0000   1.0000
     1.0000   1.0000   1.0000   1.0000   1.0000   1.0000   1.0000   1.0000
     1.0000   1.0000   1.0000   1.0000   1.0000   1.0000   1.0000   1.0000
     1.0000   1.0000   1.0000   1.0000   1.0000   1.0000   1.0000   1.0000
     1.0000   1.0000   1.0000   1.0000   1.0000   1.0000   1.0000   1.0000
     1.0000   1.0000   1.0000   1.0000   1.0000   1.0000   1.0000   1.0000
     1.0000   1.0000   1.0000   1.0000   1.0000   1.0000   1.0000   1.0000
     1.0000   1.0000   1.0000   1.0000   1.0000   1.0000   1.0000   1.0000
     1.0000   1.0000   1.0000   1.0000   1.0000   1.0000   1.0000   1.0000
     1.0000   1.0000   1.0000   1.0000   1.0000   1.0000   1.0000   1.0000
     1.0000   1.0000   1.0000   1.0000   1.0000   1.0000   1.0000   1.0000
     1.0000   1.0000   1.0000   1.0000   1.0000   1.0000   1.0000   1.0000
     1.0000   1.0000   1.0000   1.0000   1.0000   1.0000   1.0000   1.0000
     1.0000   1.0000   1.0000   1.0000   1.0000   1.0000   1.0000   1.0000
     1.0000   1.0000   1.0000   1.0000   1.0000   1.0000   1.0000   1.0000
     1.0000   1.0000   1.0000   1.0000   1.0000   1.0000   1.0000   1.0000
     1.0000   1.0000   1.0000   1.0000   1.0000   1.0000   1.0000   1.0000
     1.0000   1.0000   1.0000   1.0000   1.0000   1.0000   1.0000   1.0000
     1.0000   1.0000   1.0000   1.0000   1.0000   1.0000   1.0000   1.0000
     1.0000   1.0000   1.0000   1.0000   1.0000   1.0000   1.0000   1.0000
     1.0000   1.0000   1.0000   1.0000   1.0000   1.0000   1.0000   1.0000
     1.0000   1.0000   1.0000   1.0000   1.0000   1.0000   1.0000   1.0000
     1.0000   1.0000   1.0000   1.0000   1.0000   1.0000   1.0000   1.0000
     1.0000   1.0000   1.0000   1.0000   1.0000   1.0000   1.0000   1.0000
     1.0000   1.0000   1.0000   1.0000   1.0000   1.0000   1.0000   1.0000
     1.0000   1.0000   1.0000   1.0000   1.0000   1.0000   1.0000   1.0000
     1.0000   1.0000   1.0000   1.0000   1.0000   1.0000   1.0000   1.0000
     1.0000   1.0000   1.0000   1.0000   1.0000   1.0000   1.0000   1.0000
     1.0000   1.0000   1.0000   1.0000   1.0000   1.0000   1.0000   1.0000
     1.0000   1.0000   1.0000   1.0000   1.0000   1.0000   1.0000   1.0000
     1.0000   1.0000   1.0000   1.0000   1.0000   1.0000   1.0000   1.0000
     1.0000   1.0000   1.0000   1.0000   1.0000   1.0000   1.0000   1.0000
     1.0000   1.0000   1.0000   1.0000   1.0000   1.0000   1.0000   1.0000
     1.0000   1.0000   1.0000   1.0000   1.0000   1.0000   1.0000   1.0000
     1.0000   1.0000   1.0000   1.0000   1.0000   1.0000   1.0000   1.0000
     1.0000   1.0000   1.0000   1.0000   1.0000   1.0000   1.0000   1.0000
     1.0000   1.0000   1.0000   1.0000   1.0000   1.0000   1.0000   1.0000
     1.0000   1.0000   1.0000   1.0000   1.0000   1.0000   1.0000   1.0000
     1.0000   1.0000   1.0000   1.0000   1.0000   1.0000   1.0000   1.0000
     1.0000   1.0000   1.0000   1.0000   1.0000   1.0000   1.0000   1.0000
     1.0000   1.0000   1.0000   1.0000   1.0000   1.0000   1.0000   1.0000
     1.0000   1.0000   1.0000   1.0000   1.0000   1.0000   1.0000   1.0000
     1.0000   1.0000   1.0000   1.0000   1.0000   1.0000   1.0000   1.0000
     1.0000   1.0000   1.0000   1.0000   1.0000   1.0000   1.0000   1.0000
     1.0000   1.0000   1.0000   1.0000   1.0000   1.0000   1.0000   1.0000
     1.0000   1.0000   1.0000   1.0000   1.0000   1.0000   1.0000   1.0000
     1.0000   1.0000   1.0000   1.0000   1.0000   1.0000   1.0000   1.0000
     1.0000   1.0000   1.0000   1.0000   1.0000   1.0000   1.0000   1.0000
     1.0000   1.0000   1.0000   1.0000   1.0000   1.0000   1.0000   1.0000
     0.0000   0.0000   0.0000   0.0000   0.0000   0.0000   0.0000   0.0000
     0.0000   0.0000   0.0000   0.0000   0.0000   0.0000   0.0000   0.0000
     0.0000   0.0000   0.0000   0.0000   0.0000   0.0000   0.0000   0.0000
     0.0000   0.0000   0.0000   0.0000   0.0000   0.0000   0.0000   0.0000
     0.0000   0.0000   0.0000   0.0000   0.0000   0.0000   0.0000   0.0000
     0.0000   0.0000   0.0000   0.0000   0.0000   0.0000   0.0000   0.0000
     0.0000   0.0000   0.0000   0.0000   0.0000   0.0000   0.0000   0.0000
     0.0000   0.0000   0.0000   0.0000   0.0000   0.0000   0.0000   0.0000
     0.0000   0.0000   0.0000   0.0000   0.0000   0.0000   0.0000   0.0000
     0.0000   0.0000   0.0000   0.0000   0.0000   0.0000   0.0000   0.0000
     0.0000   0.0000   0.0000   0.0000   0.0000   0.0000   0.0000   0.0000
     0.0000   0.0000   0.0000   0.0000   0.0000   0.0000   0.0000   0.0000

          k = 0.2500 0.4330 0.0000 ( 64876 PWs)   bands (ev):

  -125.0276-125.0272-125.0271-125.0260-125.0260-125.0254-125.0253-125.0252
  -125.0249-125.0248-125.0247-125.0247-125.0244-125.0243-125.0242-125.0241
  -124.8515-124.8515-124.8511-124.8511-124.8510-124.8510-124.8499-124.8499
  -124.8499-124.8499-124.8494-124.8493-124.8492-124.8492-124.8491-124.8491
  -124.8488-124.8488-124.8488-124.8487-124.8487-124.8487-124.8487-124.8486
  -124.8483-124.8483-124.8483-124.8482-124.8482-124.8481-124.8480-124.8480
   -79.1922 -79.1906 -79.1906 -79.1901 -79.1900 -79.1879 -79.1879 -79.1858
   -79.1858 -79.1854 -79.1819 -79.1810 -79.1774 -79.1774 -79.1768 -79.1763
   -79.1762 -79.1750 -79.1750 -79.1743 -79.1742 -79.1741 -79.1739 -79.1739
   -79.1737 -79.1736 -79.1736 -79.1736 -79.1731 -79.1731 -79.1730 -79.1728
   -79.1705 -79.1687 -79.1686 -79.1673 -79.1672 -79.1672 -79.1666 -79.1666
   -79.1659 -79.1658 -79.1644 -79.1644 -79.1618 -79.1603 -79.1603 -79.1589
   -79.0130 -79.0129 -79.0113 -79.0113 -79.0113 -79.0113 -79.0108 -79.0108
   -79.0108 -79.0107 -79.0088 -79.0087 -79.0087 -79.0086 -79.0086 -79.0086
   -79.0083 -79.0082 -79.0082 -79.0081 -79.0070 -79.0070 -79.0069 -79.0069
   -79.0066 -79.0066 -79.0066 -79.0065 -79.0064 -79.0063 -79.0062 -79.0062
   -79.0061 -79.0061 -79.0061 -79.0060 -79.0058 -79.0057 -79.0057 -79.0057
   -79.0057 -79.0057 -79.0056 -79.0056 -79.0053 -79.0052 -79.0052 -79.0051
   -79.0051 -79.0050 -79.0049 -79.0048 -79.0026 -79.0026 -79.0018 -79.0018
   -78.9982 -78.9982 -78.9981 -78.9981 -78.9947 -78.9947 -78.9947 -78.9946
   -78.9913 -78.9913 -78.9896 -78.9895 -78.9895 -78.9894 -78.9881 -78.9881
   -78.9881 -78.9880 -78.9880 -78.9880 -78.9874 -78.9874 -78.9874 -78.9874
   -78.9867 -78.9867 -78.9867 -78.9866 -78.9852 -78.9852 -78.9852 -78.9852
   -78.9826 -78.9826 -78.9811 -78.9811 -78.9811 -78.9811 -78.9798 -78.9797
    -8.2406  -7.7938  -7.7937  -7.0966  -6.8878  -6.8019  -6.8019  -6.7770
    -6.7769  -6.7747  -6.7747  -6.7603  -6.7603  -6.7307  -6.7002  -6.7001
    -6.6609  -6.6608  -6.6315  -6.6315  -6.5960  -6.5940  -6.5940  -6.5670
    -6.5669  -6.5644  -6.5644  -6.5504  -6.5504  -6.5315  -6.5314  -6.5285
    -6.5034  -6.5034  -6.4748  -6.4747  -6.4505  -6.4505  -6.4449  -6.4310
    -6.4310  -6.4221  -6.4078  -6.3944  -6.3944  -6.3835  -6.3835  -6.3814
    -6.3814  -6.3798  -6.3615  -6.3531  -6.3530  -6.2874  -6.2874  -6.2820
    -6.2781  -6.2781  -6.2602  -6.2579  -6.2563  -6.2563  -6.2431  -6.2430
    -6.2428  -6.2303  -6.2302  -6.2217  -6.2168  -6.2102  -6.2102  -6.2059
    -6.2059  -6.1844  -6.1844  -6.1500  -6.1500  -6.1323  -6.1273  -6.1241
    -6.1241  -6.1157  -6.0940  -6.0940  -6.0824  -6.0823  -6.0765  -6.0698
    -6.0407  -6.0407  -6.0283  -6.0283  -6.0261  -6.0070  -6.0070  -5.9932
    -5.9777  -5.9765  -5.9765  -5.9764  -5.9664  -5.9664  -5.9569  -5.9569
    -5.9549  -5.9549  -5.9424  -5.9318  -5.9292  -5.8913  -5.8858  -5.8857
    -5.8792  -5.8761  -5.8761  -5.8737  -5.8711  -5.8711  -5.8574  -5.8497
    -5.8497  -5.8292  -5.8292  -5.8211  -5.8211  -5.8174  -5.8173  -5.8055
    -5.8054  -5.7971  -5.7971  -5.7959  -5.7815  -5.7653  -5.7653  -5.7565
    -5.7405  -5.7405  -5.7302  -5.7302  -5.7293  -5.7282  -5.6865  -5.6865
    -5.6814  -5.6814  -5.6698  -5.6698  -5.6391  -5.6375  -5.6374  -5.6351
    -5.6351  -5.6260  -5.6098  -5.6098  -5.6020  -5.6013  -5.6012  -5.5782
    -5.5782  -5.5774  -5.5699  -5.5699  -5.5642  -5.5641  -5.5637  -5.5637
    -5.5630  -5.5629  -5.5571  -5.5570  -5.5453  -5.5453  -5.5334  -5.5334
    -5.5324  -5.5299  -5.5299  -5.5243  -5.5243  -5.5233  -5.4937  -5.4937
    -5.4905  -5.4905  -5.4867  -5.4853  -5.4849  -5.4661  -5.4661  -5.4652
    -5.4652  -5.4651  -5.4543  -5.4470  -5.4470  -5.4379  -5.4378  -5.4371
    -5.4371  -5.4346  -5.4345  -5.4253  -5.4253  -5.4246  -5.4246  -5.4163
    -5.4163  -5.4079  -5.4059  -5.4059  -5.3945  -5.3943  -5.3943  -5.3869
    -5.3802  -5.3705  -5.3705  -5.3591  -5.3503  -5.3503  -5.3426  -5.3405
    -5.3391  -5.3391  -5.3204  -5.3068  -5.3068  -5.2926  -5.2926  -5.2628
    -5.2627  -5.2602  -5.2581  -5.2581  -5.2520  -5.2520  -5.2444  -5.2139
    -5.1735  -5.1735  -5.1704  -5.1704  -5.1240  -5.1240  -5.0441  -5.0441
    -4.4312  -4.2072  -4.2071  -4.0267  -4.0267  -3.2180  -3.2180  -3.1797
    -3.1285  -2.8499  -2.8499  -2.8332  -2.8331  -2.7641  -2.7641  -1.7799
    -1.7799  -1.6837  -1.6837  -1.3972  -1.3972  -0.8266  -0.4572  -0.4571
    -0.3839  -0.3839  -0.2935  -0.2275   0.3200   0.3642   0.3643   0.4425
     0.4425   0.7196   0.7196   0.8051   0.9862   0.9862   1.1150   1.4423
     1.4423   1.9905   1.9905   2.5471   2.5681   2.8485   3.0003   3.1179
     3.3528   3.3528   3.3802   3.3802   3.4534   3.4615   3.4615   3.5948
     3.5948   3.6882   3.8996   3.8997   4.3899   4.3899   4.4076   4.4416
     4.4606   4.4606   4.5943   4.5943   4.8949   4.9524   5.1523   5.1523
     5.2289   5.2289   5.4081   5.4623   5.4623   5.4791   5.4791   5.6014
     5.8594   5.8594   6.0609   6.0609   6.0990   6.1392   6.1392   6.5414
     6.5513   6.5513   6.6606   6.6614   6.6614   6.7298   6.9651   7.0039
     7.0040   7.0142   7.0142   7.0213   7.0575   7.0575   7.1792   7.1792
     7.1914   7.1914   7.2073   7.2073   7.2317   7.2317   7.4366   7.4366
     8.0885   8.2259   8.2259   8.3444   8.3753   8.3775   8.3775   8.5170
     8.5170   8.5472   8.5674   8.5992   8.5992   8.6196   8.6196   8.6748
     8.6950   8.6950   8.6987   8.7677   8.7969   8.7969   9.0070   9.0071

     occupation numbers 
     1.0000   1.0000   1.0000   1.0000   1.0000   1.0000   1.0000   1.0000
     1.0000   1.0000   1.0000   1.0000   1.0000   1.0000   1.0000   1.0000
     1.0000   1.0000   1.0000   1.0000   1.0000   1.0000   1.0000   1.0000
     1.0000   1.0000   1.0000   1.0000   1.0000   1.0000   1.0000   1.0000
     1.0000   1.0000   1.0000   1.0000   1.0000   1.0000   1.0000   1.0000
     1.0000   1.0000   1.0000   1.0000   1.0000   1.0000   1.0000   1.0000
     1.0000   1.0000   1.0000   1.0000   1.0000   1.0000   1.0000   1.0000
     1.0000   1.0000   1.0000   1.0000   1.0000   1.0000   1.0000   1.0000
     1.0000   1.0000   1.0000   1.0000   1.0000   1.0000   1.0000   1.0000
     1.0000   1.0000   1.0000   1.0000   1.0000   1.0000   1.0000   1.0000
     1.0000   1.0000   1.0000   1.0000   1.0000   1.0000   1.0000   1.0000
     1.0000   1.0000   1.0000   1.0000   1.0000   1.0000   1.0000   1.0000
     1.0000   1.0000   1.0000   1.0000   1.0000   1.0000   1.0000   1.0000
     1.0000   1.0000   1.0000   1.0000   1.0000   1.0000   1.0000   1.0000
     1.0000   1.0000   1.0000   1.0000   1.0000   1.0000   1.0000   1.0000
     1.0000   1.0000   1.0000   1.0000   1.0000   1.0000   1.0000   1.0000
     1.0000   1.0000   1.0000   1.0000   1.0000   1.0000   1.0000   1.0000
     1.0000   1.0000   1.0000   1.0000   1.0000   1.0000   1.0000   1.0000
     1.0000   1.0000   1.0000   1.0000   1.0000   1.0000   1.0000   1.0000
     1.0000   1.0000   1.0000   1.0000   1.0000   1.0000   1.0000   1.0000
     1.0000   1.0000   1.0000   1.0000   1.0000   1.0000   1.0000   1.0000
     1.0000   1.0000   1.0000   1.0000   1.0000   1.0000   1.0000   1.0000
     1.0000   1.0000   1.0000   1.0000   1.0000   1.0000   1.0000   1.0000
     1.0000   1.0000   1.0000   1.0000   1.0000   1.0000   1.0000   1.0000
     1.0000   1.0000   1.0000   1.0000   1.0000   1.0000   1.0000   1.0000
     1.0000   1.0000   1.0000   1.0000   1.0000   1.0000   1.0000   1.0000
     1.0000   1.0000   1.0000   1.0000   1.0000   1.0000   1.0000   1.0000
     1.0000   1.0000   1.0000   1.0000   1.0000   1.0000   1.0000   1.0000
     1.0000   1.0000   1.0000   1.0000   1.0000   1.0000   1.0000   1.0000
     1.0000   1.0000   1.0000   1.0000   1.0000   1.0000   1.0000   1.0000
     1.0000   1.0000   1.0000   1.0000   1.0000   1.0000   1.0000   1.0000
     1.0000   1.0000   1.0000   1.0000   1.0000   1.0000   1.0000   1.0000
     1.0000   1.0000   1.0000   1.0000   1.0000   1.0000   1.0000   1.0000
     1.0000   1.0000   1.0000   1.0000   1.0000   1.0000   1.0000   1.0000
     1.0000   1.0000   1.0000   1.0000   1.0000   1.0000   1.0000   1.0000
     1.0000   1.0000   1.0000   1.0000   1.0000   1.0000   1.0000   1.0000
     1.0000   1.0000   1.0000   1.0000   1.0000   1.0000   1.0000   1.0000
     1.0000   1.0000   1.0000   1.0000   1.0000   1.0000   1.0000   1.0000
     1.0000   1.0000   1.0000   1.0000   1.0000   1.0000   1.0000   1.0000
     1.0000   1.0000   1.0000   1.0000   1.0000   1.0000   1.0000   1.0000
     1.0000   1.0000   1.0000   1.0000   1.0000   1.0000   1.0000   1.0000
     1.0000   1.0000   1.0000   1.0000   1.0000   1.0000   1.0000   1.0000
     1.0000   1.0000   1.0000   1.0000   1.0000   1.0000   1.0000   1.0000
     1.0000   1.0000   1.0000   1.0000   1.0000   1.0000   1.0000   1.0000
     1.0000   1.0000   1.0000   1.0000   1.0000   1.0000   1.0000   1.0000
     1.0000   1.0000   1.0000   1.0000   1.0000   1.0000   1.0000   1.0000
     1.0000   1.0000   1.0000   1.0000   1.0000   1.0000   1.0000   1.0000
     1.0000   1.0000   1.0000   1.0000   1.0000   1.0000   1.0000   1.0000
     1.0000   1.0000   1.0000   1.0000   1.0000   1.0000   1.0000   1.0000
     1.0000   1.0000   1.0000   1.0000   1.0000   1.0000   1.0000   1.0000
     1.0000   1.0000   1.0000   1.0000   1.0000   1.0000   1.0000   1.0000
     1.0000   1.0000   1.0000   1.0000   1.0000   1.0000   1.0000   1.0000
     1.0000   1.0000   1.0000   1.0000   1.0000   1.0000   1.0000   1.0000
     1.0000   1.0000   1.0000   1.0000   1.0000   1.0000   1.0000   1.0000
     1.0000   1.0000   1.0000   1.0000   1.0000   1.0000   1.0000   1.0000
     1.0000   1.0000   1.0000   1.0000   1.0000   1.0000   1.0000   1.0000
     1.0000   1.0000   1.0000   1.0000   1.0000   1.0000   1.0000   1.0000
     1.0000   1.0000   1.0000   1.0000   1.0000   1.0000   1.0000   1.0000
     1.0000   1.0000   1.0000   1.0000   1.0000   1.0000   1.0000   1.0000
     1.0000   1.0000   1.0000   1.0000   1.0000   1.0000   1.0000   0.4179
     0.4153   0.0000   0.0000   0.0000   0.0000   0.0000   0.0000   0.0000
     0.0000   0.0000   0.0000   0.0000   0.0000   0.0000   0.0000   0.0000
     0.0000   0.0000   0.0000   0.0000   0.0000   0.0000   0.0000   0.0000
     0.0000   0.0000   0.0000   0.0000   0.0000   0.0000   0.0000   0.0000
     0.0000   0.0000   0.0000   0.0000   0.0000   0.0000   0.0000   0.0000
     0.0000   0.0000   0.0000   0.0000   0.0000   0.0000   0.0000   0.0000
     0.0000   0.0000   0.0000   0.0000   0.0000   0.0000   0.0000   0.0000
     0.0000   0.0000   0.0000   0.0000   0.0000   0.0000   0.0000   0.0000
     0.0000   0.0000   0.0000   0.0000   0.0000   0.0000   0.0000   0.0000
     0.0000   0.0000   0.0000   0.0000   0.0000   0.0000   0.0000   0.0000
     0.0000   0.0000   0.0000   0.0000   0.0000   0.0000   0.0000   0.0000
     0.0000   0.0000   0.0000   0.0000   0.0000   0.0000   0.0000   0.0000

          k = 0.2500-0.4330 0.0000 ( 64876 PWs)   bands (ev):

  -125.0276-125.0271-125.0271-125.0260-125.0260-125.0254-125.0252-125.0252
  -125.0249-125.0248-125.0247-125.0247-125.0244-125.0243-125.0242-125.0241
  -124.8516-124.8515-124.8511-124.8511-124.8510-124.8510-124.8500-124.8499
  -124.8499-124.8499-124.8494-124.8493-124.8492-124.8492-124.8491-124.8491
  -124.8488-124.8488-124.8488-124.8487-124.8487-124.8487-124.8487-124.8486
  -124.8483-124.8483-124.8483-124.8482-124.8482-124.8481-124.8480-124.8480
   -79.1922 -79.1906 -79.1906 -79.1900 -79.1900 -79.1879 -79.1879 -79.1858
   -79.1858 -79.1854 -79.1819 -79.1810 -79.1774 -79.1773 -79.1768 -79.1763
   -79.1762 -79.1750 -79.1750 -79.1743 -79.1741 -79.1741 -79.1739 -79.1739
   -79.1737 -79.1737 -79.1736 -79.1735 -79.1731 -79.1730 -79.1730 -79.1728
   -79.1705 -79.1687 -79.1687 -79.1673 -79.1672 -79.1672 -79.1666 -79.1666
   -79.1659 -79.1658 -79.1644 -79.1644 -79.1618 -79.1603 -79.1603 -79.1589
   -79.0130 -79.0129 -79.0113 -79.0113 -79.0113 -79.0113 -79.0108 -79.0108
   -79.0108 -79.0108 -79.0088 -79.0087 -79.0087 -79.0086 -79.0086 -79.0086
   -79.0083 -79.0083 -79.0081 -79.0081 -79.0070 -79.0070 -79.0069 -79.0069
   -79.0066 -79.0066 -79.0066 -79.0065 -79.0064 -79.0063 -79.0062 -79.0062
   -79.0061 -79.0061 -79.0061 -79.0061 -79.0058 -79.0057 -79.0057 -79.0057
   -79.0057 -79.0057 -79.0056 -79.0056 -79.0053 -79.0052 -79.0052 -79.0051
   -79.0051 -79.0050 -79.0049 -79.0048 -79.0026 -79.0026 -79.0018 -79.0018
[...]
     1.0000   1.0000   1.0000   1.0000   1.0000   1.0000   1.0000   1.0000
     1.0000   1.0000   1.0000   1.0000   1.0000   1.0000   1.0000   1.0000
     1.0000   1.0000   1.0000   1.0000   1.0000   1.0000   1.0000   1.0000
     1.0000   1.0000   1.0000   1.0000   1.0000   1.0000   1.0000   1.0000
     1.0000   1.0000   1.0000   1.0000   1.0000   1.0000   1.0000   1.0000
     1.0000   1.0000   1.0000   1.0000   1.0000   1.0000   1.0000   1.0000
     1.0000   1.0000   1.0000   1.0000   1.0000   1.0000   1.0000   1.0000
     1.0000   1.0000   1.0000   1.0000   1.0000   1.0000   1.0000   1.0000
     1.0000   1.0000   1.0000   1.0000   1.0000   1.0000   1.0000   1.0000
     1.0000   1.0000   1.0000   1.0000   1.0000   1.0000   1.0000   1.0000
     1.0000   1.0000   1.0000   1.0000   1.0000   1.0000   1.0000   1.0000
     1.0000   1.0000   1.0000   1.0000   1.0000   1.0000   1.0000   1.0000
     1.0000   1.0000   1.0000   1.0000   1.0000   1.0000   1.0000   1.0000
     1.0000   1.0000   1.0000   1.0000   1.0000   1.0000   1.0000   1.0000
     1.0000   1.0000   1.0000   1.0000   1.0000   1.0000   1.0000   1.0000
     1.0000   1.0000   1.0000   1.0000   1.0000   1.0000   1.0000   1.0000
     1.0000   1.0000   1.0000   1.0000   1.0000   1.0000   1.0000   1.0000
     1.0000   1.0000   1.0000   1.0000   1.0000   1.0000   1.0000   1.0000
     1.0000   1.0000   1.0000   1.0000   1.0000   1.0000   1.0000   1.0000
     1.0000   1.0000   1.0000   1.0000   1.0000   1.0000   1.0000   1.0000
     1.0000   1.0000   1.0000   1.0000   1.0000   1.0000   1.0000   1.0000
     1.0000   1.0000   1.0000   1.0000   1.0000   1.0000   1.0000   1.0000
     1.0000   1.0000   1.0000   1.0000   1.0000   1.0000   1.0000   1.0000
     1.0000   1.0000   1.0000   1.0000   1.0000   1.0000   1.0000   1.0000
     1.0000   1.0000   1.0000   1.0000   1.0000   1.0000   1.0000   1.0000
     1.0000   1.0000   1.0000   1.0000   1.0000   1.0000   1.0000   1.0000
     1.0000   1.0000   1.0000   1.0000   1.0000   1.0000   1.0000   1.0000
     1.0000   1.0000   1.0000   1.0000   1.0000   1.0000   1.0000   1.0000
     1.0000   1.0000   1.0000   1.0000   1.0000   1.0000   1.0000   1.0000
     1.0000   1.0000   1.0000   1.0000   1.0000   1.0000   1.0000   1.0000
     1.0000   1.0000   1.0000   1.0000   1.0000   1.0000   1.0000   1.0000
     1.0000   1.0000   1.0000   1.0000   1.0000   1.0000   1.0000   1.0000
     1.0000   1.0000   1.0000   1.0000   1.0000   1.0000   1.0000   1.0000
     1.0000   1.0000   1.0000   1.0000   1.0000   1.0000   1.0000   1.0000
     1.0000   1.0000   1.0000   1.0000   1.0000   1.0000   1.0000   1.0000
     1.0000   1.0000   1.0000   1.0000   1.0000   1.0000   1.0000   1.0000
     1.0000   1.0000   1.0000   1.0000   1.0000   1.0000   1.0000   1.0000
     1.0000   1.0000   1.0000   1.0000   1.0000   1.0000   1.0000   1.0000
     1.0000   1.0000   1.0000   1.0000   1.0000   1.0000   1.0000   1.0000
     1.0000   1.0000   1.0000   1.0000   1.0000   1.0000   1.0000   1.0000
     1.0000   1.0000   1.0000   1.0000   1.0000   1.0000   1.0000   0.4172
     0.4160   0.0000   0.0000   0.0000   0.0000   0.0000   0.0000   0.0000
     0.0000   0.0000   0.0000   0.0000   0.0000   0.0000   0.0000   0.0000
     0.0000   0.0000   0.0000   0.0000   0.0000   0.0000   0.0000   0.0000
     0.0000   0.0000   0.0000   0.0000   0.0000   0.0000   0.0000   0.0000
     0.0000   0.0000   0.0000   0.0000   0.0000   0.0000   0.0000   0.0000
     0.0000   0.0000   0.0000   0.0000   0.0000   0.0000   0.0000   0.0000
     0.0000   0.0000   0.0000   0.0000   0.0000   0.0000   0.0000   0.0000
     0.0000   0.0000   0.0000   0.0000   0.0000   0.0000   0.0000   0.0000
     0.0000   0.0000   0.0000   0.0000   0.0000   0.0000   0.0000   0.0000
     0.0000   0.0000   0.0000   0.0000   0.0000   0.0000   0.0000   0.0000
     0.0000   0.0000   0.0000   0.0000   0.0000   0.0000   0.0000   0.0000
     0.0000   0.0000   0.0000   0.0000   0.0000   0.0000   0.0000   0.0000

          k =-0.5000-0.8660 0.0000 ( 64842 PWs)   bands (ev):

  -125.0275-125.0274-125.0266-125.0266-125.0254-125.0254-125.0253-125.0253
  -125.0250-125.0249-125.0245-125.0245-125.0244-125.0244-125.0241-125.0241
  -124.8515-124.8514-124.8514-124.8513-124.8506-124.8505-124.8505-124.8505
  -124.8494-124.8493-124.8493-124.8493-124.8493-124.8493-124.8493-124.8493
  -124.8490-124.8489-124.8489-124.8489-124.8485-124.8485-124.8485-124.8484
  -124.8484-124.8484-124.8483-124.8483-124.8481-124.8481-124.8480-124.8480
   -79.1912 -79.1912 -79.1911 -79.1910 -79.1887 -79.1886 -79.1876 -79.1876
   -79.1831 -79.1831 -79.1831 -79.1831 -79.1782 -79.1782 -79.1767 -79.1766
   -79.1757 -79.1757 -79.1743 -79.1743 -79.1743 -79.1743 -79.1739 -79.1738
   -79.1733 -79.1733 -79.1732 -79.1732 -79.1729 -79.1728 -79.1716 -79.1716
   -79.1701 -79.1701 -79.1700 -79.1700 -79.1667 -79.1667 -79.1667 -79.1667
   -79.1659 -79.1658 -79.1631 -79.1631 -79.1621 -79.1621 -79.1592 -79.1591
   -79.0119 -79.0119 -79.0119 -79.0119 -79.0118 -79.0118 -79.0118 -79.0118
   -79.0095 -79.0094 -79.0094 -79.0093 -79.0087 -79.0086 -79.0085 -79.0084
   -79.0084 -79.0084 -79.0083 -79.0083 -79.0077 -79.0077 -79.0076 -79.0076
   -79.0064 -79.0064 -79.0063 -79.0063 -79.0063 -79.0063 -79.0063 -79.0062
   -79.0060 -79.0059 -79.0059 -79.0058 -79.0055 -79.0054 -79.0054 -79.0054
   -79.0053 -79.0053 -79.0053 -79.0052 -79.0050 -79.0050 -79.0049 -79.0049
   -79.0039 -79.0039 -79.0039 -79.0039 -79.0038 -79.0038 -79.0038 -79.0038
   -78.9990 -78.9990 -78.9989 -78.9989 -78.9924 -78.9924 -78.9924 -78.9923
   -78.9909 -78.9909 -78.9909 -78.9908 -78.9908 -78.9908 -78.9908 -78.9907
   -78.9876 -78.9875 -78.9875 -78.9875 -78.9875 -78.9875 -78.9875 -78.9875
   -78.9868 -78.9867 -78.9867 -78.9866 -78.9840 -78.9839 -78.9839 -78.9839
   -78.9830 -78.9829 -78.9829 -78.9829 -78.9801 -78.9801 -78.9800 -78.9800
    -8.1264  -8.1264  -7.2877  -7.2877  -7.0105  -7.0104  -6.8372  -6.8372
    -6.8221  -6.8220  -6.7117  -6.7117  -6.7116  -6.7116  -6.6317  -6.6316
    -6.6121  -6.6121  -6.6121  -6.6121  -6.6089  -6.6088  -6.5794  -6.5794
    -6.5794  -6.5793  -6.5243  -6.5243  -6.5132  -6.5132  -6.5131  -6.5131
    -6.4871  -6.4871  -6.4582  -6.4582  -6.4582  -6.4582  -6.4413  -6.4413
    -6.4413  -6.4413  -6.4377  -6.4376  -6.4181  -6.4181  -6.4043  -6.4043
    -6.4043  -6.4042  -6.3895  -6.3895  -6.2896  -6.2896  -6.2769  -6.2769
    -6.2769  -6.2769  -6.2718  -6.2718  -6.2633  -6.2633  -6.2523  -6.2523
    -6.2522  -6.2522  -6.2105  -6.2105  -6.2015  -6.2015  -6.2015  -6.2015
    -6.1772  -6.1772  -6.1763  -6.1763  -6.1329  -6.1329  -6.1226  -6.1226
    -6.0972  -6.0972  -6.0833  -6.0833  -6.0644  -6.0644  -6.0644  -6.0644
    -6.0304  -6.0304  -6.0304  -6.0304  -6.0278  -6.0278  -6.0176  -6.0176
    -6.0079  -6.0078  -6.0035  -6.0035  -5.9718  -5.9718  -5.9718  -5.9718
    -5.9693  -5.9692  -5.9328  -5.9327  -5.9212  -5.9212  -5.8972  -5.8972
    -5.8905  -5.8905  -5.8434  -5.8434  -5.8433  -5.8433  -5.7991  -5.7991
    -5.7904  -5.7904  -5.7904  -5.7904  -5.7867  -5.7867  -5.7725  -5.7724
    -5.7724  -5.7723  -5.7685  -5.7685  -5.7524  -5.7524  -5.7523  -5.7523
    -5.7493  -5.7493  -5.7493  -5.7493  -5.7470  -5.7469  -5.7303  -5.7303
    -5.7303  -5.7303  -5.7183  -5.7183  -5.6610  -5.6610  -5.6593  -5.6593
    -5.6451  -5.6451  -5.6256  -5.6256  -5.6256  -5.6256  -5.6110  -5.6110
    -5.5998  -5.5997  -5.5875  -5.5874  -5.5874  -5.5874  -5.5767  -5.5767
    -5.5562  -5.5562  -5.5215  -5.5214  -5.5142  -5.5142  -5.5142  -5.5142
    -5.5070  -5.5069  -5.5064  -5.5064  -5.5053  -5.5053  -5.5053  -5.5053
    -5.4818  -5.4817  -5.4817  -5.4817  -5.4771  -5.4771  -5.4738  -5.4737
    -5.4669  -5.4669  -5.4658  -5.4658  -5.4471  -5.4471  -5.4471  -5.4471
    -5.4365  -5.4364  -5.4364  -5.4364  -5.4263  -5.4263  -5.4052  -5.4051
    -5.3964  -5.3964  -5.3908  -5.3907  -5.3898  -5.3898  -5.3898  -5.3898
    -5.3898  -5.3897  -5.3885  -5.3885  -5.3622  -5.3621  -5.3548  -5.3548
    -5.3387  -5.3387  -5.3387  -5.3387  -5.3098  -5.3098  -5.3098  -5.3098
    -5.2412  -5.2411  -5.2411  -5.2411  -5.2169  -5.2169  -5.2168  -5.2168
    -5.2135  -5.2135  -5.1892  -5.1891  -5.1863  -5.1862  -4.6834  -4.6834
    -4.3931  -4.3931  -4.3931  -4.3931  -3.7015  -3.7015  -3.0945  -3.0945
    -3.0451  -3.0451  -3.0451  -3.0451  -2.3743  -2.3743  -2.2235  -2.2235
    -1.7300  -1.7300  -1.7299  -1.7299  -0.7368  -0.7368  -0.7368  -0.7368
    -0.3094  -0.3094  -0.3094  -0.3094  -0.0763  -0.0763   0.0322   0.0322
     1.0515   1.0515   1.0637   1.0637   1.3637   1.3637   1.3929   1.3929
     1.3929   1.3929   2.2398   2.2398   2.9240   2.9240   2.9240   2.9240
     3.1165   3.1165   3.1166   3.1166   3.3383   3.3383   3.5649   3.5650
     3.8831   3.8831   3.8832   3.8832   4.0137   4.0137   4.2856   4.2856
     4.4563   4.4563   4.7650   4.7650   4.8853   4.8853   5.5018   5.5018
     5.5210   5.5210   5.7163   5.7163   5.8163   5.8163   5.9436   5.9436
     5.9436   5.9436   6.0009   6.0009   6.0009   6.0009   6.1638   6.1638
     6.1638   6.1638   6.4228   6.4228   6.5760   6.5760   6.6347   6.6347
     6.6572   6.6572   6.8422   6.8422   6.8766   6.8766   7.0406   7.0406
     7.0406   7.0406   7.5799   7.5799   7.7398   7.7398   8.0781   8.0781
     8.0929   8.0929   8.0929   8.0929   8.2955   8.2955   8.4679   8.4679
     8.4679   8.4679   8.6352   8.6352   8.6352   8.6352   8.6623   8.6623
     8.7548   8.7548   8.8099   8.8099   9.0105   9.0106   9.0106   9.0106

     occupation numbers 
     1.0000   1.0000   1.0000   1.0000   1.0000   1.0000   1.0000   1.0000
     1.0000   1.0000   1.0000   1.0000   1.0000   1.0000   1.0000   1.0000
     1.0000   1.0000   1.0000   1.0000   1.0000   1.0000   1.0000   1.0000
     1.0000   1.0000   1.0000   1.0000   1.0000   1.0000   1.0000   1.0000
     1.0000   1.0000   1.0000   1.0000   1.0000   1.0000   1.0000   1.0000
     1.0000   1.0000   1.0000   1.0000   1.0000   1.0000   1.0000   1.0000
     1.0000   1.0000   1.0000   1.0000   1.0000   1.0000   1.0000   1.0000
     1.0000   1.0000   1.0000   1.0000   1.0000   1.0000   1.0000   1.0000
     1.0000   1.0000   1.0000   1.0000   1.0000   1.0000   1.0000   1.0000
     1.0000   1.0000   1.0000   1.0000   1.0000   1.0000   1.0000   1.0000
     1.0000   1.0000   1.0000   1.0000   1.0000   1.0000   1.0000   1.0000
     1.0000   1.0000   1.0000   1.0000   1.0000   1.0000   1.0000   1.0000
     1.0000   1.0000   1.0000   1.0000   1.0000   1.0000   1.0000   1.0000
     1.0000   1.0000   1.0000   1.0000   1.0000   1.0000   1.0000   1.0000
     1.0000   1.0000   1.0000   1.0000   1.0000   1.0000   1.0000   1.0000
     1.0000   1.0000   1.0000   1.0000   1.0000   1.0000   1.0000   1.0000
     1.0000   1.0000   1.0000   1.0000   1.0000   1.0000   1.0000   1.0000
     1.0000   1.0000   1.0000   1.0000   1.0000   1.0000   1.0000   1.0000
     1.0000   1.0000   1.0000   1.0000   1.0000   1.0000   1.0000   1.0000
     1.0000   1.0000   1.0000   1.0000   1.0000   1.0000   1.0000   1.0000
     1.0000   1.0000   1.0000   1.0000   1.0000   1.0000   1.0000   1.0000
     1.0000   1.0000   1.0000   1.0000   1.0000   1.0000   1.0000   1.0000
     1.0000   1.0000   1.0000   1.0000   1.0000   1.0000   1.0000   1.0000
     1.0000   1.0000   1.0000   1.0000   1.0000   1.0000   1.0000   1.0000
     1.0000   1.0000   1.0000   1.0000   1.0000   1.0000   1.0000   1.0000
     1.0000   1.0000   1.0000   1.0000   1.0000   1.0000   1.0000   1.0000
     1.0000   1.0000   1.0000   1.0000   1.0000   1.0000   1.0000   1.0000
     1.0000   1.0000   1.0000   1.0000   1.0000   1.0000   1.0000   1.0000
     1.0000   1.0000   1.0000   1.0000   1.0000   1.0000   1.0000   1.0000
     1.0000   1.0000   1.0000   1.0000   1.0000   1.0000   1.0000   1.0000
     1.0000   1.0000   1.0000   1.0000   1.0000   1.0000   1.0000   1.0000
     1.0000   1.0000   1.0000   1.0000   1.0000   1.0000   1.0000   1.0000
     1.0000   1.0000   1.0000   1.0000   1.0000   1.0000   1.0000   1.0000
     1.0000   1.0000   1.0000   1.0000   1.0000   1.0000   1.0000   1.0000
     1.0000   1.0000   1.0000   1.0000   1.0000   1.0000   1.0000   1.0000
     1.0000   1.0000   1.0000   1.0000   1.0000   1.0000   1.0000   1.0000
     1.0000   1.0000   1.0000   1.0000   1.0000   1.0000   1.0000   1.0000
     1.0000   1.0000   1.0000   1.0000   1.0000   1.0000   1.0000   1.0000
     1.0000   1.0000   1.0000   1.0000   1.0000   1.0000   1.0000   1.0000
     1.0000   1.0000   1.0000   1.0000   1.0000   1.0000   1.0000   1.0000
     1.0000   1.0000   1.0000   1.0000   1.0000   1.0000   1.0000   1.0000
     1.0000   1.0000   1.0000   1.0000   1.0000   1.0000   1.0000   1.0000
     1.0000   1.0000   1.0000   1.0000   1.0000   1.0000   1.0000   1.0000
     1.0000   1.0000   1.0000   1.0000   1.0000   1.0000   1.0000   1.0000
     1.0000   1.0000   1.0000   1.0000   1.0000   1.0000   1.0000   1.0000
     1.0000   1.0000   1.0000   1.0000   1.0000   1.0000   1.0000   1.0000
     1.0000   1.0000   1.0000   1.0000   1.0000   1.0000   1.0000   1.0000
     1.0000   1.0000   1.0000   1.0000   1.0000   1.0000   1.0000   1.0000
     1.0000   1.0000   1.0000   1.0000   1.0000   1.0000   1.0000   1.0000
     1.0000   1.0000   1.0000   1.0000   1.0000   1.0000   1.0000   1.0000
     1.0000   1.0000   1.0000   1.0000   1.0000   1.0000   1.0000   1.0000
     1.0000   1.0000   1.0000   1.0000   1.0000   1.0000   1.0000   1.0000
     1.0000   1.0000   1.0000   1.0000   1.0000   1.0000   1.0000   1.0000
     1.0000   1.0000   1.0000   1.0000   1.0000   1.0000   1.0000   1.0000
     1.0000   1.0000   1.0000   1.0000   1.0000   1.0000   1.0000   1.0000
     1.0000   1.0000   1.0000   1.0000   1.0000   1.0000   1.0000   1.0000
     1.0000   1.0000   1.0000   1.0000   1.0000   1.0000   1.0000   1.0000
     1.0000   1.0000   1.0000   1.0000   1.0000   1.0000   1.0000   1.0000
     1.0000   1.0000   1.0000   1.0000   1.0000   1.0000   1.0000   1.0000
     1.0000   1.0000   1.0000   1.0000   1.0000   1.0000   1.0001   1.0001
     1.0001   1.0001   0.0000   0.0000   0.0000   0.0000   0.0000   0.0000
     0.0000   0.0000   0.0000   0.0000   0.0000   0.0000   0.0000   0.0000
     0.0000   0.0000   0.0000   0.0000   0.0000   0.0000   0.0000   0.0000
     0.0000   0.0000   0.0000   0.0000   0.0000   0.0000   0.0000   0.0000
     0.0000   0.0000   0.0000   0.0000   0.0000   0.0000   0.0000   0.0000
     0.0000   0.0000   0.0000   0.0000   0.0000   0.0000   0.0000   0.0000
     0.0000   0.0000   0.0000   0.0000   0.0000   0.0000   0.0000   0.0000
     0.0000   0.0000   0.0000   0.0000   0.0000   0.0000   0.0000   0.0000
     0.0000   0.0000   0.0000   0.0000   0.0000   0.0000   0.0000   0.0000
     0.0000   0.0000   0.0000   0.0000   0.0000   0.0000   0.0000   0.0000
     0.0000   0.0000   0.0000   0.0000   0.0000   0.0000   0.0000   0.0000
     0.0000   0.0000   0.0000   0.0000   0.0000   0.0000   0.0000   0.0000

     the Fermi energy is     1.4426 ev

!    total energy              =  -22154.25225063 Ry
     estimated scf accuracy    <       0.00000054 Ry
     smearing contrib. (-TS)   =      -0.00025607 Ry
     internal energy E=F+TS    =  -22154.25199456 Ry

     The total energy is F=E-TS. E is the sum of the following terms:
     one-electron contribution = -144866.92629933 Ry
     hartree contribution      =   72367.58196116 Ry
     xc contribution           =   -2024.15560010 Ry
     ewald contribution        =   52369.24794370 Ry

     convergence has been achieved in  11 iterations

     Writing all to output data dir ./tmp/Zn002.save/ :
     XML data file, charge density, pseudopotentials, collected wavefunctions

     init_run     :    114.36s CPU    115.16s WALL (       1 calls)
     electrons    :   4992.30s CPU   5028.25s WALL (       1 calls)

     Called by init_run:
     wfcinit      :    113.07s CPU    113.81s WALL (       1 calls)
     wfcinit:atom :      0.08s CPU      0.11s WALL (      10 calls)
     wfcinit:wfcr :    111.93s CPU    112.55s WALL (      10 calls)
     potinit      :      0.08s CPU      0.09s WALL (       1 calls)
     hinit0       :      0.03s CPU      0.04s WALL (       1 calls)

     Called by electrons:
     c_bands      :   4642.39s CPU   4676.06s WALL (      12 calls)
     sum_band     :    339.30s CPU    341.22s WALL (      12 calls)
     v_of_rho     :      0.83s CPU      0.86s WALL (      12 calls)
     v_h          :      0.06s CPU      0.06s WALL (      12 calls)
     v_xc         :      0.77s CPU      0.79s WALL (      12 calls)
     newd         :     10.51s CPU     10.80s WALL (      12 calls)
     mix_rho      :      0.10s CPU      0.11s WALL (      12 calls)

     Called by c_bands:
     init_us_2    :      4.77s CPU      4.79s WALL (     250 calls)
     cegterg      :   4633.05s CPU   4666.59s WALL (     120 calls)

     Called by sum_band:
     sum_band:wei :      0.06s CPU      0.06s WALL (      12 calls)
     sum_band:loo :    328.59s CPU    330.19s WALL (      12 calls)
     sum_band:buf :      1.04s CPU      1.05s WALL (     120 calls)
     sum_band:ini :      2.29s CPU      2.29s WALL (     120 calls)
     sum_band:cal :    281.67s CPU    282.91s WALL (     120 calls)
     sum_band:bec :      2.44s CPU      2.44s WALL (     120 calls)
     addusdens    :     10.55s CPU     10.86s WALL (      12 calls)
                                        0.00s GPU  (      12 calls)
     addusd:skk   :      0.10s CPU      0.11s WALL (      12 calls)
                                        0.00s GPU  (      12 calls)

     Called by *egterg:
     cdiaghg      :    305.32s CPU    317.06s WALL (     685 calls)
     cegterg:over :    711.58s CPU    714.00s WALL (     575 calls)
     cegterg:upda :    320.84s CPU    322.76s WALL (     575 calls)
     cegterg:last :   1107.54s CPU   1114.49s WALL (     238 calls)
     cdiaghg:chol :     19.30s CPU     19.35s WALL (     685 calls)
     cdiaghg:inve :      3.09s CPU      3.10s WALL (     685 calls)
     cdiaghg:para :     79.62s CPU     81.24s WALL (    1370 calls)
     h_psi        :   1469.54s CPU   1476.64s WALL (     705 calls)
     s_psi        :    604.42s CPU    605.90s WALL (     705 calls)
     g_psi        :      0.62s CPU      0.63s WALL (     575 calls)

     Called by h_psi:
     h_psi:calbec :    667.90s CPU    670.98s WALL (     705 calls)
     vloc_psi     :    186.67s CPU    188.17s WALL (     705 calls)
     add_vuspsi   :    613.18s CPU    614.71s WALL (     705 calls)

     General routines
     calbec       :    949.57s CPU    953.90s WALL (     825 calls)
     fft          :      0.45s CPU      0.49s WALL (     154 calls)
     ffts         :      0.02s CPU      0.03s WALL (      24 calls)
     fftw         :    198.71s CPU    200.23s WALL (  396898 calls)
     interpolate  :      0.05s CPU      0.05s WALL (      12 calls)

     Parallel routines

     PWSCF        :      1h25m CPU      1h25m WALL


   This run was terminated on:  17:59:10  26Mar2025            

=------------------------------------------------------------------------------=
   JOB DONE.
=------------------------------------------------------------------------------=
Note: The following floating-point exceptions are signalling: IEEE_DENORMAL
Note: The following floating-point exceptions are signalling: IEEE_DENORMAL
Note: The following floating-point exceptions are signalling: IEEE_DENORMAL
Note: The following floating-point exceptions are signalling: IEEE_DENORMAL
Note: The following floating-point exceptions are signalling: IEEE_DENORMAL
Note: The following floating-point exceptions are signalling: IEEE_DENORMAL
Note: The following floating-point exceptions are signalling: IEEE_DENORMAL
Note: The following floating-point exceptions are signalling: IEEE_DENORMAL
Note: The following floating-point exceptions are signalling: IEEE_DENORMAL
Note: The following floating-point exceptions are signalling: IEEE_DENORMAL
Note: The following floating-point exceptions are signalling: IEEE_DENORMAL
Note: The following floating-point exceptions are signalling: IEEE_DENORMAL
