--------------------------------------------------------------------------
WARNING: There was an error initializing an OpenFabrics device.

  Local host:   ga01
  Local device: mlx5_0
--------------------------------------------------------------------------
--------------------------------------------------------------------------
WARNING: There is at least one non-excluded one OpenFabrics device found,
but there are no active ports detected (or Open MPI was unable to use
them).  This is most certainly not what you wanted.  Check your
cables, subnet manager configuration, etc.  The openib BTL will be
ignored for this job.

  Local host: ga01
--------------------------------------------------------------------------

     Program PWSCF v.7.3.1 starts on 15Apr2025 at  0:24:45 

     This program is part of the open-source Quantum ESPRESSO suite
     for quantum simulation of materials; please cite
         "P. Giannozzi et al., J. Phys.:Condens. Matter 21 395502 (2009);
         "P. Giannozzi et al., J. Phys.:Condens. Matter 29 465901 (2017);
         "P. Giannozzi et al., J. Chem. Phys. 152 154105 (2020);
          URL http://www.quantum-espresso.org", 
     in publications or presentations arising from this work. More details at
     http://www.quantum-espresso.org/quote

     Parallel version (MPI), running on    31 processors

     MPI processes distributed on     1 nodes
     167534 MiB available memory on the printing compute node when the environment starts

     Waiting for input...
     Reading input from standard input
Warning: card &CELL ignored
Warning: card   CELL_DOFREE = 'ALL' ignored
Warning: card / ignored

     Current dimensions of program PWSCF are:
     Max number of different atomic species (ntypx) = 10
     Max number of k-points (npk) =  40000
     Max angular momentum in pseudopotentials (lmaxx) =  4
     file C.pbe-n-kjpaw_psl.1.0.0.UPF: wavefunction(s)  2S 2P renormalized

     R & G space division:  proc/nbgrp/npool/nimage =      31
     Subspace diagonalization in iterative solution of the eigenvalue problem:
     one sub-group per band group will be used
     custom distributed-memory algorithm (size of sub-group:  5*  5 procs)


     Parallelization info
     --------------------
     sticks:   dense  smooth     PW     G-vecs:    dense   smooth      PW
     Min         288     164     45                42996    18570    2694
     Max         289     165     46                43005    18578    2699
     Sum        8941    5109   1411              1332973   575857   83601

     Using Slab Decomposition



     bravais-lattice index     =            0
     lattice parameter (alat)  =      20.9009  a.u.
     unit-cell volume          =   16846.7507 (a.u.)^3
     number of atoms/cell      =           62
     number of atomic types    =            4
     number of electrons       =       996.00
     number of Kohn-Sham states=          598
     kinetic-energy cutoff     =      40.0000  Ry
     charge density cutoff     =     280.0000  Ry
     scf convergence threshold =      1.0E-06
     mixing beta               =       0.4000
     number of iterations used =            8  plain     mixing
     energy convergence thresh.=      5.0E-05
     force convergence thresh. =      1.0E-03
     Exchange-correlation= PBE
                           (   1   4   3   4   0   0   0)
     nstep                     =          300


     celldm(1)=  20.900943  celldm(2)=   0.000000  celldm(3)=   0.000000
     celldm(4)=   0.000000  celldm(5)=   0.000000  celldm(6)=   0.000000

     crystal axes: (cart. coord. in units of alat)
               a(1) = (   1.000000   0.000000   0.000000 )  
               a(2) = (  -0.223489   0.918700   0.000000 )  
               a(3) = (  -4.200249  -1.021781   2.008375 )  

     reciprocal axes: (cart. coord. in units 2 pi/alat)
               b(1) = (  1.000000  0.243267  2.215131 )  
               b(2) = ( -0.000000  1.088495  0.553783 )  
               b(3) = (  0.000000 -0.000000  0.497915 )  


     PseudoPot. # 1 for Zn read from file:
     /home/yongsang/Research/PSID_server_room/qe/[00]QE/qepseudo/SSSP_1.3.0_PBE_efficiency/Zn_pbe_v1.uspp.F.UPF
     MD5 check sum: df62231357ef9e81f77b2b3087fa5675
     Pseudo is Ultrasoft, Zval = 20.0
     Generated by new atomic code, or converted to UPF format
     Using radial grid of  943 points,  6 beta functions with: 
                l(1) =   0
                l(2) =   0
                l(3) =   1
                l(4) =   1
                l(5) =   2
                l(6) =   2
     Q(r) pseudized with  8 coefficients,  rinner =    1.100   1.100   1.100
                                                       1.100   1.100

     PseudoPot. # 2 for N  read from file:
     /home/yongsang/Research/PSID_server_room/qe/[00]QE/qepseudo/SSSP_1.3.0_PBE_efficiency/N.pbe-n-radius_5.UPF
     MD5 check sum: 16739722b17309cd8fe442a2ace49922
     Pseudo is Ultrasoft + core correction, Zval =  5.0
     Generated using "atomic" code by A. Dal Corso  v.5.1
     Using radial grid of 1085 points,  4 beta functions with: 
                l(1) =   0
                l(2) =   0
                l(3) =   1
                l(4) =   1
     Q(r) pseudized with 0 coefficients 


     PseudoPot. # 3 for C  read from file:
     /home/yongsang/Research/PSID_server_room/qe/[00]QE/qepseudo/SSSP_1.3.0_PBE_efficiency/C.pbe-n-kjpaw_psl.1.0.0.UPF
     MD5 check sum: 5d2aebdfa2cae82b50a7e79e9516da0f
     Pseudo is Projector augmented-wave + core cor, Zval =  4.0
     Generated using "atomic" code by A. Dal Corso  v.5.1
     Shape of augmentation charge: PSQ
     Using radial grid of 1073 points,  4 beta functions with: 
                l(1) =   0
                l(2) =   0
                l(3) =   1
                l(4) =   1
     Q(r) pseudized with 0 coefficients 


     PseudoPot. # 4 for H  read from file:
     /home/yongsang/Research/PSID_server_room/qe/[00]QE/qepseudo/SSSP_1.3.0_PBE_efficiency/H.pbe-rrkjus_psl.1.0.0.UPF
     MD5 check sum: f52b6d4d1c606e5624b1dc7b2218f220
     Pseudo is Ultrasoft, Zval =  1.0
     Generated using "atomic" code by A. Dal Corso  v.5.1
     Using radial grid of  929 points,  2 beta functions with: 
                l(1) =   0
                l(2) =   0
     Q(r) pseudized with 0 coefficients 


     atomic species   valence    mass     pseudopotential
     Zn               20.00    65.38000     Zn( 1.00)
     N                 5.00    14.00674     N ( 1.00)
     C                 4.00    12.01070     C ( 1.00)
     H                 1.00     1.00794     H ( 1.00)

     No symmetry found


                                    s                        frac. trans.

      isym =  1     identity                                     

 cryst.   s( 1) = (     1          0          0      )
                  (     0          1          0      )
                  (     0          0          1      )

 cart.    s( 1) = (  1.0000000  0.0000000  0.0000000 )
                  (  0.0000000  1.0000000  0.0000000 )
                  (  0.0000000  0.0000000  1.0000000 )


   Cartesian axes

     site n.     atom                  positions (alat units)
         1        Zn     tau(   1) = (  -0.0970639   0.0980210   0.1082940  )
         2        Zn     tau(   2) = (  -0.2088085   0.5573710   0.1082940  )
         3        Zn     tau(   3) = (  -0.4425490   0.0141127   0.3429563  )
         4        Zn     tau(   4) = (  -0.5552463   0.4730223   0.3417607  )
         5        Zn     tau(   5) = (  -0.8114836  -0.0769844   0.5300442  )
         6        Zn     tau(   6) = (  -0.9230080   0.3854881   0.5301388  )
         7        Zn     tau(   7) = (  -0.1529361   0.3276960   0.1082940  )
         8        Zn     tau(   8) = (  -0.2646808   0.7870460   0.1082940  )
         9        Zn     tau(   9) = (  -0.4998071   0.2431932   0.3428013  )
        10        Zn     tau(  10) = (  -0.6082722   0.7033865   0.3440458  )
        11        Zn     tau(  11) = (  -0.8747350   0.1522512   0.5232867  )
        12        Zn     tau(  12) = (  -0.9776398   0.6134073   0.5310692  )
        13        Zn     tau(  13) = (   0.4029362   0.0980210   0.1082940  )
        14        Zn     tau(  14) = (   0.2911915   0.5573710   0.1082940  )
        15        Zn     tau(  15) = (   0.0508408   0.0112173   0.3129806  )
        16        Zn     tau(  16) = (  -0.0543382   0.4737470   0.3235185  )
        17        Zn     tau(  17) = (  -0.2895327  -0.0705724   0.5228658  )
        18        Zn     tau(  18) = (  -0.4037621   0.3891050   0.5235620  )
        19        Zn     tau(  19) = (   0.3470638   0.3276960   0.1082940  )
        20        Zn     tau(  20) = (   0.2353192   0.7870460   0.1082940  )
        21        Zn     tau(  21) = (  -0.0051144   0.2428795   0.3130767  )
        22        Zn     tau(  22) = (  -0.1102319   0.7023685   0.3236373  )
        23        Zn     tau(  23) = (  -0.3460981   0.1584140   0.5240928  )
        24        Zn     tau(  24) = (  -0.4586270   0.6182772   0.5221856  )
        25        Zn     tau(  25) = (   0.1529361   0.0372043   0.0773528  )
        26        Zn     tau(  26) = (   0.0411915   0.4965543   0.0773528  )
        27        Zn     tau(  27) = (  -0.2113367  -0.0513555   0.2716574  )
        28        Zn     tau(  28) = (  -0.3247449   0.4079485   0.2691549  )
        29        Zn     tau(  29) = (  -0.5880315  -0.1429634   0.4547839  )
        30        Zn     tau(  30) = (  -0.7015101   0.3154891   0.4603105  )
        31        Zn     tau(  31) = (   0.0970639   0.2668793   0.0773528  )
        32        Zn     tau(  32) = (  -0.0146808   0.7262293   0.0773528  )
        33        Zn     tau(  33) = (  -0.2673765   0.1783471   0.2718110  )
        34        Zn     tau(  34) = (  -0.3803964   0.6376810   0.2688826  )
        35        Zn     tau(  35) = (  -0.6469623   0.0862531   0.4600754  )
        36        Zn     tau(  36) = (  -0.7551528   0.5462643   0.4549691  )
        37        Zn     tau(  37) = (   0.6529362   0.0372043   0.0773528  )
        38        Zn     tau(  38) = (   0.5411915   0.4965543   0.0773528  )
        39        Zn     tau(  39) = (   0.2869617  -0.0509356   0.2669539  )
        40        Zn     tau(  40) = (   0.1760296   0.4070595   0.2670219  )
        41        Zn     tau(  41) = (  -0.0643661  -0.1377712   0.4658874  )
        42        Zn     tau(  42) = (  -0.1770536   0.3221639   0.4655290  )
        43        Zn     tau(  43) = (   0.5970639   0.2668793   0.0773528  )
        44        Zn     tau(  44) = (   0.4853193   0.7262293   0.0773528  )
        45        Zn     tau(  45) = (   0.2318962   0.1781224   0.2676403  )
        46        Zn     tau(  46) = (   0.1189286   0.6374581   0.2658234  )
        47        Zn     tau(  47) = (  -0.1172232   0.0932066   0.4693400  )
        48        Zn     tau(  48) = (  -0.2352123   0.5508578   0.4613678  )
        49        C      tau(  49) = (  -0.9128853   0.2549702   1.0180978  )
        50        C      tau(  50) = (  -0.9287016   0.2493260   1.1434046  )
        51        C      tau(  51) = (  -0.8790436   0.1520819   0.9517716  )
        52        C      tau(  52) = (  -0.9111896   0.1410095   1.2065486  )
        53        C      tau(  53) = (  -0.8651828   0.0427368   1.0150211  )
        54        C      tau(  54) = (  -0.8810142   0.0376494   1.1402877  )
        55        N      tau(  55) = (  -0.8662188   0.1567029   0.8264280  )
        56        H      tau(  56) = (  -0.9272110   0.3391960   0.9685742  )
        57        H      tau(  57) = (  -0.8547387   0.2388892   0.7874817  )
        58        H      tau(  58) = (  -0.9569113   0.3303107   1.1921915  )
        59        H      tau(  59) = (  -0.8206970   0.0883838   0.7854698  )
        60        H      tau(  60) = (  -0.9234307   0.1368939   1.3046124  )
        61        H      tau(  61) = (  -0.8424112  -0.0380093   0.9629879  )
        62        H      tau(  62) = (  -0.8717412  -0.0491301   1.1865378  )

     --------------------------------------------
     DFT-D3 Dispersion Correction (3-body terms):
     --------------------------------------------
       Reference C6 values for interpolation: 

         atom   Coordination number   C6
         H          0.912             6.05
         H          0.000            15.18
         C          0.000            98.23
         C          0.987            86.49
         C          1.998            58.72
         C          2.999            51.56
         C          3.984            36.41
         N          0.000            50.54
         N          0.994            44.25
         N          2.014            39.35
         N          2.990            31.16
         Zn         0.000           681.04
         Zn         1.942           306.91

       Values used:

         atom   Coordination number  R0_AB[au]  C6      C8
         Zn         5.757            3.053    306.91  23930.67
         Zn         5.510            3.053    306.91  23930.67
         Zn         6.844            3.053    306.91  23930.67
         Zn         6.898            3.053    306.91  23930.67
         Zn         4.937            3.053    306.91  23930.67
         Zn         4.909            3.053    306.91  23930.67
         Zn         5.633            3.053    306.91  23930.67
         Zn         5.649            3.053    306.91  23930.67
         Zn         6.802            3.053    306.91  23930.67
         Zn         6.952            3.053    306.91  23930.67
         Zn         5.167            3.053    306.91  23930.67
         Zn         4.966            3.053    306.91  23930.67
         Zn         5.278            3.053    306.91  23930.67
         Zn         5.272            3.053    306.91  23930.67
         Zn         7.473            3.053    306.91  23930.67
         Zn         7.330            3.053    306.91  23930.67
         Zn         5.313            3.053    306.91  23930.67
         Zn         5.221            3.053    306.91  23930.67
         Zn         5.290            3.053    306.91  23930.67
         Zn         5.261            3.053    306.91  23930.67
         Zn         7.455            3.053    306.91  23930.67
         Zn         7.342            3.053    306.91  23930.67
         Zn         5.212            3.053    306.91  23930.67
         Zn         5.329            3.053    306.91  23930.67
         Zn         5.472            3.053    306.91  23930.67
         Zn         5.378            3.053    306.91  23930.67
         Zn         7.837            3.053    306.91  23930.67
         Zn         7.806            3.053    306.91  23930.67
         Zn         6.562            3.053    306.91  23930.67
         Zn         6.435            3.053    306.91  23930.67
         Zn         5.469            3.053    306.91  23930.67
         Zn         5.382            3.053    306.91  23930.67
         Zn         7.784            3.053    306.91  23930.67
         Zn         7.860            3.053    306.91  23930.67
         Zn         6.440            3.053    306.91  23930.67
         Zn         6.573            3.053    306.91  23930.67
         Zn         5.007            3.053    306.91  23930.67
         Zn         5.094            3.053    306.91  23930.67
         Zn         8.134            3.053    306.91  23930.67
         Zn         8.132            3.053    306.91  23930.67
         Zn         6.540            3.053    306.91  23930.67
         Zn         6.503            3.053    306.91  23930.67
         Zn         5.041            3.053    306.91  23930.67
         Zn         5.047            3.053    306.91  23930.67
         Zn         8.089            3.053    306.91  23930.67
         Zn         8.192            3.053    306.91  23930.67
         Zn         6.539            3.053    306.91  23930.67
         Zn         6.626            3.053    306.91  23930.67
         C          3.164            2.750     50.41   1457.96
         C          3.130            2.750     50.69   1465.91
         C          3.137            2.750     50.64   1464.49
         C          3.118            2.750     50.77   1468.37
         C          3.165            2.750     50.41   1457.84
         C          3.130            2.750     50.69   1465.92
         N          3.086            2.478     31.24    689.24
         H          1.003            2.062      6.18     74.69
         H          1.009            2.062      6.17     74.62
         H          1.003            2.062      6.18     74.69
         H          1.009            2.062      6.17     74.62
         H          1.002            2.062      6.18     74.70
         H          1.003            2.062      6.18     74.68
         H          1.003            2.062      6.18     74.69

         Molecular C6 ( Ry / a.u.^6 ) =    819966.64


   Crystallographic axes

     site n.     atom                  positions (cryst. coord.)
         1        Zn     tau(   1) = (  0.1666667  0.1666667  0.0539212  )
         2        Zn     tau(   2) = (  0.1666668  0.6666667  0.0539212  )
         3        Zn     tau(   3) = (  0.3205775  0.2052850  0.1707631  )
         4        Zn     tau(   4) = (  0.3168693  0.7041434  0.1701678  )
         5        Zn     tau(   5) = (  0.3439063  0.2097323  0.2639170  )
         6        Zn     tau(   6) = (  0.3450956  0.7131835  0.2639641  )
         7        Zn     tau(   7) = (  0.1666668  0.4166667  0.0539212  )
         8        Zn     tau(   8) = (  0.1666667  0.9166667  0.0539212  )
         9        Zn     tau(   9) = (  0.3187037  0.4545519  0.1706859  )
        10        Zn     tau(  10) = (  0.3249450  0.9561590  0.1713056  )
        11        Zn     tau(  11) = (  0.3214514  0.4555118  0.2605523  )
        12        Zn     tau(  12) = (  0.3479700  0.9617875  0.2644273  )
        13        Zn     tau(  13) = (  0.6666668  0.1666667  0.0539212  )
        14        Zn     tau(  14) = (  0.6666667  0.6666667  0.0539212  )
        15        Zn     tau(  15) = (  0.7468629  0.1855333  0.1558378  )
        16        Zn     tau(  16) = (  0.7775448  0.6948300  0.1610847  )
        17        Zn     tau(  17) = (  0.8515159  0.2127364  0.2603427  )
        18        Zn     tau(  18) = (  0.8506528  0.7134783  0.2606894  )
        19        Zn     tau(  19) = (  0.6666668  0.4166667  0.0539212  )
        20        Zn     tau(  20) = (  0.6666668  0.9166667  0.0539212  )
        21        Zn     tau(  21) = (  0.7474761  0.4377495  0.1558856  )
        22        Zn     tau(  22) = (  0.7775302  0.9437492  0.1611439  )
        23        Zn     tau(  23) = (  0.8533732  0.4626664  0.2609537  )
        24        Zn     tau(  24) = (  0.8484890  0.9621688  0.2600040  )
        25        Zn     tau(  25) = (  0.3333333  0.0833333  0.0385151  )
        26        Zn     tau(  26) = (  0.3333333  0.5833333  0.0385151  )
        27        Zn     tau(  27) = (  0.3779270  0.0945391  0.1352623  )
        28        Zn     tau(  28) = (  0.3707088  0.5931030  0.1340162  )
        29        Zn     tau(  29) = (  0.3845964  0.0962366  0.2264437  )
        30        Zn     tau(  30) = (  0.3948862  0.5983203  0.2291955  )
        31        Zn     tau(  31) = (  0.3333333  0.3333333  0.0385151  )
        32        Zn     tau(  32) = (  0.3333333  0.8333333  0.0385151  )
        33        Zn     tau(  33) = (  0.3781065  0.3446541  0.1353388  )
        34        Zn     tau(  34) = (  0.3703405  0.8430149  0.1338807  )
        35        Zn     tau(  35) = (  0.3931478  0.3486679  0.2290785  )
        36        Zn     tau(  36) = (  0.3855516  0.8465599  0.2265360  )
        37        Zn     tau(  37) = (  0.8333333  0.0833333  0.0385151  )
        38        Zn     tau(  38) = (  0.8333333  0.5833333  0.0385151  )
        39        Zn     tau(  39) = (  0.8659088  0.0923914  0.1329204  )
        40        Zn     tau(  40) = (  0.8665423  0.5909542  0.1329542  )
        41        Zn     tau(  41) = (  0.9341204  0.1080372  0.2319723  )
        42        Zn     tau(  42) = (  0.9325260  0.6084756  0.2317938  )
        43        Zn     tau(  43) = (  0.8333333  0.3333333  0.0385151  )
        44        Zn     tau(  44) = (  0.8333333  0.8333333  0.0385151  )
        45        Zn     tau(  45) = (  0.8680860  0.3420999  0.1332621  )
        46        Zn     tau(  46) = (  0.8628348  0.8410781  0.1323575  )
        47        Zn     tau(  47) = (  0.9451006  0.3613673  0.2336914  )
        48        Zn     tau(  48) = (  0.9207835  0.8551033  0.2297220  )
        49        C      tau(  49) = (  1.4043608  0.8413387  0.5069262  )
        50        C      tau(  50) = (  1.6647425  0.9045878  0.5693183  )
        51        C      tau(  51) = (  1.2662520  0.6926150  0.4739013  )
        52        C      tau(  52) = (  1.7957769  0.8216539  0.6007586  )
        53        C      tau(  53) = (  1.3936186  0.6086199  0.5053942  )
        54        C      tau(  54) = (  1.6540317  0.6724529  0.5677664  )
        55        N      tau(  55) = (  1.0025483  0.6282319  0.4114909  )
        56        H      tau(  56) = (  1.3008232  0.9055927  0.4822676  )
        57        H      tau(  57) = (  0.9477506  0.6961234  0.3920990  )
        58        H      tau(  58) = (  1.7643032  1.0197566  0.5936100  )
        59        H      tau(  59) = (  0.9407227  0.5311850  0.3910972  )
        60        H      tau(  60) = (  1.9997588  0.8714801  0.6495861  )
        61        H      tau(  61) = (  1.2814871  0.4919132  0.4794861  )
        62        H      tau(  62) = (  1.7446441  0.6036063  0.5907950  )

     number of k points=     5  Marzari-Vanderbilt smearing, width (Ry)=  0.0200
                       cart. coord. in units 2pi/alat
        k(    1) = (   0.0000000   0.0000000   0.0000000), wk =   0.2222222
        k(    2) = (   0.0000000   0.3628315   0.1845943), wk =   0.4444444
        k(    3) = (   0.3333333   0.0810890   0.7383771), wk =   0.4444444
        k(    4) = (   0.3333333   0.4439205   0.9229714), wk =   0.4444444
        k(    5) = (   0.3333333  -0.2817426   0.5537829), wk =   0.4444444

                       cryst. coord.
        k(    1) = (   0.0000000   0.0000000   0.0000000), wk =   0.2222222
        k(    2) = (   0.0000000   0.3333333   0.0000000), wk =   0.4444444
        k(    3) = (   0.3333333   0.0000000   0.0000000), wk =   0.4444444
        k(    4) = (   0.3333333   0.3333333   0.0000000), wk =   0.4444444
        k(    5) = (   0.3333333  -0.3333333   0.0000000), wk =   0.4444444

     Dense  grid:  1332973 G-vectors     FFT dimensions: ( 120, 108, 540)

     Smooth grid:   575857 G-vectors     FFT dimensions: (  90,  80, 405)

     Dynamical RAM for                 wfc:      21.18 MB

     Dynamical RAM for     wfc (w. buffer):     127.07 MB

     Dynamical RAM for           str. fact:       2.62 MB

     Dynamical RAM for           local pot:       0.00 MB

     Dynamical RAM for          nlocal pot:      33.08 MB

     Dynamical RAM for                qrad:       5.37 MB

     Dynamical RAM for          rho,v,vnew:       7.31 MB

     Dynamical RAM for               rhoin:       2.44 MB

     Dynamical RAM for            rho*nmix:      10.50 MB

     Dynamical RAM for           G-vectors:       2.60 MB

     Dynamical RAM for          h,s,v(r/c):       2.61 MB

     Dynamical RAM for          <psi|beta>:       8.52 MB

     Dynamical RAM for                 psi:      42.36 MB

     Dynamical RAM for                hpsi:      42.36 MB

     Dynamical RAM for                spsi:      42.36 MB

     Dynamical RAM for      wfcinit/wfcrot:      56.62 MB

     Dynamical RAM for           addusdens:     153.54 MB

     Dynamical RAM for          addusforce:     215.74 MB

     Dynamical RAM for         addusstress:     131.89 MB

     Estimated static dynamical RAM per process >     192.67 MB

     Estimated max dynamical RAM per process >     418.91 MB

     Estimated total dynamical RAM >      12.68 GB

     Initial potential from superposition of free atoms

     starting charge     995.9929, renormalised to     996.0000

     negative rho (up, down):  1.986E-03 0.000E+00
     Starting wfcs are  659 randomized atomic wfcs
[ga01:582960] 28 more processes have sent help message help-mpi-btl-openib.txt / error in device init
[ga01:582960] Set MCA parameter "orte_base_help_aggregate" to 0 to see all help / error messages
[ga01:582960] 1 more process has sent help message help-mpi-btl-openib.txt / no active ports found
     Checking if some PAW data can be deallocated... 
       PAW data deallocated on   28 nodes for type:  3

     total cpu time spent up to now is       40.2 secs

     Self-consistent Calculation

     iteration #  1     ecut=    40.00 Ry     beta= 0.40
     Davidson diagonalization with overlap

---- Real-time Memory Report at c_bands before calling an iterative solver
           422 MiB given to the printing process from OS
             0 MiB allocation reported by mallinfo(arena+hblkhd)
        160120 MiB available memory on the node where the printing process lives
------------------
     ethr =  1.00E-02,  avg # of iterations =  7.8

     negative rho (up, down):  2.458E-03 0.000E+00

     total cpu time spent up to now is      186.3 secs

     total energy              =  -22288.20435219 Ry
     estimated scf accuracy    <      11.19679033 Ry

     iteration #  2     ecut=    40.00 Ry     beta= 0.40
     Davidson diagonalization with overlap

---- Real-time Memory Report at c_bands before calling an iterative solver
           557 MiB given to the printing process from OS
             0 MiB allocation reported by mallinfo(arena+hblkhd)
        159400 MiB available memory on the node where the printing process lives
------------------
     ethr =  1.12E-03,  avg # of iterations =  9.6

     negative rho (up, down):  3.610E-03 0.000E+00

     total cpu time spent up to now is      333.9 secs

     total energy              =  -22276.83222248 Ry
     estimated scf accuracy    <     235.25402928 Ry

     iteration #  3     ecut=    40.00 Ry     beta= 0.40
     Davidson diagonalization with overlap

---- Real-time Memory Report at c_bands before calling an iterative solver
           566 MiB given to the printing process from OS
             0 MiB allocation reported by mallinfo(arena+hblkhd)
        159378 MiB available memory on the node where the printing process lives
------------------
     ethr =  1.12E-03,  avg # of iterations =  8.4

     negative rho (up, down):  3.499E-03 0.000E+00

     total cpu time spent up to now is      510.8 secs

     total energy              =  -22292.87485450 Ry
     estimated scf accuracy    <       6.99038599 Ry

     iteration #  4     ecut=    40.00 Ry     beta= 0.40
     Davidson diagonalization with overlap

---- Real-time Memory Report at c_bands before calling an iterative solver
           571 MiB given to the printing process from OS
             0 MiB allocation reported by mallinfo(arena+hblkhd)
        159368 MiB available memory on the node where the printing process lives
------------------
     ethr =  7.02E-04,  avg # of iterations =  3.0

     negative rho (up, down):  3.401E-03 0.000E+00

     total cpu time spent up to now is      629.9 secs

     total energy              =  -22293.34448388 Ry
     estimated scf accuracy    <       4.54857656 Ry

     iteration #  5     ecut=    40.00 Ry     beta= 0.40
     Davidson diagonalization with overlap

---- Real-time Memory Report at c_bands before calling an iterative solver
           571 MiB given to the printing process from OS
             0 MiB allocation reported by mallinfo(arena+hblkhd)
        159340 MiB available memory on the node where the printing process lives
------------------
     ethr =  4.57E-04,  avg # of iterations =  2.0

     negative rho (up, down):  3.390E-03 0.000E+00

     total cpu time spent up to now is      743.4 secs

     total energy              =  -22293.61796761 Ry
     estimated scf accuracy    <       0.33455638 Ry

     iteration #  6     ecut=    40.00 Ry     beta= 0.40
     Davidson diagonalization with overlap

---- Real-time Memory Report at c_bands before calling an iterative solver
           572 MiB given to the printing process from OS
             0 MiB allocation reported by mallinfo(arena+hblkhd)
        159303 MiB available memory on the node where the printing process lives
------------------
     ethr =  3.36E-05,  avg # of iterations = 12.6

     negative rho (up, down):  3.491E-03 0.000E+00

     total cpu time spent up to now is      881.0 secs

     total energy              =  -22293.61740961 Ry
     estimated scf accuracy    <       0.13466689 Ry

     iteration #  7     ecut=    40.00 Ry     beta= 0.40
     Davidson diagonalization with overlap

---- Real-time Memory Report at c_bands before calling an iterative solver
           573 MiB given to the printing process from OS
             0 MiB allocation reported by mallinfo(arena+hblkhd)
        159277 MiB available memory on the node where the printing process lives
------------------
     ethr =  1.35E-05,  avg # of iterations = 13.0

     negative rho (up, down):  3.548E-03 0.000E+00

     total cpu time spent up to now is     1014.0 secs

     total energy              =  -22293.61434840 Ry
     estimated scf accuracy    <       0.07111883 Ry

     iteration #  8     ecut=    40.00 Ry     beta= 0.40
     Davidson diagonalization with overlap

---- Real-time Memory Report at c_bands before calling an iterative solver
           574 MiB given to the printing process from OS
             0 MiB allocation reported by mallinfo(arena+hblkhd)
        159249 MiB available memory on the node where the printing process lives
------------------
     c_bands:  1 eigenvalues not converged
     c_bands:  1 eigenvalues not converged
     ethr =  7.14E-06,  avg # of iterations = 13.8

     negative rho (up, down):  3.587E-03 0.000E+00

     total cpu time spent up to now is     1147.9 secs

     total energy              =  -22293.61479136 Ry
     estimated scf accuracy    <       0.04825692 Ry

     iteration #  9     ecut=    40.00 Ry     beta= 0.40
     Davidson diagonalization with overlap

---- Real-time Memory Report at c_bands before calling an iterative solver
           575 MiB given to the printing process from OS
             0 MiB allocation reported by mallinfo(arena+hblkhd)
        159213 MiB available memory on the node where the printing process lives
------------------
     ethr =  4.85E-06,  avg # of iterations = 15.6

     negative rho (up, down):  3.610E-03 0.000E+00

     total cpu time spent up to now is     1285.7 secs

     total energy              =  -22293.61332275 Ry
     estimated scf accuracy    <       0.02865483 Ry

     iteration # 10     ecut=    40.00 Ry     beta= 0.40
     Davidson diagonalization with overlap

---- Real-time Memory Report at c_bands before calling an iterative solver
           576 MiB given to the printing process from OS
             0 MiB allocation reported by mallinfo(arena+hblkhd)
        159182 MiB available memory on the node where the printing process lives
------------------
     c_bands:  1 eigenvalues not converged
     ethr =  2.88E-06,  avg # of iterations = 13.0

     negative rho (up, down):  3.639E-03 0.000E+00

     total cpu time spent up to now is     1418.5 secs

     total energy              =  -22293.60943300 Ry
     estimated scf accuracy    <       0.02389349 Ry

     iteration # 11     ecut=    40.00 Ry     beta= 0.40
     Davidson diagonalization with overlap

---- Real-time Memory Report at c_bands before calling an iterative solver
           576 MiB given to the printing process from OS
             0 MiB allocation reported by mallinfo(arena+hblkhd)
        159176 MiB available memory on the node where the printing process lives
------------------
     c_bands:  1 eigenvalues not converged
     ethr =  2.40E-06,  avg # of iterations = 15.8

     negative rho (up, down):  3.746E-03 0.000E+00

     total cpu time spent up to now is     1560.0 secs

     total energy              =  -22293.59720000 Ry
     estimated scf accuracy    <       0.01664951 Ry

     iteration # 12     ecut=    40.00 Ry     beta= 0.40
     Davidson diagonalization with overlap

---- Real-time Memory Report at c_bands before calling an iterative solver
           577 MiB given to the printing process from OS
             0 MiB allocation reported by mallinfo(arena+hblkhd)
        159169 MiB available memory on the node where the printing process lives
------------------
     c_bands:  1 eigenvalues not converged
     c_bands:  1 eigenvalues not converged
     ethr =  1.67E-06,  avg # of iterations = 18.0

     negative rho (up, down):  3.745E-03 0.000E+00

     total cpu time spent up to now is     1731.4 secs

     total energy              =  -22293.59830324 Ry
     estimated scf accuracy    <       0.00282661 Ry

     iteration # 13     ecut=    40.00 Ry     beta= 0.40
     Davidson diagonalization with overlap

---- Real-time Memory Report at c_bands before calling an iterative solver
           577 MiB given to the printing process from OS
             0 MiB allocation reported by mallinfo(arena+hblkhd)
        159161 MiB available memory on the node where the printing process lives
------------------
     c_bands:  1 eigenvalues not converged
     c_bands:  1 eigenvalues not converged
     ethr =  2.84E-07,  avg # of iterations = 16.0

     negative rho (up, down):  3.715E-03 0.000E+00

     total cpu time spent up to now is     1874.9 secs

     total energy              =  -22293.59771962 Ry
     estimated scf accuracy    <       0.00118303 Ry

     iteration # 14     ecut=    40.00 Ry     beta= 0.40
     Davidson diagonalization with overlap

---- Real-time Memory Report at c_bands before calling an iterative solver
           577 MiB given to the printing process from OS
             0 MiB allocation reported by mallinfo(arena+hblkhd)
        159150 MiB available memory on the node where the printing process lives
------------------
     ethr =  1.19E-07,  avg # of iterations =  7.0

     negative rho (up, down):  3.716E-03 0.000E+00

     total cpu time spent up to now is     1994.6 secs

     total energy              =  -22293.59756706 Ry
     estimated scf accuracy    <       0.00416353 Ry

     iteration # 15     ecut=    40.00 Ry     beta= 0.40
     Davidson diagonalization with overlap

---- Real-time Memory Report at c_bands before calling an iterative solver
           577 MiB given to the printing process from OS
             0 MiB allocation reported by mallinfo(arena+hblkhd)
        159148 MiB available memory on the node where the printing process lives
------------------
     ethr =  1.19E-07,  avg # of iterations =  3.8

     negative rho (up, down):  3.706E-03 0.000E+00

     total cpu time spent up to now is     2113.4 secs

     total energy              =  -22293.59800719 Ry
     estimated scf accuracy    <       0.00265433 Ry

     iteration # 16     ecut=    40.00 Ry     beta= 0.40
     Davidson diagonalization with overlap

---- Real-time Memory Report at c_bands before calling an iterative solver
           577 MiB given to the printing process from OS
             0 MiB allocation reported by mallinfo(arena+hblkhd)
        159146 MiB available memory on the node where the printing process lives
------------------
     ethr =  1.19E-07,  avg # of iterations =  1.2

     negative rho (up, down):  3.701E-03 0.000E+00

     total cpu time spent up to now is     2217.2 secs

     total energy              =  -22293.59810210 Ry
     estimated scf accuracy    <       0.00009613 Ry

     iteration # 17     ecut=    40.00 Ry     beta= 0.40
     Davidson diagonalization with overlap

---- Real-time Memory Report at c_bands before calling an iterative solver
           577 MiB given to the printing process from OS
             0 MiB allocation reported by mallinfo(arena+hblkhd)
        159135 MiB available memory on the node where the printing process lives
------------------
     ethr =  9.65E-09,  avg # of iterations =  2.0

     negative rho (up, down):  3.703E-03 0.000E+00

     total cpu time spent up to now is     2332.1 secs

     total energy              =  -22293.59805925 Ry
     estimated scf accuracy    <       0.00048472 Ry

     iteration # 18     ecut=    40.00 Ry     beta= 0.40
     Davidson diagonalization with overlap

---- Real-time Memory Report at c_bands before calling an iterative solver
           577 MiB given to the printing process from OS
             0 MiB allocation reported by mallinfo(arena+hblkhd)
        159137 MiB available memory on the node where the printing process lives
------------------
     ethr =  9.65E-09,  avg # of iterations =  2.0

     negative rho (up, down):  3.701E-03 0.000E+00

     total cpu time spent up to now is     2449.8 secs

     total energy              =  -22293.59811555 Ry
     estimated scf accuracy    <       0.00019000 Ry

     iteration # 19     ecut=    40.00 Ry     beta= 0.40
     Davidson diagonalization with overlap

---- Real-time Memory Report at c_bands before calling an iterative solver
           577 MiB given to the printing process from OS
             0 MiB allocation reported by mallinfo(arena+hblkhd)
        159130 MiB available memory on the node where the printing process lives
------------------
     ethr =  9.65E-09,  avg # of iterations =  1.6

     negative rho (up, down):  3.701E-03 0.000E+00

     total cpu time spent up to now is     2560.7 secs

     total energy              =  -22293.59812848 Ry
     estimated scf accuracy    <       0.00000415 Ry

     iteration # 20     ecut=    40.00 Ry     beta= 0.40
     Davidson diagonalization with overlap

---- Real-time Memory Report at c_bands before calling an iterative solver
           577 MiB given to the printing process from OS
             0 MiB allocation reported by mallinfo(arena+hblkhd)
        159120 MiB available memory on the node where the printing process lives
------------------
     ethr =  4.17E-10,  avg # of iterations =  2.0

     negative rho (up, down):  3.700E-03 0.000E+00

     total cpu time spent up to now is     2677.0 secs

     total energy              =  -22293.59812388 Ry
     estimated scf accuracy    <       0.00003992 Ry

     iteration # 21     ecut=    40.00 Ry     beta= 0.40
     Davidson diagonalization with overlap

---- Real-time Memory Report at c_bands before calling an iterative solver
           577 MiB given to the printing process from OS
             0 MiB allocation reported by mallinfo(arena+hblkhd)
        159122 MiB available memory on the node where the printing process lives
------------------
     ethr =  4.17E-10,  avg # of iterations =  2.0

     negative rho (up, down):  3.700E-03 0.000E+00

     total cpu time spent up to now is     2792.9 secs

     total energy              =  -22293.59812822 Ry
     estimated scf accuracy    <       0.00000895 Ry

     iteration # 22     ecut=    40.00 Ry     beta= 0.40
     Davidson diagonalization with overlap

---- Real-time Memory Report at c_bands before calling an iterative solver
           577 MiB given to the printing process from OS
             0 MiB allocation reported by mallinfo(arena+hblkhd)
        159117 MiB available memory on the node where the printing process lives
------------------
     ethr =  4.17E-10,  avg # of iterations =  2.0

     negative rho (up, down):  3.700E-03 0.000E+00

     total cpu time spent up to now is     2907.8 secs

     End of self-consistent calculation

          k = 0.0000 0.0000 0.0000 ( 71933 PWs)   bands (ev):

  -125.4596-125.4486-125.4473-125.4380-125.3948-125.3871-125.3855-125.3820
  -125.3802-125.3781-125.3680-125.3669-125.3517-125.3365-125.3295-125.3244
  -125.3209-125.3209-125.3197-125.3055-125.3045-125.2970-125.2896-125.2826
  -125.2149-125.2064-125.2040-125.1970-125.1943-125.1940-125.1933-125.1903
  -125.1322-125.1298-125.1248-125.1230-125.1123-125.1072-125.1024-125.1014
  -125.0695-125.0665-125.0603-125.0516-125.0468-125.0456-125.0442-125.0438
   -79.6148 -79.6125 -79.6089 -79.6042 -79.6028 -79.5976 -79.5968 -79.5966
   -79.5954 -79.5943 -79.5866 -79.5797 -79.5510 -79.5505 -79.5445 -79.5434
   -79.5414 -79.5385 -79.5381 -79.5369 -79.5363 -79.5362 -79.5356 -79.5349
   -79.5342 -79.5317 -79.5300 -79.5280 -79.5252 -79.5251 -79.5238 -79.5212
   -79.5188 -79.5183 -79.5172 -79.5086 -79.5074 -79.5045 -79.5011 -79.4940
   -79.4870 -79.4867 -79.4853 -79.4850 -79.4820 -79.4806 -79.4795 -79.4780
   -79.4764 -79.4760 -79.4733 -79.4720 -79.4712 -79.4683 -79.4678 -79.4673
   -79.4668 -79.4649 -79.4641 -79.4569 -79.4538 -79.4512 -79.4505 -79.4488
   -79.4461 -79.4454 -79.4444 -79.4430 -79.4394 -79.4380 -79.4314 -79.4285
   -79.3765 -79.3712 -79.3683 -79.3662 -79.3643 -79.3588 -79.3565 -79.3565
   -79.3561 -79.3561 -79.3558 -79.3552 -79.3543 -79.3535 -79.3521 -79.3479
   -79.3455 -79.3443 -79.3442 -79.3438 -79.3435 -79.3413 -79.3380 -79.3308
   -79.2960 -79.2936 -79.2891 -79.2882 -79.2864 -79.2838 -79.2814 -79.2779
   -79.2767 -79.2761 -79.2752 -79.2744 -79.2728 -79.2682 -79.2679 -79.2669
   -79.2629 -79.2627 -79.2574 -79.2557 -79.2534 -79.2525 -79.2514 -79.2411
   -79.2404 -79.2348 -79.2315 -79.2230 -79.2224 -79.2221 -79.2165 -79.2155
   -79.2149 -79.2138 -79.2133 -79.2128 -79.2091 -79.2049 -79.2010 -79.1998
   -79.1983 -79.1974 -79.1973 -79.1930 -79.1906 -79.1848 -79.1766 -79.1748
   -17.2122 -14.9307 -12.5049 -12.1480  -9.2879  -8.9560  -8.4178  -7.5528
    -7.3130  -7.1965  -7.1708  -7.1584  -7.1516  -7.1046  -7.0701  -7.0066
    -6.9969  -6.9679  -6.9565  -6.9483  -6.9224  -6.9090  -6.9060  -6.8960
    -6.8874  -6.8728  -6.8610  -6.8589  -6.8363  -6.8117  -6.8049  -6.7889
    -6.7826  -6.7801  -6.7778  -6.7549  -6.7544  -6.7317  -6.7275  -6.7256
    -6.7192  -6.7166  -6.7098  -6.7046  -6.6987  -6.6926  -6.6776  -6.6738
    -6.6679  -6.6624  -6.6588  -6.6530  -6.6448  -6.6414  -6.6191  -6.6180
    -6.6127  -6.6102  -6.6064  -6.6038  -6.6027  -6.5787  -6.5775  -6.5557
    -6.5453  -6.5426  -6.5405  -6.5240  -6.5125  -6.5122  -6.4950  -6.4839
    -6.4791  -6.4724  -6.4611  -6.4565  -6.4528  -6.4412  -6.4372  -6.4247
    -6.4233  -6.4200  -6.4185  -6.4048  -6.4027  -6.3890  -6.3845  -6.3818
    -6.3745  -6.3736  -6.3566  -6.3461  -6.3445  -6.3393  -6.3385  -6.3314
    -6.3282  -6.3272  -6.3153  -6.3128  -6.3029  -6.2940  -6.2905  -6.2819
    -6.2790  -6.2735  -6.2733  -6.2637  -6.2605  -6.2563  -6.2545  -6.2431
    -6.2355  -6.2331  -6.2233  -6.2206  -6.2181  -6.2135  -6.1969  -6.1954
    -6.1885  -6.1868  -6.1819  -6.1759  -6.1729  -6.1705  -6.1632  -6.1491
    -6.1477  -6.1429  -6.1401  -6.1380  -6.1282  -6.1201  -6.1148  -6.1128
    -6.1116  -6.1027  -6.1020  -6.0901  -6.0890  -6.0864  -6.0837  -6.0797
    -6.0731  -6.0680  -6.0631  -6.0516  -6.0504  -6.0455  -6.0327  -6.0316
    -6.0262  -6.0228  -6.0202  -6.0181  -6.0080  -6.0056  -5.9981  -5.9903
    -5.9890  -5.9871  -5.9858  -5.9799  -5.9742  -5.9722  -5.9698  -5.9642
    -5.9623  -5.9613  -5.9577  -5.9562  -5.9547  -5.9442  -5.9431  -5.9417
    -5.9384  -5.9361  -5.9312  -5.9287  -5.9220  -5.9188  -5.9108  -5.9104
    -5.9061  -5.9020  -5.9013  -5.8931  -5.8845  -5.8838  -5.8799  -5.8771
    -5.8664  -5.8648  -5.8596  -5.8545  -5.8479  -5.8458  -5.8442  -5.8404
    -5.8399  -5.8375  -5.8346  -5.8318  -5.8316  -5.8308  -5.8258  -5.8245
    -5.8204  -5.8193  -5.8178  -5.8131  -5.8084  -5.8072  -5.8064  -5.8039
    -5.7944  -5.7892  -5.7884  -5.7833  -5.7811  -5.7786  -5.7689  -5.7671
    -5.7666  -5.7552  -5.7541  -5.7504  -5.7465  -5.7416  -5.7398  -5.7186
    -5.7175  -5.7145  -5.7096  -5.7034  -5.7016  -5.6952  -5.6788  -5.6726
    -5.6563  -5.6529  -5.6482  -5.6367  -5.6358  -5.6301  -5.6231  -5.6181
    -5.5793  -5.5768  -5.5602  -5.5304  -5.5200  -5.4858  -5.4831  -5.4141
    -5.4137  -4.8684  -4.6900  -4.6437  -4.5147  -4.5111  -4.2980  -4.2541
    -4.1971  -4.1921  -3.8656  -3.8644  -3.6322  -3.0225  -2.8273  -2.5504
    -2.5004  -2.4909  -2.3030  -2.2743  -2.2275  -2.2227  -2.0608  -1.8926
    -1.8773  -1.8267  -1.7151  -1.6941  -1.6901  -1.6418  -1.2432  -1.0188
    -1.0123  -0.6984  -0.5327  -0.4255  -0.3875  -0.3462  -0.3277  -0.3254
     0.1046   0.1451   0.2513   0.3492   0.3524   0.3787   0.3858   0.6398
     0.6582   0.7651   1.0095   1.4034   1.4265   1.6459   1.6661   1.9702
     2.0118   2.2054   2.2220   2.2266   2.2849   2.3548   2.3559   2.7432
     2.7806   2.8034   2.8381   2.8424   2.9984   3.0183   3.2102   3.4795
     3.5088   3.6865   3.7415   3.7826   4.0524   4.0670   4.0981   4.6198
     4.6263   4.6999   4.7782   4.9001   4.9590   4.9958   5.1943   5.1957
     5.2504   5.2564   5.2679   5.2892   5.3299   5.3631   5.4263   5.5984
     5.6277   5.7125   5.7226   5.7368   5.8666   5.8737   5.9321   5.9373
     5.9550   5.9929   6.0111   6.0396   6.0666   6.1611   6.1948   6.2414
     6.2606   6.2939   6.3254   6.4014   6.4228   6.4977   6.5487   6.6572
     6.7068   6.7872   6.8341   6.8818   6.9192   6.9869   7.0131   7.0344
     7.0706   7.1127   7.2480   7.2755   7.2857   7.3617   7.3791   7.4112
     7.4402   7.5526   7.5907   7.6590   7.7004   7.7026   7.7376   7.7670
     7.7702   7.9058   7.9278   7.9562   8.0794   8.1616

     occupation numbers 
     1.0000   1.0000   1.0000   1.0000   1.0000   1.0000   1.0000   1.0000
     1.0000   1.0000   1.0000   1.0000   1.0000   1.0000   1.0000   1.0000
     1.0000   1.0000   1.0000   1.0000   1.0000   1.0000   1.0000   1.0000
     1.0000   1.0000   1.0000   1.0000   1.0000   1.0000   1.0000   1.0000
     1.0000   1.0000   1.0000   1.0000   1.0000   1.0000   1.0000   1.0000
     1.0000   1.0000   1.0000   1.0000   1.0000   1.0000   1.0000   1.0000
     1.0000   1.0000   1.0000   1.0000   1.0000   1.0000   1.0000   1.0000
     1.0000   1.0000   1.0000   1.0000   1.0000   1.0000   1.0000   1.0000
     1.0000   1.0000   1.0000   1.0000   1.0000   1.0000   1.0000   1.0000
     1.0000   1.0000   1.0000   1.0000   1.0000   1.0000   1.0000   1.0000
     1.0000   1.0000   1.0000   1.0000   1.0000   1.0000   1.0000   1.0000
     1.0000   1.0000   1.0000   1.0000   1.0000   1.0000   1.0000   1.0000
     1.0000   1.0000   1.0000   1.0000   1.0000   1.0000   1.0000   1.0000
     1.0000   1.0000   1.0000   1.0000   1.0000   1.0000   1.0000   1.0000
     1.0000   1.0000   1.0000   1.0000   1.0000   1.0000   1.0000   1.0000
     1.0000   1.0000   1.0000   1.0000   1.0000   1.0000   1.0000   1.0000
     1.0000   1.0000   1.0000   1.0000   1.0000   1.0000   1.0000   1.0000
     1.0000   1.0000   1.0000   1.0000   1.0000   1.0000   1.0000   1.0000
     1.0000   1.0000   1.0000   1.0000   1.0000   1.0000   1.0000   1.0000
     1.0000   1.0000   1.0000   1.0000   1.0000   1.0000   1.0000   1.0000
     1.0000   1.0000   1.0000   1.0000   1.0000   1.0000   1.0000   1.0000
     1.0000   1.0000   1.0000   1.0000   1.0000   1.0000   1.0000   1.0000
     1.0000   1.0000   1.0000   1.0000   1.0000   1.0000   1.0000   1.0000
     1.0000   1.0000   1.0000   1.0000   1.0000   1.0000   1.0000   1.0000
     1.0000   1.0000   1.0000   1.0000   1.0000   1.0000   1.0000   1.0000
     1.0000   1.0000   1.0000   1.0000   1.0000   1.0000   1.0000   1.0000
     1.0000   1.0000   1.0000   1.0000   1.0000   1.0000   1.0000   1.0000
     1.0000   1.0000   1.0000   1.0000   1.0000   1.0000   1.0000   1.0000
     1.0000   1.0000   1.0000   1.0000   1.0000   1.0000   1.0000   1.0000
     1.0000   1.0000   1.0000   1.0000   1.0000   1.0000   1.0000   1.0000
     1.0000   1.0000   1.0000   1.0000   1.0000   1.0000   1.0000   1.0000
     1.0000   1.0000   1.0000   1.0000   1.0000   1.0000   1.0000   1.0000
     1.0000   1.0000   1.0000   1.0000   1.0000   1.0000   1.0000   1.0000
     1.0000   1.0000   1.0000   1.0000   1.0000   1.0000   1.0000   1.0000
     1.0000   1.0000   1.0000   1.0000   1.0000   1.0000   1.0000   1.0000
     1.0000   1.0000   1.0000   1.0000   1.0000   1.0000   1.0000   1.0000
     1.0000   1.0000   1.0000   1.0000   1.0000   1.0000   1.0000   1.0000
     1.0000   1.0000   1.0000   1.0000   1.0000   1.0000   1.0000   1.0000
     1.0000   1.0000   1.0000   1.0000   1.0000   1.0000   1.0000   1.0000
     1.0000   1.0000   1.0000   1.0000   1.0000   1.0000   1.0000   1.0000
     1.0000   1.0000   1.0000   1.0000   1.0000   1.0000   1.0000   1.0000
     1.0000   1.0000   1.0000   1.0000   1.0000   1.0000   1.0000   1.0000
     1.0000   1.0000   1.0000   1.0000   1.0000   1.0000   1.0000   1.0000
     1.0000   1.0000   1.0000   1.0000   1.0000   1.0000   1.0000   1.0000
     1.0000   1.0000   1.0000   1.0000   1.0000   1.0000   1.0000   1.0000
     1.0000   1.0000   1.0000   1.0000   1.0000   1.0000   1.0000   1.0000
     1.0000   1.0000   1.0000   1.0000   1.0000   1.0000   1.0000   1.0000
     1.0000   1.0000   1.0000   1.0000   1.0000   1.0000   1.0000   1.0000
     1.0000   1.0000   1.0000   1.0000   1.0000   1.0000   1.0000   1.0000
     1.0000   1.0000   1.0000   1.0000   1.0000   1.0000   1.0000   1.0000
     1.0000   1.0000   1.0000   1.0000   1.0000   1.0000   1.0000   1.0000
     1.0000   1.0000   1.0000   1.0000   1.0000   1.0000   1.0000   1.0000
     1.0000   1.0000   1.0000   1.0000   1.0000   1.0000   1.0000   1.0000
     1.0000   1.0000   1.0000   1.0000   1.0000   1.0000   1.0000   1.0000
     1.0000   1.0000   1.0000   1.0000   1.0000   1.0000   1.0000   1.0000
     1.0000   1.0000   1.0000   1.0000   1.0000   1.0000   1.0000   1.0000
     1.0000   1.0000   1.0000   1.0000   1.0000   1.0000   1.0000   1.0000
     1.0000   1.0000   1.0000   1.0000   1.0000   1.0000   1.0000   1.0000
     1.0000   1.0000   1.0000   1.0000   1.0000   1.0000   1.0000   1.0000
     1.0000   1.0000   1.0000   1.0000   1.0000   1.0000   1.0000   1.0000
     1.0000   1.0000   1.0000   1.0000   1.0000   1.0000   1.0000   1.0000
     1.0001   1.0003   1.0019   1.0079   1.0083   1.0115   1.0125   1.0812
     1.0831   1.0411   0.5100   0.0096   0.0067   0.0001   0.0001   0.0000
     0.0000   0.0000   0.0000   0.0000   0.0000   0.0000   0.0000   0.0000
     0.0000   0.0000   0.0000   0.0000   0.0000   0.0000   0.0000   0.0000
     0.0000   0.0000   0.0000   0.0000   0.0000   0.0000   0.0000   0.0000
     0.0000   0.0000   0.0000   0.0000   0.0000   0.0000   0.0000   0.0000
     0.0000   0.0000   0.0000   0.0000   0.0000   0.0000   0.0000   0.0000
     0.0000   0.0000   0.0000   0.0000   0.0000   0.0000   0.0000   0.0000
     0.0000   0.0000   0.0000   0.0000   0.0000   0.0000   0.0000   0.0000
     0.0000   0.0000   0.0000   0.0000   0.0000   0.0000   0.0000   0.0000
     0.0000   0.0000   0.0000   0.0000   0.0000   0.0000   0.0000   0.0000
     0.0000   0.0000   0.0000   0.0000   0.0000   0.0000   0.0000   0.0000
     0.0000   0.0000   0.0000   0.0000   0.0000   0.0000   0.0000   0.0000
     0.0000   0.0000   0.0000   0.0000   0.0000   0.0000

          k = 0.0000 0.3628 0.1846 ( 71963 PWs)   bands (ev):

  -125.4596-125.4486-125.4473-125.4380-125.3948-125.3871-125.3855-125.3820
  -125.3802-125.3781-125.3680-125.3669-125.3517-125.3365-125.3295-125.3244
  -125.3209-125.3209-125.3197-125.3055-125.3045-125.2970-125.2896-125.2826
  -125.2149-125.2064-125.2040-125.1970-125.1943-125.1940-125.1933-125.1903
  -125.1322-125.1298-125.1248-125.1230-125.1123-125.1072-125.1024-125.1014
  -125.0695-125.0665-125.0603-125.0516-125.0468-125.0456-125.0442-125.0438
   -79.6148 -79.6120 -79.6088 -79.6042 -79.6028 -79.6006 -79.5976 -79.5964
   -79.5943 -79.5919 -79.5866 -79.5802 -79.5506 -79.5502 -79.5445 -79.5434
   -79.5414 -79.5406 -79.5384 -79.5375 -79.5368 -79.5363 -79.5351 -79.5343
   -79.5317 -79.5311 -79.5301 -79.5280 -79.5273 -79.5252 -79.5239 -79.5220
   -79.5183 -79.5173 -79.5162 -79.5086 -79.5081 -79.5043 -79.5011 -79.4940
   -79.4874 -79.4867 -79.4866 -79.4850 -79.4820 -79.4796 -79.4786 -79.4778
   -79.4764 -79.4758 -79.4732 -79.4720 -79.4713 -79.4685 -79.4678 -79.4673
   -79.4668 -79.4658 -79.4651 -79.4551 -79.4538 -79.4511 -79.4505 -79.4500
   -79.4461 -79.4454 -79.4449 -79.4417 -79.4394 -79.4380 -79.4314 -79.4289
   -79.3765 -79.3707 -79.3683 -79.3662 -79.3643 -79.3592 -79.3588 -79.3564
   -79.3561 -79.3561 -79.3554 -79.3549 -79.3538 -79.3522 -79.3508 -79.3494
   -79.3479 -79.3454 -79.3442 -79.3442 -79.3413 -79.3385 -79.3379 -79.3322
   -79.2960 -79.2936 -79.2883 -79.2878 -79.2864 -79.2838 -79.2816 -79.2814
   -79.2779 -79.2761 -79.2744 -79.2728 -79.2704 -79.2679 -79.2672 -79.2669
   -79.2641 -79.2627 -79.2598 -79.2574 -79.2527 -79.2515 -79.2489 -79.2422
   -79.2404 -79.2348 -79.2315 -79.2230 -79.2224 -79.2221 -79.2165 -79.2155
   -79.2149 -79.2138 -79.2133 -79.2125 -79.2088 -79.2049 -79.2010 -79.1998
   -79.1990 -79.1983 -79.1974 -79.1945 -79.1889 -79.1829 -79.1770 -79.1755
   -17.2122 -14.9307 -12.5049 -12.1480  -9.2880  -8.9560  -8.2520  -7.7783
    -7.4578  -7.1943  -7.1862  -7.1676  -7.0722  -7.0236  -6.9973  -6.9704
    -6.9455  -6.9362  -6.9300  -6.9199  -6.9166  -6.9122  -6.8969  -6.8874
    -6.8697  -6.8670  -6.8612  -6.8537  -6.8356  -6.8307  -6.8256  -6.8164
    -6.8137  -6.8095  -6.8036  -6.7958  -6.7847  -6.7770  -6.7665  -6.7587
    -6.7477  -6.7408  -6.7369  -6.7277  -6.7226  -6.7138  -6.7097  -6.7004
    -6.6916  -6.6847  -6.6704  -6.6631  -6.6419  -6.6356  -6.6318  -6.6202
    -6.6110  -6.5995  -6.5876  -6.5838  -6.5794  -6.5723  -6.5527  -6.5517
    -6.5440  -6.5291  -6.5234  -6.5168  -6.5093  -6.5048  -6.5004  -6.4855
    -6.4829  -6.4768  -6.4716  -6.4637  -6.4598  -6.4554  -6.4516  -6.4414
    -6.4325  -6.4277  -6.4234  -6.4191  -6.4176  -6.4134  -6.4050  -6.3998
    -6.3943  -6.3863  -6.3774  -6.3584  -6.3538  -6.3440  -6.3402  -6.3341
    -6.3322  -6.3255  -6.3225  -6.3172  -6.3149  -6.3101  -6.3009  -6.2946
    -6.2891  -6.2857  -6.2841  -6.2797  -6.2774  -6.2714  -6.2657  -6.2608
    -6.2563  -6.2512  -6.2460  -6.2422  -6.2395  -6.2259  -6.2172  -6.2082
    -6.2047  -6.1983  -6.1841  -6.1825  -6.1782  -6.1754  -6.1698  -6.1671
    -6.1631  -6.1589  -6.1471  -6.1402  -6.1302  -6.1280  -6.1158  -6.1127
    -6.1108  -6.1046  -6.1001  -6.0988  -6.0945  -6.0916  -6.0786  -6.0783
    -6.0728  -6.0601  -6.0570  -6.0533  -6.0379  -6.0282  -6.0190  -6.0160
    -6.0143  -6.0131  -6.0077  -6.0031  -6.0007  -5.9964  -5.9910  -5.9886
    -5.9782  -5.9758  -5.9710  -5.9663  -5.9635  -5.9626  -5.9562  -5.9545
    -5.9541  -5.9490  -5.9378  -5.9339  -5.9320  -5.9281  -5.9239  -5.9170
    -5.9140  -5.9106  -5.9092  -5.9051  -5.8952  -5.8936  -5.8918  -5.8890
    -5.8823  -5.8788  -5.8778  -5.8741  -5.8707  -5.8689  -5.8665  -5.8597
    -5.8554  -5.8519  -5.8489  -5.8471  -5.8447  -5.8427  -5.8407  -5.8356
    -5.8317  -5.8303  -5.8284  -5.8251  -5.8202  -5.8157  -5.8121  -5.8106
    -5.8082  -5.8045  -5.8013  -5.7984  -5.7942  -5.7833  -5.7828  -5.7814
    -5.7806  -5.7789  -5.7699  -5.7670  -5.7660  -5.7586  -5.7552  -5.7498
    -5.7434  -5.7383  -5.7351  -5.7333  -5.7315  -5.7254  -5.7247  -5.7226
    -5.7150  -5.7100  -5.7096  -5.7062  -5.7034  -5.7012  -5.6902  -5.6871
    -5.6799  -5.6751  -5.6683  -5.6671  -5.6626  -5.6450  -5.6287  -5.6030
    -5.5997  -5.5912  -5.5783  -5.5463  -5.5326  -5.5174  -5.4592  -5.1545
    -5.0785  -5.0545  -4.7454  -4.7010  -4.6842  -4.6387  -4.4164  -4.2548
    -4.0759  -3.6476  -3.6331  -3.4566  -3.4313  -3.4117  -2.9830  -2.9050
    -2.8929  -2.8190  -2.6738  -2.6148  -2.4173  -2.2721  -1.9664  -1.9459
    -1.8171  -1.7981  -1.7042  -1.6196  -1.5656  -1.2716  -1.2038  -1.0296
    -0.8755  -0.7973  -0.7233  -0.6918  -0.6178  -0.3878  -0.3323  -0.1239
    -0.1027   0.1240   0.2864   0.4098   0.4499   0.5938   0.6377   0.7326
     0.7636   1.0550   1.1405   1.3160   1.4147   1.5505   1.7498   1.9180
     1.9779   2.1674   2.2100   2.2551   2.3847   2.4939   2.8376   2.8970
     2.9945   3.1157   3.2020   3.2925   3.4201   3.4929   3.5891   3.5988
     3.6307   3.7279   3.7745   3.8706   4.1257   4.2024   4.2361   4.2504
     4.2717   4.4012   4.4573   4.5257   4.5917   4.6176   4.6591   4.7826
     4.8361   4.8957   4.9463   4.9723   5.0260   5.1337   5.1770   5.3073
     5.3292   5.3923   5.4203   5.5050   5.5763   5.6436   5.7112   5.8254
     5.8717   5.9472   6.0802   6.1000   6.1185   6.1623   6.2175   6.2467
     6.3013   6.3156   6.3647   6.5038   6.5252   6.5416   6.5856   6.6742
     6.7719   6.8089   6.8489   6.9296   6.9678   7.0197   7.0860   7.0950
     7.1147   7.2204   7.2789   7.2985   7.3633   7.4063   7.4463   7.4745
     7.5322   7.5581   7.5991   7.6210   7.7058   7.7393   7.7687   7.8007
     7.8331   7.9410   8.0049   8.0168   8.0578   8.1013

     occupation numbers 
     1.0000   1.0000   1.0000   1.0000   1.0000   1.0000   1.0000   1.0000
     1.0000   1.0000   1.0000   1.0000   1.0000   1.0000   1.0000   1.0000
     1.0000   1.0000   1.0000   1.0000   1.0000   1.0000   1.0000   1.0000
     1.0000   1.0000   1.0000   1.0000   1.0000   1.0000   1.0000   1.0000
     1.0000   1.0000   1.0000   1.0000   1.0000   1.0000   1.0000   1.0000
     1.0000   1.0000   1.0000   1.0000   1.0000   1.0000   1.0000   1.0000
     1.0000   1.0000   1.0000   1.0000   1.0000   1.0000   1.0000   1.0000
     1.0000   1.0000   1.0000   1.0000   1.0000   1.0000   1.0000   1.0000
     1.0000   1.0000   1.0000   1.0000   1.0000   1.0000   1.0000   1.0000
     1.0000   1.0000   1.0000   1.0000   1.0000   1.0000   1.0000   1.0000
     1.0000   1.0000   1.0000   1.0000   1.0000   1.0000   1.0000   1.0000
     1.0000   1.0000   1.0000   1.0000   1.0000   1.0000   1.0000   1.0000
     1.0000   1.0000   1.0000   1.0000   1.0000   1.0000   1.0000   1.0000
     1.0000   1.0000   1.0000   1.0000   1.0000   1.0000   1.0000   1.0000
     1.0000   1.0000   1.0000   1.0000   1.0000   1.0000   1.0000   1.0000
     1.0000   1.0000   1.0000   1.0000   1.0000   1.0000   1.0000   1.0000
     1.0000   1.0000   1.0000   1.0000   1.0000   1.0000   1.0000   1.0000
     1.0000   1.0000   1.0000   1.0000   1.0000   1.0000   1.0000   1.0000
     1.0000   1.0000   1.0000   1.0000   1.0000   1.0000   1.0000   1.0000
     1.0000   1.0000   1.0000   1.0000   1.0000   1.0000   1.0000   1.0000
     1.0000   1.0000   1.0000   1.0000   1.0000   1.0000   1.0000   1.0000
     1.0000   1.0000   1.0000   1.0000   1.0000   1.0000   1.0000   1.0000
     1.0000   1.0000   1.0000   1.0000   1.0000   1.0000   1.0000   1.0000
     1.0000   1.0000   1.0000   1.0000   1.0000   1.0000   1.0000   1.0000
     1.0000   1.0000   1.0000   1.0000   1.0000   1.0000   1.0000   1.0000
     1.0000   1.0000   1.0000   1.0000   1.0000   1.0000   1.0000   1.0000
     1.0000   1.0000   1.0000   1.0000   1.0000   1.0000   1.0000   1.0000
     1.0000   1.0000   1.0000   1.0000   1.0000   1.0000   1.0000   1.0000
     1.0000   1.0000   1.0000   1.0000   1.0000   1.0000   1.0000   1.0000
     1.0000   1.0000   1.0000   1.0000   1.0000   1.0000   1.0000   1.0000
     1.0000   1.0000   1.0000   1.0000   1.0000   1.0000   1.0000   1.0000
     1.0000   1.0000   1.0000   1.0000   1.0000   1.0000   1.0000   1.0000
     1.0000   1.0000   1.0000   1.0000   1.0000   1.0000   1.0000   1.0000
     1.0000   1.0000   1.0000   1.0000   1.0000   1.0000   1.0000   1.0000
     1.0000   1.0000   1.0000   1.0000   1.0000   1.0000   1.0000   1.0000
     1.0000   1.0000   1.0000   1.0000   1.0000   1.0000   1.0000   1.0000
     1.0000   1.0000   1.0000   1.0000   1.0000   1.0000   1.0000   1.0000
     1.0000   1.0000   1.0000   1.0000   1.0000   1.0000   1.0000   1.0000
     1.0000   1.0000   1.0000   1.0000   1.0000   1.0000   1.0000   1.0000
     1.0000   1.0000   1.0000   1.0000   1.0000   1.0000   1.0000   1.0000
     1.0000   1.0000   1.0000   1.0000   1.0000   1.0000   1.0000   1.0000
     1.0000   1.0000   1.0000   1.0000   1.0000   1.0000   1.0000   1.0000
     1.0000   1.0000   1.0000   1.0000   1.0000   1.0000   1.0000   1.0000
     1.0000   1.0000   1.0000   1.0000   1.0000   1.0000   1.0000   1.0000
     1.0000   1.0000   1.0000   1.0000   1.0000   1.0000   1.0000   1.0000
     1.0000   1.0000   1.0000   1.0000   1.0000   1.0000   1.0000   1.0000
     1.0000   1.0000   1.0000   1.0000   1.0000   1.0000   1.0000   1.0000
     1.0000   1.0000   1.0000   1.0000   1.0000   1.0000   1.0000   1.0000
     1.0000   1.0000   1.0000   1.0000   1.0000   1.0000   1.0000   1.0000
     1.0000   1.0000   1.0000   1.0000   1.0000   1.0000   1.0000   1.0000
     1.0000   1.0000   1.0000   1.0000   1.0000   1.0000   1.0000   1.0000
     1.0000   1.0000   1.0000   1.0000   1.0000   1.0000   1.0000   1.0000
     1.0000   1.0000   1.0000   1.0000   1.0000   1.0000   1.0000   1.0000
     1.0000   1.0000   1.0000   1.0000   1.0000   1.0000   1.0000   1.0000
     1.0000   1.0000   1.0000   1.0000   1.0000   1.0000   1.0000   1.0000
     1.0000   1.0000   1.0000   1.0000   1.0000   1.0000   1.0000   1.0000
     1.0000   1.0000   1.0000   1.0000   1.0000   1.0000   1.0000   1.0000
     1.0000   1.0000   1.0000   1.0000   1.0000   1.0000   1.0000   1.0000
     1.0000   1.0000   1.0000   1.0000   1.0000   1.0000   1.0000   1.0000
     1.0000   1.0000   1.0000   1.0000   1.0000   1.0000   1.0000   1.0000
     1.0000   1.0000   1.0000   1.0000   1.0000   1.0000   1.0000   1.0000
     1.0000   1.0002   1.0033   1.0164   1.0249   1.0703   1.0809   1.0658
     1.0425   0.3909   0.2081   0.0324   0.0081   0.0008   0.0000   0.0000
     0.0000   0.0000   0.0000   0.0000   0.0000   0.0000   0.0000   0.0000
     0.0000   0.0000   0.0000   0.0000   0.0000   0.0000   0.0000   0.0000
     0.0000   0.0000   0.0000   0.0000   0.0000   0.0000   0.0000   0.0000
     0.0000   0.0000   0.0000   0.0000   0.0000   0.0000   0.0000   0.0000
     0.0000   0.0000   0.0000   0.0000   0.0000   0.0000   0.0000   0.0000
     0.0000   0.0000   0.0000   0.0000   0.0000   0.0000   0.0000   0.0000
     0.0000   0.0000   0.0000   0.0000   0.0000   0.0000   0.0000   0.0000
     0.0000   0.0000   0.0000   0.0000   0.0000   0.0000   0.0000   0.0000
     0.0000   0.0000   0.0000   0.0000   0.0000   0.0000   0.0000   0.0000
     0.0000   0.0000   0.0000   0.0000   0.0000   0.0000   0.0000   0.0000
     0.0000   0.0000   0.0000   0.0000   0.0000   0.0000   0.0000   0.0000
     0.0000   0.0000   0.0000   0.0000   0.0000   0.0000

          k = 0.3333 0.0811 0.7384 ( 72005 PWs)   bands (ev):

  -125.4596-125.4486-125.4473-125.4380-125.3948-125.3871-125.3855-125.3820
  -125.3802-125.3781-125.3680-125.3669-125.3517-125.3365-125.3295-125.3244
  -125.3209-125.3209-125.3197-125.3055-125.3045-125.2970-125.2896-125.2826
  -125.2149-125.2064-125.2040-125.1970-125.1943-125.1940-125.1933-125.1903
  -125.1322-125.1298-125.1248-125.1230-125.1123-125.1072-125.1024-125.1014
  -125.0695-125.0665-125.0603-125.0516-125.0468-125.0456-125.0442-125.0438
   -79.6148 -79.6125 -79.6089 -79.6042 -79.6028 -79.5976 -79.5968 -79.5966
   -79.5954 -79.5943 -79.5866 -79.5797 -79.5510 -79.5505 -79.5445 -79.5434
   -79.5414 -79.5385 -79.5381 -79.5369 -79.5363 -79.5362 -79.5356 -79.5349
   -79.5342 -79.5317 -79.5300 -79.5280 -79.5252 -79.5251 -79.5238 -79.5212
   -79.5188 -79.5183 -79.5172 -79.5086 -79.5074 -79.5045 -79.5011 -79.4940
   -79.4870 -79.4867 -79.4853 -79.4850 -79.4820 -79.4806 -79.4795 -79.4780
   -79.4764 -79.4760 -79.4733 -79.4720 -79.4712 -79.4683 -79.4678 -79.4673
   -79.4668 -79.4649 -79.4641 -79.4569 -79.4538 -79.4512 -79.4505 -79.4488
   -79.4461 -79.4454 -79.4444 -79.4430 -79.4394 -79.4380 -79.4314 -79.4285
   -79.3765 -79.3712 -79.3683 -79.3662 -79.3643 -79.3588 -79.3565 -79.3565
   -79.3561 -79.3561 -79.3558 -79.3552 -79.3543 -79.3535 -79.3521 -79.3479
   -79.3455 -79.3442 -79.3442 -79.3438 -79.3435 -79.3413 -79.3380 -79.3309
   -79.2960 -79.2936 -79.2891 -79.2882 -79.2864 -79.2838 -79.2814 -79.2779
   -79.2767 -79.2761 -79.2752 -79.2744 -79.2728 -79.2682 -79.2679 -79.2669
   -79.2629 -79.2627 -79.2574 -79.2557 -79.2534 -79.2525 -79.2514 -79.2411
   -79.2404 -79.2348 -79.2315 -79.2230 -79.2224 -79.2221 -79.2165 -79.2155
   -79.2149 -79.2138 -79.2133 -79.2128 -79.2091 -79.2049 -79.2010 -79.1998
   -79.1983 -79.1974 -79.1973 -79.1930 -79.1906 -79.1848 -79.1766 -79.1748
   -17.2122 -14.9307 -12.5049 -12.1480  -9.2880  -8.9560  -8.2922  -7.9006
    -7.2090  -7.2009  -7.1853  -7.1398  -7.1064  -7.0925  -7.0762  -7.0010
    -6.9857  -6.9745  -6.9703  -6.9670  -6.9318  -6.9124  -6.8962  -6.8879
    -6.8770  -6.8732  -6.8636  -6.8466  -6.8307  -6.8226  -6.8118  -6.8018
    -6.7860  -6.7795  -6.7684  -6.7602  -6.7523  -6.7421  -6.7282  -6.7215
    -6.7121  -6.7095  -6.7017  -6.6962  -6.6871  -6.6851  -6.6833  -6.6747
    -6.6700  -6.6632  -6.6601  -6.6571  -6.6459  -6.6396  -6.6210  -6.6176
    -6.6170  -6.6118  -6.6084  -6.6015  -6.5917  -6.5834  -6.5757  -6.5660
    -6.5457  -6.5402  -6.5277  -6.5224  -6.5152  -6.5074  -6.4997  -6.4867
    -6.4800  -6.4676  -6.4643  -6.4570  -6.4482  -6.4327  -6.4303  -6.4197
    -6.4185  -6.4148  -6.4111  -6.4061  -6.3988  -6.3955  -6.3919  -6.3839
    -6.3772  -6.3683  -6.3645  -6.3592  -6.3515  -6.3427  -6.3397  -6.3386
    -6.3302  -6.3226  -6.3204  -6.3190  -6.3089  -6.3060  -6.2934  -6.2911
    -6.2778  -6.2754  -6.2695  -6.2640  -6.2573  -6.2528  -6.2491  -6.2464
    -6.2373  -6.2300  -6.2283  -6.2209  -6.2168  -6.2153  -6.2021  -6.1970
    -6.1903  -6.1785  -6.1752  -6.1714  -6.1619  -6.1602  -6.1576  -6.1545
    -6.1484  -6.1385  -6.1326  -6.1276  -6.1255  -6.1224  -6.1204  -6.1186
    -6.1111  -6.1023  -6.0966  -6.0923  -6.0895  -6.0817  -6.0774  -6.0715
    -6.0677  -6.0655  -6.0548  -6.0522  -6.0453  -6.0371  -6.0343  -6.0323
    -6.0264  -6.0252  -6.0211  -6.0192  -6.0177  -6.0159  -6.0105  -6.0041
    -6.0008  -5.9955  -5.9896  -5.9858  -5.9838  -5.9800  -5.9794  -5.9752
    -5.9724  -5.9640  -5.9601  -5.9570  -5.9491  -5.9451  -5.9401  -5.9364
    -5.9314  -5.9304  -5.9293  -5.9278  -5.9221  -5.9202  -5.9191  -5.9169
    -5.9112  -5.9077  -5.8934  -5.8897  -5.8837  -5.8815  -5.8797  -5.8759
    -5.8726  -5.8704  -5.8675  -5.8587  -5.8514  -5.8482  -5.8456  -5.8443
    -5.8435  -5.8381  -5.8368  -5.8346  -5.8305  -5.8233  -5.8203  -5.8179
    -5.8151  -5.8136  -5.8084  -5.8066  -5.8031  -5.7992  -5.7941  -5.7915
    -5.7889  -5.7884  -5.7807  -5.7767  -5.7725  -5.7706  -5.7683  -5.7622
    -5.7567  -5.7544  -5.7516  -5.7490  -5.7455  -5.7375  -5.7295  -5.7254
    -5.7230  -5.7095  -5.7074  -5.7041  -5.6919  -5.6894  -5.6784  -5.6616
    -5.6550  -5.6508  -5.6385  -5.6367  -5.6328  -5.6274  -5.6225  -5.5961
    -5.5761  -5.5607  -5.5289  -5.5235  -5.5138  -5.4818  -5.4796  -5.2653
    -5.1854  -5.1559  -4.6914  -4.6558  -4.6445  -4.5717  -4.3781  -4.2542
    -4.1365  -4.0230  -3.6398  -3.6291  -3.5882  -3.5533  -2.9561  -2.9453
    -2.9317  -2.8244  -2.4485  -2.2738  -2.0538  -2.0457  -2.0305  -1.9912
    -1.8276  -1.7537  -1.6894  -1.4105  -1.2804  -1.2546  -1.2431  -0.8415
    -0.8306  -0.6539  -0.5857  -0.5335  -0.5026  -0.4781  -0.3896  -0.3875
    -0.3360   0.1957   0.2602   0.4032   0.5230   0.5412   0.5733   0.7369
     0.8115   1.1245   1.2422   1.2805   1.3081   1.3350   1.5845   1.7495
     1.8373   1.8782   1.9635   2.1606   2.4498   2.4767   2.5871   2.7225
     2.7456   2.7834   2.8011   3.1962   3.2540   3.3357   3.4204   3.5147
     3.6033   3.7017   3.8639   4.0703   4.1115   4.1840   4.2578   4.3064
     4.3457   4.3610   4.5570   4.6253   4.6637   4.7871   4.7896   4.7946
     4.8501   4.9362   4.9709   5.0155   5.1648   5.1742   5.2935   5.3903
     5.4353   5.4644   5.5486   5.6309   5.7267   5.7675   5.8654   5.9367
     6.0167   6.1204   6.1729   6.2156   6.2596   6.3555   6.3666   6.4101
     6.4327   6.4664   6.6092   6.6492   6.6843   6.7092   6.7424   6.8081
     6.8255   6.8991   6.9457   6.9648   6.9901   7.0607   7.0909   7.1833
     7.2175   7.2320   7.2519   7.2977   7.3319   7.4004   7.4255   7.4674
     7.5025   7.5646   7.6060   7.6448   7.6939   7.7181   7.7668   7.7902
     7.8095   7.8428   7.8731   7.8909   7.9897   8.0410

     occupation numbers 
     1.0000   1.0000   1.0000   1.0000   1.0000   1.0000   1.0000   1.0000
     1.0000   1.0000   1.0000   1.0000   1.0000   1.0000   1.0000   1.0000
     1.0000   1.0000   1.0000   1.0000   1.0000   1.0000   1.0000   1.0000
     1.0000   1.0000   1.0000   1.0000   1.0000   1.0000   1.0000   1.0000
     1.0000   1.0000   1.0000   1.0000   1.0000   1.0000   1.0000   1.0000
     1.0000   1.0000   1.0000   1.0000   1.0000   1.0000   1.0000   1.0000
     1.0000   1.0000   1.0000   1.0000   1.0000   1.0000   1.0000   1.0000
     1.0000   1.0000   1.0000   1.0000   1.0000   1.0000   1.0000   1.0000
     1.0000   1.0000   1.0000   1.0000   1.0000   1.0000   1.0000   1.0000
     1.0000   1.0000   1.0000   1.0000   1.0000   1.0000   1.0000   1.0000
     1.0000   1.0000   1.0000   1.0000   1.0000   1.0000   1.0000   1.0000
     1.0000   1.0000   1.0000   1.0000   1.0000   1.0000   1.0000   1.0000
     1.0000   1.0000   1.0000   1.0000   1.0000   1.0000   1.0000   1.0000
     1.0000   1.0000   1.0000   1.0000   1.0000   1.0000   1.0000   1.0000
     1.0000   1.0000   1.0000   1.0000   1.0000   1.0000   1.0000   1.0000
     1.0000   1.0000   1.0000   1.0000   1.0000   1.0000   1.0000   1.0000
     1.0000   1.0000   1.0000   1.0000   1.0000   1.0000   1.0000   1.0000
     1.0000   1.0000   1.0000   1.0000   1.0000   1.0000   1.0000   1.0000
     1.0000   1.0000   1.0000   1.0000   1.0000   1.0000   1.0000   1.0000
     1.0000   1.0000   1.0000   1.0000   1.0000   1.0000   1.0000   1.0000
     1.0000   1.0000   1.0000   1.0000   1.0000   1.0000   1.0000   1.0000
     1.0000   1.0000   1.0000   1.0000   1.0000   1.0000   1.0000   1.0000
     1.0000   1.0000   1.0000   1.0000   1.0000   1.0000   1.0000   1.0000
     1.0000   1.0000   1.0000   1.0000   1.0000   1.0000   1.0000   1.0000
     1.0000   1.0000   1.0000   1.0000   1.0000   1.0000   1.0000   1.0000
     1.0000   1.0000   1.0000   1.0000   1.0000   1.0000   1.0000   1.0000
     1.0000   1.0000   1.0000   1.0000   1.0000   1.0000   1.0000   1.0000
     1.0000   1.0000   1.0000   1.0000   1.0000   1.0000   1.0000   1.0000
     1.0000   1.0000   1.0000   1.0000   1.0000   1.0000   1.0000   1.0000
     1.0000   1.0000   1.0000   1.0000   1.0000   1.0000   1.0000   1.0000
     1.0000   1.0000   1.0000   1.0000   1.0000   1.0000   1.0000   1.0000
     1.0000   1.0000   1.0000   1.0000   1.0000   1.0000   1.0000   1.0000
     1.0000   1.0000   1.0000   1.0000   1.0000   1.0000   1.0000   1.0000
     1.0000   1.0000   1.0000   1.0000   1.0000   1.0000   1.0000   1.0000
     1.0000   1.0000   1.0000   1.0000   1.0000   1.0000   1.0000   1.0000
     1.0000   1.0000   1.0000   1.0000   1.0000   1.0000   1.0000   1.0000
     1.0000   1.0000   1.0000   1.0000   1.0000   1.0000   1.0000   1.0000
     1.0000   1.0000   1.0000   1.0000   1.0000   1.0000   1.0000   1.0000
     1.0000   1.0000   1.0000   1.0000   1.0000   1.0000   1.0000   1.0000
     1.0000   1.0000   1.0000   1.0000   1.0000   1.0000   1.0000   1.0000
     1.0000   1.0000   1.0000   1.0000   1.0000   1.0000   1.0000   1.0000
     1.0000   1.0000   1.0000   1.0000   1.0000   1.0000   1.0000   1.0000
     1.0000   1.0000   1.0000   1.0000   1.0000   1.0000   1.0000   1.0000
     1.0000   1.0000   1.0000   1.0000   1.0000   1.0000   1.0000   1.0000
     1.0000   1.0000   1.0000   1.0000   1.0000   1.0000   1.0000   1.0000
     1.0000   1.0000   1.0000   1.0000   1.0000   1.0000   1.0000   1.0000
     1.0000   1.0000   1.0000   1.0000   1.0000   1.0000   1.0000   1.0000
     1.0000   1.0000   1.0000   1.0000   1.0000   1.0000   1.0000   1.0000
     1.0000   1.0000   1.0000   1.0000   1.0000   1.0000   1.0000   1.0000
     1.0000   1.0000   1.0000   1.0000   1.0000   1.0000   1.0000   1.0000
     1.0000   1.0000   1.0000   1.0000   1.0000   1.0000   1.0000   1.0000
     1.0000   1.0000   1.0000   1.0000   1.0000   1.0000   1.0000   1.0000
     1.0000   1.0000   1.0000   1.0000   1.0000   1.0000   1.0000   1.0000
     1.0000   1.0000   1.0000   1.0000   1.0000   1.0000   1.0000   1.0000
     1.0000   1.0000   1.0000   1.0000   1.0000   1.0000   1.0000   1.0000
     1.0000   1.0000   1.0000   1.0000   1.0000   1.0000   1.0000   1.0000
     1.0000   1.0000   1.0000   1.0000   1.0000   1.0000   1.0000   1.0000
     1.0000   1.0000   1.0000   1.0000   1.0000   1.0000   1.0000   1.0000
     1.0000   1.0000   1.0000   1.0000   1.0000   1.0000   1.0000   1.0000
     1.0000   1.0000   1.0000   1.0000   1.0000   1.0000   1.0000   1.0000
     1.0000   1.0000   1.0000   1.0000   1.0000   1.0000   1.0000   1.0000
     1.0000   1.0008   1.0022   1.0152   1.0466   1.0528   1.0638   1.0632
     0.9840   0.2372   0.0779   0.0503   0.0358   0.0253   0.0004   0.0000
     0.0000   0.0000   0.0000   0.0000   0.0000   0.0000   0.0000   0.0000
     0.0000   0.0000   0.0000   0.0000   0.0000   0.0000   0.0000   0.0000
     0.0000   0.0000   0.0000   0.0000   0.0000   0.0000   0.0000   0.0000
     0.0000   0.0000   0.0000   0.0000   0.0000   0.0000   0.0000   0.0000
     0.0000   0.0000   0.0000   0.0000   0.0000   0.0000   0.0000   0.0000
     0.0000   0.0000   0.0000   0.0000   0.0000   0.0000   0.0000   0.0000
     0.0000   0.0000   0.0000   0.0000   0.0000   0.0000   0.0000   0.0000
     0.0000   0.0000   0.0000   0.0000   0.0000   0.0000   0.0000   0.0000
     0.0000   0.0000   0.0000   0.0000   0.0000   0.0000   0.0000   0.0000
     0.0000   0.0000   0.0000   0.0000   0.0000   0.0000   0.0000   0.0000
     0.0000   0.0000   0.0000   0.0000   0.0000   0.0000   0.0000   0.0000
     0.0000   0.0000   0.0000   0.0000   0.0000   0.0000

          k = 0.3333 0.4439 0.9230 ( 71974 PWs)   bands (ev):

  -125.4596-125.4486-125.4473-125.4380-125.3948-125.3871-125.3855-125.3820
  -125.3802-125.3781-125.3680-125.3669-125.3517-125.3365-125.3295-125.3244
  -125.3209-125.3209-125.3197-125.3055-125.3045-125.2970-125.2896-125.2826
  -125.2149-125.2064-125.2040-125.1970-125.1943-125.1940-125.1933-125.1903
  -125.1322-125.1298-125.1248-125.1230-125.1123-125.1072-125.1024-125.1014
  -125.0695-125.0665-125.0603-125.0516-125.0468-125.0456-125.0442-125.0438
   -79.6148 -79.6120 -79.6088 -79.6042 -79.6028 -79.6006 -79.5976 -79.5964
   -79.5943 -79.5919 -79.5866 -79.5802 -79.5506 -79.5502 -79.5445 -79.5434
   -79.5414 -79.5406 -79.5384 -79.5375 -79.5368 -79.5363 -79.5351 -79.5343
   -79.5317 -79.5311 -79.5301 -79.5280 -79.5273 -79.5252 -79.5239 -79.5220
   -79.5183 -79.5173 -79.5162 -79.5086 -79.5081 -79.5043 -79.5011 -79.4940
   -79.4874 -79.4867 -79.4866 -79.4850 -79.4820 -79.4796 -79.4786 -79.4778
   -79.4764 -79.4758 -79.4732 -79.4720 -79.4713 -79.4685 -79.4678 -79.4673
   -79.4668 -79.4658 -79.4651 -79.4551 -79.4538 -79.4511 -79.4505 -79.4500
   -79.4461 -79.4454 -79.4449 -79.4417 -79.4394 -79.4380 -79.4314 -79.4289
   -79.3765 -79.3707 -79.3683 -79.3662 -79.3643 -79.3592 -79.3588 -79.3564
   -79.3561 -79.3561 -79.3554 -79.3549 -79.3538 -79.3522 -79.3508 -79.3494
   -79.3479 -79.3454 -79.3442 -79.3442 -79.3413 -79.3385 -79.3379 -79.3322
   -79.2960 -79.2936 -79.2883 -79.2878 -79.2864 -79.2838 -79.2816 -79.2814
   -79.2779 -79.2761 -79.2744 -79.2728 -79.2704 -79.2679 -79.2672 -79.2669
   -79.2641 -79.2627 -79.2598 -79.2574 -79.2527 -79.2515 -79.2489 -79.2422
   -79.2404 -79.2348 -79.2315 -79.2230 -79.2224 -79.2221 -79.2165 -79.2155
   -79.2149 -79.2138 -79.2133 -79.2125 -79.2088 -79.2049 -79.2010 -79.1998
   -79.1990 -79.1983 -79.1974 -79.1945 -79.1889 -79.1829 -79.1770 -79.1755
   -17.2122 -14.9307 -12.5049 -12.1480  -9.2880  -8.9560  -8.0757  -7.8466
    -7.7768  -7.1933  -7.1742  -7.1116  -7.0493  -7.0157  -7.0057  -6.9768
    -6.9530  -6.9395  -6.9211  -6.9173  -6.8971  -6.8915  -6.8856  -6.8811
    -6.8696  -6.8670  -6.8649  -6.8596  -6.8383  -6.8348  -6.8277  -6.8216
    -6.8107  -6.8052  -6.8040  -6.7990  -6.7941  -6.7893  -6.7763  -6.7649
    -6.7473  -6.7400  -6.7366  -6.7253  -6.7169  -6.7091  -6.7009  -6.6970
    -6.6738  -6.6673  -6.6644  -6.6517  -6.6444  -6.6395  -6.6312  -6.6274
    -6.6117  -6.6022  -6.5974  -6.5875  -6.5755  -6.5725  -6.5542  -6.5505
    -6.5485  -6.5280  -6.5197  -6.5161  -6.5099  -6.5016  -6.4971  -6.4858
    -6.4777  -6.4719  -6.4694  -6.4640  -6.4599  -6.4565  -6.4483  -6.4460
    -6.4299  -6.4253  -6.4232  -6.4163  -6.4111  -6.4084  -6.3985  -6.3942
    -6.3909  -6.3861  -6.3775  -6.3748  -6.3632  -6.3572  -6.3500  -6.3393
    -6.3365  -6.3263  -6.3240  -6.3208  -6.3165  -6.3102  -6.3038  -6.2965
    -6.2944  -6.2892  -6.2858  -6.2829  -6.2752  -6.2681  -6.2652  -6.2620
    -6.2529  -6.2464  -6.2416  -6.2329  -6.2281  -6.2185  -6.2159  -6.2039
    -6.1907  -6.1884  -6.1827  -6.1801  -6.1772  -6.1733  -6.1698  -6.1664
    -6.1600  -6.1529  -6.1444  -6.1421  -6.1376  -6.1226  -6.1169  -6.1155
    -6.1081  -6.1057  -6.1027  -6.0998  -6.0970  -6.0903  -6.0880  -6.0788
    -6.0741  -6.0592  -6.0581  -6.0565  -6.0457  -6.0411  -6.0364  -6.0289
    -6.0262  -6.0152  -6.0135  -6.0055  -6.0016  -5.9976  -5.9948  -5.9893
    -5.9843  -5.9777  -5.9758  -5.9669  -5.9640  -5.9586  -5.9543  -5.9527
    -5.9494  -5.9472  -5.9447  -5.9371  -5.9325  -5.9313  -5.9267  -5.9232
    -5.9142  -5.9116  -5.9099  -5.9080  -5.9013  -5.8945  -5.8912  -5.8906
    -5.8883  -5.8846  -5.8749  -5.8733  -5.8672  -5.8628  -5.8588  -5.8573
    -5.8534  -5.8518  -5.8498  -5.8469  -5.8465  -5.8389  -5.8357  -5.8303
    -5.8290  -5.8258  -5.8210  -5.8182  -5.8150  -5.8133  -5.8109  -5.8084
    -5.8072  -5.8029  -5.7997  -5.7983  -5.7887  -5.7872  -5.7844  -5.7825
    -5.7816  -5.7794  -5.7763  -5.7746  -5.7666  -5.7616  -5.7586  -5.7560
    -5.7496  -5.7431  -5.7385  -5.7335  -5.7305  -5.7244  -5.7235  -5.7217
    -5.7144  -5.7134  -5.7095  -5.7088  -5.7051  -5.6918  -5.6903  -5.6866
    -5.6766  -5.6745  -5.6695  -5.6641  -5.6584  -5.6563  -5.6205  -5.6091
    -5.5994  -5.5908  -5.5571  -5.5534  -5.5170  -5.3581  -5.1761  -5.1532
    -5.0780  -5.0548  -4.7900  -4.7003  -4.6880  -4.6393  -4.4170  -4.2548
    -4.1816  -3.8204  -3.6342  -3.4557  -3.4302  -3.1724  -2.9834  -2.9017
    -2.8626  -2.8508  -2.7964  -2.6149  -2.4380  -2.4155  -2.2862  -2.2718
    -2.1416  -2.0666  -1.8186  -1.6204  -1.5653  -1.2022  -1.1205  -0.8751
    -0.7249  -0.6923  -0.5351  -0.3878  -0.3327  -0.1924  -0.1137  -0.0982
     0.0352   0.4057   0.4162   0.4784   0.5443   0.5886   0.6395   0.7639
     0.8361   0.9309   1.2725   1.3167   1.4632   1.5503   1.7493   1.9082
     1.9305   2.1464   2.1691   2.2409   2.2549   2.4944   2.6675   2.8099
     2.8396   2.9003   3.0601   3.0700   3.2002   3.2911   3.4081   3.4268
     3.5955   3.6200   3.6455   3.8698   3.9487   4.0491   4.0814   4.1284
     4.2420   4.2701   4.3923   4.4436   4.5278   4.6121   4.6584   4.8309
     4.9599   4.9841   5.0131   5.0812   5.1850   5.2360   5.3192   5.3917
     5.4087   5.4420   5.4615   5.5240   5.5927   5.7599   5.7782   5.8435
     5.9050   5.9319   6.0799   6.1064   6.1476   6.1589   6.2201   6.2929
     6.3056   6.3701   6.4465   6.4763   6.5244   6.5339   6.5804   6.6065
     6.6380   6.6772   6.7835   6.8669   6.9625   6.9928   7.0276   7.1001
     7.2016   7.2364   7.3237   7.3588   7.3923   7.4743   7.4968   7.5274
     7.6042   7.6931   7.7106   7.7587   7.7774   7.8568   7.9898   8.0024
     8.0229   8.0625   8.1004   8.1356   8.1496   8.2116

     occupation numbers 
     1.0000   1.0000   1.0000   1.0000   1.0000   1.0000   1.0000   1.0000
     1.0000   1.0000   1.0000   1.0000   1.0000   1.0000   1.0000   1.0000
     1.0000   1.0000   1.0000   1.0000   1.0000   1.0000   1.0000   1.0000
     1.0000   1.0000   1.0000   1.0000   1.0000   1.0000   1.0000   1.0000
     1.0000   1.0000   1.0000   1.0000   1.0000   1.0000   1.0000   1.0000
     1.0000   1.0000   1.0000   1.0000   1.0000   1.0000   1.0000   1.0000
     1.0000   1.0000   1.0000   1.0000   1.0000   1.0000   1.0000   1.0000
     1.0000   1.0000   1.0000   1.0000   1.0000   1.0000   1.0000   1.0000
     1.0000   1.0000   1.0000   1.0000   1.0000   1.0000   1.0000   1.0000
     1.0000   1.0000   1.0000   1.0000   1.0000   1.0000   1.0000   1.0000
[...]

     total energy              =  -22293.60524343 Ry
     estimated scf accuracy    <       0.00002841 Ry

     iteration #179     ecut=    40.00 Ry     beta= 0.40
     Davidson diagonalization with overlap

---- Real-time Memory Report at c_bands before calling an iterative solver
           665 MiB given to the printing process from OS
             0 MiB allocation reported by mallinfo(arena+hblkhd)
        158490 MiB available memory on the node where the printing process lives
------------------
     ethr =  2.47E-10,  avg # of iterations =  3.0

     negative rho (up, down):  3.758E-03 0.000E+00

     total cpu time spent up to now is    56893.4 secs

     total energy              =  -22293.60525166 Ry
     estimated scf accuracy    <       0.00001403 Ry

     iteration #180     ecut=    40.00 Ry     beta= 0.40
     Davidson diagonalization with overlap

---- Real-time Memory Report at c_bands before calling an iterative solver
           665 MiB given to the printing process from OS
             0 MiB allocation reported by mallinfo(arena+hblkhd)
        158488 MiB available memory on the node where the printing process lives
------------------
     ethr =  2.47E-10,  avg # of iterations =  3.2

     negative rho (up, down):  3.758E-03 0.000E+00

     total cpu time spent up to now is    57014.4 secs

     total energy              =  -22293.60524875 Ry
     estimated scf accuracy    <       0.00000533 Ry

     iteration #181     ecut=    40.00 Ry     beta= 0.40
     Davidson diagonalization with overlap

---- Real-time Memory Report at c_bands before calling an iterative solver
           665 MiB given to the printing process from OS
             0 MiB allocation reported by mallinfo(arena+hblkhd)
        158486 MiB available memory on the node where the printing process lives
------------------
     ethr =  2.47E-10,  avg # of iterations =  2.0

     negative rho (up, down):  3.758E-03 0.000E+00

     total cpu time spent up to now is    57132.8 secs

     total energy              =  -22293.60526045 Ry
     estimated scf accuracy    <       0.00000453 Ry

     iteration #182     ecut=    40.00 Ry     beta= 0.40
     Davidson diagonalization with overlap

---- Real-time Memory Report at c_bands before calling an iterative solver
           665 MiB given to the printing process from OS
             0 MiB allocation reported by mallinfo(arena+hblkhd)
        158485 MiB available memory on the node where the printing process lives
------------------
     ethr =  2.47E-10,  avg # of iterations =  3.8

     negative rho (up, down):  3.758E-03 0.000E+00

     total cpu time spent up to now is    57255.5 secs

     total energy              =  -22293.60525709 Ry
     estimated scf accuracy    <       0.00000272 Ry

     iteration #183     ecut=    40.00 Ry     beta= 0.40
     Davidson diagonalization with overlap

---- Real-time Memory Report at c_bands before calling an iterative solver
           665 MiB given to the printing process from OS
             0 MiB allocation reported by mallinfo(arena+hblkhd)
        158484 MiB available memory on the node where the printing process lives
------------------
     ethr =  2.47E-10,  avg # of iterations =  2.0

     negative rho (up, down):  3.758E-03 0.000E+00

     total cpu time spent up to now is    57371.6 secs

     total energy              =  -22293.60525893 Ry
     estimated scf accuracy    <       0.00000391 Ry

     iteration #184     ecut=    40.00 Ry     beta= 0.40
     Davidson diagonalization with overlap

---- Real-time Memory Report at c_bands before calling an iterative solver
           665 MiB given to the printing process from OS
             0 MiB allocation reported by mallinfo(arena+hblkhd)
        158482 MiB available memory on the node where the printing process lives
------------------
     ethr =  2.47E-10,  avg # of iterations =  2.0

     negative rho (up, down):  3.758E-03 0.000E+00

     total cpu time spent up to now is    57488.8 secs

     total energy              =  -22293.60526175 Ry
     estimated scf accuracy    <       0.00000603 Ry

     iteration #185     ecut=    40.00 Ry     beta= 0.40
     Davidson diagonalization with overlap

---- Real-time Memory Report at c_bands before calling an iterative solver
           665 MiB given to the printing process from OS
             0 MiB allocation reported by mallinfo(arena+hblkhd)
        158481 MiB available memory on the node where the printing process lives
------------------
     ethr =  2.47E-10,  avg # of iterations =  2.4

     negative rho (up, down):  3.758E-03 0.000E+00

     total cpu time spent up to now is    57607.3 secs

     total energy              =  -22293.60525838 Ry
     estimated scf accuracy    <       0.00001045 Ry

     iteration #186     ecut=    40.00 Ry     beta= 0.40
     Davidson diagonalization with overlap

---- Real-time Memory Report at c_bands before calling an iterative solver
           665 MiB given to the printing process from OS
             0 MiB allocation reported by mallinfo(arena+hblkhd)
        158479 MiB available memory on the node where the printing process lives
------------------
     ethr =  2.47E-10,  avg # of iterations =  2.0

     negative rho (up, down):  3.758E-03 0.000E+00

     total cpu time spent up to now is    57723.7 secs

     total energy              =  -22293.60525520 Ry
     estimated scf accuracy    <       0.00000563 Ry

     iteration #187     ecut=    40.00 Ry     beta= 0.40
     Davidson diagonalization with overlap

---- Real-time Memory Report at c_bands before calling an iterative solver
           665 MiB given to the printing process from OS
             0 MiB allocation reported by mallinfo(arena+hblkhd)
        158573 MiB available memory on the node where the printing process lives
------------------
     ethr =  2.47E-10,  avg # of iterations =  3.0

     negative rho (up, down):  3.758E-03 0.000E+00

     total cpu time spent up to now is    57843.3 secs

     total energy              =  -22293.60525652 Ry
     estimated scf accuracy    <       0.00000280 Ry

     iteration #188     ecut=    40.00 Ry     beta= 0.40
     Davidson diagonalization with overlap

---- Real-time Memory Report at c_bands before calling an iterative solver
           665 MiB given to the printing process from OS
             0 MiB allocation reported by mallinfo(arena+hblkhd)
        158571 MiB available memory on the node where the printing process lives
------------------
     ethr =  2.47E-10,  avg # of iterations =  4.6

     negative rho (up, down):  3.758E-03 0.000E+00

     total cpu time spent up to now is    57974.0 secs

     total energy              =  -22293.60523778 Ry
     estimated scf accuracy    <       0.00001100 Ry

     iteration #189     ecut=    40.00 Ry     beta= 0.40
     Davidson diagonalization with overlap

---- Real-time Memory Report at c_bands before calling an iterative solver
           665 MiB given to the printing process from OS
             0 MiB allocation reported by mallinfo(arena+hblkhd)
        158572 MiB available memory on the node where the printing process lives
------------------
     ethr =  2.47E-10,  avg # of iterations =  3.0

     negative rho (up, down):  3.758E-03 0.000E+00

     total cpu time spent up to now is    58095.0 secs

     total energy              =  -22293.60523227 Ry
     estimated scf accuracy    <       0.00002067 Ry

     iteration #190     ecut=    40.00 Ry     beta= 0.40
     Davidson diagonalization with overlap

---- Real-time Memory Report at c_bands before calling an iterative solver
           665 MiB given to the printing process from OS
             0 MiB allocation reported by mallinfo(arena+hblkhd)
        158572 MiB available memory on the node where the printing process lives
------------------
     ethr =  2.47E-10,  avg # of iterations =  2.0

     negative rho (up, down):  3.758E-03 0.000E+00

     total cpu time spent up to now is    58212.5 secs

     total energy              =  -22293.60523664 Ry
     estimated scf accuracy    <       0.00002662 Ry

     iteration #191     ecut=    40.00 Ry     beta= 0.40
     Davidson diagonalization with overlap

---- Real-time Memory Report at c_bands before calling an iterative solver
           665 MiB given to the printing process from OS
             0 MiB allocation reported by mallinfo(arena+hblkhd)
        158567 MiB available memory on the node where the printing process lives
------------------
     ethr =  2.47E-10,  avg # of iterations =  2.0

     negative rho (up, down):  3.758E-03 0.000E+00

     total cpu time spent up to now is    58329.0 secs

     total energy              =  -22293.60523376 Ry
     estimated scf accuracy    <       0.00001998 Ry

     iteration #192     ecut=    40.00 Ry     beta= 0.40
     Davidson diagonalization with overlap

---- Real-time Memory Report at c_bands before calling an iterative solver
           665 MiB given to the printing process from OS
             0 MiB allocation reported by mallinfo(arena+hblkhd)
        158570 MiB available memory on the node where the printing process lives
------------------
     ethr =  2.47E-10,  avg # of iterations =  2.0

     negative rho (up, down):  3.758E-03 0.000E+00

     total cpu time spent up to now is    58444.0 secs

     total energy              =  -22293.60526144 Ry
     estimated scf accuracy    <       0.00002386 Ry

     iteration #193     ecut=    40.00 Ry     beta= 0.40
     Davidson diagonalization with overlap

---- Real-time Memory Report at c_bands before calling an iterative solver
           665 MiB given to the printing process from OS
             0 MiB allocation reported by mallinfo(arena+hblkhd)
        158568 MiB available memory on the node where the printing process lives
------------------
     ethr =  2.47E-10,  avg # of iterations =  4.0

     negative rho (up, down):  3.758E-03 0.000E+00

     total cpu time spent up to now is    58569.9 secs

     total energy              =  -22293.60528277 Ry
     estimated scf accuracy    <       0.00000468 Ry

     iteration #194     ecut=    40.00 Ry     beta= 0.40
     Davidson diagonalization with overlap

---- Real-time Memory Report at c_bands before calling an iterative solver
           665 MiB given to the printing process from OS
             0 MiB allocation reported by mallinfo(arena+hblkhd)
        158564 MiB available memory on the node where the printing process lives
------------------
     ethr =  2.47E-10,  avg # of iterations =  4.8

     negative rho (up, down):  3.758E-03 0.000E+00

     total cpu time spent up to now is    58703.5 secs

     total energy              =  -22293.60525390 Ry
     estimated scf accuracy    <       0.00001490 Ry

     iteration #195     ecut=    40.00 Ry     beta= 0.40
     Davidson diagonalization with overlap

---- Real-time Memory Report at c_bands before calling an iterative solver
           665 MiB given to the printing process from OS
             0 MiB allocation reported by mallinfo(arena+hblkhd)
        158562 MiB available memory on the node where the printing process lives
------------------
     ethr =  2.47E-10,  avg # of iterations =  4.0

     negative rho (up, down):  3.758E-03 0.000E+00

     total cpu time spent up to now is    58828.4 secs

     total energy              =  -22293.60525485 Ry
     estimated scf accuracy    <       0.00000261 Ry

     iteration #196     ecut=    40.00 Ry     beta= 0.40
     Davidson diagonalization with overlap

---- Real-time Memory Report at c_bands before calling an iterative solver
           665 MiB given to the printing process from OS
             0 MiB allocation reported by mallinfo(arena+hblkhd)
        158559 MiB available memory on the node where the printing process lives
------------------
     ethr =  2.47E-10,  avg # of iterations =  1.8

     negative rho (up, down):  3.758E-03 0.000E+00

     total cpu time spent up to now is    58940.6 secs

     total energy              =  -22293.60525833 Ry
     estimated scf accuracy    <       0.00000273 Ry

     iteration #197     ecut=    40.00 Ry     beta= 0.40
     Davidson diagonalization with overlap

---- Real-time Memory Report at c_bands before calling an iterative solver
           665 MiB given to the printing process from OS
             0 MiB allocation reported by mallinfo(arena+hblkhd)
        158558 MiB available memory on the node where the printing process lives
------------------
     ethr =  2.47E-10,  avg # of iterations =  3.0

     negative rho (up, down):  3.758E-03 0.000E+00

     total cpu time spent up to now is    59059.8 secs

     total energy              =  -22293.60525942 Ry
     estimated scf accuracy    <       0.00000486 Ry

     iteration #198     ecut=    40.00 Ry     beta= 0.40
     Davidson diagonalization with overlap

---- Real-time Memory Report at c_bands before calling an iterative solver
           665 MiB given to the printing process from OS
             0 MiB allocation reported by mallinfo(arena+hblkhd)
        158557 MiB available memory on the node where the printing process lives
------------------
     ethr =  2.47E-10,  avg # of iterations =  2.0

     negative rho (up, down):  3.758E-03 0.000E+00

     total cpu time spent up to now is    59175.0 secs

     total energy              =  -22293.60526225 Ry
     estimated scf accuracy    <       0.00000674 Ry

     iteration #199     ecut=    40.00 Ry     beta= 0.40
     Davidson diagonalization with overlap

---- Real-time Memory Report at c_bands before calling an iterative solver
           665 MiB given to the printing process from OS
             0 MiB allocation reported by mallinfo(arena+hblkhd)
        158557 MiB available memory on the node where the printing process lives
------------------
     ethr =  2.47E-10,  avg # of iterations =  2.0

     negative rho (up, down):  3.758E-03 0.000E+00

     total cpu time spent up to now is    59292.8 secs

     total energy              =  -22293.60525410 Ry
     estimated scf accuracy    <       0.00001138 Ry

     iteration #200     ecut=    40.00 Ry     beta= 0.40
     Davidson diagonalization with overlap

---- Real-time Memory Report at c_bands before calling an iterative solver
           665 MiB given to the printing process from OS
             0 MiB allocation reported by mallinfo(arena+hblkhd)
        158555 MiB available memory on the node where the printing process lives
------------------
     ethr =  2.47E-10,  avg # of iterations =  4.0

     negative rho (up, down):  3.758E-03 0.000E+00

     total cpu time spent up to now is    59417.8 secs

     total energy              =  -22293.60525203 Ry
     estimated scf accuracy    <       0.00000252 Ry

     End of self-consistent calculation

     convergence NOT achieved after 200 iterations: stopping

     Writing config to output data dir ./tmp/Zn101_3layer_aniline_relax.save/ :
     XML data file, charge density

     init_run     :     39.58s CPU     39.99s WALL (       1 calls)
     electrons    :  54662.92s CPU  55012.32s WALL (      23 calls)
     update_pot   :      7.24s CPU      7.65s WALL (      22 calls)
     forces       :    450.57s CPU    456.28s WALL (      22 calls)
     force_dftd3  :      4.89s CPU      5.16s WALL (      22 calls)
     stress       :   3764.24s CPU   3782.83s WALL (      22 calls)
     stres_dftd3  :      4.88s CPU      5.16s WALL (      22 calls)

     Called by init_run:
     wfcinit      :     37.82s CPU     38.09s WALL (       1 calls)
     wfcinit:atom :      0.08s CPU      0.08s WALL (       5 calls)
     wfcinit:wfcr :     37.26s CPU     37.50s WALL (       5 calls)
     potinit      :      0.52s CPU      0.57s WALL (       1 calls)
     hinit0       :      0.57s CPU      0.59s WALL (       1 calls)

     Called by electrons:
     c_bands      :  47430.44s CPU  47702.86s WALL (     447 calls)
     sum_band     :   6948.04s CPU   7000.36s WALL (     447 calls)
     v_of_rho     :     96.81s CPU    103.25s WALL (     448 calls)
     v_h          :      5.57s CPU      7.11s WALL (     448 calls)
     v_xc         :    100.15s CPU    105.61s WALL (     492 calls)
     newd         :    151.84s CPU    166.44s WALL (     448 calls)
     PAW_pot      :     26.02s CPU     26.11s WALL (     470 calls)
     mix_rho      :     12.19s CPU     13.39s WALL (     447 calls)
     energy_dftd3 :      2.63s CPU      2.64s WALL (      23 calls)

     Called by c_bands:
     init_us_2    :    111.35s CPU    112.27s WALL (    4805 calls)
     cegterg      :  47214.50s CPU  47483.50s WALL (    2235 calls)

     Called by sum_band:
     sum_band:wei :      0.51s CPU      0.57s WALL (     447 calls)
     sum_band:loo :   6792.63s CPU   6822.13s WALL (     447 calls)
     sum_band:buf :     26.62s CPU     27.29s WALL (    2235 calls)
     sum_band:ini :     52.43s CPU     52.81s WALL (    2235 calls)
     sum_band:cal :   3322.06s CPU   3332.44s WALL (    2345 calls)
     sum_band:bec :     14.33s CPU     14.42s WALL (    2345 calls)
     addusdens    :    146.79s CPU    167.82s WALL (     447 calls)
                                        0.00s GPU  (     447 calls)
     addusd:skk   :      7.12s CPU      8.66s WALL (    1788 calls)
                                        0.00s GPU  (    1788 calls)

     Called by *egterg:
     cdiaghg      :   3427.44s CPU   3441.50s WALL (    8469 calls)
     cegterg:over :   4972.54s CPU   4990.36s WALL (    6454 calls)
     cegterg:upda :   3026.89s CPU   3049.75s WALL (    6454 calls)
     cegterg:last :   8942.69s CPU   8970.78s WALL (    4409 calls)
     cdiaghg:chol :    255.96s CPU    256.79s WALL (    8469 calls)
     cdiaghg:inve :     35.26s CPU     35.38s WALL (    8469 calls)
     cdiaghg:para :    929.92s CPU    936.54s WALL (   16938 calls)
     h_psi        :  20923.08s CPU  21045.84s WALL (    8694 calls)
     s_psi        :   4273.83s CPU   4287.12s WALL (    8694 calls)
     g_psi        :     25.00s CPU     25.18s WALL (    6454 calls)

     Called by h_psi:
     h_psi:calbec :   5709.43s CPU   5727.69s WALL (    8694 calls)
     vloc_psi     :  10888.91s CPU  10947.88s WALL (    8694 calls)
     add_vuspsi   :   4278.12s CPU   4292.18s WALL (    8694 calls)

     General routines
     calbec       :   9545.81s CPU   9576.13s WALL (   11589 calls)
     fft          :     68.90s CPU     79.82s WALL (    6374 calls)
     ffts         :      4.04s CPU      5.21s WALL (     895 calls)
     fftw         :  10944.48s CPU  10999.56s WALL ( 7108228 calls)
     interpolate  :      7.00s CPU      8.36s WALL (     448 calls)
     davcio       :      0.00s CPU      0.08s WALL (      23 calls)

     Parallel routines

     PAW routines
     PAW_pot      :     26.02s CPU     26.11s WALL (     470 calls)

     PWSCF        :     16h24m CPU     16h30m WALL


   This run was terminated on:  16:55: 5  15Apr2025            

=------------------------------------------------------------------------------=
   JOB DONE.
=------------------------------------------------------------------------------=
Note: The following floating-point exceptions are signalling: IEEE_DENORMAL
Note: The following floating-point exceptions are signalling: IEEE_DENORMAL
Note: The following floating-point exceptions are signalling: IEEE_DENORMAL
Note: The following floating-point exceptions are signalling: IEEE_DENORMAL
Note: The following floating-point exceptions are signalling: IEEE_DENORMAL
Note: The following floating-point exceptions are signalling: IEEE_DENORMAL
Note: The following floating-point exceptions are signalling: IEEE_DENORMAL
Note: The following floating-point exceptions are signalling: IEEE_DENORMAL
Note: The following floating-point exceptions are signalling: IEEE_DENORMAL
Note: The following floating-point exceptions are signalling: IEEE_DENORMAL
Note: The following floating-point exceptions are signalling: IEEE_DENORMAL
Note: The following floating-point exceptions are signalling: IEEE_DENORMAL
