--------------------------------------------------------------------------
By default, for Open MPI 4.0 and later, infiniband ports on a device
are not used by default.  The intent is to use UCX for these devices.
You can override this policy by setting the btl_openib_allow_ib MCA parameter
to true.

  Local host:              psid01
  Local adapter:           mlx5_0
  Local port:              1

--------------------------------------------------------------------------
--------------------------------------------------------------------------
WARNING: There was an error initializing an OpenFabrics device.

  Local host:   psid01
  Local device: mlx5_0
--------------------------------------------------------------------------

     Program PWSCF v.7.3.1 starts on 25Mar2025 at  4:10: 3 

     This program is part of the open-source Quantum ESPRESSO suite
     for quantum simulation of materials; please cite
         "P. Giannozzi et al., J. Phys.:Condens. Matter 21 395502 (2009);
         "P. Giannozzi et al., J. Phys.:Condens. Matter 29 465901 (2017);
         "P. Giannozzi et al., J. Chem. Phys. 152 154105 (2020);
          URL http://www.quantum-espresso.org", 
     in publications or presentations arising from this work. More details at
     http://www.quantum-espresso.org/quote

     Parallel version (MPI), running on    34 processors

     MPI processes distributed on     1 nodes
     41698 MiB available memory on the printing compute node when the environment starts

     Waiting for input...
     Reading input from standard input
Warning: card &CELL ignored
Warning: card   CELL_DOFREE = 'ALL' ignored
Warning: card / ignored

     Current dimensions of program PWSCF are:
     Max number of different atomic species (ntypx) = 10
     Max number of k-points (npk) =  40000
     Max angular momentum in pseudopotentials (lmaxx) =  4
     Message from routine input:
     WARNING: "startingwfc" set to atomic+random may spoil restart
     Message from routine input:
     WARNING: "startingpot" set to atomic may spoil restart
     file C.pbe-n-kjpaw_psl.1.0.0.UPF: wavefunction(s)  2S 2P renormalized

     R & G space division:  proc/nbgrp/npool/nimage =      34
     Subspace diagonalization in iterative solution of the eigenvalue problem:
     one sub-group per band group will be used
     custom distributed-memory algorithm (size of sub-group:  5*  5 procs)


     Parallelization info
     --------------------
     sticks:   dense  smooth     PW     G-vecs:    dense   smooth      PW
     Min         102     102     27                10351    10351    1472
     Max         103     103     28                10357    10357    1486
     Sum        3477    3477    945               351985   351985   50287

     Using Slab Decomposition



     bravais-lattice index     =            0
     lattice parameter (alat)  =      18.4179  a.u.
     unit-cell volume          =   15858.2170 (a.u.)^3
     number of atoms/cell      =           79
     number of atomic types    =            4
     number of electrons       =      1324.00
     number of Kohn-Sham states=          794
     kinetic-energy cutoff     =      30.0000  Ry
     charge density cutoff     =     120.0000  Ry
     scf convergence threshold =      7.3E-07
     mixing beta               =       0.7000
     number of iterations used =            8  plain     mixing
     energy convergence thresh.=      1.0E-05
     force convergence thresh. =      5.0E-04
     Exchange-correlation= PBE
                           (   1   4   3   4   0   0   0)
     nstep                     =          100


     celldm(1)=  18.417879  celldm(2)=   0.000000  celldm(3)=   0.000000
     celldm(4)=   0.000000  celldm(5)=   0.000000  celldm(6)=   0.000000

     crystal axes: (cart. coord. in units of alat)
               a(1) = (   1.000000   0.000000   0.000000 )  
               a(2) = (   0.000000   1.072963   0.000000 )  
               a(3) = (   0.000000  -1.365810   2.365652 )  

     reciprocal axes: (cart. coord. in units 2 pi/alat)
               b(1) = (  1.000000  0.000000 -0.000000 )  
               b(2) = ( -0.000000  0.931999  0.538090 )  
               b(3) = (  0.000000  0.000000  0.422716 )  


     PseudoPot. # 1 for Zn read from file:
     /home/ys/qepseudo/SSSP_1.3.0_PBE_efficiency/Zn_pbe_v1.uspp.F.UPF
     MD5 check sum: df62231357ef9e81f77b2b3087fa5675
     Pseudo is Ultrasoft, Zval = 20.0
     Generated by new atomic code, or converted to UPF format
     Using radial grid of  943 points,  6 beta functions with: 
                l(1) =   0
                l(2) =   0
                l(3) =   1
                l(4) =   1
                l(5) =   2
                l(6) =   2
     Q(r) pseudized with  8 coefficients,  rinner =    1.100   1.100   1.100
                                                       1.100   1.100

     PseudoPot. # 2 for C  read from file:
     /home/ys/qepseudo/SSSP_1.3.0_PBE_efficiency/C.pbe-n-kjpaw_psl.1.0.0.UPF
     MD5 check sum: 5d2aebdfa2cae82b50a7e79e9516da0f
     Pseudo is Projector augmented-wave + core cor, Zval =  4.0
     Generated using "atomic" code by A. Dal Corso  v.5.1
     Shape of augmentation charge: PSQ
     Using radial grid of 1073 points,  4 beta functions with: 
                l(1) =   0
                l(2) =   0
                l(3) =   1
                l(4) =   1
     Q(r) pseudized with 0 coefficients 


     PseudoPot. # 3 for N  read from file:
     /home/ys/qepseudo/SSSP_1.3.0_PBE_efficiency/N.pbe-n-radius_5.UPF
     MD5 check sum: 16739722b17309cd8fe442a2ace49922
     Pseudo is Ultrasoft + core correction, Zval =  5.0
     Generated using "atomic" code by A. Dal Corso  v.5.1
     Using radial grid of 1085 points,  4 beta functions with: 
                l(1) =   0
                l(2) =   0
                l(3) =   1
                l(4) =   1
     Q(r) pseudized with 0 coefficients 


     PseudoPot. # 4 for H  read from file:
     /home/ys/qepseudo/SSSP_1.3.0_PBE_efficiency/H.pbe-rrkjus_psl.1.0.0.UPF
     MD5 check sum: f52b6d4d1c606e5624b1dc7b2218f220
     Pseudo is Ultrasoft, Zval =  1.0
     Generated using "atomic" code by A. Dal Corso  v.5.1
     Using radial grid of  929 points,  2 beta functions with: 
                l(1) =   0
                l(2) =   0
     Q(r) pseudized with 0 coefficients 


     atomic species   valence    mass     pseudopotential
     Zn               20.00    65.38000     Zn( 1.00)
     C                 4.00    12.01070     C ( 1.00)
     N                 5.00    14.00670     N ( 1.00)
     H                 1.00     1.00800     H ( 1.00)

     No symmetry found


                                    s                        frac. trans.

      isym =  1     identity                                     

 cryst.   s( 1) = (     1          0          0      )
                  (     0          1          0      )
                  (     0          0          1      )

 cart.    s( 1) = (  1.0000000  0.0000000  0.0000000 )
                  (  0.0000000  1.0000000 -0.0000000 )
                  (  0.0000000  0.0000000  1.0000000 )


   Cartesian axes

     site n.     atom                  positions (alat units)
         1        Zn     tau(   1) = (   0.1250000   0.1341203   0.0774344  )
         2        Zn     tau(   2) = (   0.1250000   0.6706017   0.0774344  )
         3        Zn     tau(   3) = (   0.1250000   0.0000000   0.3097376  )
         4        Zn     tau(   4) = (   0.1250000   0.5364813   0.3097376  )
         5        Zn     tau(   5) = (   0.1256144  -0.1340697   0.6031237  )
         6        Zn     tau(   6) = (   0.1253605   0.4026023   0.6035670  )
         7        Zn     tau(   7) = (   0.1249429  -0.2681465   0.8799255  )
         8        Zn     tau(   8) = (   0.1249650   0.2685630   0.8825805  )
         9        Zn     tau(   9) = (   0.1250000   0.4023610   0.0774344  )
        10        Zn     tau(  10) = (   0.1250000   0.9388423   0.0774344  )
        11        Zn     tau(  11) = (   0.1250000   0.2682407   0.3097376  )
        12        Zn     tau(  12) = (   0.1250000   0.8047220   0.3097376  )
        13        Zn     tau(  13) = (   0.1255798   0.1343677   0.6051564  )
        14        Zn     tau(  14) = (   0.1253235   0.6707338   0.6017296  )
        15        Zn     tau(  15) = (   0.1250910  -0.0000897   0.8826406  )
        16        Zn     tau(  16) = (   0.1249329   0.5369400   0.8799187  )
        17        Zn     tau(  17) = (   0.6250000   0.1341203   0.0774344  )
        18        Zn     tau(  18) = (   0.6250000   0.6706017   0.0774344  )
        19        Zn     tau(  19) = (   0.6250000   0.0000000   0.3097376  )
        20        Zn     tau(  20) = (   0.6250000   0.5364813   0.3097376  )
        21        Zn     tau(  21) = (   0.6258024  -0.1347282   0.5796471  )
        22        Zn     tau(  22) = (   0.6256488   0.4032177   0.5797460  )
        23        Zn     tau(  23) = (   0.6252962  -0.2678763   0.8483543  )
        24        Zn     tau(  24) = (   0.6249168   0.2684532   0.8429886  )
        25        Zn     tau(  25) = (   0.6250000   0.4023610   0.0774344  )
        26        Zn     tau(  26) = (   0.6250000   0.9388423   0.0774344  )
        27        Zn     tau(  27) = (   0.6250000   0.2682407   0.3097376  )
        28        Zn     tau(  28) = (   0.6250000   0.8047220   0.3097376  )
        29        Zn     tau(  29) = (   0.6257195   0.1343881   0.5785167  )
        30        Zn     tau(  30) = (   0.6257481   0.6705908   0.5813426  )
        31        Zn     tau(  31) = (   0.6244968   0.0002186   0.8429177  )
        32        Zn     tau(  32) = (   0.6254065   0.5367460   0.8485456  )
        33        Zn     tau(  33) = (   0.3750000  -0.0000000   0.1548688  )
        34        Zn     tau(  34) = (   0.3750000   0.5364813   0.1548688  )
        35        Zn     tau(  35) = (   0.3750000  -0.1341203   0.3871721  )
        36        Zn     tau(  36) = (   0.3750000   0.4023610   0.3871721  )
        37        Zn     tau(  37) = (   0.3765163  -0.2680096   0.6257572  )
        38        Zn     tau(  38) = (   0.3766188   0.2683137   0.6259511  )
        39        Zn     tau(  39) = (   0.3741359  -0.4022453   0.8731619  )
        40        Zn     tau(  40) = (   0.3727397   0.1344573   0.8743872  )
        41        Zn     tau(  41) = (   0.3750000   0.2682407   0.1548688  )
        42        Zn     tau(  42) = (   0.3750000   0.8047220   0.1548688  )
        43        Zn     tau(  43) = (   0.3750000   0.1341203   0.3871721  )
        44        Zn     tau(  44) = (   0.3750000   0.6706017   0.3871721  )
        45        Zn     tau(  45) = (   0.3768062   0.0001672   0.6261250  )
        46        Zn     tau(  46) = (   0.3763289   0.5365455   0.6255996  )
        47        Zn     tau(  47) = (   0.3733135  -0.1340160   0.8739589  )
        48        Zn     tau(  48) = (   0.3733926   0.4026258   0.8735825  )
        49        Zn     tau(  49) = (   0.8750000  -0.0000000   0.1548688  )
        50        Zn     tau(  50) = (   0.8750000   0.5364813   0.1548688  )
        51        Zn     tau(  51) = (   0.8750000  -0.1341203   0.3871721  )
        52        Zn     tau(  52) = (   0.8750000   0.4023610   0.3871721  )
        53        Zn     tau(  53) = (   0.8748670  -0.2681276   0.6259927  )
        54        Zn     tau(  54) = (   0.8748684   0.2684542   0.6253469  )
        55        Zn     tau(  55) = (   0.8761635  -0.4021502   0.8737203  )
        56        Zn     tau(  56) = (   0.8771202   0.1343373   0.8719486  )
        57        Zn     tau(  57) = (   0.8750000   0.2682407   0.1548688  )
        58        Zn     tau(  58) = (   0.8750000   0.8047220   0.1548688  )
        59        Zn     tau(  59) = (   0.8750000   0.1341203   0.3871721  )
        60        Zn     tau(  60) = (   0.8750000   0.6706017   0.3871721  )
        61        Zn     tau(  61) = (   0.8752108   0.0001179   0.6251124  )
        62        Zn     tau(  62) = (   0.8747273   0.5366079   0.6259994  )
        63        Zn     tau(  63) = (   0.8761929  -0.1337069   0.8729962  )
        64        Zn     tau(  64) = (   0.8764541   0.4023908   0.8734256  )
        65        C      tau(  65) = (   0.3468157   0.0574305   1.7091515  )
        66        C      tau(  66) = (   0.4312189   0.0690209   1.5900383  )
        67        C      tau(  67) = (   0.4625515   0.1997556   1.5358754  )
        68        C      tau(  68) = (   0.4861038  -0.0473675   1.5240254  )
        69        C      tau(  69) = (   0.5674922  -0.0345565   1.4077833  )
        70        C      tau(  70) = (   0.5431107   0.2128509   1.4192990  )
        71        C      tau(  71) = (   0.5970677   0.0961213   1.3522757  )
        72        N      tau(  72) = (   0.2760696   0.0532485   1.8065858  )
        73        N      tau(  73) = (   0.6805368   0.1103334   1.2387984  )
        74        H      tau(  74) = (   0.6947605   0.0274873   1.1762733  )
        75        H      tau(  75) = (   0.6767804   0.2012588   1.1871034  )
        76        H      tau(  76) = (   0.4212597   0.2916887   1.5850661  )
        77        H      tau(  77) = (   0.4630348  -0.1491301   1.5651193  )
        78        H      tau(  78) = (   0.6083199  -0.1266940   1.3580785  )
        79        H      tau(  79) = (   0.5663829   0.3151738   1.3784657  )

   Crystallographic axes

     site n.     atom                  positions (cryst. coord.)
         1        Zn     tau(   1) = (  0.1250000  0.1666667  0.0327328  )
         2        Zn     tau(   2) = (  0.1250000  0.6666667  0.0327328  )
         3        Zn     tau(   3) = (  0.1250000  0.1666667  0.1309312  )
         4        Zn     tau(   4) = (  0.1250000  0.6666667  0.1309312  )
         5        Zn     tau(   5) = (  0.1256144  0.1995819  0.2549503  )
         6        Zn     tau(   6) = (  0.1253605  0.6999981  0.2551377  )
         7        Zn     tau(   7) = (  0.1249429  0.2235667  0.3719589  )
         8        Zn     tau(   8) = (  0.1249650  0.7252080  0.3730812  )
         9        Zn     tau(   9) = (  0.1250000  0.4166667  0.0327328  )
        10        Zn     tau(  10) = (  0.1250000  0.9166667  0.0327328  )
        11        Zn     tau(  11) = (  0.1250000  0.4166667  0.1309312  )
        12        Zn     tau(  12) = (  0.1250000  0.9166667  0.1309312  )
        13        Zn     tau(  13) = (  0.1255798  0.4508591  0.2558095  )
        14        Zn     tau(  14) = (  0.1253235  0.9489077  0.2543609  )
        15        Zn     tau(  15) = (  0.1250910  0.4748563  0.3731067  )
        16        Zn     tau(  16) = (  0.1249329  0.9739028  0.3719561  )
        17        Zn     tau(  17) = (  0.6250000  0.1666667  0.0327328  )
        18        Zn     tau(  18) = (  0.6250000  0.6666667  0.0327328  )
        19        Zn     tau(  19) = (  0.6250000  0.1666667  0.1309312  )
        20        Zn     tau(  20) = (  0.6250000  0.6666667  0.1309312  )
        21        Zn     tau(  21) = (  0.6258024  0.1863357  0.2450263  )
        22        Zn     tau(  22) = (  0.6256488  0.6877538  0.2450681  )
        23        Zn     tau(  23) = (  0.6252962  0.2068304  0.3586133  )
        24        Zn     tau(  24) = (  0.6249168  0.7038016  0.3563451  )
        25        Zn     tau(  25) = (  0.6250000  0.4166667  0.0327328  )
        26        Zn     tau(  26) = (  0.6250000  0.9166667  0.0327328  )
        27        Zn     tau(  27) = (  0.6250000  0.4166667  0.1309312  )
        28        Zn     tau(  28) = (  0.6250000  0.9166667  0.1309312  )
        29        Zn     tau(  29) = (  0.6257195  0.4365435  0.2445485  )
        30        Zn     tau(  30) = (  0.6257481  0.9378044  0.2457431  )
        31        Zn     tau(  31) = (  0.6244968  0.4537691  0.3563151  )
        32        Zn     tau(  32) = (  0.6254065  0.9568404  0.3586941  )
        33        Zn     tau(  33) = (  0.3750000  0.0833333  0.0654656  )
        34        Zn     tau(  34) = (  0.3750000  0.5833333  0.0654656  )
        35        Zn     tau(  35) = (  0.3750000  0.0833333  0.1636640  )
        36        Zn     tau(  36) = (  0.3750000  0.5833333  0.1636640  )
        37        Zn     tau(  37) = (  0.3765163  0.0869289  0.2645178  )
        38        Zn     tau(  38) = (  0.3766188  0.5868860  0.2645998  )
        39        Zn     tau(  39) = (  0.3741359  0.0949473  0.3690999  )
        40        Zn     tau(  40) = (  0.3727397  0.5958129  0.3696178  )
        41        Zn     tau(  41) = (  0.3750000  0.3333333  0.0654656  )
        42        Zn     tau(  42) = (  0.3750000  0.8333333  0.0654656  )
        43        Zn     tau(  43) = (  0.3750000  0.3333333  0.1636640  )
        44        Zn     tau(  44) = (  0.3750000  0.8333333  0.1636640  )
        45        Zn     tau(  45) = (  0.3768062  0.3370673  0.2646733  )
        46        Zn     tau(  46) = (  0.3763289  0.8366886  0.2644512  )
        47        Zn     tau(  47) = (  0.3733135  0.3453656  0.3694367  )
        48        Zn     tau(  48) = (  0.3733926  0.8453126  0.3692776  )
        49        Zn     tau(  49) = (  0.8750000  0.0833333  0.0654656  )
        50        Zn     tau(  50) = (  0.8750000  0.5833333  0.0654656  )
        51        Zn     tau(  51) = (  0.8750000  0.0833333  0.1636640  )
        52        Zn     tau(  52) = (  0.8750000  0.5833333  0.1636640  )
        53        Zn     tau(  53) = (  0.8748670  0.0869456  0.2646174  )
        54        Zn     tau(  54) = (  0.8748684  0.5866918  0.2643444  )
        55        Zn     tau(  55) = (  0.8761635  0.0953364  0.3693359  )
        56        Zn     tau(  56) = (  0.8771202  0.5943888  0.3685870  )
        57        Zn     tau(  57) = (  0.8750000  0.3333333  0.0654656  )
        58        Zn     tau(  58) = (  0.8750000  0.8333333  0.0654656  )
        59        Zn     tau(  59) = (  0.8750000  0.3333333  0.1636640  )
        60        Zn     tau(  60) = (  0.8750000  0.8333333  0.1636640  )
        61        Zn     tau(  61) = (  0.8752108  0.3364765  0.2642453  )
        62        Zn     tau(  62) = (  0.8747273  0.8369619  0.2646202  )
        63        Zn     tau(  63) = (  0.8761929  0.3451357  0.3690298  )
        64        Zn     tau(  64) = (  0.8764541  0.8450092  0.3692113  )
        65        C      tau(  65) = (  0.3468157  0.9732021  0.7224863  )
        66        C      tau(  66) = (  0.4312189  0.9199108  0.6721353  )
        67        C      tau(  67) = (  0.4625515  1.0126109  0.6492397  )
        68        C      tau(  68) = (  0.4861038  0.7759160  0.6442305  )
        69        C      tau(  69) = (  0.5674922  0.7253073  0.5950931  )
        70        C      tau(  70) = (  0.5431107  0.9620871  0.5999610  )
        71        C      tau(  71) = (  0.5970677  0.8172307  0.5716291  )
        72        N      tau(  72) = (  0.2760696  1.0217330  0.7636734  )
        73        N      tau(  73) = (  0.6805368  0.7694154  0.5236604  )
        74        H      tau(  74) = (  0.6947605  0.6585588  0.4972300  )
        75        H      tau(  75) = (  0.6767804  0.8263412  0.5018081  )
        76        H      tau(  76) = (  0.4212597  1.1247614  0.6700334  )
        77        H      tau(  77) = (  0.4630348  0.7031856  0.6616016  )
        78        H      tau(  78) = (  0.6083199  0.6126896  0.5740820  )
        79        H      tau(  79) = (  0.5663829  1.0354800  0.5827001  )

     number of k points=     4  Marzari-Vanderbilt smearing, width (Ry)=  0.0200
                       cart. coord. in units 2pi/alat
        k(    1) = (   0.0000000   0.0000000   0.0000000), wk =   0.5000000
        k(    2) = (   0.0000000  -0.4659994  -0.2690449), wk =   0.5000000
        k(    3) = (  -0.5000000   0.0000000   0.0000000), wk =   0.5000000
        k(    4) = (  -0.5000000  -0.4659994  -0.2690449), wk =   0.5000000

                       cryst. coord.
        k(    1) = (   0.0000000   0.0000000   0.0000000), wk =   0.5000000
        k(    2) = (   0.0000000  -0.5000000   0.0000000), wk =   0.5000000
        k(    3) = (  -0.5000000   0.0000000   0.0000000), wk =   0.5000000
        k(    4) = (  -0.5000000  -0.5000000   0.0000000), wk =   0.5000000

     Dense  grid:   351985 G-vectors     FFT dimensions: (  72,  72, 180)

     Dynamical RAM for                 wfc:      15.68 MB

     Dynamical RAM for     wfc (w. buffer):      78.39 MB

     Dynamical RAM for           str. fact:       0.63 MB

     Dynamical RAM for           local pot:       0.00 MB

     Dynamical RAM for          nlocal pot:      24.40 MB

     Dynamical RAM for                qrad:       3.52 MB

     Dynamical RAM for          rho,v,vnew:       1.19 MB

     Dynamical RAM for               rhoin:       0.40 MB

     Dynamical RAM for            rho*nmix:       2.53 MB

     Dynamical RAM for           G-vectors:       0.67 MB

     Dynamical RAM for          h,s,v(r/c):       4.60 MB

     Dynamical RAM for          <psi|beta>:      14.97 MB

     Dynamical RAM for                 psi:      31.35 MB

     Dynamical RAM for                hpsi:      31.35 MB

     Dynamical RAM for                spsi:      31.35 MB

     Dynamical RAM for      wfcinit/wfcrot:      52.00 MB

     Dynamical RAM for           addusdens:      39.50 MB

     Dynamical RAM for          addusforce:      59.73 MB

     Dynamical RAM for         addusstress:      31.76 MB

     Estimated static dynamical RAM per process >     111.17 MB

     Estimated max dynamical RAM per process >     227.34 MB

     Estimated total dynamical RAM >       7.55 GB

     Atomic positions and unit cell read from directory:
     ./tmp/Zn100_2x4x4_primitive_atoms32_14Avacumn_ABN_topsite_upright.save/


     Check: negative core charge=   -0.000054
     Cannot read rho : file not found

     Initial potential from superposition of free atoms

     starting charge    1323.9906, renormalised to    1324.0000

     negative rho (up, down):  6.406E-03 0.000E+00
     Starting wfcs are  874 randomized atomic wfcs
[psid01:146129] 33 more processes have sent help message help-mpi-btl-openib.txt / ib port not selected
[psid01:146129] Set MCA parameter "orte_base_help_aggregate" to 0 to see all help / error messages
[psid01:146129] 33 more processes have sent help message help-mpi-btl-openib.txt / error in device init
     Checking if some PAW data can be deallocated... 
       PAW data deallocated on   30 nodes for type:  2
     Calculation restarted from scf iteration #     9

     total cpu time spent up to now is       59.2 secs

     Self-consistent Calculation

     iteration #  9     ecut=    30.00 Ry     beta= 0.70
     Calculation restarted from end of k-point loop
     Davidson diagonalization with overlap

---- Real-time Memory Report at c_bands before calling an iterative solver
           200 MiB given to the printing process from OS
             0 MiB allocation reported by mallinfo(arena+hblkhd)
         37204 MiB available memory on the node where the printing process lives
------------------
     ethr =  1.00E-10,  avg # of iterations =  2.0
