
     Program PWSCF v.7.3.1 starts on  5Apr2025 at  3:18:11 

     This program is part of the open-source Quantum ESPRESSO suite
     for quantum simulation of materials; please cite
         "P. Giannozzi et al., J. Phys.:Condens. Matter 21 395502 (2009);
         "P. Giannozzi et al., J. Phys.:Condens. Matter 29 465901 (2017);
         "P. Giannozzi et al., J. Chem. Phys. 152 154105 (2020);
          URL http://www.quantum-espresso.org", 
     in publications or presentations arising from this work. More details at
     http://www.quantum-espresso.org/quote

     Parallel version (MPI), running on    33 processors

     MPI processes distributed on     1 nodes
     67896 MiB available memory on the printing compute node when the environment starts

     Waiting for input...
     Reading input from standard input
Warning: card &CELL ignored
Warning: card   CELL_DOFREE = 'ALL' ignored
Warning: card / ignored

     Current dimensions of program PWSCF are:
     Max number of different atomic species (ntypx) = 10
     Max number of k-points (npk) =  40000
     Max angular momentum in pseudopotentials (lmaxx) =  4

     File ./tmp/02_Zn100_H2O.update deleted, as requested

     File ./tmp/02_Zn100_H2O.bfgs deleted, as requested
     file O.pbe-n-kjpaw_psl.0.1.UPF: wavefunction(s)  2P renormalized

     R & G space division:  proc/nbgrp/npool/nimage =      33
     Subspace diagonalization in iterative solution of the eigenvalue problem:
     one sub-group per band group will be used
     custom distributed-memory algorithm (size of sub-group:  5*  5 procs)


     Parallelization info
     --------------------
     sticks:   dense  smooth     PW     G-vecs:    dense   smooth      PW
     Min         245     140     36                38015    16424    2211
     Max         246     141     37                38023    16429    2226
     Sum        8103    4637   1215              1254623   542067   73181

     Using Slab Decomposition



     bravais-lattice index     =            0
     lattice parameter (alat)  =      18.4179  a.u.
     unit-cell volume          =   15858.2170 (a.u.)^3
     number of atoms/cell      =           51
     number of atomic types    =            3
     number of electrons       =       968.00
     number of Kohn-Sham states=          581
     kinetic-energy cutoff     =      40.0000  Ry
     charge density cutoff     =     280.0000  Ry
     scf convergence threshold =      1.0E-06
     mixing beta               =       0.4000
     number of iterations used =            8  plain     mixing
     energy convergence thresh.=      1.0E-05
     force convergence thresh. =      5.0E-04
     Exchange-correlation= PBE
                           (   1   4   3   4   0   0   0)
     nstep                     =          500


     celldm(1)=  18.417879  celldm(2)=   0.000000  celldm(3)=   0.000000
     celldm(4)=   0.000000  celldm(5)=   0.000000  celldm(6)=   0.000000

     crystal axes: (cart. coord. in units of alat)
               a(1) = (   1.000000   0.000000   0.000000 )  
               a(2) = (   0.000000   1.072963   0.000000 )  
               a(3) = (   0.000000  -1.365810   2.365652 )  

     reciprocal axes: (cart. coord. in units 2 pi/alat)
               b(1) = (  1.000000  0.000000 -0.000000 )  
               b(2) = ( -0.000000  0.931999  0.538090 )  
               b(3) = (  0.000000  0.000000  0.422716 )  


     PseudoPot. # 1 for Zn read from file:
     /home/ys/qepseudo/SSSP_1.3.0_PBE_efficiency/Zn_pbe_v1.uspp.F.UPF
     MD5 check sum: df62231357ef9e81f77b2b3087fa5675
     Pseudo is Ultrasoft, Zval = 20.0
     Generated by new atomic code, or converted to UPF format
     Using radial grid of  943 points,  6 beta functions with: 
                l(1) =   0
                l(2) =   0
                l(3) =   1
                l(4) =   1
                l(5) =   2
                l(6) =   2
     Q(r) pseudized with  8 coefficients,  rinner =    1.100   1.100   1.100
                                                       1.100   1.100

     PseudoPot. # 2 for O  read from file:
     /home/ys/qepseudo/SSSP_1.3.0_PBE_efficiency/O.pbe-n-kjpaw_psl.0.1.UPF
     MD5 check sum: 0234752ac141de4415c5fc33072bef88
     Pseudo is Projector augmented-wave + core cor, Zval =  6.0
     Generated using "atomic" code by A. Dal Corso  v.5.0.99 svn rev. 10869
     Shape of augmentation charge: BESSEL
     Using radial grid of 1095 points,  4 beta functions with: 
                l(1) =   0
                l(2) =   0
                l(3) =   1
                l(4) =   1
     Q(r) pseudized with 0 coefficients 


     PseudoPot. # 3 for H  read from file:
     /home/ys/qepseudo/SSSP_1.3.0_PBE_efficiency/H.pbe-rrkjus_psl.1.0.0.UPF
     MD5 check sum: f52b6d4d1c606e5624b1dc7b2218f220
     Pseudo is Ultrasoft, Zval =  1.0
     Generated using "atomic" code by A. Dal Corso  v.5.1
     Using radial grid of  929 points,  2 beta functions with: 
                l(1) =   0
                l(2) =   0
     Q(r) pseudized with 0 coefficients 


     atomic species   valence    mass     pseudopotential
     Zn               20.00    65.38000     Zn( 1.00)
     O                 6.00    15.99940     O ( 1.00)
     H                 1.00     1.00794     H ( 1.00)

     No symmetry found


                                    s                        frac. trans.

      isym =  1     identity                                     

 cryst.   s( 1) = (     1          0          0      )
                  (     0          1          0      )
                  (     0          0          1      )

 cart.    s( 1) = (  1.0000000  0.0000000  0.0000000 )
                  (  0.0000000  1.0000000 -0.0000000 )
                  (  0.0000000  0.0000000  1.0000000 )


   Cartesian axes

     site n.     atom                  positions (alat units)
         1        Zn     tau(   1) = (   0.1250000   0.1341203   0.0774344  )
         2        Zn     tau(   2) = (   0.1250000   0.6706017   0.0774344  )
         3        Zn     tau(   3) = (   0.0662833  -0.0000442   0.3682406  )
         4        Zn     tau(   4) = (   0.0659554   0.5373290   0.3666532  )
         5        Zn     tau(   5) = (   0.1421200  -0.1341714   0.6223076  )
         6        Zn     tau(   6) = (   0.1414607   0.4039392   0.6127570  )
         7        Zn     tau(   7) = (   0.1250000   0.4023610   0.0774344  )
         8        Zn     tau(   8) = (   0.1250000   0.9388424   0.0774344  )
         9        Zn     tau(   9) = (   0.0663205   0.2685430   0.3665279  )
        10        Zn     tau(  10) = (   0.0660495   0.8054065   0.3652466  )
        11        Zn     tau(  11) = (   0.1406041   0.1342673   0.6137064  )
        12        Zn     tau(  12) = (   0.1423278   0.6714000   0.6229693  )
        13        Zn     tau(  13) = (   0.6250000   0.1341203   0.0774344  )
        14        Zn     tau(  14) = (   0.6250000   0.6706017   0.0774344  )
        15        Zn     tau(  15) = (   0.5662968   0.0001080   0.3667042  )
        16        Zn     tau(  16) = (   0.5648740   0.5373240   0.3656117  )
        17        Zn     tau(  17) = (   0.6422710  -0.1337523   0.6186020  )
        18        Zn     tau(  18) = (   0.6434248   0.4026004   0.6166134  )
        19        Zn     tau(  19) = (   0.6250000   0.4023610   0.0774344  )
        20        Zn     tau(  20) = (   0.6250000   0.9388424   0.0774344  )
        21        Zn     tau(  21) = (   0.5660275   0.2686213   0.3655646  )
        22        Zn     tau(  22) = (   0.5660111   0.8052807   0.3627378  )
        23        Zn     tau(  23) = (   0.6427095   0.1348801   0.6181255  )
        24        Zn     tau(  24) = (   0.6415908   0.6717926   0.6184468  )
        25        Zn     tau(  25) = (   0.3750000  -0.0000000   0.1548688  )
        26        Zn     tau(  26) = (   0.3750000   0.5364814   0.1548688  )
        27        Zn     tau(  27) = (   0.3076212  -0.1338349   0.3805686  )
        28        Zn     tau(  28) = (   0.3106051   0.4026061   0.3837919  )
        29        Zn     tau(  29) = (   0.3952910  -0.2667789   0.6142529  )
        30        Zn     tau(  30) = (   0.3978562   0.2685852   0.6329554  )
        31        Zn     tau(  31) = (   0.3750000   0.2682407   0.1548688  )
        32        Zn     tau(  32) = (   0.3750000   0.8047221   0.1548688  )
        33        Zn     tau(  33) = (   0.3116654   0.1354883   0.3835569  )
        34        Zn     tau(  34) = (   0.3066763   0.6705365   0.3819142  )
        35        Zn     tau(  35) = (   0.3949975   0.0002583   0.6128351  )
        36        Zn     tau(  36) = (   0.3964238   0.5377731   0.6116517  )
        37        Zn     tau(  37) = (   0.8750000  -0.0000000   0.1548688  )
        38        Zn     tau(  38) = (   0.8750000   0.5364814   0.1548688  )
        39        Zn     tau(  39) = (   0.8069958  -0.1345601   0.3798892  )
        40        Zn     tau(  40) = (   0.8078624   0.4027499   0.3817754  )
        41        Zn     tau(  41) = (   0.8958346  -0.2683978   0.6138225  )
        42        Zn     tau(  42) = (   0.8959019   0.2679088   0.6142435  )
        43        Zn     tau(  43) = (   0.8750000   0.2682407   0.1548688  )
        44        Zn     tau(  44) = (   0.8750000   0.8047221   0.1548688  )
        45        Zn     tau(  45) = (   0.8084459   0.1348810   0.3787901  )
        46        Zn     tau(  46) = (   0.8070453   0.6707963   0.3815438  )
        47        Zn     tau(  47) = (   0.8940263  -0.0006339   0.6129604  )
        48        Zn     tau(  48) = (   0.8958685   0.5369126   0.6146199  )
        49        O      tau(  49) = (   0.3441595   0.2888091   0.8892061  )
        50        H      tau(  50) = (   0.2648002   0.2274146   0.8836402  )
        51        H      tau(  51) = (   0.3022036   0.3791473   0.8758628  )

     --------------------------------------------
     DFT-D3 Dispersion Correction (3-body terms):
     --------------------------------------------
       Reference C6 values for interpolation: 

         atom   Coordination number   C6
         H          0.912             6.05
         H          0.000            15.18
         O          0.000            31.01
         O          0.993            25.63
         O          1.989            20.74
         Zn         0.000           681.04
         Zn         1.942           306.91

       Values used:

         atom   Coordination number  R0_AB[au]  C6      C8
         Zn         4.474            3.053    306.91  23930.67
         Zn         4.504            3.053    306.91  23930.67
         Zn         7.264            3.053    306.91  23930.67
         Zn         7.269            3.053    306.91  23930.67
         Zn         6.147            3.053    306.91  23930.67
         Zn         6.427            3.053    306.91  23930.67
         Zn         4.484            3.053    306.91  23930.67
         Zn         4.497            3.053    306.91  23930.67
         Zn         7.334            3.053    306.91  23930.67
         Zn         7.180            3.053    306.91  23930.67
         Zn         6.396            3.053    306.91  23930.67
         Zn         6.126            3.053    306.91  23930.67
         Zn         4.505            3.053    306.91  23930.67
         Zn         4.529            3.053    306.91  23930.67
         Zn         7.315            3.053    306.91  23930.67
         Zn         7.345            3.053    306.91  23930.67
         Zn         6.239            3.053    306.91  23930.67
         Zn         6.328            3.053    306.91  23930.67
         Zn         4.504            3.053    306.91  23930.67
         Zn         4.528            3.053    306.91  23930.67
         Zn         7.194            3.053    306.91  23930.67
         Zn         7.242            3.053    306.91  23930.67
         Zn         6.273            3.053    306.91  23930.67
         Zn         6.225            3.053    306.91  23930.67
         Zn         6.386            3.053    306.91  23930.67
         Zn         6.399            3.053    306.91  23930.67
         Zn         8.290            3.053    306.91  23930.67
         Zn         8.253            3.053    306.91  23930.67
         Zn         6.423            3.053    306.91  23930.67
         Zn         5.974            3.053    306.91  23930.67
         Zn         6.389            3.053    306.91  23930.67
         Zn         6.431            3.053    306.91  23930.67
         Zn         8.219            3.053    306.91  23930.67
         Zn         8.311            3.053    306.91  23930.67
         Zn         6.490            3.053    306.91  23930.67
         Zn         6.536            3.053    306.91  23930.67
         Zn         6.403            3.053    306.91  23930.67
         Zn         6.391            3.053    306.91  23930.67
         Zn         8.327            3.053    306.91  23930.67
         Zn         8.338            3.053    306.91  23930.67
         Zn         6.443            3.053    306.91  23930.67
         Zn         6.462            3.053    306.91  23930.67
         Zn         6.412            3.053    306.91  23930.67
         Zn         6.420            3.053    306.91  23930.67
         Zn         8.312            3.053    306.91  23930.67
         Zn         8.317            3.053    306.91  23930.67
         Zn         6.483            3.053    306.91  23930.67
         Zn         6.454            3.053    306.91  23930.67
         O          2.156            2.345     20.76    419.03
         H          1.002            2.062      6.18     74.69
         H          1.004            2.062      6.18     74.68

         Molecular C6 ( Ry / a.u.^6 ) =    722461.98


   Crystallographic axes

     site n.     atom                  positions (cryst. coord.)
         1        Zn     tau(   1) = (  0.1250000  0.1666667  0.0327328  )
         2        Zn     tau(   2) = (  0.1250000  0.6666667  0.0327328  )
         3        Zn     tau(   3) = (  0.0662833  0.1981053  0.1556614  )
         4        Zn     tau(   4) = (  0.0659554  0.6980823  0.1549903  )
         5        Zn     tau(   5) = (  0.1421200  0.2098098  0.2630596  )
         6        Zn     tau(   6) = (  0.1414607  0.7061892  0.2590224  )
         7        Zn     tau(   7) = (  0.1250000  0.4166667  0.0327328  )
         8        Zn     tau(   8) = (  0.1250000  0.9166667  0.0327328  )
         9        Zn     tau(   9) = (  0.0663205  0.4475067  0.1549374  )
        10        Zn     tau(  10) = (  0.0660495  0.9471734  0.1543957  )
        11        Zn     tau(  11) = (  0.1406041  0.4553661  0.2594238  )
        12        Zn     tau(  12) = (  0.1423278  0.9609574  0.2633393  )
        13        Zn     tau(  13) = (  0.6250000  0.1666667  0.0327328  )
        14        Zn     tau(  14) = (  0.6250000  0.6666667  0.0327328  )
        15        Zn     tau(  15) = (  0.5662968  0.1974204  0.1550119  )
        16        Zn     tau(  16) = (  0.5648740  0.6975173  0.1545500  )
        17        Zn     tau(  17) = (  0.6422710  0.2082065  0.2614932  )
        18        Zn     tau(  18) = (  0.6434248  0.7070166  0.2606526  )
        19        Zn     tau(  19) = (  0.6250000  0.4166667  0.0327328  )
        20        Zn     tau(  20) = (  0.6250000  0.9166667  0.0327328  )
        21        Zn     tau(  21) = (  0.5660275  0.4470614  0.1545302  )
        22        Zn     tau(  22) = (  0.5660111  0.9457062  0.1533352  )
        23        Zn     tau(  23) = (  0.6427095  0.4583151  0.2612918  )
        24        Zn     tau(  24) = (  0.6415908  0.9588899  0.2614276  )
        25        Zn     tau(  25) = (  0.3750000  0.0833333  0.0654656  )
        26        Zn     tau(  26) = (  0.3750000  0.5833333  0.0654656  )
        27        Zn     tau(  27) = (  0.3076212  0.0800461  0.1608726  )
        28        Zn     tau(  28) = (  0.3106051  0.5817429  0.1622351  )
        29        Zn     tau(  29) = (  0.3952910  0.0818856  0.2596548  )
        30        Zn     tau(  30) = (  0.3978562  0.5909080  0.2675606  )
        31        Zn     tau(  31) = (  0.3750000  0.3333333  0.0654656  )
        32        Zn     tau(  32) = (  0.3750000  0.8333334  0.0654656  )
        33        Zn     tau(  33) = (  0.3116654  0.3326630  0.1621358  )
        34        Zn     tau(  34) = (  0.3066763  0.8304434  0.1614414  )
        35        Zn     tau(  35) = (  0.3949975  0.3300010  0.2590554  )
        36        Zn     tau(  36) = (  0.3964238  0.8303275  0.2585552  )
        37        Zn     tau(  37) = (  0.8750000  0.0833333  0.0654656  )
        38        Zn     tau(  38) = (  0.8750000  0.5833333  0.0654656  )
        39        Zn     tau(  39) = (  0.8069958  0.0790046  0.1605854  )
        40        Zn     tau(  40) = (  0.8078624  0.5807919  0.1613827  )
        41        Zn     tau(  41) = (  0.8958346  0.0801452  0.2594728  )
        42        Zn     tau(  42) = (  0.8959019  0.5802088  0.2596508  )
        43        Zn     tau(  43) = (  0.8750000  0.3333333  0.0654656  )
        44        Zn     tau(  44) = (  0.8750000  0.8333334  0.0654656  )
        45        Zn     tau(  45) = (  0.8084459  0.3295320  0.1601208  )
        46        Zn     tau(  46) = (  0.8070453  0.8304862  0.1612848  )
        47        Zn     tau(  47) = (  0.8940263  0.3292369  0.2591084  )
        48        Zn     tau(  48) = (  0.8958685  0.8311227  0.2598099  )
        49        O      tau(  49) = (  0.3441595  0.7476425  0.3758820  )
        50        H      tau(  50) = (  0.2648002  0.6874279  0.3735292  )
        51        H      tau(  51) = (  0.3022036  0.8246577  0.3702416  )

     number of k points=     5  Marzari-Vanderbilt smearing, width (Ry)=  0.0200
                       cart. coord. in units 2pi/alat
        k(    1) = (   0.0000000   0.0000000   0.0000000), wk =   0.2222222
        k(    2) = (   0.0000000   0.3106663   0.1793633), wk =   0.4444444
        k(    3) = (   0.3333333   0.0000000   0.0000000), wk =   0.4444444
        k(    4) = (   0.3333333   0.3106663   0.1793633), wk =   0.4444444
        k(    5) = (   0.3333333  -0.3106663  -0.1793633), wk =   0.4444444

                       cryst. coord.
        k(    1) = (   0.0000000   0.0000000   0.0000000), wk =   0.2222222
        k(    2) = (   0.0000000   0.3333333  -0.0000000), wk =   0.4444444
        k(    3) = (   0.3333333   0.0000000   0.0000000), wk =   0.4444444
        k(    4) = (   0.3333333   0.3333333  -0.0000000), wk =   0.4444444
        k(    5) = (   0.3333333  -0.3333333   0.0000000), wk =   0.4444444

     Dense  grid:  1254623 G-vectors     FFT dimensions: ( 100, 108, 270)

     Smooth grid:   542067 G-vectors     FFT dimensions: (  75,  80, 216)

     Dynamical RAM for                 wfc:      18.19 MB

     Dynamical RAM for     wfc (w. buffer):     109.15 MB

     Dynamical RAM for           str. fact:       1.74 MB

     Dynamical RAM for           local pot:       0.00 MB

     Dynamical RAM for          nlocal pot:      27.43 MB

     Dynamical RAM for                qrad:       4.03 MB

     Dynamical RAM for          rho,v,vnew:       3.97 MB

     Dynamical RAM for               rhoin:       1.32 MB

     Dynamical RAM for            rho*nmix:       9.28 MB

     Dynamical RAM for           G-vectors:       2.30 MB

     Dynamical RAM for          h,s,v(r/c):       2.46 MB

     Dynamical RAM for          <psi|beta>:       7.77 MB

     Dynamical RAM for                 psi:      36.38 MB

     Dynamical RAM for                hpsi:      36.38 MB

     Dynamical RAM for                spsi:      36.38 MB

     Dynamical RAM for      wfcinit/wfcrot:      48.54 MB

     Dynamical RAM for           addusdens:     135.76 MB

     Dynamical RAM for          addusforce:     190.77 MB

     Dynamical RAM for         addusstress:     116.61 MB

     Estimated static dynamical RAM per process >     155.97 MB

     Estimated max dynamical RAM per process >     356.02 MB

     Estimated total dynamical RAM >      11.47 GB

     Initial potential from superposition of free atoms

     starting charge     967.9932, renormalised to     968.0000

     negative rho (up, down):  3.865E-03 0.000E+00
     Starting wfcs are  630 randomized atomic wfcs
     Checking if some PAW data can be deallocated... 
       PAW data deallocated on   32 nodes for type:  2

     total cpu time spent up to now is       62.4 secs

     Self-consistent Calculation

     iteration #  1     ecut=    40.00 Ry     beta= 0.40
     Davidson diagonalization with overlap

---- Real-time Memory Report at c_bands before calling an iterative solver
           231 MiB given to the printing process from OS
             0 MiB allocation reported by mallinfo(arena+hblkhd)
         62190 MiB available memory on the node where the printing process lives
------------------
     ethr =  1.00E-02,  avg # of iterations =  8.0

     Threshold (ethr) on eigenvalues was too large:
     Diagonalizing with lowered threshold

     Davidson diagonalization with overlap

---- Real-time Memory Report at c_bands before calling an iterative solver
           328 MiB given to the printing process from OS
             0 MiB allocation reported by mallinfo(arena+hblkhd)
         61005 MiB available memory on the node where the printing process lives
------------------
     ethr =  1.75E-04,  avg # of iterations =  8.4

     negative rho (up, down):  4.702E-03 0.000E+00

     total cpu time spent up to now is      535.1 secs

     total energy              =  -22198.39358240 Ry
     estimated scf accuracy    <       1.72560202 Ry

     iteration #  2     ecut=    40.00 Ry     beta= 0.40
     Davidson diagonalization with overlap

---- Real-time Memory Report at c_bands before calling an iterative solver
           342 MiB given to the printing process from OS
             0 MiB allocation reported by mallinfo(arena+hblkhd)
         60859 MiB available memory on the node where the printing process lives
------------------
     ethr =  1.78E-04,  avg # of iterations =  4.2

     negative rho (up, down):  5.210E-03 0.000E+00

     total cpu time spent up to now is      782.1 secs

     total energy              =  -22198.78415592 Ry
     estimated scf accuracy    <       0.31872904 Ry

     iteration #  3     ecut=    40.00 Ry     beta= 0.40
     Davidson diagonalization with overlap

---- Real-time Memory Report at c_bands before calling an iterative solver
           346 MiB given to the printing process from OS
             0 MiB allocation reported by mallinfo(arena+hblkhd)
         60836 MiB available memory on the node where the printing process lives
------------------
     ethr =  3.29E-05,  avg # of iterations = 12.0

     negative rho (up, down):  5.732E-03 0.000E+00

     total cpu time spent up to now is     1011.4 secs

     total energy              =  -22198.76126893 Ry
     estimated scf accuracy    <       0.58066734 Ry

     iteration #  4     ecut=    40.00 Ry     beta= 0.40
     Davidson diagonalization with overlap

---- Real-time Memory Report at c_bands before calling an iterative solver
           348 MiB given to the printing process from OS
             0 MiB allocation reported by mallinfo(arena+hblkhd)
         60811 MiB available memory on the node where the printing process lives
------------------
     ethr =  3.29E-05,  avg # of iterations =  6.4

     negative rho (up, down):  5.628E-03 0.000E+00

     total cpu time spent up to now is     1229.0 secs

     total energy              =  -22198.80822724 Ry
     estimated scf accuracy    <       0.21241710 Ry

     iteration #  5     ecut=    40.00 Ry     beta= 0.40
     Davidson diagonalization with overlap

---- Real-time Memory Report at c_bands before calling an iterative solver
           348 MiB given to the printing process from OS
             0 MiB allocation reported by mallinfo(arena+hblkhd)
         60788 MiB available memory on the node where the printing process lives
------------------
     ethr =  2.19E-05,  avg # of iterations =  4.0

     negative rho (up, down):  5.718E-03 0.000E+00

     total cpu time spent up to now is     1434.1 secs

     total energy              =  -22198.81718020 Ry
     estimated scf accuracy    <       0.03446406 Ry

     iteration #  6     ecut=    40.00 Ry     beta= 0.40
     Davidson diagonalization with overlap

---- Real-time Memory Report at c_bands before calling an iterative solver
           349 MiB given to the printing process from OS
             0 MiB allocation reported by mallinfo(arena+hblkhd)
         60765 MiB available memory on the node where the printing process lives
------------------
     c_bands:  1 eigenvalues not converged
     ethr =  3.56E-06,  avg # of iterations =  9.2

     negative rho (up, down):  5.766E-03 0.000E+00

     total cpu time spent up to now is     1656.7 secs

     total energy              =  -22198.82153414 Ry
     estimated scf accuracy    <       0.00239554 Ry

     iteration #  7     ecut=    40.00 Ry     beta= 0.40
     Davidson diagonalization with overlap

---- Real-time Memory Report at c_bands before calling an iterative solver
           350 MiB given to the printing process from OS
             0 MiB allocation reported by mallinfo(arena+hblkhd)
         60742 MiB available memory on the node where the printing process lives
------------------
     ethr =  2.47E-07,  avg # of iterations =  2.4

     negative rho (up, down):  5.797E-03 0.000E+00

     total cpu time spent up to now is     1858.2 secs

     total energy              =  -22198.82186943 Ry
     estimated scf accuracy    <       0.00098377 Ry

     iteration #  8     ecut=    40.00 Ry     beta= 0.40
     Davidson diagonalization with overlap

---- Real-time Memory Report at c_bands before calling an iterative solver
           350 MiB given to the printing process from OS
             0 MiB allocation reported by mallinfo(arena+hblkhd)
         60720 MiB available memory on the node where the printing process lives
------------------
     ethr =  1.02E-07,  avg # of iterations =  2.2

     negative rho (up, down):  5.814E-03 0.000E+00

     total cpu time spent up to now is     2057.6 secs

     total energy              =  -22198.82200712 Ry
     estimated scf accuracy    <       0.00014170 Ry

     iteration #  9     ecut=    40.00 Ry     beta= 0.40
     Davidson diagonalization with overlap

---- Real-time Memory Report at c_bands before calling an iterative solver
           351 MiB given to the printing process from OS
             0 MiB allocation reported by mallinfo(arena+hblkhd)
         60696 MiB available memory on the node where the printing process lives
------------------
     ethr =  1.46E-08,  avg # of iterations =  2.0

     negative rho (up, down):  5.824E-03 0.000E+00

     total cpu time spent up to now is     2259.4 secs

     total energy              =  -22198.82202787 Ry
     estimated scf accuracy    <       0.00003280 Ry

     iteration # 10     ecut=    40.00 Ry     beta= 0.40
     Davidson diagonalization with overlap

---- Real-time Memory Report at c_bands before calling an iterative solver
           352 MiB given to the printing process from OS
             0 MiB allocation reported by mallinfo(arena+hblkhd)
         60672 MiB available memory on the node where the printing process lives
------------------
     ethr =  3.39E-09,  avg # of iterations =  2.0

     negative rho (up, down):  5.830E-03 0.000E+00

     total cpu time spent up to now is     2461.5 secs

     total energy              =  -22198.82203385 Ry
     estimated scf accuracy    <       0.00001127 Ry

     iteration # 11     ecut=    40.00 Ry     beta= 0.40
     Davidson diagonalization with overlap

---- Real-time Memory Report at c_bands before calling an iterative solver
           352 MiB given to the printing process from OS
             0 MiB allocation reported by mallinfo(arena+hblkhd)
         60670 MiB available memory on the node where the printing process lives
------------------
     ethr =  1.16E-09,  avg # of iterations =  2.0

     negative rho (up, down):  5.834E-03 0.000E+00

     total cpu time spent up to now is     2663.9 secs

     total energy              =  -22198.82203530 Ry
     estimated scf accuracy    <       0.00000398 Ry

     iteration # 12     ecut=    40.00 Ry     beta= 0.40
     Davidson diagonalization with overlap

---- Real-time Memory Report at c_bands before calling an iterative solver
           352 MiB given to the printing process from OS
             0 MiB allocation reported by mallinfo(arena+hblkhd)
         60670 MiB available memory on the node where the printing process lives
------------------
     ethr =  4.11E-10,  avg # of iterations =  2.0

     negative rho (up, down):  5.840E-03 0.000E+00

     total cpu time spent up to now is     2864.2 secs

     End of self-consistent calculation

          k = 0.0000 0.0000 0.0000 ( 67685 PWs)   bands (ev):

  -125.1579-125.1555-125.1529-125.1519-125.1514-125.1473-125.1445-125.1356
  -125.0332-125.0301-125.0286-125.0283-125.0253-125.0242-125.0218-125.0216
  -124.9857-124.9775-124.9727-124.9716-124.9714-124.9710-124.9699-124.9445
  -124.9388-124.9362-124.9342-124.9334-124.9306-124.9295-124.9282-124.9282
  -124.9205-124.9101-124.9054-124.9045-124.9032-124.9021-124.9002-124.8985
  -124.7273-124.7260-124.7256-124.7251-124.7246-124.7243-124.7239-124.7228
   -79.3210 -79.3128 -79.3123 -79.3096 -79.3088 -79.3076 -79.3067 -79.3058
   -79.3049 -79.3014 -79.3012 -79.2995 -79.2986 -79.2984 -79.2973 -79.2967
   -79.2955 -79.2951 -79.2950 -79.2910 -79.2900 -79.2890 -79.2825 -79.2803
   -79.1898 -79.1891 -79.1866 -79.1854 -79.1849 -79.1845 -79.1844 -79.1821
   -79.1815 -79.1810 -79.1805 -79.1803 -79.1792 -79.1783 -79.1780 -79.1770
   -79.1761 -79.1744 -79.1740 -79.1733 -79.1728 -79.1713 -79.1623 -79.1599
   -79.1474 -79.1387 -79.1384 -79.1372 -79.1340 -79.1323 -79.1318 -79.1310
   -79.1310 -79.1277 -79.1269 -79.1256 -79.1228 -79.1214 -79.1178 -79.1157
   -79.1153 -79.1148 -79.1147 -79.1135 -79.1116 -79.1052 -79.0980 -79.0962
   -79.0949 -79.0945 -79.0937 -79.0936 -79.0927 -79.0906 -79.0900 -79.0878
   -79.0877 -79.0869 -79.0842 -79.0841 -79.0815 -79.0812 -79.0807 -79.0800
   -79.0787 -79.0784 -79.0783 -79.0781 -79.0757 -79.0747 -79.0733 -79.0732
   -79.0700 -79.0696 -79.0670 -79.0666 -79.0658 -79.0649 -79.0648 -79.0647
   -79.0621 -79.0617 -79.0600 -79.0589 -79.0561 -79.0547 -79.0533 -79.0528
   -79.0526 -79.0522 -79.0515 -79.0502 -79.0480 -79.0457 -79.0413 -79.0412
   -78.9009 -78.8995 -78.8985 -78.8985 -78.8977 -78.8975 -78.8973 -78.8962
   -78.8819 -78.8802 -78.8748 -78.8737 -78.8733 -78.8725 -78.8723 -78.8717
   -78.8712 -78.8702 -78.8697 -78.8694 -78.8681 -78.8676 -78.8572 -78.8555
   -20.5066  -8.2810  -8.1266  -7.2016  -7.0246  -7.0123  -7.0064  -6.8793
    -6.8751  -6.8172  -6.7603  -6.7268  -6.7043  -6.6932  -6.6747  -6.6424
    -6.6339  -6.6130  -6.5944  -6.5920  -6.5790  -6.5727  -6.5677  -6.5520
    -6.5502  -6.5225  -6.5096  -6.4975  -6.4910  -6.4881  -6.4736  -6.4659
    -6.4418  -6.4388  -6.4328  -6.4290  -6.4262  -6.4153  -6.4040  -6.4020
    -6.3998  -6.3952  -6.3833  -6.3524  -6.3507  -6.3456  -6.3419  -6.3246
    -6.3145  -6.3109  -6.3028  -6.3012  -6.2906  -6.2826  -6.2789  -6.2693
    -6.2643  -6.2588  -6.2524  -6.2518  -6.2492  -6.2323  -6.2244  -6.2188
    -6.2043  -6.2006  -6.1962  -6.1907  -6.1846  -6.1843  -6.1697  -6.1644
    -6.1574  -6.1545  -6.1383  -6.1315  -6.1292  -6.1232  -6.1207  -6.1043
    -6.1010  -6.0919  -6.0914  -6.0828  -6.0794  -6.0762  -6.0722  -6.0691
    -6.0441  -6.0409  -6.0376  -6.0370  -6.0174  -6.0144  -6.0105  -6.0028
    -6.0008  -5.9901  -5.9736  -5.9718  -5.9706  -5.9631  -5.9618  -5.9585
    -5.9501  -5.9448  -5.9431  -5.9376  -5.9339  -5.9272  -5.9259  -5.9231
    -5.9223  -5.9186  -5.9137  -5.9110  -5.9080  -5.9022  -5.9013  -5.8986
    -5.8961  -5.8942  -5.8764  -5.8720  -5.8638  -5.8577  -5.8497  -5.8472
    -5.8424  -5.8241  -5.8228  -5.8226  -5.8208  -5.8182  -5.8155  -5.8134
    -5.8090  -5.8040  -5.7983  -5.7925  -5.7906  -5.7850  -5.7829  -5.7571
    -5.7562  -5.7500  -5.7468  -5.7452  -5.7381  -5.7379  -5.7354  -5.7194
    -5.7151  -5.7112  -5.7058  -5.7047  -5.7001  -5.6876  -5.6814  -5.6808
    -5.6744  -5.6737  -5.6713  -5.6689  -5.6671  -5.6617  -5.6584  -5.6364
    -5.6267  -5.6246  -5.6244  -5.6182  -5.6174  -5.6104  -5.6079  -5.6021
    -5.6015  -5.5996  -5.5911  -5.5896  -5.5859  -5.5799  -5.5779  -5.5764
    -5.5744  -5.5739  -5.5706  -5.5675  -5.5651  -5.5610  -5.5597  -5.5565
    -5.5554  -5.5545  -5.5479  -5.5383  -5.5371  -5.5354  -5.5336  -5.5296
    -5.5245  -5.5235  -5.5222  -5.5213  -5.5208  -5.5193  -5.5078  -5.5055
    -5.5015  -5.4995  -5.4989  -5.4978  -5.4862  -5.4830  -5.4807  -5.4793
    -5.4790  -5.4647  -5.4641  -5.4633  -5.4615  -5.4567  -5.4535  -5.4413
    -5.4399  -5.4336  -5.4325  -5.4307  -5.4263  -5.4127  -5.4119  -5.4108
    -5.4101  -5.3755  -5.3726  -5.3667  -5.3510  -5.3316  -5.3201  -5.3161
    -5.3032  -5.2869  -5.2687  -5.2591  -5.2313  -5.2298  -5.2274  -5.1291
    -4.7228  -4.5936  -4.5884  -4.5341  -4.5027  -4.3852  -4.3665  -4.3339
    -4.2688  -3.4650  -3.1361  -3.0076  -2.9160  -2.9040  -2.6878  -2.2161
    -2.1352  -2.0844  -1.9079  -1.8677  -1.7480  -1.4001  -0.9339  -0.8948
    -0.8876  -0.8771  -0.6055  -0.6033  -0.4589  -0.3971  -0.3746  -0.2206
    -0.1386  -0.0631   0.1534   0.1690   0.2030   0.4304   0.5319   0.5496
     0.6503   0.9683   1.0067   1.2226   1.2625   1.4283   1.6018   1.9408
     1.9643   1.9761   2.2035   2.2326   2.4575   2.4681   2.4946   2.7484
     2.7544   2.8177   2.9796   3.0766   3.2648   3.3741   3.4148   3.8165
     3.8430   4.0429   4.0727   4.1420   4.1684   4.2964   4.3211   4.4845
     4.5532   4.6777   4.7296   4.7647   5.0010   5.0703   5.1117   5.2532
     5.2773   5.3172   5.3354   5.3942   5.4514   5.5852   5.8733   5.9900
     6.1710   6.1889   6.2960   6.3270   6.3512   6.4209   6.4354   6.4608
     6.5118   6.5643   6.5862   6.6434   6.6512   6.6868   6.7298   6.7927
     6.8047   6.8281   6.8657   6.8708   7.0080   7.0140   7.0251   7.0346
     7.0501   7.2987   7.2998   7.3413   7.4028   7.4372   7.5271   7.5783
     7.6729   7.6852   7.7402   7.7568   7.7976   7.8251   7.9261   7.9986
     8.0449   8.0805   8.0922   8.1380   8.1616   8.1798   8.1845   8.2509
     8.3025   8.3458   8.3598   8.4573   8.4729

     occupation numbers 
     1.0000   1.0000   1.0000   1.0000   1.0000   1.0000   1.0000   1.0000
     1.0000   1.0000   1.0000   1.0000   1.0000   1.0000   1.0000   1.0000
     1.0000   1.0000   1.0000   1.0000   1.0000   1.0000   1.0000   1.0000
     1.0000   1.0000   1.0000   1.0000   1.0000   1.0000   1.0000   1.0000
     1.0000   1.0000   1.0000   1.0000   1.0000   1.0000   1.0000   1.0000
     1.0000   1.0000   1.0000   1.0000   1.0000   1.0000   1.0000   1.0000
     1.0000   1.0000   1.0000   1.0000   1.0000   1.0000   1.0000   1.0000
     1.0000   1.0000   1.0000   1.0000   1.0000   1.0000   1.0000   1.0000
     1.0000   1.0000   1.0000   1.0000   1.0000   1.0000   1.0000   1.0000
     1.0000   1.0000   1.0000   1.0000   1.0000   1.0000   1.0000   1.0000
     1.0000   1.0000   1.0000   1.0000   1.0000   1.0000   1.0000   1.0000
     1.0000   1.0000   1.0000   1.0000   1.0000   1.0000   1.0000   1.0000
     1.0000   1.0000   1.0000   1.0000   1.0000   1.0000   1.0000   1.0000
     1.0000   1.0000   1.0000   1.0000   1.0000   1.0000   1.0000   1.0000
     1.0000   1.0000   1.0000   1.0000   1.0000   1.0000   1.0000   1.0000
     1.0000   1.0000   1.0000   1.0000   1.0000   1.0000   1.0000   1.0000
     1.0000   1.0000   1.0000   1.0000   1.0000   1.0000   1.0000   1.0000
     1.0000   1.0000   1.0000   1.0000   1.0000   1.0000   1.0000   1.0000
     1.0000   1.0000   1.0000   1.0000   1.0000   1.0000   1.0000   1.0000
     1.0000   1.0000   1.0000   1.0000   1.0000   1.0000   1.0000   1.0000
     1.0000   1.0000   1.0000   1.0000   1.0000   1.0000   1.0000   1.0000
     1.0000   1.0000   1.0000   1.0000   1.0000   1.0000   1.0000   1.0000
     1.0000   1.0000   1.0000   1.0000   1.0000   1.0000   1.0000   1.0000
     1.0000   1.0000   1.0000   1.0000   1.0000   1.0000   1.0000   1.0000
     1.0000   1.0000   1.0000   1.0000   1.0000   1.0000   1.0000   1.0000
     1.0000   1.0000   1.0000   1.0000   1.0000   1.0000   1.0000   1.0000
     1.0000   1.0000   1.0000   1.0000   1.0000   1.0000   1.0000   1.0000
     1.0000   1.0000   1.0000   1.0000   1.0000   1.0000   1.0000   1.0000
     1.0000   1.0000   1.0000   1.0000   1.0000   1.0000   1.0000   1.0000
     1.0000   1.0000   1.0000   1.0000   1.0000   1.0000   1.0000   1.0000
     1.0000   1.0000   1.0000   1.0000   1.0000   1.0000   1.0000   1.0000
     1.0000   1.0000   1.0000   1.0000   1.0000   1.0000   1.0000   1.0000
     1.0000   1.0000   1.0000   1.0000   1.0000   1.0000   1.0000   1.0000
     1.0000   1.0000   1.0000   1.0000   1.0000   1.0000   1.0000   1.0000
     1.0000   1.0000   1.0000   1.0000   1.0000   1.0000   1.0000   1.0000
     1.0000   1.0000   1.0000   1.0000   1.0000   1.0000   1.0000   1.0000
     1.0000   1.0000   1.0000   1.0000   1.0000   1.0000   1.0000   1.0000
     1.0000   1.0000   1.0000   1.0000   1.0000   1.0000   1.0000   1.0000
     1.0000   1.0000   1.0000   1.0000   1.0000   1.0000   1.0000   1.0000
     1.0000   1.0000   1.0000   1.0000   1.0000   1.0000   1.0000   1.0000
     1.0000   1.0000   1.0000   1.0000   1.0000   1.0000   1.0000   1.0000
     1.0000   1.0000   1.0000   1.0000   1.0000   1.0000   1.0000   1.0000
     1.0000   1.0000   1.0000   1.0000   1.0000   1.0000   1.0000   1.0000
     1.0000   1.0000   1.0000   1.0000   1.0000   1.0000   1.0000   1.0000
     1.0000   1.0000   1.0000   1.0000   1.0000   1.0000   1.0000   1.0000
     1.0000   1.0000   1.0000   1.0000   1.0000   1.0000   1.0000   1.0000
     1.0000   1.0000   1.0000   1.0000   1.0000   1.0000   1.0000   1.0000
     1.0000   1.0000   1.0000   1.0000   1.0000   1.0000   1.0000   1.0000
     1.0000   1.0000   1.0000   1.0000   1.0000   1.0000   1.0000   1.0000
     1.0000   1.0000   1.0000   1.0000   1.0000   1.0000   1.0000   1.0000
     1.0000   1.0000   1.0000   1.0000   1.0000   1.0000   1.0000   1.0000
     1.0000   1.0000   1.0000   1.0000   1.0000   1.0000   1.0000   1.0000
     1.0000   1.0000   1.0000   1.0000   1.0000   1.0000   1.0000   1.0000
     1.0000   1.0000   1.0000   1.0000   1.0000   1.0000   1.0000   1.0000
     1.0000   1.0000   1.0000   1.0000   1.0000   1.0000   1.0000   1.0000
     1.0000   1.0000   1.0000   1.0000   1.0000   1.0000   1.0000   1.0000
     1.0000   1.0000   1.0000   1.0000   1.0000   1.0000   1.0000   1.0000
     1.0000   1.0000   1.0000   1.0000   1.0000   1.0000   1.0000   1.0000
     1.0000   1.0000   1.0000   1.0000   1.0000   1.0000   1.0000   1.0000
     1.0000   1.0000   1.0000   1.0000   1.0000   1.0002   1.0011   1.0015
     1.0067   1.0829   1.0808   0.7837   0.6784   0.2573   0.0461   0.0002
     0.0001   0.0001   0.0000   0.0000   0.0000   0.0000   0.0000   0.0000
     0.0000   0.0000   0.0000   0.0000   0.0000   0.0000   0.0000   0.0000
     0.0000   0.0000   0.0000   0.0000   0.0000   0.0000   0.0000   0.0000
     0.0000   0.0000   0.0000   0.0000   0.0000   0.0000   0.0000   0.0000
     0.0000   0.0000   0.0000   0.0000   0.0000   0.0000   0.0000   0.0000
     0.0000   0.0000   0.0000   0.0000   0.0000   0.0000   0.0000   0.0000
     0.0000   0.0000   0.0000   0.0000   0.0000   0.0000   0.0000   0.0000
     0.0000   0.0000   0.0000   0.0000   0.0000   0.0000   0.0000   0.0000
     0.0000   0.0000   0.0000   0.0000   0.0000   0.0000   0.0000   0.0000
     0.0000   0.0000   0.0000   0.0000   0.0000   0.0000   0.0000   0.0000
     0.0000   0.0000   0.0000   0.0000   0.0000   0.0000   0.0000   0.0000
     0.0000   0.0000   0.0000   0.0000   0.0000

          k = 0.0000 0.3107 0.1794 ( 67822 PWs)   bands (ev):

  -125.1579-125.1555-125.1529-125.1519-125.1514-125.1473-125.1445-125.1356
  -125.0332-125.0301-125.0286-125.0283-125.0253-125.0242-125.0218-125.0216
  -124.9857-124.9775-124.9727-124.9716-124.9714-124.9710-124.9699-124.9445
  -124.9388-124.9362-124.9342-124.9334-124.9306-124.9295-124.9282-124.9282
  -124.9205-124.9101-124.9054-124.9045-124.9032-124.9021-124.9002-124.8985
  -124.7273-124.7261-124.7255-124.7251-124.7246-124.7245-124.7238-124.7228
   -79.3196 -79.3140 -79.3123 -79.3119 -79.3096 -79.3069 -79.3058 -79.3049
   -79.3034 -79.3022 -79.3014 -79.3011 -79.2986 -79.2984 -79.2967 -79.2966
   -79.2954 -79.2950 -79.2937 -79.2910 -79.2900 -79.2889 -79.2832 -79.2803
   -79.1898 -79.1878 -79.1866 -79.1849 -79.1845 -79.1844 -79.1840 -79.1825
   -79.1821 -79.1814 -79.1810 -79.1805 -79.1803 -79.1786 -79.1783 -79.1780
   -79.1770 -79.1761 -79.1744 -79.1733 -79.1697 -79.1668 -79.1634 -79.1613
   -79.1474 -79.1386 -79.1384 -79.1359 -79.1340 -79.1323 -79.1318 -79.1310
   -79.1310 -79.1301 -79.1277 -79.1273 -79.1214 -79.1182 -79.1177 -79.1157
   -79.1153 -79.1148 -79.1145 -79.1135 -79.1131 -79.1052 -79.0980 -79.0951
   -79.0949 -79.0945 -79.0936 -79.0928 -79.0927 -79.0906 -79.0900 -79.0883
   -79.0878 -79.0877 -79.0869 -79.0842 -79.0841 -79.0815 -79.0807 -79.0787
   -79.0783 -79.0781 -79.0770 -79.0757 -79.0747 -79.0746 -79.0733 -79.0732
   -79.0708 -79.0700 -79.0666 -79.0661 -79.0654 -79.0654 -79.0649 -79.0648
   -79.0621 -79.0617 -79.0603 -79.0600 -79.0586 -79.0544 -79.0533 -79.0527
   -79.0526 -79.0519 -79.0502 -79.0484 -79.0474 -79.0457 -79.0427 -79.0413
   -78.9009 -78.8995 -78.8984 -78.8984 -78.8979 -78.8975 -78.8971 -78.8963
   -78.8802 -78.8786 -78.8757 -78.8747 -78.8740 -78.8738 -78.8731 -78.8725
   -78.8724 -78.8718 -78.8711 -78.8702 -78.8634 -78.8617 -78.8588 -78.8571
   -20.5066  -8.1365  -8.1134  -7.6661  -7.0722  -6.9073  -6.7975  -6.7883
    -6.7643  -6.7518  -6.7062  -6.7041  -6.6817  -6.6802  -6.6576  -6.6407
    -6.6395  -6.6183  -6.6113  -6.6095  -6.5984  -6.5635  -6.5543  -6.5457
    -6.5347  -6.5317  -6.5285  -6.5198  -6.5177  -6.5124  -6.5091  -6.5002
    -6.4816  -6.4786  -6.4691  -6.4611  -6.4542  -6.4258  -6.4119  -6.4044
    -6.4027  -6.3895  -6.3871  -6.3851  -6.3763  -6.3599  -6.3483  -6.3442
    -6.3251  -6.3190  -6.3018  -6.2965  -6.2936  -6.2928  -6.2718  -6.2681
    -6.2605  -6.2574  -6.2515  -6.2392  -6.2347  -6.2285  -6.2228  -6.2198
    -6.2090  -6.2064  -6.1990  -6.1943  -6.1860  -6.1803  -6.1775  -6.1673
    -6.1598  -6.1555  -6.1525  -6.1471  -6.1418  -6.1392  -6.1347  -6.1316
    -6.1224  -6.1108  -6.1035  -6.0924  -6.0906  -6.0865  -6.0800  -6.0716
    -6.0649  -6.0624  -6.0504  -6.0481  -6.0418  -6.0401  -6.0259  -6.0233
    -6.0227  -6.0211  -6.0159  -6.0113  -6.0001  -5.9793  -5.9777  -5.9725
    -5.9716  -5.9675  -5.9611  -5.9590  -5.9562  -5.9511  -5.9477  -5.9437
    -5.9334  -5.9208  -5.9180  -5.9134  -5.9113  -5.9042  -5.8979  -5.8952
    -5.8929  -5.8873  -5.8837  -5.8784  -5.8758  -5.8741  -5.8698  -5.8646
    -5.8567  -5.8519  -5.8493  -5.8385  -5.8276  -5.8231  -5.8168  -5.8131
    -5.8054  -5.7911  -5.7871  -5.7831  -5.7798  -5.7698  -5.7679  -5.7535
    -5.7509  -5.7389  -5.7369  -5.7310  -5.7264  -5.7160  -5.7031  -5.6999
    -5.6960  -5.6909  -5.6896  -5.6817  -5.6771  -5.6709  -5.6683  -5.6659
    -5.6564  -5.6457  -5.6421  -5.6372  -5.6363  -5.6343  -5.6317  -5.6281
    -5.6241  -5.6197  -5.6192  -5.6110  -5.6039  -5.5990  -5.5917  -5.5862
    -5.5826  -5.5802  -5.5780  -5.5742  -5.5706  -5.5656  -5.5646  -5.5633
    -5.5606  -5.5549  -5.5524  -5.5465  -5.5429  -5.5413  -5.5398  -5.5377
    -5.5359  -5.5330  -5.5316  -5.5294  -5.5280  -5.5270  -5.5228  -5.5209
    -5.5161  -5.5139  -5.5100  -5.5065  -5.5051  -5.5012  -5.4973  -5.4935
    -5.4915  -5.4798  -5.4782  -5.4774  -5.4728  -5.4711  -5.4660  -5.4617
    -5.4545  -5.4513  -5.4499  -5.4462  -5.4430  -5.4422  -5.4343  -5.4320
    -5.4312  -5.4254  -5.4164  -5.4152  -5.4133  -5.4071  -5.3993  -5.3881
    -5.3849  -5.3792  -5.3749  -5.3523  -5.3516  -5.3455  -5.3189  -5.3178
    -5.3103  -5.3015  -5.2831  -5.2796  -5.2701  -5.2686  -5.1873  -5.0660
    -5.0580  -4.9869  -4.9377  -4.6940  -4.1825  -4.1134  -3.7627  -3.6869
    -3.6588  -3.6374  -3.5261  -3.3818  -3.3182  -2.9787  -2.6232  -2.3216
    -2.0671  -1.9929  -1.9672  -1.9514  -1.8371  -1.6154  -1.5628  -1.2335
    -1.2024  -1.1342  -0.7390  -0.6599  -0.6284  -0.4830  -0.4130  -0.2705
     0.0646   0.0901   0.1392   0.2325   0.4123   0.5575   1.0193   1.0488
     1.1238   1.1616   1.3858   1.4031   1.6144   1.6883   1.7298   1.7802
     1.9211   2.0780   2.1755   2.3815   2.4606   2.5572   2.6466   2.6707
     2.9833   3.0986   3.1070   3.1373   3.4809   3.4932   3.5252   3.5565
     3.6176   3.6977   3.8145   3.9749   4.1250   4.1579   4.2025   4.2274
     4.4061   4.4859   4.6142   4.6771   4.7692   4.8860   4.9604   5.1735
     5.2665   5.3014   5.4306   5.4344   5.4662   5.5900   5.6570   5.6786
     5.7432   5.7729   5.9029   5.9344   5.9740   6.0390   6.1954   6.2429
     6.3242   6.4113   6.4415   6.4607   6.5065   6.6292   6.8223   6.8360
     6.9370   6.9627   7.0201   7.0453   7.0685   7.1027   7.1515   7.1867
     7.2156   7.2566   7.2816   7.2998   7.3201   7.3488   7.4084   7.4709
     7.4925   7.6031   7.6370   7.6615   7.8334   7.8605   7.9526   7.9993
     8.0124   8.0577   8.1342   8.1931   8.2593   8.3181   8.4010   8.4150
     8.4706   8.5646   8.6032   8.6320   8.6816

     occupation numbers 
     1.0000   1.0000   1.0000   1.0000   1.0000   1.0000   1.0000   1.0000
     1.0000   1.0000   1.0000   1.0000   1.0000   1.0000   1.0000   1.0000
     1.0000   1.0000   1.0000   1.0000   1.0000   1.0000   1.0000   1.0000
     1.0000   1.0000   1.0000   1.0000   1.0000   1.0000   1.0000   1.0000
     1.0000   1.0000   1.0000   1.0000   1.0000   1.0000   1.0000   1.0000
     1.0000   1.0000   1.0000   1.0000   1.0000   1.0000   1.0000   1.0000
     1.0000   1.0000   1.0000   1.0000   1.0000   1.0000   1.0000   1.0000
     1.0000   1.0000   1.0000   1.0000   1.0000   1.0000   1.0000   1.0000
     1.0000   1.0000   1.0000   1.0000   1.0000   1.0000   1.0000   1.0000
     1.0000   1.0000   1.0000   1.0000   1.0000   1.0000   1.0000   1.0000
     1.0000   1.0000   1.0000   1.0000   1.0000   1.0000   1.0000   1.0000
     1.0000   1.0000   1.0000   1.0000   1.0000   1.0000   1.0000   1.0000
     1.0000   1.0000   1.0000   1.0000   1.0000   1.0000   1.0000   1.0000
     1.0000   1.0000   1.0000   1.0000   1.0000   1.0000   1.0000   1.0000
     1.0000   1.0000   1.0000   1.0000   1.0000   1.0000   1.0000   1.0000
     1.0000   1.0000   1.0000   1.0000   1.0000   1.0000   1.0000   1.0000
     1.0000   1.0000   1.0000   1.0000   1.0000   1.0000   1.0000   1.0000
     1.0000   1.0000   1.0000   1.0000   1.0000   1.0000   1.0000   1.0000
     1.0000   1.0000   1.0000   1.0000   1.0000   1.0000   1.0000   1.0000
     1.0000   1.0000   1.0000   1.0000   1.0000   1.0000   1.0000   1.0000
     1.0000   1.0000   1.0000   1.0000   1.0000   1.0000   1.0000   1.0000
     1.0000   1.0000   1.0000   1.0000   1.0000   1.0000   1.0000   1.0000
     1.0000   1.0000   1.0000   1.0000   1.0000   1.0000   1.0000   1.0000
     1.0000   1.0000   1.0000   1.0000   1.0000   1.0000   1.0000   1.0000
     1.0000   1.0000   1.0000   1.0000   1.0000   1.0000   1.0000   1.0000
     1.0000   1.0000   1.0000   1.0000   1.0000   1.0000   1.0000   1.0000
     1.0000   1.0000   1.0000   1.0000   1.0000   1.0000   1.0000   1.0000
     1.0000   1.0000   1.0000   1.0000   1.0000   1.0000   1.0000   1.0000
     1.0000   1.0000   1.0000   1.0000   1.0000   1.0000   1.0000   1.0000
     1.0000   1.0000   1.0000   1.0000   1.0000   1.0000   1.0000   1.0000
     1.0000   1.0000   1.0000   1.0000   1.0000   1.0000   1.0000   1.0000
     1.0000   1.0000   1.0000   1.0000   1.0000   1.0000   1.0000   1.0000
     1.0000   1.0000   1.0000   1.0000   1.0000   1.0000   1.0000   1.0000
     1.0000   1.0000   1.0000   1.0000   1.0000   1.0000   1.0000   1.0000
     1.0000   1.0000   1.0000   1.0000   1.0000   1.0000   1.0000   1.0000
     1.0000   1.0000   1.0000   1.0000   1.0000   1.0000   1.0000   1.0000
     1.0000   1.0000   1.0000   1.0000   1.0000   1.0000   1.0000   1.0000
     1.0000   1.0000   1.0000   1.0000   1.0000   1.0000   1.0000   1.0000
     1.0000   1.0000   1.0000   1.0000   1.0000   1.0000   1.0000   1.0000
     1.0000   1.0000   1.0000   1.0000   1.0000   1.0000   1.0000   1.0000
     1.0000   1.0000   1.0000   1.0000   1.0000   1.0000   1.0000   1.0000
     1.0000   1.0000   1.0000   1.0000   1.0000   1.0000   1.0000   1.0000
     1.0000   1.0000   1.0000   1.0000   1.0000   1.0000   1.0000   1.0000
     1.0000   1.0000   1.0000   1.0000   1.0000   1.0000   1.0000   1.0000
     1.0000   1.0000   1.0000   1.0000   1.0000   1.0000   1.0000   1.0000
     1.0000   1.0000   1.0000   1.0000   1.0000   1.0000   1.0000   1.0000
     1.0000   1.0000   1.0000   1.0000   1.0000   1.0000   1.0000   1.0000
     1.0000   1.0000   1.0000   1.0000   1.0000   1.0000   1.0000   1.0000
     1.0000   1.0000   1.0000   1.0000   1.0000   1.0000   1.0000   1.0000
     1.0000   1.0000   1.0000   1.0000   1.0000   1.0000   1.0000   1.0000
     1.0000   1.0000   1.0000   1.0000   1.0000   1.0000   1.0000   1.0000
     1.0000   1.0000   1.0000   1.0000   1.0000   1.0000   1.0000   1.0000
     1.0000   1.0000   1.0000   1.0000   1.0000   1.0000   1.0000   1.0000
     1.0000   1.0000   1.0000   1.0000   1.0000   1.0000   1.0000   1.0000
     1.0000   1.0000   1.0000   1.0000   1.0000   1.0000   1.0000   1.0000
     1.0000   1.0000   1.0000   1.0000   1.0000   1.0000   1.0000   1.0000
     1.0000   1.0000   1.0000   1.0000   1.0000   1.0000   1.0000   1.0000
     1.0000   1.0000   1.0000   1.0000   1.0000   1.0000   1.0000   1.0000
     1.0000   1.0000   1.0000   1.0000   1.0000   1.0000   1.0000   1.0000
     1.0000   1.0000   1.0000   1.0000   1.0001   1.0017   1.0777   1.0645
     0.9866   0.9215   0.3502   0.3106   0.0395   0.0147   0.0079   0.0035
     0.0003   0.0000   0.0000   0.0000   0.0000   0.0000   0.0000   0.0000
     0.0000   0.0000   0.0000   0.0000   0.0000   0.0000   0.0000   0.0000
     0.0000   0.0000   0.0000   0.0000   0.0000   0.0000   0.0000   0.0000
     0.0000   0.0000   0.0000   0.0000   0.0000   0.0000   0.0000   0.0000
     0.0000   0.0000   0.0000   0.0000   0.0000   0.0000   0.0000   0.0000
     0.0000   0.0000   0.0000   0.0000   0.0000   0.0000   0.0000   0.0000
     0.0000   0.0000   0.0000   0.0000   0.0000   0.0000   0.0000   0.0000
     0.0000   0.0000   0.0000   0.0000   0.0000   0.0000   0.0000   0.0000
     0.0000   0.0000   0.0000   0.0000   0.0000   0.0000   0.0000   0.0000
     0.0000   0.0000   0.0000   0.0000   0.0000   0.0000   0.0000   0.0000
     0.0000   0.0000   0.0000   0.0000   0.0000   0.0000   0.0000   0.0000
     0.0000   0.0000   0.0000   0.0000   0.0000

          k = 0.3333 0.0000 0.0000 ( 67745 PWs)   bands (ev):

  -125.1579-125.1555-125.1529-125.1519-125.1514-125.1473-125.1445-125.1356
  -125.0332-125.0301-125.0286-125.0283-125.0253-125.0242-125.0218-125.0216
  -124.9857-124.9775-124.9727-124.9716-124.9714-124.9710-124.9699-124.9445
  -124.9388-124.9362-124.9342-124.9334-124.9306-124.9295-124.9282-124.9282
  -124.9205-124.9101-124.9054-124.9045-124.9032-124.9021-124.9002-124.8985
  -124.7273-124.7260-124.7256-124.7251-124.7246-124.7243-124.7239-124.7228
   -79.3210 -79.3128 -79.3123 -79.3096 -79.3088 -79.3076 -79.3067 -79.3058
   -79.3049 -79.3014 -79.3012 -79.2995 -79.2986 -79.2984 -79.2974 -79.2967
   -79.2955 -79.2951 -79.2950 -79.2910 -79.2900 -79.2890 -79.2825 -79.2803
   -79.1898 -79.1891 -79.1866 -79.1854 -79.1849 -79.1845 -79.1844 -79.1821
   -79.1815 -79.1810 -79.1805 -79.1803 -79.1792 -79.1783 -79.1780 -79.1770
   -79.1761 -79.1744 -79.1740 -79.1733 -79.1728 -79.1713 -79.1623 -79.1599
   -79.1474 -79.1387 -79.1384 -79.1372 -79.1340 -79.1323 -79.1318 -79.1310
   -79.1310 -79.1277 -79.1269 -79.1256 -79.1228 -79.1214 -79.1178 -79.1157
   -79.1152 -79.1149 -79.1147 -79.1135 -79.1116 -79.1052 -79.0980 -79.0962
   -79.0949 -79.0945 -79.0937 -79.0936 -79.0927 -79.0906 -79.0900 -79.0878
   -79.0877 -79.0869 -79.0842 -79.0841 -79.0815 -79.0812 -79.0807 -79.0800
   -79.0787 -79.0784 -79.0783 -79.0781 -79.0757 -79.0747 -79.0733 -79.0732
   -79.0700 -79.0696 -79.0670 -79.0666 -79.0658 -79.0649 -79.0648 -79.0647
   -79.0621 -79.0617 -79.0600 -79.0589 -79.0561 -79.0547 -79.0533 -79.0527
   -79.0526 -79.0522 -79.0515 -79.0503 -79.0480 -79.0457 -79.0413 -79.0412
   -78.9009 -78.8995 -78.8985 -78.8985 -78.8977 -78.8975 -78.8973 -78.8962
   -78.8819 -78.8802 -78.8748 -78.8737 -78.8733 -78.8725 -78.8723 -78.8717
   -78.8712 -78.8702 -78.8697 -78.8694 -78.8681 -78.8676 -78.8572 -78.8555
   -20.5066  -8.1285  -8.1082  -7.6374  -6.9390  -6.9268  -6.9172  -6.8503
    -6.8375  -6.7707  -6.7511  -6.7439  -6.7293  -6.7193  -6.6800  -6.6795
    -6.6632  -6.6618  -6.6547  -6.5995  -6.5912  -6.5804  -6.5697  -6.5348
    -6.5267  -6.5248  -6.5237  -6.5107  -6.5036  -6.4990  -6.4620  -6.4539
    -6.4524  -6.4441  -6.4407  -6.4358  -6.4340  -6.4229  -6.4194  -6.4147
    -6.4085  -6.4052  -6.3739  -6.3727  -6.3635  -6.3594  -6.3526  -6.3456
    -6.3398  -6.3134  -6.3078  -6.3069  -6.3028  -6.2929  -6.2885  -6.2868
    -6.2507  -6.2462  -6.2446  -6.2363  -6.2324  -6.2275  -6.2223  -6.2103
    -6.2096  -6.2064  -6.1987  -6.1968  -6.1866  -6.1854  -6.1749  -6.1735
    -6.1625  -6.1558  -6.1398  -6.1339  -6.1210  -6.1192  -6.1094  -6.1090
    -6.1078  -6.1025  -6.0989  -6.0949  -6.0922  -6.0864  -6.0617  -6.0582
    -6.0539  -6.0506  -6.0214  -6.0170  -6.0136  -5.9926  -5.9914  -5.9860
    -5.9820  -5.9809  -5.9737  -5.9729  -5.9705  -5.9678  -5.9581  -5.9505
    -5.9369  -5.9345  -5.9327  -5.9313  -5.9234  -5.9227  -5.9187  -5.9166
    -5.9127  -5.9094  -5.9033  -5.9009  -5.8980  -5.8930  -5.8836  -5.8809
    -5.8790  -5.8730  -5.8712  -5.8639  -5.8622  -5.8584  -5.8500  -5.8373
    -5.8330  -5.8280  -5.8265  -5.8199  -5.8188  -5.8168  -5.8097  -5.8063
    -5.8053  -5.8006  -5.7964  -5.7858  -5.7743  -5.7685  -5.7679  -5.7578
    -5.7504  -5.7427  -5.7416  -5.7352  -5.7329  -5.7308  -5.7203  -5.7117
    -5.7099  -5.7078  -5.7047  -5.6924  -5.6896  -5.6832  -5.6792  -5.6765
    -5.6755  -5.6722  -5.6712  -5.6676  -5.6652  -5.6590  -5.6564  -5.6528
    -5.6461  -5.6290  -5.6266  -5.6242  -5.6219  -5.6200  -5.6185  -5.6057
    -5.6008  -5.5982  -5.5971  -5.5915  -5.5908  -5.5896  -5.5875  -5.5845
    -5.5834  -5.5773  -5.5744  -5.5696  -5.5691  -5.5670  -5.5654  -5.5647
    -5.5561  -5.5515  -5.5506  -5.5459  -5.5446  -5.5379  -5.5368  -5.5328
    -5.5236  -5.5188  -5.5156  -5.5147  -5.5092  -5.5085  -5.5048  -5.5006
    -5.4963  -5.4930  -5.4826  -5.4724  -5.4674  -5.4630  -5.4623  -5.4590
    -5.4582  -5.4575  -5.4556  -5.4535  -5.4513  -5.4505  -5.4471  -5.4446
    -5.4417  -5.4390  -5.4279  -5.4265  -5.4207  -5.4196  -5.4163  -5.4157
    -5.4071  -5.3770  -5.3648  -5.3396  -5.3320  -5.3272  -5.3211  -5.3163
    -5.3023  -5.2807  -5.2761  -5.2710  -5.2528  -5.2496  -5.2420  -5.2032
    -5.1527  -5.0474  -4.7212  -4.6380  -4.3858  -4.3562  -3.9061  -3.8707
    -3.3792  -3.2435  -3.2344  -3.2004  -3.0878  -2.8041  -2.5836  -2.0822
    -2.0216  -1.7992  -1.7902  -1.7306  -1.7148  -1.5954  -1.5621  -1.5375
    -1.4190  -1.4027  -1.3718  -1.2441  -0.7876  -0.2573  -0.2417  -0.0908
    -0.0621  -0.0563   0.1200   0.2488   0.3421   0.5707   0.5769   0.6068
     0.7653   0.8450   1.3541   1.4099   1.5352   1.5986   1.8679   1.9571
     1.9922   2.1894   2.1986   2.5382   2.7320   2.7675   2.8229   2.8373
     2.8779   2.9810   2.9873   3.0461   3.0483   3.2019   3.6304   4.0347
     4.0830   4.1734   4.2184   4.2348   4.2507   4.2866   4.4065   4.6174
     4.6384   4.8531   4.9238   4.9496   4.9835   5.0332   5.2201   5.3280
     5.3883   5.4466   5.4589   5.4747   5.4881   5.6313   5.7491   5.7625
     5.7929   5.8135   5.8339   6.0064   6.0294   6.0492   6.1893   6.2165
     6.2545   6.2845   6.3773   6.4575   6.4741   6.5494   6.6011   6.6125
     6.7149   6.7252   6.8240   6.8363   6.9139   6.9413   6.9876   7.0353
     7.0720   7.1175   7.1517   7.1614   7.1927   7.2265   7.3157   7.3334
     7.3972   7.4465   7.5056   7.5912   7.6634   7.6767   7.8207   7.8427
     7.8810   8.0520   8.1130   8.1612   8.2198   8.2317   8.2447   8.3171
     8.3737   8.4069   8.4359   8.4628   8.5157

     occupation numbers 
     1.0000   1.0000   1.0000   1.0000   1.0000   1.0000   1.0000   1.0000
     1.0000   1.0000   1.0000   1.0000   1.0000   1.0000   1.0000   1.0000
     1.0000   1.0000   1.0000   1.0000   1.0000   1.0000   1.0000   1.0000
     1.0000   1.0000   1.0000   1.0000   1.0000   1.0000   1.0000   1.0000
     1.0000   1.0000   1.0000   1.0000   1.0000   1.0000   1.0000   1.0000
     1.0000   1.0000   1.0000   1.0000   1.0000   1.0000   1.0000   1.0000
     1.0000   1.0000   1.0000   1.0000   1.0000   1.0000   1.0000   1.0000
     1.0000   1.0000   1.0000   1.0000   1.0000   1.0000   1.0000   1.0000
     1.0000   1.0000   1.0000   1.0000   1.0000   1.0000   1.0000   1.0000
     1.0000   1.0000   1.0000   1.0000   1.0000   1.0000   1.0000   1.0000
     1.0000   1.0000   1.0000   1.0000   1.0000   1.0000   1.0000   1.0000
     1.0000   1.0000   1.0000   1.0000   1.0000   1.0000   1.0000   1.0000
     1.0000   1.0000   1.0000   1.0000   1.0000   1.0000   1.0000   1.0000
     1.0000   1.0000   1.0000   1.0000   1.0000   1.0000   1.0000   1.0000
     1.0000   1.0000   1.0000   1.0000   1.0000   1.0000   1.0000   1.0000
     1.0000   1.0000   1.0000   1.0000   1.0000   1.0000   1.0000   1.0000
     1.0000   1.0000   1.0000   1.0000   1.0000   1.0000   1.0000   1.0000
     1.0000   1.0000   1.0000   1.0000   1.0000   1.0000   1.0000   1.0000
     1.0000   1.0000   1.0000   1.0000   1.0000   1.0000   1.0000   1.0000
     1.0000   1.0000   1.0000   1.0000   1.0000   1.0000   1.0000   1.0000
     1.0000   1.0000   1.0000   1.0000   1.0000   1.0000   1.0000   1.0000
     1.0000   1.0000   1.0000   1.0000   1.0000   1.0000   1.0000   1.0000
     1.0000   1.0000   1.0000   1.0000   1.0000   1.0000   1.0000   1.0000
     1.0000   1.0000   1.0000   1.0000   1.0000   1.0000   1.0000   1.0000
     1.0000   1.0000   1.0000   1.0000   1.0000   1.0000   1.0000   1.0000
     1.0000   1.0000   1.0000   1.0000   1.0000   1.0000   1.0000   1.0000
     1.0000   1.0000   1.0000   1.0000   1.0000   1.0000   1.0000   1.0000
     1.0000   1.0000   1.0000   1.0000   1.0000   1.0000   1.0000   1.0000
     1.0000   1.0000   1.0000   1.0000   1.0000   1.0000   1.0000   1.0000
     1.0000   1.0000   1.0000   1.0000   1.0000   1.0000   1.0000   1.0000
     1.0000   1.0000   1.0000   1.0000   1.0000   1.0000   1.0000   1.0000
     1.0000   1.0000   1.0000   1.0000   1.0000   1.0000   1.0000   1.0000
     1.0000   1.0000   1.0000   1.0000   1.0000   1.0000   1.0000   1.0000
     1.0000   1.0000   1.0000   1.0000   1.0000   1.0000   1.0000   1.0000
     1.0000   1.0000   1.0000   1.0000   1.0000   1.0000   1.0000   1.0000
     1.0000   1.0000   1.0000   1.0000   1.0000   1.0000   1.0000   1.0000
     1.0000   1.0000   1.0000   1.0000   1.0000   1.0000   1.0000   1.0000
     1.0000   1.0000   1.0000   1.0000   1.0000   1.0000   1.0000   1.0000
     1.0000   1.0000   1.0000   1.0000   1.0000   1.0000   1.0000   1.0000
     1.0000   1.0000   1.0000   1.0000   1.0000   1.0000   1.0000   1.0000
     1.0000   1.0000   1.0000   1.0000   1.0000   1.0000   1.0000   1.0000
     1.0000   1.0000   1.0000   1.0000   1.0000   1.0000   1.0000   1.0000
     1.0000   1.0000   1.0000   1.0000   1.0000   1.0000   1.0000   1.0000
     1.0000   1.0000   1.0000   1.0000   1.0000   1.0000   1.0000   1.0000
     1.0000   1.0000   1.0000   1.0000   1.0000   1.0000   1.0000   1.0000
     1.0000   1.0000   1.0000   1.0000   1.0000   1.0000   1.0000   1.0000
     1.0000   1.0000   1.0000   1.0000   1.0000   1.0000   1.0000   1.0000
     1.0000   1.0000   1.0000   1.0000   1.0000   1.0000   1.0000   1.0000
     1.0000   1.0000   1.0000   1.0000   1.0000   1.0000   1.0000   1.0000
     1.0000   1.0000   1.0000   1.0000   1.0000   1.0000   1.0000   1.0000
     1.0000   1.0000   1.0000   1.0000   1.0000   1.0000   1.0000   1.0000
     1.0000   1.0000   1.0000   1.0000   1.0000   1.0000   1.0000   1.0000
     1.0000   1.0000   1.0000   1.0000   1.0000   1.0000   1.0000   1.0000
     1.0000   1.0000   1.0000   1.0000   1.0000   1.0000   1.0000   1.0000
     1.0000   1.0000   1.0000   1.0000   1.0000   1.0000   1.0000   1.0000
     1.0000   1.0000   1.0000   1.0000   1.0000   1.0000   1.0000   1.0000
     1.0000   1.0000   1.0000   1.0000   1.0000   1.0000   1.0000   1.0000
     1.0000   1.0000   1.0000   1.0000   1.0000   1.0000   1.0000   1.0000
     1.0000   1.0000   1.0000   1.0000   1.0000   1.0000   1.0000   1.0000
     1.0000   1.0000   1.0000   1.0000   1.0000   1.0021   1.0023   1.0036
     1.0253   1.0492   0.4288   0.2955   0.0975   0.0479   0.0007   0.0001
     0.0001   0.0000   0.0000   0.0000   0.0000   0.0000   0.0000   0.0000
     0.0000   0.0000   0.0000   0.0000   0.0000   0.0000   0.0000   0.0000
     0.0000   0.0000   0.0000   0.0000   0.0000   0.0000   0.0000   0.0000
     0.0000   0.0000   0.0000   0.0000   0.0000   0.0000   0.0000   0.0000
     0.0000   0.0000   0.0000   0.0000   0.0000   0.0000   0.0000   0.0000
     0.0000   0.0000   0.0000   0.0000   0.0000   0.0000   0.0000   0.0000
     0.0000   0.0000   0.0000   0.0000   0.0000   0.0000   0.0000   0.0000
     0.0000   0.0000   0.0000   0.0000   0.0000   0.0000   0.0000   0.0000
     0.0000   0.0000   0.0000   0.0000   0.0000   0.0000   0.0000   0.0000
     0.0000   0.0000   0.0000   0.0000   0.0000   0.0000   0.0000   0.0000
     0.0000   0.0000   0.0000   0.0000   0.0000   0.0000   0.0000   0.0000
     0.0000   0.0000   0.0000   0.0000   0.0000

          k = 0.3333 0.3107 0.1794 ( 67762 PWs)   bands (ev):

  -125.1579-125.1555-125.1529-125.1519-125.1514-125.1473-125.1445-125.1356
  -125.0332-125.0301-125.0286-125.0283-125.0253-125.0242-125.0218-125.0216
  -124.9857-124.9775-124.9727-124.9716-124.9714-124.9710-124.9699-124.9445
  -124.9388-124.9362-124.9342-124.9334-124.9306-124.9295-124.9282-124.9282
  -124.9205-124.9101-124.9054-124.9045-124.9032-124.9021-124.9002-124.8985
  -124.7273-124.7261-124.7255-124.7251-124.7246-124.7245-124.7238-124.7228
   -79.3196 -79.3140 -79.3123 -79.3119 -79.3096 -79.3069 -79.3058 -79.3049
   -79.3034 -79.3022 -79.3014 -79.3011 -79.2986 -79.2984 -79.2967 -79.2966
   -79.2954 -79.2950 -79.2937 -79.2910 -79.2900 -79.2889 -79.2832 -79.2803
   -79.1898 -79.1878 -79.1866 -79.1849 -79.1845 -79.1844 -79.1840 -79.1826
   -79.1821 -79.1814 -79.1810 -79.1805 -79.1803 -79.1786 -79.1783 -79.1780
   -79.1770 -79.1761 -79.1744 -79.1733 -79.1697 -79.1668 -79.1634 -79.1613
   -79.1474 -79.1386 -79.1384 -79.1359 -79.1340 -79.1323 -79.1318 -79.1310
   -79.1310 -79.1301 -79.1277 -79.1273 -79.1214 -79.1182 -79.1177 -79.1156
   -79.1153 -79.1149 -79.1144 -79.1135 -79.1131 -79.1052 -79.0980 -79.0951
   -79.0949 -79.0945 -79.0936 -79.0928 -79.0927 -79.0906 -79.0900 -79.0883
   -79.0878 -79.0877 -79.0869 -79.0842 -79.0841 -79.0815 -79.0807 -79.0787
   -79.0783 -79.0781 -79.0770 -79.0757 -79.0747 -79.0746 -79.0733 -79.0732
   -79.0708 -79.0700 -79.0666 -79.0661 -79.0654 -79.0654 -79.0649 -79.0648
   -79.0621 -79.0617 -79.0603 -79.0600 -79.0586 -79.0544 -79.0533 -79.0527
   -79.0526 -79.0519 -79.0503 -79.0484 -79.0474 -79.0457 -79.0427 -79.0413
   -78.9009 -78.8995 -78.8984 -78.8984 -78.8979 -78.8975 -78.8971 -78.8963
   -78.8802 -78.8786 -78.8757 -78.8747 -78.8740 -78.8738 -78.8731 -78.8725
   -78.8724 -78.8719 -78.8711 -78.8702 -78.8634 -78.8617 -78.8588 -78.8571
   -20.5066  -8.1279  -7.9530  -7.5155  -7.4863  -7.0990  -6.8305  -6.7672
    -6.7555  -6.7472  -6.7028  -6.6666  -6.6556  -6.6510  -6.6462  -6.6402
    -6.6329  -6.6215  -6.6032  -6.5982  -6.5832  -6.5827  -6.5754  -6.5676
    -6.5575  -6.5503  -6.5334  -6.5299  -6.5236  -6.5172  -6.5121  -6.5053
    -6.4990  -6.4926  -6.4816  -6.4657  -6.4562  -6.4469  -6.4417  -6.4327
    -6.4190  -6.4104  -6.4069  -6.3790  -6.3708  -6.3669  -6.3636  -6.3487
    -6.3383  -6.3241  -6.3179  -6.3047  -6.2949  -6.2771  -6.2734  -6.2706
    -6.2667  -6.2636  -6.2510  -6.2431  -6.2421  -6.2356  -6.2133  -6.2097
    -6.2082  -6.2051  -6.2000  -6.1975  -6.1897  -6.1850  -6.1808  -6.1715
    -6.1654  -6.1549  -6.1519  -6.1476  -6.1463  -6.1447  -6.1378  -6.1357
    -6.1180  -6.1108  -6.1018  -6.0946  -6.0908  -6.0872  -6.0850  -6.0809
    -6.0701  -6.0615  -6.0552  -6.0472  -6.0455  -6.0415  -6.0266  -6.0195
    -6.0141  -6.0065  -5.9952  -5.9926  -5.9856  -5.9837  -5.9781  -5.9759
    -5.9738  -5.9688  -5.9521  -5.9482  -5.9442  -5.9378  -5.9114  -5.9096
    -5.9090  -5.9062  -5.9042  -5.9005  -5.8948  -5.8904  -5.8874  -5.8777
    -5.8723  -5.8629  -5.8585  -5.8546  -5.8527  -5.8491  -5.8352  -5.8314
    -5.8243  -5.8211  -5.8174  -5.8153  -5.8069  -5.8038  -5.7987  -5.7955
    -5.7892  -5.7858  -5.7778  -5.7758  -5.7731  -5.7690  -5.7650  -5.7540
    -5.7434  -5.7392  -5.7358  -5.7310  -5.7274  -5.7180  -5.7079  -5.6979
    -5.6963  -5.6903  -5.6887  -5.6810  -5.6784  -5.6752  -5.6731  -5.6688
    -5.6662  -5.6640  -5.6595  -5.6430  -5.6398  -5.6344  -5.6335  -5.6286
    -5.6265  -5.6239  -5.6197  -5.6161  -5.6121  -5.6101  -5.6087  -5.6024
    -5.5978  -5.5903  -5.5890  -5.5864  -5.5831  -5.5808  -5.5722  -5.5695
    -5.5677  -5.5644  -5.5625  -5.5614  -5.5550  -5.5508  -5.5487  -5.5419
    -5.5352  -5.5339  -5.5319  -5.5295  -5.5277  -5.5197  -5.5174  -5.5149
    -5.5067  -5.5042  -5.5020  -5.5000  -5.4990  -5.4978  -5.4952  -5.4936
    -5.4903  -5.4862  -5.4824  -5.4730  -5.4657  -5.4647  -5.4637  -5.4629
    -5.4612  -5.4588  -5.4551  -5.4545  -5.4487  -5.4437  -5.4377  -5.4337
    -5.4332  -5.4325  -5.4296  -5.4271  -5.4244  -5.4114  -5.3873  -5.3817
    -5.3792  -5.3772  -5.3739  -5.3720  -5.3699  -5.3575  -5.3535  -5.3464
    -5.3381  -5.3322  -5.3131  -5.2908  -5.2540  -5.2413  -5.2067  -4.9570
    -4.9207  -4.8610  -4.6906  -4.5345  -4.4589  -4.4463  -3.9716  -3.5154
    -3.4054  -3.2606  -3.0804  -3.0494  -2.9368  -2.8609  -2.7920  -2.6545
    -2.5395  -2.4253  -2.3001  -2.1793  -2.0980  -1.9001  -1.4430  -1.3588
    -1.0836  -0.8546  -0.8485  -0.7619  -0.6297  -0.5213  -0.4068  -0.1676
    -0.0566   0.1639   0.3540   0.4587   0.4885   0.5572   0.7650   0.7807
     0.8451   0.8776   0.9868   1.0936   1.3384   1.5215   1.6274   1.7275
     2.1270   2.4551   2.6435   2.7148   2.8227   2.8771   3.0233   3.1028
     3.1680   3.2412   3.3595   3.3983   3.4879   3.5158   3.5905   3.7736
     3.8526   3.8846   3.8968   4.2326   4.2416   4.3230   4.3903   4.4724
     4.5622   4.7014   4.7601   4.7861   4.8389   4.9374   4.9662   5.0605
     5.1023   5.3175   5.3307   5.3440   5.3781   5.4323   5.5444   5.6109
     5.7137   5.7597   5.8413   5.8959   5.9413   5.9598   6.0108   6.0570
     6.0981   6.3213   6.3306   6.3735   6.3998   6.4719   6.4951   6.5168
     6.5647   6.6423   6.6761   6.7340   6.7709   6.8244   6.9445   7.0225
     7.1266   7.1936   7.2559   7.2938   7.3157   7.3596   7.4453   7.5703
     7.5893   7.6523   7.6914   7.7315   7.7851   7.8465   7.8701   7.8888
     7.9409   8.0161   8.0861   8.1600   8.1737   8.2429   8.2826   8.3344
     8.3448   8.3801   8.4147   8.4602   8.4939

     occupation numbers 
     1.0000   1.0000   1.0000   1.0000   1.0000   1.0000   1.0000   1.0000
     1.0000   1.0000   1.0000   1.0000   1.0000   1.0000   1.0000   1.0000
     1.0000   1.0000   1.0000   1.0000   1.0000   1.0000   1.0000   1.0000
     1.0000   1.0000   1.0000   1.0000   1.0000   1.0000   1.0000   1.0000
     1.0000   1.0000   1.0000   1.0000   1.0000   1.0000   1.0000   1.0000
     1.0000   1.0000   1.0000   1.0000   1.0000   1.0000   1.0000   1.0000
     1.0000   1.0000   1.0000   1.0000   1.0000   1.0000   1.0000   1.0000
     1.0000   1.0000   1.0000   1.0000   1.0000   1.0000   1.0000   1.0000
     1.0000   1.0000   1.0000   1.0000   1.0000   1.0000   1.0000   1.0000
     1.0000   1.0000   1.0000   1.0000   1.0000   1.0000   1.0000   1.0000
     1.0000   1.0000   1.0000   1.0000   1.0000   1.0000   1.0000   1.0000
     1.0000   1.0000   1.0000   1.0000   1.0000   1.0000   1.0000   1.0000
     1.0000   1.0000   1.0000   1.0000   1.0000   1.0000   1.0000   1.0000
     1.0000   1.0000   1.0000   1.0000   1.0000   1.0000   1.0000   1.0000
     1.0000   1.0000   1.0000   1.0000   1.0000   1.0000   1.0000   1.0000
     1.0000   1.0000   1.0000   1.0000   1.0000   1.0000   1.0000   1.0000
     1.0000   1.0000   1.0000   1.0000   1.0000   1.0000   1.0000   1.0000
     1.0000   1.0000   1.0000   1.0000   1.0000   1.0000   1.0000   1.0000
     1.0000   1.0000   1.0000   1.0000   1.0000   1.0000   1.0000   1.0000
     1.0000   1.0000   1.0000   1.0000   1.0000   1.0000   1.0000   1.0000
     1.0000   1.0000   1.0000   1.0000   1.0000   1.0000   1.0000   1.0000
     1.0000   1.0000   1.0000   1.0000   1.0000   1.0000   1.0000   1.0000
     1.0000   1.0000   1.0000   1.0000   1.0000   1.0000   1.0000   1.0000
     1.0000   1.0000   1.0000   1.0000   1.0000   1.0000   1.0000   1.0000
     1.0000   1.0000   1.0000   1.0000   1.0000   1.0000   1.0000   1.0000
     1.0000   1.0000   1.0000   1.0000   1.0000   1.0000   1.0000   1.0000
     1.0000   1.0000   1.0000   1.0000   1.0000   1.0000   1.0000   1.0000
     1.0000   1.0000   1.0000   1.0000   1.0000   1.0000   1.0000   1.0000
     1.0000   1.0000   1.0000   1.0000   1.0000   1.0000   1.0000   1.0000
     1.0000   1.0000   1.0000   1.0000   1.0000   1.0000   1.0000   1.0000
     1.0000   1.0000   1.0000   1.0000   1.0000   1.0000   1.0000   1.0000
     1.0000   1.0000   1.0000   1.0000   1.0000   1.0000   1.0000   1.0000
     1.0000   1.0000   1.0000   1.0000   1.0000   1.0000   1.0000   1.0000
     1.0000   1.0000   1.0000   1.0000   1.0000   1.0000   1.0000   1.0000
     1.0000   1.0000   1.0000   1.0000   1.0000   1.0000   1.0000   1.0000
     1.0000   1.0000   1.0000   1.0000   1.0000   1.0000   1.0000   1.0000
     1.0000   1.0000   1.0000   1.0000   1.0000   1.0000   1.0000   1.0000
     1.0000   1.0000   1.0000   1.0000   1.0000   1.0000   1.0000   1.0000
     1.0000   1.0000   1.0000   1.0000   1.0000   1.0000   1.0000   1.0000
     1.0000   1.0000   1.0000   1.0000   1.0000   1.0000   1.0000   1.0000
     1.0000   1.0000   1.0000   1.0000   1.0000   1.0000   1.0000   1.0000
     1.0000   1.0000   1.0000   1.0000   1.0000   1.0000   1.0000   1.0000
     1.0000   1.0000   1.0000   1.0000   1.0000   1.0000   1.0000   1.0000
     1.0000   1.0000   1.0000   1.0000   1.0000   1.0000   1.0000   1.0000
     1.0000   1.0000   1.0000   1.0000   1.0000   1.0000   1.0000   1.0000
     1.0000   1.0000   1.0000   1.0000   1.0000   1.0000   1.0000   1.0000
     1.0000   1.0000   1.0000   1.0000   1.0000   1.0000   1.0000   1.0000
     1.0000   1.0000   1.0000   1.0000   1.0000   1.0000   1.0000   1.0000
     1.0000   1.0000   1.0000   1.0000   1.0000   1.0000   1.0000   1.0000
     1.0000   1.0000   1.0000   1.0000   1.0000   1.0000   1.0000   1.0000
     1.0000   1.0000   1.0000   1.0000   1.0000   1.0000   1.0000   1.0000
     1.0000   1.0000   1.0000   1.0000   1.0000   1.0000   1.0000   1.0000
     1.0000   1.0000   1.0000   1.0000   1.0000   1.0000   1.0000   1.0000
     1.0000   1.0000   1.0000   1.0000   1.0000   1.0000   1.0000   1.0000
     1.0000   1.0000   1.0000   1.0000   1.0000   1.0000   1.0000   1.0000
     1.0000   1.0000   1.0000   1.0000   1.0000   1.0000   1.0000   1.0000
     1.0000   1.0000   1.0000   1.0000   1.0000   1.0000   1.0000   1.0000
     1.0000   1.0000   1.0000   1.0000   1.0000   1.0000   1.0000   1.0000
     1.0000   1.0000   1.0000   1.0000   1.0000   1.0000   1.0000   1.0000
     1.0000   1.0000   1.0000   1.0003   1.0005   1.0017   1.0252   1.0293
     1.0493   1.0605   1.0832   1.0262   0.4700   0.1122   0.0335   0.0082
     0.0000   0.0000   0.0000   0.0000   0.0000   0.0000   0.0000   0.0000
     0.0000   0.0000   0.0000   0.0000   0.0000   0.0000   0.0000   0.0000
     0.0000   0.0000   0.0000   0.0000   0.0000   0.0000   0.0000   0.0000
     0.0000   0.0000   0.0000   0.0000   0.0000   0.0000   0.0000   0.0000
     0.0000   0.0000   0.0000   0.0000   0.0000   0.0000   0.0000   0.0000
     0.0000   0.0000   0.0000   0.0000   0.0000   0.0000   0.0000   0.0000
     0.0000   0.0000   0.0000   0.0000   0.0000   0.0000   0.0000   0.0000
     0.0000   0.0000   0.0000   0.0000   0.0000   0.0000   0.0000   0.0000
     0.0000   0.0000   0.0000   0.0000   0.0000   0.0000   0.0000   0.0000
     0.0000   0.0000   0.0000   0.0000   0.0000   0.0000   0.0000   0.0000
     0.0000   0.0000   0.0000   0.0000   0.0000   0.0000   0.0000   0.0000
     0.0000   0.0000   0.0000   0.0000   0.0000

          k = 0.3333-0.3107-0.1794 ( 67762 PWs)   bands (ev):

  -125.1579-125.1555-125.1529-125.1519-125.1514-125.1473-125.1445-125.1356
  -125.0332-125.0301-125.0286-125.0283-125.0253-125.0242-125.0218-125.0216
  -124.9857-124.9775-124.9727-124.9716-124.9714-124.9710-124.9699-124.9445
  -124.9388-124.9362-124.9342-124.9334-124.9306-124.9295-124.9282-124.9282
  -124.9205-124.9101-124.9054-124.9045-124.9032-124.9021-124.9002-124.8985
  -124.7273-124.7261-124.7255-124.7251-124.7246-124.7245-124.7238-124.7228
   -79.3196 -79.3140 -79.3123 -79.3119 -79.3096 -79.3069 -79.3058 -79.3049
   -79.3034 -79.3022 -79.3014 -79.3011 -79.2986 -79.2984 -79.2967 -79.2966
   -79.2954 -79.2950 -79.2937 -79.2910 -79.2900 -79.2889 -79.2832 -79.2803
   -79.1898 -79.1878 -79.1866 -79.1849 -79.1845 -79.1844 -79.1840 -79.1826
   -79.1821 -79.1814 -79.1810 -79.1805 -79.1803 -79.1786 -79.1783 -79.1780
   -79.1770 -79.1761 -79.1744 -79.1733 -79.1697 -79.1668 -79.1634 -79.1613
   -79.1474 -79.1386 -79.1384 -79.1359 -79.1340 -79.1323 -79.1318 -79.1310
   -79.1310 -79.1301 -79.1277 -79.1273 -79.1214 -79.1182 -79.1177 -79.1156
   -79.1153 -79.1149 -79.1144 -79.1135 -79.1131 -79.1052 -79.0980 -79.0951
   -79.0949 -79.0945 -79.0936 -79.0928 -79.0927 -79.0906 -79.0900 -79.0883
   -79.0878 -79.0877 -79.0869 -79.0842 -79.0841 -79.0815 -79.0807 -79.0787
   -79.0783 -79.0781 -79.0770 -79.0757 -79.0747 -79.0746 -79.0733 -79.0732
   -79.0708 -79.0700 -79.0666 -79.0661 -79.0654 -79.0654 -79.0649 -79.0648
   -79.0621 -79.0617 -79.0603 -79.0600 -79.0586 -79.0544 -79.0533 -79.0527
   -79.0526 -79.0519 -79.0503 -79.0484 -79.0474 -79.0457 -79.0427 -79.0413
   -78.9009 -78.8995 -78.8984 -78.8984 -78.8979 -78.8975 -78.8971 -78.8963
   -78.8802 -78.8786 -78.8757 -78.8747 -78.8740 -78.8738 -78.8731 -78.8725
   -78.8724 -78.8719 -78.8711 -78.8702 -78.8634 -78.8617 -78.8588 -78.8571
   -20.5066  -8.1276  -7.9538  -7.5124  -7.4887  -7.0993  -6.8308  -6.7673
    -6.7551  -6.7474  -6.7026  -6.6667  -6.6556  -6.6503  -6.6462  -6.6397
    -6.6343  -6.6213  -6.6038  -6.5985  -6.5845  -6.5803  -6.5747  -6.5678
    -6.5588  -6.5493  -6.5317  -6.5303  -6.5249  -6.5168  -6.5123  -6.5056
    -6.4992  -6.4926  -6.4809  -6.4665  -6.4563  -6.4469  -6.4414  -6.4336
    -6.4184  -6.4113  -6.4064  -6.3788  -6.3701  -6.3667  -6.3635  -6.3480
    -6.3380  -6.3246  -6.3184  -6.3049  -6.2949  -6.2768  -6.2730  -6.2707
    -6.2668  -6.2650  -6.2514  -6.2434  -6.2420  -6.2348  -6.2125  -6.2094
    -6.2076  -6.2044  -6.2007  -6.1983  -6.1905  -6.1847  -6.1801  -6.1713
    -6.1659  -6.1551  -6.1520  -6.1469  -6.1453  -6.1441  -6.1386  -6.1358
    -6.1186  -6.1112  -6.1008  -6.0939  -6.0913  -6.0869  -6.0843  -6.0810
    -6.0711  -6.0618  -6.0555  -6.0481  -6.0441  -6.0418  -6.0273  -6.0177
    -6.0133  -6.0066  -5.9965  -5.9922  -5.9853  -5.9845  -5.9793  -5.9771
    -5.9739  -5.9682  -5.9524  -5.9472  -5.9434  -5.9387  -5.9108  -5.9092
    -5.9088  -5.9067  -5.9045  -5.9003  -5.8965  -5.8898  -5.8875  -5.8773
    -5.8721  -5.8633  -5.8594  -5.8542  -5.8524  -5.8486  -5.8352  -5.8313
    -5.8237  -5.8216  -5.8174  -5.8149  -5.8061  -5.8049  -5.7999  -5.7950
    -5.7893  -5.7859  -5.7774  -5.7758  -5.7721  -5.7696  -5.7662  -5.7528
    -5.7428  -5.7400  -5.7345  -5.7312  -5.7269  -5.7174  -5.7097  -5.6982
    -5.6958  -5.6897  -5.6880  -5.6811  -5.6785  -5.6765  -5.6734  -5.6686
    -5.6664  -5.6641  -5.6587  -5.6436  -5.6388  -5.6348  -5.6334  -5.6296
    -5.6259  -5.6234  -5.6192  -5.6171  -5.6124  -5.6103  -5.6072  -5.6028
    -5.5981  -5.5900  -5.5890  -5.5869  -5.5837  -5.5805  -5.5724  -5.5696
    -5.5681  -5.5640  -5.5622  -5.5602  -5.5555  -5.5508  -5.5491  -5.5421
    -5.5354  -5.5339  -5.5318  -5.5291  -5.5276  -5.5196  -5.5174  -5.5155
    -5.5068  -5.5040  -5.5020  -5.5001  -5.4990  -5.4977  -5.4953  -5.4933
    -5.4902  -5.4865  -5.4822  -5.4732  -5.4659  -5.4645  -5.4638  -5.4629
    -5.4610  -5.4596  -5.4550  -5.4543  -5.4484  -5.4438  -5.4376  -5.4340
    -5.4331  -5.4322  -5.4301  -5.4265  -5.4246  -5.4116  -5.3872  -5.3819
    -5.3782  -5.3772  -5.3741  -5.3724  -5.3698  -5.3574  -5.3534  -5.3464
    -5.3382  -5.3322  -5.3132  -5.2909  -5.2539  -5.2423  -5.2067  -4.9544
    -4.9146  -4.8632  -4.7038  -4.5260  -4.4555  -4.4496  -3.9724  -3.5152
    -3.4055  -3.2605  -3.0783  -3.0498  -2.9384  -2.8583  -2.7967  -2.6501
    -2.5425  -2.4261  -2.3017  -2.1793  -2.0941  -1.9023  -1.4418  -1.3590
    -1.0826  -0.8557  -0.8479  -0.7619  -0.6286  -0.5222  -0.4070  -0.1678
    -0.0577   0.1637   0.3546   0.4586   0.4918   0.5524   0.7655   0.7810
     0.8440   0.8784   0.9866   1.0932   1.3387   1.5224   1.6291   1.7273
     2.1268   2.4555   2.6433   2.7127   2.8229   2.8756   3.0241   3.1034
     3.1706   3.2399   3.3603   3.4005   3.4891   3.5149   3.5900   3.7748
     3.8542   3.8817   3.9033   4.2222   4.2378   4.3229   4.3873   4.4702
     4.5609   4.7035   4.7568   4.7804   4.8405   4.9420   4.9683   5.0708
     5.1035   5.3088   5.3296   5.3493   5.3776   5.4599   5.5473   5.5790
     5.7189   5.7520   5.8329   5.8860   5.9509   5.9742   6.0234   6.0559
     6.1021   6.3190   6.3324   6.3499   6.4270   6.4774   6.4981   6.5077
     6.5686   6.6252   6.6750   6.7382   6.7618   6.8226   6.9422   7.0312
     7.1252   7.2047   7.2493   7.2832   7.3191   7.3538   7.4324   7.5112
     7.5847   7.6764   7.7069   7.7733   7.7946   7.8681   7.8762   7.9027
     7.9308   8.0214   8.0592   8.1382   8.1855   8.2097   8.3038   8.3199
     8.3441   8.3922   8.4150   8.4629   8.4814

     occupation numbers 
     1.0000   1.0000   1.0000   1.0000   1.0000   1.0000   1.0000   1.0000
     1.0000   1.0000   1.0000   1.0000   1.0000   1.0000   1.0000   1.0000
     1.0000   1.0000   1.0000   1.0000   1.0000   1.0000   1.0000   1.0000
     1.0000   1.0000   1.0000   1.0000   1.0000   1.0000   1.0000   1.0000
     1.0000   1.0000   1.0000   1.0000   1.0000   1.0000   1.0000   1.0000
     1.0000   1.0000   1.0000   1.0000   1.0000   1.0000   1.0000   1.0000
     1.0000   1.0000   1.0000   1.0000   1.0000   1.0000   1.0000   1.0000
     1.0000   1.0000   1.0000   1.0000   1.0000   1.0000   1.0000   1.0000
     1.0000   1.0000   1.0000   1.0000   1.0000   1.0000   1.0000   1.0000
     1.0000   1.0000   1.0000   1.0000   1.0000   1.0000   1.0000   1.0000
     1.0000   1.0000   1.0000   1.0000   1.0000   1.0000   1.0000   1.0000
     1.0000   1.0000   1.0000   1.0000   1.0000   1.0000   1.0000   1.0000
     1.0000   1.0000   1.0000   1.0000   1.0000   1.0000   1.0000   1.0000
     1.0000   1.0000   1.0000   1.0000   1.0000   1.0000   1.0000   1.0000
     1.0000   1.0000   1.0000   1.0000   1.0000   1.0000   1.0000   1.0000
     1.0000   1.0000   1.0000   1.0000   1.0000   1.0000   1.0000   1.0000
     1.0000   1.0000   1.0000   1.0000   1.0000   1.0000   1.0000   1.0000
     1.0000   1.0000   1.0000   1.0000   1.0000   1.0000   1.0000   1.0000
     1.0000   1.0000   1.0000   1.0000   1.0000   1.0000   1.0000   1.0000
     1.0000   1.0000   1.0000   1.0000   1.0000   1.0000   1.0000   1.0000
     1.0000   1.0000   1.0000   1.0000   1.0000   1.0000   1.0000   1.0000
[...]
     atom   43 type  1   force =     0.00000000    0.00000000    0.00000000
     atom   44 type  1   force =     0.00000000    0.00000000    0.00000000
     atom   45 type  1   force =     0.00000000    0.00000000    0.00000000
     atom   46 type  1   force =     0.00000000    0.00000000    0.00000000
     atom   47 type  1   force =     0.00000000    0.00000000    0.00000000
     atom   48 type  1   force =     0.00000000    0.00000000    0.00000000
     atom   49 type  2   force =     0.00000000    0.00000000    0.00000000
     atom   50 type  3   force =     0.00000000    0.00000000    0.00000000
     atom   51 type  3   force =     0.00000000    0.00000000    0.00000000
     The SCF correction term to forces
     atom    1 type  1   force =     0.00000000   -0.00000000    0.00000000
     atom    2 type  1   force =     0.00000000    0.00000000    0.00000000
     atom    3 type  1   force =    -0.00002098   -0.00016544    0.00001181
     atom    4 type  1   force =     0.00002651    0.00016259    0.00003136
     atom    5 type  1   force =    -0.00001892   -0.00012148   -0.00004551
     atom    6 type  1   force =     0.00000906    0.00011920   -0.00001226
     atom    7 type  1   force =     0.00000000    0.00000000    0.00000000
     atom    8 type  1   force =     0.00000000   -0.00000000    0.00000000
     atom    9 type  1   force =    -0.00001454   -0.00001409    0.00001600
     atom   10 type  1   force =     0.00002329    0.00001157    0.00002790
     atom   11 type  1   force =    -0.00001461   -0.00009177    0.00000715
     atom   12 type  1   force =     0.00001464    0.00009110   -0.00004531
     atom   13 type  1   force =    -0.00000000   -0.00000000    0.00000000
     atom   14 type  1   force =    -0.00000000    0.00000000    0.00000000
     atom   15 type  1   force =    -0.00007365   -0.00013153   -0.00000796
     atom   16 type  1   force =    -0.00011442    0.00014545    0.00002018
     atom   17 type  1   force =    -0.00009878   -0.00006019   -0.00006548
     atom   18 type  1   force =    -0.00011248    0.00005614   -0.00000611
     atom   19 type  1   force =    -0.00000000    0.00000000    0.00000000
     atom   20 type  1   force =    -0.00000000   -0.00000000    0.00000000
     atom   21 type  1   force =    -0.00008707   -0.00001446   -0.00000295
     atom   22 type  1   force =    -0.00011019    0.00001404    0.00000579
     atom   23 type  1   force =    -0.00008074   -0.00007544   -0.00000711
     atom   24 type  1   force =    -0.00011975    0.00006837   -0.00005728
     atom   25 type  1   force =     0.00000000   -0.00000000    0.00000000
     atom   26 type  1   force =     0.00000000    0.00000000    0.00000000
     atom   27 type  1   force =     0.00003159   -0.00011487    0.00000596
     atom   28 type  1   force =     0.00003636    0.00013075   -0.00000348
     atom   29 type  1   force =    -0.00006036   -0.00003069   -0.00009428
     atom   30 type  1   force =     0.00002151    0.00002295   -0.00004551
     atom   31 type  1   force =     0.00000000   -0.00000000    0.00000000
     atom   32 type  1   force =     0.00000000    0.00000000    0.00000000
     atom   33 type  1   force =     0.00004100   -0.00010851   -0.00003824
     atom   34 type  1   force =     0.00003048    0.00010713    0.00002886
     atom   35 type  1   force =    -0.00001330   -0.00012223   -0.00003818
     atom   36 type  1   force =    -0.00003879    0.00014814   -0.00005979
     atom   37 type  1   force =    -0.00000000   -0.00000000    0.00000000
     atom   38 type  1   force =    -0.00000000    0.00000000    0.00000000
     atom   39 type  1   force =    -0.00009975   -0.00007142   -0.00000307
     atom   40 type  1   force =    -0.00011796    0.00006655   -0.00000240
     atom   41 type  1   force =    -0.00007168    0.00002319   -0.00004841
     atom   42 type  1   force =    -0.00010721   -0.00002882    0.00003114
     atom   43 type  1   force =    -0.00000000   -0.00000000   -0.00000000
     atom   44 type  1   force =    -0.00000000    0.00000000    0.00000000
     atom   45 type  1   force =    -0.00013257   -0.00012497    0.00000865
     atom   46 type  1   force =    -0.00009866    0.00010554   -0.00000391
     atom   47 type  1   force =    -0.00010891   -0.00011325   -0.00001418
     atom   48 type  1   force =    -0.00006493    0.00011488   -0.00000589
     atom   49 type  2   force =    -0.00004055    0.00004394    0.00001295
     atom   50 type  3   force =    -0.00000236   -0.00000036    0.00000310
     atom   51 type  3   force =     0.00000088    0.00000251    0.00000177

     DFT-D3 dispersion contribution to forces:
     atom    1 type  1   force =    -0.00000713   -0.00001696    0.00018108
     atom    2 type  1   force =    -0.00003148   -0.00000375    0.00011963
     atom    3 type  1   force =     0.00074154   -0.00002362    0.00125069
     atom    4 type  1   force =     0.00072571    0.00001494    0.00124406
     atom    5 type  1   force =    -0.00024273    0.00010893   -0.00236717
     atom    6 type  1   force =     0.00015080   -0.00027985   -0.00190000
     atom    7 type  1   force =    -0.00000284    0.00001370    0.00018702
     atom    8 type  1   force =    -0.00002262   -0.00000597    0.00013484
     atom    9 type  1   force =     0.00078744    0.00000430    0.00133852
     atom   10 type  1   force =     0.00078602   -0.00000068    0.00116964
     atom   11 type  1   force =     0.00011861    0.00033664   -0.00195940
     atom   12 type  1   force =    -0.00018467   -0.00016199   -0.00228436
     atom   13 type  1   force =    -0.00001727   -0.00000493    0.00012668
     atom   14 type  1   force =    -0.00002239   -0.00000502    0.00013527
     atom   15 type  1   force =     0.00072440    0.00001905    0.00126655
     atom   16 type  1   force =     0.00071941   -0.00002505    0.00131064
     atom   17 type  1   force =    -0.00032423    0.00002942   -0.00243719
     atom   18 type  1   force =    -0.00065818   -0.00015065   -0.00220565
     atom   19 type  1   force =    -0.00001592    0.00000188    0.00013090
     atom   20 type  1   force =    -0.00001878   -0.00000050    0.00013773
     atom   21 type  1   force =     0.00073912   -0.00000244    0.00108852
     atom   22 type  1   force =     0.00079186    0.00001657    0.00114934
     atom   23 type  1   force =    -0.00057345    0.00017628   -0.00226266
     atom   24 type  1   force =    -0.00031908   -0.00006372   -0.00239645
     atom   25 type  1   force =    -0.00013398   -0.00001710    0.00394628
     atom   26 type  1   force =    -0.00012929    0.00002239    0.00395529
     atom   27 type  1   force =    -0.00019491   -0.00002062    0.00014103
     atom   28 type  1   force =    -0.00017110   -0.00001344    0.00019339
     atom   29 type  1   force =    -0.00014796   -0.00000684   -0.00284249
     atom   30 type  1   force =     0.00013876   -0.00005083   -0.00274215
     atom   31 type  1   force =    -0.00009833    0.00000221    0.00394428
     atom   32 type  1   force =    -0.00008989   -0.00000267    0.00398727
     atom   33 type  1   force =    -0.00017036    0.00000965    0.00014081
     atom   34 type  1   force =    -0.00022351    0.00003925    0.00015095
     atom   35 type  1   force =    -0.00025819    0.00042683   -0.00254934
     atom   36 type  1   force =    -0.00024629   -0.00046281   -0.00244647
     atom   37 type  1   force =    -0.00013326    0.00000560    0.00397654
     atom   38 type  1   force =    -0.00012783    0.00000273    0.00397683
     atom   39 type  1   force =    -0.00024296    0.00001055    0.00013918
     atom   40 type  1   force =    -0.00023786    0.00000446    0.00014841
     atom   41 type  1   force =    -0.00010795    0.00000568   -0.00291402
     atom   42 type  1   force =    -0.00004519   -0.00000435   -0.00274711
     atom   43 type  1   force =    -0.00011222    0.00000242    0.00402623
     atom   44 type  1   force =    -0.00010209    0.00000106    0.00397700
     atom   45 type  1   force =    -0.00023831   -0.00002206    0.00013972
     atom   46 type  1   force =    -0.00024577   -0.00001243    0.00013146
     atom   47 type  1   force =    -0.00011898    0.00002942   -0.00291290
     atom   48 type  1   force =    -0.00009712   -0.00003941   -0.00290245
     atom   49 type  2   force =    -0.00003520    0.00002796   -0.00113528
     atom   50 type  3   force =    -0.00017477   -0.00011573   -0.00147499
     atom   51 type  3   force =    -0.00009956    0.00020150   -0.00146569

     Total force =     0.001924     Total SCF correction =     0.000728

     DFT-D3 dispersion Force =     0.015890
     SCF correction compared to forces is large: reduce conv_thr to get better values


     Computing stress (Cartesian axis) and pressure


     negative rho (up, down):  5.883E-03 0.000E+00
          total   stress  (Ry/bohr**3)                   (kbar)     P=      -17.89
  -0.00023248   0.00000012  -0.00000053          -34.20        0.02       -0.08
   0.00000012  -0.00011798  -0.00000026            0.02      -17.36       -0.04
  -0.00000053  -0.00000026  -0.00001446           -0.08       -0.04       -2.13

     kinetic stress (kbar)  12039.89     -2.83      0.82
                               -2.83  12019.78      0.30
                                0.82      0.30  12101.53

     local   stress (kbar)**********     -6.50     23.91
                               -6.50**********    -11.65
                               23.91    -11.651041161.78

     nonloc. stress (kbar)  -1259.61      0.01      0.09
                                0.01  -1247.53      0.04
                                0.09      0.04  -1287.95

     hartree stress (kbar) 541121.17      0.96    -14.54
                                0.96 544944.05      5.33
                              -14.54      5.33-486861.45

     exc-cor stress (kbar)  -6032.54      0.03      0.04
                                0.03  -6030.11     -0.01
                                0.04     -0.01  -6038.14

     corecor stress (kbar)     -3.94      0.01     -0.00
                                0.01     -3.92     -0.00
                               -0.00     -0.00     -3.97

     ewald   stress (kbar) 483676.38      8.34    -10.28
                                8.34 488796.22      5.95
                              -10.28      5.95-559070.61

     hubbard stress (kbar)      0.00      0.00      0.00
                                0.00      0.00      0.00
                                0.00      0.00      0.00

     DFT-D   stress (kbar)     -7.38     -0.00     -0.11
                               -0.00     -8.66      0.01
                               -0.11      0.01     -3.31

     XDM     stress (kbar)      0.00      0.00      0.00
                                0.00      0.00      0.00
                                0.00      0.00      0.00

     dft-nl  stress (kbar)      0.00      0.00      0.00
                                0.00      0.00      0.00
                                0.00      0.00      0.00

     TS-vdW  stress (kbar)      0.00      0.00      0.00
                                0.00      0.00      0.00
                                0.00      0.00      0.00

     MDB     stress (kbar)      0.00      0.00      0.00
                                0.00      0.00      0.00
                                0.00      0.00      0.00

     3D-RISM stress (kbar)      0.00      0.00      0.00
                                0.00      0.00      0.00
                                0.00      0.00      0.00

     Energy error            =      7.7E-06 Ry
     Gradient error          =      4.5E-04 Ry/Bohr

     bfgs converged in  40 scf cycles and  39 bfgs steps
     (criteria: energy <  1.0E-05 Ry, force <  5.0E-04 Ry/Bohr)

     End of BFGS Geometry Optimization

     Final energy             =  -22198.8258005914 Ry

     File ./tmp/02_Zn100_H2O.bfgs deleted, as requested
Begin final coordinates

ATOMIC_POSITIONS (angstrom)
Zn               1.2182900000        1.3071800000        0.7547010000    0   0   0
Zn               1.2182900000        6.5359000000        0.7547010000    0   0   0
Zn               0.5311116106       -0.0020984167        3.6325126955
Zn               0.5304966500        5.2331410484        3.6322477385
Zn               1.2255275263       -1.3060269019        6.0725994878
Zn               1.2239875275        3.9231449258        6.0256021404
Zn               1.2182900000        3.9215400000        0.7547010000    0   0   0
Zn               1.2182900000        9.1502600000        0.7547010000    0   0   0
Zn               0.5324475598        2.6159616783        3.6198870777
Zn               0.5340060972        7.8451034384        3.6203622158
Zn               1.2274230266        1.3089243404        6.0272901985
Zn               1.2281018633        6.5391930960        6.0756820661
Zn               6.0914510000        1.3071800000        0.7547010000    0   0   0
Zn               6.0914510000        6.5359000000        0.7547010000    0   0   0
Zn               5.4035925098        0.0002057315        3.6329327156
Zn               5.4046487177        5.2323917656        3.6305146598
Zn               6.1002289858       -1.3088981643        6.0725933271
Zn               6.1110255647        3.9240204499        6.0544628961
Zn               6.0914510000        3.9215400000        0.7547010000    0   0   0
Zn               6.0914510000        9.1502600000        0.7547010000    0   0   0
Zn               5.4001518471        2.6161471156        3.6299183475
Zn               5.4045045582        7.8460098648        3.6213140258
Zn               6.1098677431        1.3079805249        6.0612779281
Zn               6.1054659987        6.5414827645        6.0716493143
Zn               3.6548710000       -0.0000000000        1.5094010000    0   0   0
Zn               3.6548710000        5.2287200000        1.5094010000    0   0   0
Zn               2.8848180115       -1.3033600799        3.6928332026
Zn               2.8966599610        3.9144231944        3.7084058341
Zn               3.6725939551       -2.6087590262        5.9981651358
Zn               3.7041488729        2.6156207611        6.1342483476
Zn               3.6548710000        2.6143600000        1.5094010000    0   0   0
Zn               3.6548710000        7.8430800000        1.5094010000    0   0   0
Zn               2.8969897558        1.3160004973        3.7061548844
Zn               2.8811979456        6.5395384514        3.6878932716
Zn               3.6743483923       -0.0015532456        5.9786916292
Zn               3.6785970169        5.2387748682        5.9573500991
Zn               8.5280310000       -0.0000000000        1.5094010000    0   0   0
Zn               8.5280310000        5.2287200000        1.5094010000    0   0   0
Zn               7.7541872767       -1.3058883869        3.6933750955
Zn               7.7567526906        3.9213312234        3.6889383417
Zn               8.5513834836       -2.6124278928        5.9995601259
Zn               8.5498266516        2.6143371855        5.9985033580
Zn               8.5280310000        2.6143600000        1.5094010000    0   0   0
Zn               8.5280310000        7.8430800000        1.5094010000    0   0   0
Zn               7.7555797942        1.3069382512        3.6883389596
Zn               7.7544213672        6.5352275691        3.6914038471
Zn               8.5453480938        0.0009177050        5.9917702247
Zn               8.5490188675        5.2288239677        5.9927988003
O                3.4558062153        2.7329131898        8.6310202583
H                2.6718826049        2.1520852809        8.6697578376
H                3.0817165511        3.6351142995        8.6257898768
End final coordinates



     Writing all to output data dir ./tmp/02_Zn100_H2O.save/ :
     XML data file, charge density, pseudopotentials, collected wavefunctions

     init_run     :     61.25s CPU     62.23s WALL (       1 calls)
     electrons    :  77050.24s CPU  78014.29s WALL (      40 calls)
     update_pot   :      5.45s CPU      5.64s WALL (      39 calls)
     forces       :   2118.11s CPU   2130.37s WALL (      40 calls)
     force_dftd3  :      3.53s CPU      3.83s WALL (      40 calls)
     stress       :   5640.45s CPU   5664.18s WALL (      40 calls)
     stres_dftd3  :      3.52s CPU      3.83s WALL (      40 calls)

     Called by init_run:
     wfcinit      :     59.80s CPU     60.72s WALL (       1 calls)
     wfcinit:atom :      0.03s CPU      0.05s WALL (       5 calls)
     wfcinit:wfcr :     59.21s CPU     60.05s WALL (       5 calls)
     potinit      :      0.12s CPU      0.13s WALL (       1 calls)
     hinit0       :      0.06s CPU      0.07s WALL (       1 calls)

     Called by electrons:
     c_bands      :  71400.82s CPU  72240.86s WALL (     347 calls)
     sum_band     :   5320.44s CPU   5431.83s WALL (     347 calls)
     v_of_rho     :     26.06s CPU     27.15s WALL (     347 calls)
     v_h          :      1.75s CPU      1.90s WALL (     347 calls)
     v_xc         :     29.85s CPU     31.19s WALL (     427 calls)
     newd         :    323.83s CPU    332.67s WALL (     347 calls)
     PAW_pot      :     12.96s CPU     13.03s WALL (     386 calls)
     mix_rho      :      3.06s CPU      3.34s WALL (     347 calls)
     energy_dftd3 :      1.82s CPU      1.82s WALL (      40 calls)

     Called by c_bands:
     init_us_2    :     80.55s CPU     80.83s WALL (    4070 calls)
     cegterg      :  71261.52s CPU  72099.68s WALL (    1735 calls)

     Called by sum_band:
     sum_band:wei :      0.82s CPU      0.83s WALL (     347 calls)
     sum_band:loo :   4994.34s CPU   5095.87s WALL (     347 calls)
     sum_band:buf :     15.94s CPU     16.04s WALL (    1735 calls)
     sum_band:ini :     34.89s CPU     34.99s WALL (    1735 calls)
     sum_band:cal :   4703.79s CPU   4724.51s WALL (    1930 calls)
     sum_band:bec :     40.07s CPU     40.18s WALL (    1930 calls)
     addusdens    :    320.67s CPU    330.14s WALL (     347 calls)
                                        0.00s GPU  (     347 calls)
     addusd:skk   :      3.24s CPU      3.55s WALL (    1041 calls)
                                        0.00s GPU  (    1041 calls)

     Called by *egterg:
     cdiaghg      :   3382.51s CPU   3511.02s WALL (    5850 calls)
     cegterg:over :  11311.87s CPU  11348.24s WALL (    4510 calls)
     cegterg:upda :   4988.35s CPU   5018.73s WALL (    4510 calls)
     cegterg:last :  18120.61s CPU  18224.60s WALL (    3620 calls)
     cdiaghg:chol :    247.94s CPU    248.60s WALL (    5850 calls)
     cdiaghg:inve :     35.86s CPU     35.97s WALL (    5850 calls)
     cdiaghg:para :    923.60s CPU    940.93s WALL (   11700 calls)
     h_psi        :  21598.21s CPU  22081.39s WALL (    6250 calls)
     s_psi        :   8866.68s CPU   8887.91s WALL (    6250 calls)
     g_psi        :      9.19s CPU      9.25s WALL (    4510 calls)

     Called by h_psi:
     h_psi:calbec :   9619.05s CPU   9662.86s WALL (    6250 calls)
     vloc_psi     :   2908.58s CPU   3310.84s WALL (    6250 calls)
     add_vuspsi   :   9043.72s CPU   9065.46s WALL (    6250 calls)

     General routines
     calbec       :  16775.78s CPU  16851.23s WALL (    9180 calls)
     fft          :     18.32s CPU     20.65s WALL (    5510 calls)
     ffts         :      0.81s CPU      0.92s WALL (     694 calls)
     fftw         :   3210.88s CPU   3656.21s WALL ( 5590891 calls)
     interpolate  :      1.66s CPU      1.82s WALL (     347 calls)

     Parallel routines

     PAW routines
     PAW_pot      :     12.96s CPU     13.03s WALL (     386 calls)

     PWSCF        :     23h43m CPU   1d 0h 0m WALL


   This run was terminated on:   3:18:20   6Apr2025            

=------------------------------------------------------------------------------=
   JOB DONE.
=------------------------------------------------------------------------------=
