--------------------------------------------------------------------------
By default, for Open MPI 4.0 and later, infiniband ports on a device
are not used by default.  The intent is to use UCX for these devices.
You can override this policy by setting the btl_openib_allow_ib MCA parameter
to true.

  Local host:              psid03
  Local adapter:           mlx5_0
  Local port:              1

--------------------------------------------------------------------------
--------------------------------------------------------------------------
WARNING: There was an error initializing an OpenFabrics device.

  Local host:   psid03
  Local device: mlx5_0
--------------------------------------------------------------------------

     Program PWSCF v.7.3.1 starts on 25Mar2025 at  3:53:34 

     This program is part of the open-source Quantum ESPRESSO suite
     for quantum simulation of materials; please cite
         "P. Giannozzi et al., J. Phys.:Condens. Matter 21 395502 (2009);
         "P. Giannozzi et al., J. Phys.:Condens. Matter 29 465901 (2017);
         "P. Giannozzi et al., J. Chem. Phys. 152 154105 (2020);
          URL http://www.quantum-espresso.org", 
     in publications or presentations arising from this work. More details at
     http://www.quantum-espresso.org/quote

     Parallel version (MPI), running on    34 processors

     MPI processes distributed on     1 nodes
     86478 MiB available memory on the printing compute node when the environment starts

     Waiting for input...
     Reading input from standard input
Warning: card &CELL ignored
Warning: card   CELL_DOFREE = 'ALL' ignored
Warning: card / ignored

     Current dimensions of program PWSCF are:
     Max number of different atomic species (ntypx) = 10
     Max number of k-points (npk) =  40000
     Max angular momentum in pseudopotentials (lmaxx) =  4
     Message from routine input:
     WARNING: "startingwfc" set to atomic+random may spoil restart
     Message from routine input:
     WARNING: "startingpot" set to atomic may spoil restart
     file O.pbe-n-kjpaw_psl.0.1.UPF: wavefunction(s)  2P renormalized

     R & G space division:  proc/nbgrp/npool/nimage =      34
     Subspace diagonalization in iterative solution of the eigenvalue problem:
     one sub-group per band group will be used
     custom distributed-memory algorithm (size of sub-group:  5*  5 procs)


     Parallelization info
     --------------------
     sticks:   dense  smooth     PW     G-vecs:    dense   smooth      PW
     Min         102     102     27                10351    10351    1472
     Max         103     103     28                10357    10357    1486
     Sum        3477    3477    945               351985   351985   50287

     Using Slab Decomposition



     bravais-lattice index     =            0
     lattice parameter (alat)  =      18.4179  a.u.
     unit-cell volume          =   15858.2170 (a.u.)^3
     number of atoms/cell      =           67
     number of atomic types    =            3
     number of electrons       =      1288.00
     number of Kohn-Sham states=          773
     kinetic-energy cutoff     =      30.0000  Ry
     charge density cutoff     =     120.0000  Ry
     scf convergence threshold =      7.3E-07
     mixing beta               =       0.7000
     number of iterations used =            8  plain     mixing
     energy convergence thresh.=      1.0E-05
     force convergence thresh. =      5.0E-04
     Exchange-correlation= PBE
                           (   1   4   3   4   0   0   0)
     nstep                     =          100


     celldm(1)=  18.417879  celldm(2)=   0.000000  celldm(3)=   0.000000
     celldm(4)=   0.000000  celldm(5)=   0.000000  celldm(6)=   0.000000

     crystal axes: (cart. coord. in units of alat)
               a(1) = (   1.000000   0.000000   0.000000 )  
               a(2) = (   0.000000   1.072963   0.000000 )  
               a(3) = (   0.000000  -1.365810   2.365652 )  

     reciprocal axes: (cart. coord. in units 2 pi/alat)
               b(1) = (  1.000000  0.000000 -0.000000 )  
               b(2) = ( -0.000000  0.931999  0.538090 )  
               b(3) = (  0.000000  0.000000  0.422716 )  


     PseudoPot. # 1 for Zn read from file:
     /home/ys/qepseudo/SSSP_1.3.0_PBE_efficiency/Zn_pbe_v1.uspp.F.UPF
     MD5 check sum: df62231357ef9e81f77b2b3087fa5675
     Pseudo is Ultrasoft, Zval = 20.0
     Generated by new atomic code, or converted to UPF format
     Using radial grid of  943 points,  6 beta functions with: 
                l(1) =   0
                l(2) =   0
                l(3) =   1
                l(4) =   1
                l(5) =   2
                l(6) =   2
     Q(r) pseudized with  8 coefficients,  rinner =    1.100   1.100   1.100
                                                       1.100   1.100

     PseudoPot. # 2 for O  read from file:
     /home/ys/qepseudo/SSSP_1.3.0_PBE_efficiency/O.pbe-n-kjpaw_psl.0.1.UPF
     MD5 check sum: 0234752ac141de4415c5fc33072bef88
     Pseudo is Projector augmented-wave + core cor, Zval =  6.0
     Generated using "atomic" code by A. Dal Corso  v.5.0.99 svn rev. 10869
     Shape of augmentation charge: BESSEL
     Using radial grid of 1095 points,  4 beta functions with: 
                l(1) =   0
                l(2) =   0
                l(3) =   1
                l(4) =   1
     Q(r) pseudized with 0 coefficients 


     PseudoPot. # 3 for H  read from file:
     /home/ys/qepseudo/SSSP_1.3.0_PBE_efficiency/H.pbe-rrkjus_psl.1.0.0.UPF
     MD5 check sum: f52b6d4d1c606e5624b1dc7b2218f220
     Pseudo is Ultrasoft, Zval =  1.0
     Generated using "atomic" code by A. Dal Corso  v.5.1
     Using radial grid of  929 points,  2 beta functions with: 
                l(1) =   0
                l(2) =   0
     Q(r) pseudized with 0 coefficients 


     atomic species   valence    mass     pseudopotential
     Zn               20.00    65.38000     Zn( 1.00)
     O                 6.00    16.00000     O ( 1.00)
     H                 1.00     1.00800     H ( 1.00)

     No symmetry found


                                    s                        frac. trans.

      isym =  1     identity                                     

 cryst.   s( 1) = (     1          0          0      )
                  (     0          1          0      )
                  (     0          0          1      )

 cart.    s( 1) = (  1.0000000  0.0000000  0.0000000 )
                  (  0.0000000  1.0000000 -0.0000000 )
                  (  0.0000000  0.0000000  1.0000000 )


   Cartesian axes

     site n.     atom                  positions (alat units)
         1        Zn     tau(   1) = (   0.1250000   0.1341203   0.0774344  )
         2        Zn     tau(   2) = (   0.1250000   0.6706017   0.0774344  )
         3        Zn     tau(   3) = (   0.1250000   0.0000000   0.3097376  )
         4        Zn     tau(   4) = (   0.1250000   0.5364813   0.3097376  )
         5        Zn     tau(   5) = (   0.1226937  -0.1342678   0.5721143  )
         6        Zn     tau(   6) = (   0.1233428   0.4022668   0.5726129  )
         7        Zn     tau(   7) = (   0.1282625  -0.2684914   0.8357257  )
         8        Zn     tau(   8) = (   0.1280464   0.2681976   0.8353225  )
         9        Zn     tau(   9) = (   0.1250000   0.4023610   0.0774344  )
        10        Zn     tau(  10) = (   0.1250000   0.9388423   0.0774344  )
        11        Zn     tau(  11) = (   0.1250000   0.2682407   0.3097376  )
        12        Zn     tau(  12) = (   0.1250000   0.8047220   0.3097376  )
        13        Zn     tau(  13) = (   0.1231259   0.1339622   0.5724000  )
        14        Zn     tau(  14) = (   0.1228292   0.6704377   0.5719214  )
        15        Zn     tau(  15) = (   0.1283750   0.0002958   0.8355474  )
        16        Zn     tau(  16) = (   0.1278314   0.5357995   0.8353676  )
        17        Zn     tau(  17) = (   0.6250000   0.1341203   0.0774344  )
        18        Zn     tau(  18) = (   0.6250000   0.6706017   0.0774344  )
        19        Zn     tau(  19) = (   0.6250000   0.0000000   0.3097376  )
        20        Zn     tau(  20) = (   0.6250000   0.5364813   0.3097376  )
        21        Zn     tau(  21) = (   0.6216567  -0.1339711   0.6334453  )
        22        Zn     tau(  22) = (   0.6223841   0.4017643   0.6296451  )
        23        Zn     tau(  23) = (   0.6295770  -0.2685605   0.9091077  )
        24        Zn     tau(  24) = (   0.6285627   0.2686515   0.9373053  )
        25        Zn     tau(  25) = (   0.6250000   0.4023610   0.0774344  )
        26        Zn     tau(  26) = (   0.6250000   0.9388423   0.0774344  )
        27        Zn     tau(  27) = (   0.6250000   0.2682407   0.3097376  )
        28        Zn     tau(  28) = (   0.6250000   0.8047220   0.3097376  )
        29        Zn     tau(  29) = (   0.6222255   0.1354471   0.6365396  )
        30        Zn     tau(  30) = (   0.6218740   0.6699238   0.6325523  )
        31        Zn     tau(  31) = (   0.6294055  -0.0010291   0.9066122  )
        32        Zn     tau(  32) = (   0.6287053   0.5367384   0.9111350  )
        33        Zn     tau(  33) = (   0.3750000  -0.0000000   0.1548688  )
        34        Zn     tau(  34) = (   0.3750000   0.5364813   0.1548688  )
        35        Zn     tau(  35) = (   0.3750000  -0.1341203   0.3871721  )
        36        Zn     tau(  36) = (   0.3750000   0.4023610   0.3871721  )
        37        Zn     tau(  37) = (   0.3709504  -0.2683888   0.6264287  )
        38        Zn     tau(  38) = (   0.3716711   0.2681138   0.6262309  )
        39        Zn     tau(  39) = (   0.3813531  -0.4024622   0.8753726  )
        40        Zn     tau(  40) = (   0.3845767   0.1344687   0.8752343  )
        41        Zn     tau(  41) = (   0.3750000   0.2682407   0.1548688  )
        42        Zn     tau(  42) = (   0.3750000   0.8047220   0.1548688  )
        43        Zn     tau(  43) = (   0.3750000   0.1341203   0.3871721  )
        44        Zn     tau(  44) = (   0.3750000   0.6706017   0.3871721  )
        45        Zn     tau(  45) = (   0.3705552   0.0002858   0.6271173  )
        46        Zn     tau(  46) = (   0.3709228   0.5361808   0.6270606  )
        47        Zn     tau(  47) = (   0.3807225  -0.1341275   0.8754031  )
        48        Zn     tau(  48) = (   0.3842158   0.4017165   0.8758060  )
        49        Zn     tau(  49) = (   0.8750000  -0.0000000   0.1548688  )
        50        Zn     tau(  50) = (   0.8750000   0.5364813   0.1548688  )
        51        Zn     tau(  51) = (   0.8750000  -0.1341203   0.3871721  )
        52        Zn     tau(  52) = (   0.8750000   0.4023610   0.3871721  )
        53        Zn     tau(  53) = (   0.8723409  -0.2683593   0.6266513  )
        54        Zn     tau(  54) = (   0.8733070   0.2681773   0.6258121  )
        55        Zn     tau(  55) = (   0.8769134  -0.4025439   0.8751318  )
        56        Zn     tau(  56) = (   0.8737803   0.1344867   0.8733800  )
        57        Zn     tau(  57) = (   0.8750000   0.2682407   0.1548688  )
        58        Zn     tau(  58) = (   0.8750000   0.8047220   0.1548688  )
        59        Zn     tau(  59) = (   0.8750000   0.1341203   0.3871721  )
        60        Zn     tau(  60) = (   0.8750000   0.6706017   0.3871721  )
        61        Zn     tau(  61) = (   0.8732401   0.0001419   0.6267869  )
        62        Zn     tau(  62) = (   0.8735923   0.5361338   0.6271964  )
        63        Zn     tau(  63) = (   0.8777373  -0.1341143   0.8748244  )
        64        Zn     tau(  64) = (   0.8724576   0.4015664   0.8743243  )
        65        O      tau(  65) = (   0.6381713   0.2556437   1.1857636  )
        66        H      tau(  66) = (   0.7356079   0.2404276   1.2064246  )
        67        H      tau(  67) = (   0.5934078   0.1686212   1.2097141  )

   Crystallographic axes

     site n.     atom                  positions (cryst. coord.)
         1        Zn     tau(   1) = (  0.1250000  0.1666667  0.0327328  )
         2        Zn     tau(   2) = (  0.1250000  0.6666667  0.0327328  )
         3        Zn     tau(   3) = (  0.1250000  0.1666667  0.1309312  )
         4        Zn     tau(   4) = (  0.1250000  0.6666667  0.1309312  )
         5        Zn     tau(   5) = (  0.1226937  0.1827114  0.2418421  )
         6        Zn     tau(   6) = (  0.1233428  0.6830294  0.2420529  )
         7        Zn     tau(   7) = (  0.1282625  0.1994618  0.3532750  )
         8        Zn     tau(   8) = (  0.1280464  0.6994383  0.3531045  )
         9        Zn     tau(   9) = (  0.1250000  0.4166667  0.0327328  )
        10        Zn     tau(  10) = (  0.1250000  0.9166667  0.0327328  )
        11        Zn     tau(  11) = (  0.1250000  0.4166667  0.1309312  )
        12        Zn     tau(  12) = (  0.1250000  0.9166667  0.1309312  )
        13        Zn     tau(  13) = (  0.1231259  0.4328552  0.2419628  )
        14        Zn     tau(  14) = (  0.1228292  0.9325923  0.2417606  )
        15        Zn     tau(  15) = (  0.1283750  0.4498752  0.3531996  )
        16        Zn     tau(  16) = (  0.1278314  0.9488673  0.3531236  )
        17        Zn     tau(  17) = (  0.6250000  0.1666667  0.0327328  )
        18        Zn     tau(  18) = (  0.6250000  0.6666667  0.0327328  )
        19        Zn     tau(  19) = (  0.6250000  0.1666667  0.1309312  )
        20        Zn     tau(  20) = (  0.6250000  0.6666667  0.1309312  )
        21        Zn     tau(  21) = (  0.6216567  0.2159896  0.2677677  )
        22        Zn     tau(  22) = (  0.6223841  0.7132494  0.2661613  )
        23        Zn     tau(  23) = (  0.6295770  0.2388835  0.3842947  )
        24        Zn     tau(  24) = (  0.6285627  0.7547373  0.3962143  )
        25        Zn     tau(  25) = (  0.6250000  0.4166667  0.0327328  )
        26        Zn     tau(  26) = (  0.6250000  0.9166667  0.0327328  )
        27        Zn     tau(  27) = (  0.6250000  0.4166667  0.1309312  )
        28        Zn     tau(  28) = (  0.6250000  0.9166667  0.1309312  )
        29        Zn     tau(  29) = (  0.6222255  0.4687521  0.2690757  )
        30        Zn     tau(  30) = (  0.6218740  0.9647382  0.2673902  )
        31        Zn     tau(  31) = (  0.6294055  0.4868797  0.3832398  )
        32        Zn     tau(  32) = (  0.6287053  0.9905121  0.3851517  )
        33        Zn     tau(  33) = (  0.3750000  0.0833333  0.0654656  )
        34        Zn     tau(  34) = (  0.3750000  0.5833333  0.0654656  )
        35        Zn     tau(  35) = (  0.3750000  0.0833333  0.1636640  )
        36        Zn     tau(  36) = (  0.3750000  0.5833333  0.1636640  )
        37        Zn     tau(  37) = (  0.3709504  0.0869369  0.2648017  )
        38        Zn     tau(  38) = (  0.3716711  0.5868502  0.2647180  )
        39        Zn     tau(  39) = (  0.3813531  0.0959348  0.3700343  )
        40        Zn     tau(  40) = (  0.3845767  0.5962793  0.3699759  )
        41        Zn     tau(  41) = (  0.3750000  0.3333333  0.0654656  )
        42        Zn     tau(  42) = (  0.3750000  0.8333333  0.0654656  )
        43        Zn     tau(  43) = (  0.3750000  0.3333333  0.1636640  )
        44        Zn     tau(  44) = (  0.3750000  0.8333333  0.1636640  )
        45        Zn     tau(  45) = (  0.3705552  0.3377118  0.2650928  )
        46        Zn     tau(  46) = (  0.3709228  0.8371348  0.2650688  )
        47        Zn     tau(  47) = (  0.3807225  0.3460388  0.3700472  )
        48        Zn     tau(  48) = (  0.3842158  0.8456616  0.3702176  )
        49        Zn     tau(  49) = (  0.8750000  0.0833333  0.0654656  )
        50        Zn     tau(  50) = (  0.8750000  0.5833333  0.0654656  )
        51        Zn     tau(  51) = (  0.8750000  0.0833333  0.1636640  )
        52        Zn     tau(  52) = (  0.8750000  0.5833333  0.1636640  )
        53        Zn     tau(  53) = (  0.8723409  0.0870841  0.2648958  )
        54        Zn     tau(  54) = (  0.8733070  0.5866840  0.2645410  )
        55        Zn     tau(  55) = (  0.8769134  0.0957290  0.3699325  )
        56        Zn     tau(  56) = (  0.8737803  0.5952983  0.3691920  )
        57        Zn     tau(  57) = (  0.8750000  0.3333333  0.0654656  )
        58        Zn     tau(  58) = (  0.8750000  0.8333333  0.0654656  )
        59        Zn     tau(  59) = (  0.8750000  0.3333333  0.1636640  )
        60        Zn     tau(  60) = (  0.8750000  0.8333333  0.1636640  )
        61        Zn     tau(  61) = (  0.8732401  0.3373999  0.2649531  )
        62        Zn     tau(  62) = (  0.8735923  0.8371641  0.2651262  )
        63        Zn     tau(  63) = (  0.8777373  0.3457397  0.3698026  )
        64        Zn     tau(  64) = (  0.8724576  0.8447245  0.3695912  )
        65        O      tau(  65) = (  0.6381713  0.8763069  0.5012417  )
        66        H      tau(  66) = (  0.7356079  0.8732430  0.5099755  )
        67        H      tau(  67) = (  0.5934078  0.8080896  0.5113660  )

     number of k points=     4  Marzari-Vanderbilt smearing, width (Ry)=  0.0200
                       cart. coord. in units 2pi/alat
        k(    1) = (   0.0000000   0.0000000   0.0000000), wk =   0.5000000
        k(    2) = (   0.0000000  -0.4659994  -0.2690449), wk =   0.5000000
        k(    3) = (  -0.5000000   0.0000000   0.0000000), wk =   0.5000000
        k(    4) = (  -0.5000000  -0.4659994  -0.2690449), wk =   0.5000000

                       cryst. coord.
        k(    1) = (   0.0000000   0.0000000   0.0000000), wk =   0.5000000
        k(    2) = (   0.0000000  -0.5000000   0.0000000), wk =   0.5000000
        k(    3) = (  -0.5000000   0.0000000   0.0000000), wk =   0.5000000
        k(    4) = (  -0.5000000  -0.5000000   0.0000000), wk =   0.5000000

     Dense  grid:   351985 G-vectors     FFT dimensions: (  72,  72, 180)

     Dynamical RAM for                 wfc:      15.26 MB

     Dynamical RAM for     wfc (w. buffer):      76.31 MB

     Dynamical RAM for           str. fact:       0.47 MB

     Dynamical RAM for           local pot:       0.00 MB

     Dynamical RAM for          nlocal pot:      22.98 MB

     Dynamical RAM for                qrad:       2.64 MB

     Dynamical RAM for          rho,v,vnew:       1.19 MB

     Dynamical RAM for               rhoin:       0.40 MB

     Dynamical RAM for            rho*nmix:       2.53 MB

     Dynamical RAM for           G-vectors:       0.67 MB

     Dynamical RAM for          h,s,v(r/c):       4.37 MB

     Dynamical RAM for          <psi|beta>:      13.73 MB

     Dynamical RAM for                 psi:      30.53 MB

     Dynamical RAM for                hpsi:      30.53 MB

     Dynamical RAM for                spsi:      30.53 MB

     Dynamical RAM for      wfcinit/wfcrot:      49.17 MB

     Dynamical RAM for           addusdens:      39.50 MB

     Dynamical RAM for          addusforce:      59.73 MB

     Dynamical RAM for         addusstress:      31.76 MB

     Estimated static dynamical RAM per process >     106.48 MB

     Estimated max dynamical RAM per process >     218.69 MB

     Estimated total dynamical RAM >       7.26 GB

     Atomic positions and unit cell read from directory:
     ./tmp/Zn100_optimized_topsite_H2O.save/


     Check: negative core charge=   -0.000010
     Cannot read rho : file not found

     Initial potential from superposition of free atoms

     starting charge    1287.9910, renormalised to    1288.0000

     negative rho (up, down):  6.313E-03 0.000E+00
     Starting wfcs are  838 randomized atomic wfcs
[psid03:10432] 33 more processes have sent help message help-mpi-btl-openib.txt / ib port not selected
[psid03:10432] Set MCA parameter "orte_base_help_aggregate" to 0 to see all help / error messages
[psid03:10432] 33 more processes have sent help message help-mpi-btl-openib.txt / error in device init
     Checking if some PAW data can be deallocated... 
       PAW data deallocated on   33 nodes for type:  2
     Calculation restarted from scf iteration #     5

     total cpu time spent up to now is       53.4 secs

     Self-consistent Calculation

     iteration #  5     ecut=    30.00 Ry     beta= 0.70
     Calculation restarted from kpoint #     2
     Davidson diagonalization with overlap

---- Real-time Memory Report at c_bands before calling an iterative solver
           190 MiB given to the printing process from OS
             0 MiB allocation reported by mallinfo(arena+hblkhd)
         82465 MiB available memory on the node where the printing process lives
------------------
     c_bands:  1 eigenvalues not converged
     c_bands:  1 eigenvalues not converged
     ethr =  1.88E-10,  avg # of iterations = 30.2

     negative rho (up, down):  1.283E-02 0.000E+00

     total cpu time spent up to now is     1077.0 secs

     total energy              =  -29597.32202365 Ry
     estimated scf accuracy    <       2.59048455 Ry

     iteration #  6     ecut=    30.00 Ry     beta= 0.70
     Davidson diagonalization with overlap

---- Real-time Memory Report at c_bands before calling an iterative solver
           264 MiB given to the printing process from OS
             0 MiB allocation reported by mallinfo(arena+hblkhd)
         80844 MiB available memory on the node where the printing process lives
------------------
     c_bands:  1 eigenvalues not converged
     c_bands:  1 eigenvalues not converged
     ethr =  1.88E-10,  avg # of iterations = 19.0

     negative rho (up, down):  1.283E-02 0.000E+00

     total cpu time spent up to now is     1889.7 secs

     End of self-consistent calculation

          k = 0.0000 0.0000 0.0000 ( 44003 PWs)   bands (ev):

  -123.4352-123.4332-123.4314-123.4292-123.4286-123.4270-123.4255-123.4244
  -123.4119-123.4086-123.4080-123.4073-123.3674-123.3666-123.3619-123.3590
  -123.3568-123.3546-123.3533-123.3519-123.3157-123.3142-123.3133-123.3098
  -123.2606-123.2592-123.2589-123.2577-123.2568-123.2557-123.2555-123.2547
  -123.2406-123.2387-123.2382-123.2373-123.2348-123.2331-123.2302-123.2291
  -123.2286-123.2269-123.2054-123.1988-123.1264-123.1240-123.1229-123.1221
  -123.1203-123.1195-123.1189-123.1180-123.1178-123.1176-123.1171-123.1136
  -123.1126-123.1020-123.1004-123.0426-123.0346-123.0331-123.0301-123.0083
   -77.5328 -77.5303 -77.5294 -77.5284 -77.5265 -77.5244 -77.5235 -77.5230
   -77.5217 -77.5205 -77.5191 -77.5165 -77.5147 -77.5145 -77.5129 -77.5128
   -77.5115 -77.5114 -77.5108 -77.5103 -77.5099 -77.5091 -77.5089 -77.5084
   -77.5082 -77.5057 -77.5043 -77.5000 -77.4955 -77.4946 -77.4925 -77.4907
   -77.4906 -77.4887 -77.4879 -77.4742 -77.4720 -77.4617 -77.4555 -77.4527
   -77.4526 -77.4510 -77.4506 -77.4488 -77.4482 -77.4451 -77.4438 -77.4426
   -77.4423 -77.4409 -77.4405 -77.4399 -77.4389 -77.4386 -77.4381 -77.4364
   -77.4359 -77.4341 -77.4315 -77.4278 -77.4123 -77.4075 -77.4067 -77.4062
   -77.4049 -77.4048 -77.4031 -77.4009 -77.3995 -77.3932 -77.3906 -77.3771
   -77.3672 -77.3648 -77.3553 -77.3520 -77.3510 -77.3496 -77.3490 -77.3480
   -77.3478 -77.3473 -77.3472 -77.3462 -77.3460 -77.3459 -77.3453 -77.3449
   -77.3445 -77.3441 -77.3433 -77.3427 -77.3427 -77.3416 -77.3404 -77.3399
   -77.3386 -77.3379 -77.3370 -77.3363 -77.3344 -77.3317 -77.3315 -77.3310
   -77.3303 -77.3276 -77.3257 -77.3249 -77.3245 -77.3236 -77.3215 -77.3212
   -77.3205 -77.3194 -77.3185 -77.3176 -77.3134 -77.3118 -77.3079 -77.3057
   -77.3048 -77.3039 -77.3033 -77.3009 -77.3007 -77.3003 -77.2957 -77.2926
   -77.2925 -77.2866 -77.2863 -77.2731 -77.2368 -77.2305 -77.2292 -77.2243
   -77.2234 -77.2210 -77.2201 -77.2194 -77.2186 -77.2184 -77.2175 -77.2172
   -77.2162 -77.2149 -77.2135 -77.2127 -77.2112 -77.2109 -77.2095 -77.2070
   -77.2055 -77.2051 -77.2041 -77.2034 -77.2030 -77.2028 -77.2018 -77.2006
   -77.1997 -77.1995 -77.1982 -77.1975 -77.1963 -77.1951 -77.1941 -77.1933
   -77.1923 -77.1915 -77.1907 -77.1864 -77.1835 -77.1805 -77.1798 -77.1772
   -77.1638 -77.1403 -77.1330 -77.1323 -77.1247 -77.1244 -77.1232 -77.1231
   -77.1211 -77.1204 -77.1194 -77.1181 -77.1049 -77.1042 -77.1033 -77.0922
   -19.2536  -6.8575  -6.5105  -5.6685  -5.4685  -5.2545  -5.2532  -5.2009
    -5.0829  -5.0130  -4.9817  -4.9512  -4.9484  -4.9154  -4.9125  -4.9111
    -4.9079  -4.9023  -4.8430  -4.8394  -4.8358  -4.8242  -4.8233  -4.7975
    -4.7886  -4.7836  -4.7698  -4.7669  -4.7507  -4.7497  -4.7369  -4.7283
    -4.7221  -4.7159  -4.7132  -4.7089  -4.7058  -4.7047  -4.6799  -4.6791
    -4.6744  -4.6712  -4.6561  -4.6546  -4.6501  -4.6477  -4.6475  -4.6464
    -4.6232  -4.6195  -4.6179  -4.6104  -4.6038  -4.5797  -4.5793  -4.5787
    -4.5729  -4.5705  -4.5688  -4.5682  -4.5386  -4.5377  -4.5364  -4.5355
    -4.5252  -4.5245  -4.5165  -4.5028  -4.4981  -4.4970  -4.4925  -4.4896
    -4.4876  -4.4843  -4.4736  -4.4729  -4.4703  -4.4572  -4.4552  -4.4439
    -4.4419  -4.4303  -4.4299  -4.4223  -4.4096  -4.4056  -4.4024  -4.3982
    -4.3935  -4.3849  -4.3823  -4.3757  -4.3723  -4.3708  -4.3665  -4.3594
    -4.3540  -4.3363  -4.3320  -4.3304  -4.3269  -4.3235  -4.3187  -4.3133
    -4.3027  -4.2999  -4.2964  -4.2928  -4.2862  -4.2856  -4.2816  -4.2795
    -4.2748  -4.2595  -4.2526  -4.2473  -4.2438  -4.2432  -4.2411  -4.2386
    -4.2385  -4.2342  -4.2334  -4.2325  -4.2250  -4.2152  -4.2128  -4.2123
    -4.2106  -4.2078  -4.2034  -4.2010  -4.1966  -4.1922  -4.1912  -4.1903
    -4.1857  -4.1833  -4.1809  -4.1793  -4.1786  -4.1704  -4.1669  -4.1531
    -4.1517  -4.1422  -4.1395  -4.1292  -4.1285  -4.1264  -4.1216  -4.1205
    -4.1180  -4.1131  -4.1066  -4.1015  -4.1008  -4.0975  -4.0924  -4.0866
    -4.0844  -4.0787  -4.0745  -4.0739  -4.0617  -4.0615  -4.0604  -4.0578
    -4.0534  -4.0511  -4.0440  -4.0422  -4.0401  -4.0399  -4.0306  -4.0303
    -4.0261  -4.0242  -4.0212  -4.0202  -4.0042  -4.0033  -3.9994  -3.9954
    -3.9916  -3.9899  -3.9889  -3.9857  -3.9713  -3.9584  -3.9557  -3.9535
    -3.9508  -3.9487  -3.9458  -3.9442  -3.9429  -3.9375  -3.9352  -3.9323
    -3.9299  -3.9278  -3.9258  -3.9205  -3.9139  -3.9133  -3.9123  -3.9104
    -3.9091  -3.9049  -3.8958  -3.8950  -3.8945  -3.8934  -3.8919  -3.8900
    -3.8872  -3.8798  -3.8781  -3.8777  -3.8741  -3.8716  -3.8712  -3.8707
    -3.8633  -3.8590  -3.8556  -3.8532  -3.8515  -3.8471  -3.8442  -3.8430
    -3.8397  -3.8384  -3.8347  -3.8340  -3.8325  -3.8293  -3.8182  -3.8162
    -3.8126  -3.8102  -3.8065  -3.8040  -3.7959  -3.7950  -3.7897  -3.7839
    -3.7774  -3.7701  -3.7670  -3.7663  -3.7640  -3.7625  -3.7618  -3.7603
    -3.7586  -3.7582  -3.7546  -3.7522  -3.7514  -3.7442  -3.7410  -3.7362
    -3.7256  -3.7222  -3.7133  -3.7117  -3.7083  -3.7014  -3.6977  -3.6972
    -3.6927  -3.6919  -3.6910  -3.6904  -3.6890  -3.6861  -3.6845  -3.6838
    -3.6812  -3.6766  -3.6756  -3.6680  -3.6626  -3.6578  -3.6573  -3.6549
    -3.6541  -3.6518  -3.6500  -3.6472  -3.6467  -3.6447  -3.6323  -3.6308
    -3.6271  -3.6218  -3.6155  -3.6121  -3.5963  -3.5880  -3.5844  -3.5819
    -3.5784  -3.5757  -3.5693  -3.5683  -3.5672  -3.5626  -3.5563  -3.5558
    -3.5517  -3.5487  -3.5461  -3.5394  -3.5360  -3.5241  -3.5191  -3.5172
    -3.4941  -3.4798  -3.4779  -3.4669  -3.4354  -3.3947  -3.3507  -3.3503
    -3.3439  -3.3186  -3.3051  -3.2528  -3.1401  -3.0416  -2.8473  -2.8456
    -2.6570  -2.6500  -2.0791  -2.0072  -1.9961  -1.9824  -1.8222  -1.7559
    -1.7530  -1.7425  -1.3241  -1.0545  -0.3569  -0.3554  -0.3492  -0.2483
    -0.1605  -0.1456   0.1172   0.1251   0.2375   0.3817   0.5067   0.5917
     0.7976   1.0146   1.0324   1.1272   1.1444   1.4177   1.4519   1.4793
     1.5099   1.5190   1.7191   1.7572   1.7679   1.8525   1.9834   2.0145
     2.0156   2.0210   2.1934   2.2002   2.3945   2.3981   2.4873   2.5340
     2.6469   2.6668   2.7538   2.8652   2.8835   3.3039   3.3235   3.3790
     3.4532   3.7414   3.8539   4.0701   4.1722   4.1952   4.2336   4.2661
     4.3542   4.4147   4.5081   4.5173   4.6837   4.7333   4.9189   5.0064
     5.0920   5.1036   5.1657   5.2292   5.2567   5.6902   5.7263   5.8025
     5.8196   6.0592   6.1374   6.1427   6.1870   6.3362   6.3666   6.4412
     6.5220   6.5595   6.5672   6.5934   6.6394   6.6528   6.7340   7.0310
     7.0429   7.0680   7.1155   7.1437   7.1636   7.2013   7.2466   7.2813
     7.3149   7.3851   7.4664   7.4746   7.6158   7.7441   7.7708   7.9520
     7.9703   8.1242   8.1467   8.2076   8.2503   8.2860   8.3094   8.3475
     8.3690   8.3748   8.5085   8.5102   8.5656   8.6870   8.7215   8.7240
     8.7346   8.7644   8.7844   8.7935   8.7961   8.8130   8.8563   8.8800
     8.9018   8.9555   8.9720   9.0064   9.1702   9.2909   9.3180   9.3217
     9.3482   9.4104   9.4217   9.4427   9.4708   9.5062   9.5071   9.5240
     9.5475   9.5621   9.6952   9.7322   9.7459   9.7535   9.8351   9.8556
     9.9488  10.0644  10.0687  10.1024  10.1995  10.2100  10.2280  10.2639
    10.3143  10.3675  10.3751  10.4170  10.4790  10.5434  10.5731  10.5950
    10.6561  10.6998  10.7356  10.7777  10.8299

     occupation numbers 
     1.0000   1.0000   1.0000   1.0000   1.0000   1.0000   1.0000   1.0000
     1.0000   1.0000   1.0000   1.0000   1.0000   1.0000   1.0000   1.0000
     1.0000   1.0000   1.0000   1.0000   1.0000   1.0000   1.0000   1.0000
     1.0000   1.0000   1.0000   1.0000   1.0000   1.0000   1.0000   1.0000
     1.0000   1.0000   1.0000   1.0000   1.0000   1.0000   1.0000   1.0000
     1.0000   1.0000   1.0000   1.0000   1.0000   1.0000   1.0000   1.0000
     1.0000   1.0000   1.0000   1.0000   1.0000   1.0000   1.0000   1.0000
     1.0000   1.0000   1.0000   1.0000   1.0000   1.0000   1.0000   1.0000
     1.0000   1.0000   1.0000   1.0000   1.0000   1.0000   1.0000   1.0000
     1.0000   1.0000   1.0000   1.0000   1.0000   1.0000   1.0000   1.0000
     1.0000   1.0000   1.0000   1.0000   1.0000   1.0000   1.0000   1.0000
     1.0000   1.0000   1.0000   1.0000   1.0000   1.0000   1.0000   1.0000
     1.0000   1.0000   1.0000   1.0000   1.0000   1.0000   1.0000   1.0000
     1.0000   1.0000   1.0000   1.0000   1.0000   1.0000   1.0000   1.0000
     1.0000   1.0000   1.0000   1.0000   1.0000   1.0000   1.0000   1.0000
     1.0000   1.0000   1.0000   1.0000   1.0000   1.0000   1.0000   1.0000
     1.0000   1.0000   1.0000   1.0000   1.0000   1.0000   1.0000   1.0000
     1.0000   1.0000   1.0000   1.0000   1.0000   1.0000   1.0000   1.0000
     1.0000   1.0000   1.0000   1.0000   1.0000   1.0000   1.0000   1.0000
     1.0000   1.0000   1.0000   1.0000   1.0000   1.0000   1.0000   1.0000
     1.0000   1.0000   1.0000   1.0000   1.0000   1.0000   1.0000   1.0000
     1.0000   1.0000   1.0000   1.0000   1.0000   1.0000   1.0000   1.0000
     1.0000   1.0000   1.0000   1.0000   1.0000   1.0000   1.0000   1.0000
     1.0000   1.0000   1.0000   1.0000   1.0000   1.0000   1.0000   1.0000
     1.0000   1.0000   1.0000   1.0000   1.0000   1.0000   1.0000   1.0000
     1.0000   1.0000   1.0000   1.0000   1.0000   1.0000   1.0000   1.0000
     1.0000   1.0000   1.0000   1.0000   1.0000   1.0000   1.0000   1.0000
     1.0000   1.0000   1.0000   1.0000   1.0000   1.0000   1.0000   1.0000
     1.0000   1.0000   1.0000   1.0000   1.0000   1.0000   1.0000   1.0000
     1.0000   1.0000   1.0000   1.0000   1.0000   1.0000   1.0000   1.0000
     1.0000   1.0000   1.0000   1.0000   1.0000   1.0000   1.0000   1.0000
     1.0000   1.0000   1.0000   1.0000   1.0000   1.0000   1.0000   1.0000
     1.0000   1.0000   1.0000   1.0000   1.0000   1.0000   1.0000   1.0000
     1.0000   1.0000   1.0000   1.0000   1.0000   1.0000   1.0000   1.0000
     1.0000   1.0000   1.0000   1.0000   1.0000   1.0000   1.0000   1.0000
     1.0000   1.0000   1.0000   1.0000   1.0000   1.0000   1.0000   1.0000
     1.0000   1.0000   1.0000   1.0000   1.0000   1.0000   1.0000   1.0000
     1.0000   1.0000   1.0000   1.0000   1.0000   1.0000   1.0000   1.0000
     1.0000   1.0000   1.0000   1.0000   1.0000   1.0000   1.0000   1.0000
     1.0000   1.0000   1.0000   1.0000   1.0000   1.0000   1.0000   1.0000
     1.0000   1.0000   1.0000   1.0000   1.0000   1.0000   1.0000   1.0000
     1.0000   1.0000   1.0000   1.0000   1.0000   1.0000   1.0000   1.0000
     1.0000   1.0000   1.0000   1.0000   1.0000   1.0000   1.0000   1.0000
     1.0000   1.0000   1.0000   1.0000   1.0000   1.0000   1.0000   1.0000
     1.0000   1.0000   1.0000   1.0000   1.0000   1.0000   1.0000   1.0000
     1.0000   1.0000   1.0000   1.0000   1.0000   1.0000   1.0000   1.0000
     1.0000   1.0000   1.0000   1.0000   1.0000   1.0000   1.0000   1.0000
     1.0000   1.0000   1.0000   1.0000   1.0000   1.0000   1.0000   1.0000
     1.0000   1.0000   1.0000   1.0000   1.0000   1.0000   1.0000   1.0000
     1.0000   1.0000   1.0000   1.0000   1.0000   1.0000   1.0000   1.0000
     1.0000   1.0000   1.0000   1.0000   1.0000   1.0000   1.0000   1.0000
     1.0000   1.0000   1.0000   1.0000   1.0000   1.0000   1.0000   1.0000
     1.0000   1.0000   1.0000   1.0000   1.0000   1.0000   1.0000   1.0000
     1.0000   1.0000   1.0000   1.0000   1.0000   1.0000   1.0000   1.0000
     1.0000   1.0000   1.0000   1.0000   1.0000   1.0000   1.0000   1.0000
     1.0000   1.0000   1.0000   1.0000   1.0000   1.0000   1.0000   1.0000
     1.0000   1.0000   1.0000   1.0000   1.0000   1.0000   1.0000   1.0000
     1.0000   1.0000   1.0000   1.0000   1.0000   1.0000   1.0000   1.0000
     1.0000   1.0000   1.0000   1.0000   1.0000   1.0000   1.0000   1.0000
     1.0000   1.0000   1.0000   1.0000   1.0000   1.0000   1.0000   1.0000
     1.0000   1.0000   1.0000   1.0000   1.0000   1.0000   1.0000   1.0000
     1.0000   1.0000   1.0000   1.0000   1.0000   1.0000   1.0000   1.0000
     1.0000   1.0000   1.0000   1.0000   1.0000   1.0000   1.0000   1.0000
     1.0000   1.0000   1.0000   1.0000   1.0000   1.0000   1.0000   1.0000
     1.0000   1.0000   1.0000   1.0000   1.0000   1.0000   1.0000   1.0000
     1.0000   1.0000   1.0000   1.0000   1.0000   1.0000   1.0000   1.0000
     1.0000   1.0000   1.0000   1.0000   1.0000   1.0000   1.0000   1.0000
     1.0000   1.0000   1.0000   1.0000   1.0000   1.0000   1.0000   1.0000
     1.0000   1.0000   1.0000   1.0000   1.0000   1.0000   1.0000   1.0000
     1.0000   1.0000   1.0000   1.0000   1.0000   1.0000   1.0000   1.0000
     1.0000   1.0000   1.0000   1.0000   1.0000   1.0000   1.0000   1.0000
     1.0000   1.0000   1.0000   1.0000   1.0000   1.0000   1.0000   1.0000
     1.0000   1.0000   1.0000   1.0000   1.0000   1.0000   1.0000   1.0000
     1.0000   1.0000   1.0000   1.0000   1.0000   1.0000   1.0000   1.0000
     1.0000   1.0000   1.0000   1.0000   1.0000   1.0000   1.0000   1.0000
     1.0000   1.0000   1.0000   1.0000   1.0000   1.0000   1.0000   1.0000
     1.0000   1.0000   1.0000   1.0000   1.0000   1.0000   1.0000   1.0000
     1.0000   1.0000   1.0000   1.0000   1.0000   1.0000   1.0000   1.0000
     1.0000   1.0000   1.0000   1.0000   1.0000   1.0000   1.0000   1.0000
     1.0000   1.0000   1.0000   1.0000   1.0003   1.0003   1.0016   1.0034
     1.0147   1.0184   1.0413   1.0771   1.0807   0.3856   0.3385   0.2228
     0.1133   0.0022   0.0003   0.0000   0.0000   0.0000   0.0000   0.0000
     0.0000   0.0000   0.0000   0.0000   0.0000   0.0000   0.0000   0.0000
     0.0000   0.0000   0.0000   0.0000   0.0000   0.0000   0.0000   0.0000
     0.0000   0.0000   0.0000   0.0000   0.0000   0.0000   0.0000   0.0000
     0.0000   0.0000   0.0000   0.0000   0.0000   0.0000   0.0000   0.0000
     0.0000   0.0000   0.0000   0.0000   0.0000   0.0000   0.0000   0.0000
     0.0000   0.0000   0.0000   0.0000   0.0000   0.0000   0.0000   0.0000
     0.0000   0.0000   0.0000   0.0000   0.0000   0.0000   0.0000   0.0000
     0.0000   0.0000   0.0000   0.0000   0.0000   0.0000   0.0000   0.0000
     0.0000   0.0000   0.0000   0.0000   0.0000   0.0000   0.0000   0.0000
     0.0000   0.0000   0.0000   0.0000   0.0000   0.0000   0.0000   0.0000
     0.0000   0.0000   0.0000   0.0000   0.0000   0.0000   0.0000   0.0000
     0.0000   0.0000   0.0000   0.0000   0.0000   0.0000   0.0000   0.0000
     0.0000   0.0000   0.0000   0.0000   0.0000   0.0000   0.0000   0.0000
     0.0000   0.0000   0.0000   0.0000   0.0000   0.0000   0.0000   0.0000
     0.0000   0.0000   0.0000   0.0000   0.0000

          k = 0.0000-0.4660-0.2690 ( 43920 PWs)   bands (ev):

  -123.4348-123.4330-123.4311-123.4291-123.4283-123.4267-123.4254-123.4242
  -123.4117-123.4084-123.4077-123.4070-123.3672-123.3663-123.3616-123.3587
  -123.3566-123.3544-123.3531-123.3517-123.3155-123.3140-123.3131-123.3096
  -123.2601-123.2591-123.2586-123.2576-123.2563-123.2556-123.2553-123.2546
  -123.2404-123.2384-123.2379-123.2370-123.2346-123.2329-123.2299-123.2289
  -123.2283-123.2267-123.2052-123.1986-123.1262-123.1238-123.1226-123.1218
  -123.1200-123.1193-123.1186-123.1180-123.1175-123.1174-123.1170-123.1133
  -123.1123-123.1018-123.1002-123.0424-123.0344-123.0328-123.0298-123.0081
   -77.5306 -77.5282 -77.5266 -77.5259 -77.5240 -77.5238 -77.5233 -77.5216
   -77.5216 -77.5207 -77.5204 -77.5187 -77.5184 -77.5163 -77.5146 -77.5124
   -77.5115 -77.5111 -77.5097 -77.5089 -77.5086 -77.5074 -77.5042 -77.5038
   -77.5032 -77.5028 -77.5012 -77.5011 -77.4998 -77.4974 -77.4919 -77.4891
   -77.4882 -77.4875 -77.4806 -77.4791 -77.4652 -77.4617 -77.4544 -77.4541
   -77.4527 -77.4520 -77.4498 -77.4483 -77.4473 -77.4443 -77.4441 -77.4433
   -77.4421 -77.4401 -77.4395 -77.4390 -77.4383 -77.4368 -77.4359 -77.4345
   -77.4331 -77.4327 -77.4312 -77.4302 -77.4080 -77.4065 -77.4049 -77.4047
   -77.4045 -77.4030 -77.4028 -77.4016 -77.4008 -77.3986 -77.3829 -77.3806
   -77.3599 -77.3579 -77.3574 -77.3554 -77.3534 -77.3521 -77.3510 -77.3490
   -77.3478 -77.3475 -77.3465 -77.3462 -77.3454 -77.3446 -77.3443 -77.3428
   -77.3425 -77.3414 -77.3408 -77.3404 -77.3392 -77.3388 -77.3381 -77.3370
   -77.3367 -77.3366 -77.3358 -77.3357 -77.3351 -77.3347 -77.3320 -77.3311
   -77.3293 -77.3288 -77.3271 -77.3236 -77.3225 -77.3208 -77.3194 -77.3191
   -77.3183 -77.3174 -77.3156 -77.3142 -77.3139 -77.3117 -77.3115 -77.3087
   -77.3055 -77.3027 -77.3025 -77.3016 -77.3006 -77.2956 -77.2921 -77.2906
   -77.2906 -77.2898 -77.2847 -77.2740 -77.2368 -77.2303 -77.2290 -77.2233
   -77.2203 -77.2195 -77.2189 -77.2178 -77.2176 -77.2173 -77.2158 -77.2155
   -77.2146 -77.2141 -77.2135 -77.2130 -77.2115 -77.2108 -77.2106 -77.2071
   -77.2069 -77.2058 -77.2046 -77.2031 -77.2019 -77.2016 -77.2012 -77.1999
   -77.1975 -77.1970 -77.1966 -77.1960 -77.1946 -77.1939 -77.1935 -77.1931
   -77.1920 -77.1904 -77.1887 -77.1848 -77.1805 -77.1802 -77.1792 -77.1782
   -77.1647 -77.1344 -77.1322 -77.1308 -77.1286 -77.1246 -77.1230 -77.1224
   -77.1210 -77.1201 -77.1184 -77.1119 -77.1057 -77.1042 -77.1024 -77.0923
   -19.2534  -6.8555  -6.1591  -6.1554  -5.3483  -5.3299  -5.1972  -5.1951
    -4.9687  -4.9673  -4.9337  -4.9312  -4.9002  -4.8982  -4.8686  -4.8672
    -4.8646  -4.8623  -4.8558  -4.8549  -4.8441  -4.8393  -4.8378  -4.8345
    -4.8119  -4.8107  -4.8006  -4.7977  -4.7702  -4.7695  -4.7657  -4.7570
    -4.7355  -4.7340  -4.7285  -4.7265  -4.7157  -4.7150  -4.6944  -4.6936
    -4.6919  -4.6881  -4.6845  -4.6814  -4.6720  -4.6682  -4.6617  -4.6583
    -4.6530  -4.6518  -4.6445  -4.6443  -4.6158  -4.6148  -4.5994  -4.5964
    -4.5883  -4.5871  -4.5725  -4.5722  -4.5678  -4.5661  -4.5446  -4.5350
    -4.5276  -4.5244  -4.5205  -4.5168  -4.5132  -4.5115  -4.5064  -4.5011
    -4.4678  -4.4654  -4.4644  -4.4615  -4.4596  -4.4577  -4.4527  -4.4482
    -4.4452  -4.4409  -4.4366  -4.4334  -4.4254  -4.4216  -4.4204  -4.4100
    -4.4075  -4.3947  -4.3935  -4.3798  -4.3756  -4.3749  -4.3713  -4.3701
    -4.3670  -4.3647  -4.3629  -4.3577  -4.3391  -4.3368  -4.3324  -4.3250
    -4.3198  -4.3022  -4.3009  -4.2982  -4.2935  -4.2922  -4.2853  -4.2842
    -4.2796  -4.2750  -4.2699  -4.2686  -4.2661  -4.2639  -4.2525  -4.2491
    -4.2477  -4.2424  -4.2387  -4.2312  -4.2267  -4.2234  -4.2233  -4.2220
    -4.2156  -4.2144  -4.2119  -4.2108  -4.2094  -4.2071  -4.1932  -4.1891
    -4.1879  -4.1850  -4.1754  -4.1751  -4.1747  -4.1671  -4.1632  -4.1609
    -4.1556  -4.1540  -4.1526  -4.1512  -4.1348  -4.1305  -4.1266  -4.1250
    -4.1222  -4.1169  -4.1157  -4.1149  -4.1136  -4.1129  -4.1081  -4.1063
    -4.0926  -4.0920  -4.0847  -4.0833  -4.0809  -4.0731  -4.0718  -4.0690
    -4.0533  -4.0509  -4.0492  -4.0473  -4.0460  -4.0440  -4.0428  -4.0408
    -4.0307  -4.0248  -4.0123  -4.0081  -4.0078  -4.0041  -3.9893  -3.9840
    -3.9786  -3.9770  -3.9762  -3.9754  -3.9741  -3.9692  -3.9589  -3.9561
    -3.9496  -3.9488  -3.9462  -3.9431  -3.9388  -3.9314  -3.9299  -3.9285
    -3.9256  -3.9224  -3.9185  -3.9168  -3.9155  -3.9138  -3.9126  -3.9117
    -3.9078  -3.9054  -3.9041  -3.8971  -3.8943  -3.8863  -3.8854  -3.8826
    -3.8804  -3.8668  -3.8615  -3.8606  -3.8556  -3.8532  -3.8518  -3.8412
    -3.8402  -3.8380  -3.8377  -3.8312  -3.8285  -3.8256  -3.8236  -3.8230
    -3.8171  -3.8120  -3.8094  -3.7925  -3.7912  -3.7855  -3.7833  -3.7783
    -3.7763  -3.7711  -3.7690  -3.7678  -3.7653  -3.7580  -3.7537  -3.7440
    -3.7423  -3.7414  -3.7391  -3.7364  -3.7355  -3.7352  -3.7332  -3.7245
    -3.7226  -3.7223  -3.7217  -3.7199  -3.7191  -3.7127  -3.7121  -3.7069
    -3.7053  -3.7032  -3.7028  -3.6970  -3.6944  -3.6935  -3.6911  -3.6876
    -3.6868  -3.6790  -3.6749  -3.6721  -3.6719  -3.6692  -3.6688  -3.6669
    -3.6660  -3.6638  -3.6609  -3.6588  -3.6585  -3.6577  -3.6476  -3.6403
    -3.6394  -3.6372  -3.6363  -3.6351  -3.6347  -3.6268  -3.6219  -3.6202
    -3.6182  -3.6136  -3.6096  -3.6022  -3.6020  -3.6005  -3.5992  -3.5989
    -3.5979  -3.5977  -3.5933  -3.5914  -3.5876  -3.5844  -3.5805  -3.5750
    -3.5725  -3.5704  -3.5569  -3.5504  -3.5480  -3.5467  -3.5272  -3.5237
    -3.4962  -3.4926  -3.4439  -3.4421  -3.4320  -3.4280  -3.4247  -3.4195
    -3.4090  -3.3992  -3.2496  -2.9235  -2.9124  -2.9005  -2.8597  -2.6913
    -2.6861  -2.6177  -2.6160  -1.8738  -1.8329  -1.7009  -1.3873  -1.3812
    -1.3550  -1.3050  -1.3022  -1.0958  -1.0168  -0.9891  -0.8014  -0.7538
    -0.3505  -0.3402  -0.3094  -0.2622  -0.0680  -0.0658   0.5244   0.5717
     0.7337   0.7493   1.0232   1.0303   1.2654   1.2719   1.2898   1.2968
     1.3043   1.3342   1.5226   1.5545   1.7227   1.7248   1.9741   1.9895
     1.9949   2.0171   2.9229   2.9496   2.9606   2.9847   3.0836   3.0864
     3.1148   3.1446   3.1817   3.1829   3.4240   3.4336   3.6855   3.7321
     3.8593   3.8625   3.8708   3.8937   4.1078   4.1348   4.1807   4.2121
     4.3818   4.3838   4.6896   4.6999   4.9246   4.9293   5.0892   5.0899
     5.2467   5.2625   5.3174   5.3448   5.3479   5.4027   5.4864   5.5983
     5.7403   5.7540   5.7817   5.7841   5.9267   5.9316   5.9561   5.9951
     6.0229   6.2038   6.2184   6.3392   6.3831   6.4273   6.4714   6.5153
     6.6634   6.6991   6.9422   6.9467   6.9772   6.9928   7.1929   7.2351
     7.2568   7.2979   7.3241   7.3340   7.4566   7.5303   7.6123   7.6232
     7.7693   7.9210   7.9966   8.0243   8.1090   8.1336   8.2347   8.2451
     8.2790   8.2844   8.3494   8.3649   8.3784   8.4242   8.4275   8.4331
     8.7885   8.8487   8.9409   8.9865   8.9954   9.0328   9.0826   9.0884
     9.1215   9.1441   9.1627   9.1754   9.2135   9.2472   9.2840   9.2867
     9.3133   9.3951   9.5184   9.5872   9.6415   9.6569   9.7105   9.7325
     9.7633   9.8111   9.8265   9.8719   9.9100   9.9546   9.9718   9.9959
    10.0024  10.0054  10.1004  10.1361  10.1623  10.2433  10.2854  10.3194
    10.3579  10.4160  10.4360  10.4486  10.4809  10.5317  10.6150  10.6721
    10.8112  10.9605  10.9628  10.9738  11.0354

     occupation numbers 
     1.0000   1.0000   1.0000   1.0000   1.0000   1.0000   1.0000   1.0000
     1.0000   1.0000   1.0000   1.0000   1.0000   1.0000   1.0000   1.0000
     1.0000   1.0000   1.0000   1.0000   1.0000   1.0000   1.0000   1.0000
     1.0000   1.0000   1.0000   1.0000   1.0000   1.0000   1.0000   1.0000
     1.0000   1.0000   1.0000   1.0000   1.0000   1.0000   1.0000   1.0000
     1.0000   1.0000   1.0000   1.0000   1.0000   1.0000   1.0000   1.0000
     1.0000   1.0000   1.0000   1.0000   1.0000   1.0000   1.0000   1.0000
     1.0000   1.0000   1.0000   1.0000   1.0000   1.0000   1.0000   1.0000
     1.0000   1.0000   1.0000   1.0000   1.0000   1.0000   1.0000   1.0000
     1.0000   1.0000   1.0000   1.0000   1.0000   1.0000   1.0000   1.0000
     1.0000   1.0000   1.0000   1.0000   1.0000   1.0000   1.0000   1.0000
     1.0000   1.0000   1.0000   1.0000   1.0000   1.0000   1.0000   1.0000
     1.0000   1.0000   1.0000   1.0000   1.0000   1.0000   1.0000   1.0000
     1.0000   1.0000   1.0000   1.0000   1.0000   1.0000   1.0000   1.0000
     1.0000   1.0000   1.0000   1.0000   1.0000   1.0000   1.0000   1.0000
     1.0000   1.0000   1.0000   1.0000   1.0000   1.0000   1.0000   1.0000
     1.0000   1.0000   1.0000   1.0000   1.0000   1.0000   1.0000   1.0000
     1.0000   1.0000   1.0000   1.0000   1.0000   1.0000   1.0000   1.0000
     1.0000   1.0000   1.0000   1.0000   1.0000   1.0000   1.0000   1.0000
     1.0000   1.0000   1.0000   1.0000   1.0000   1.0000   1.0000   1.0000
     1.0000   1.0000   1.0000   1.0000   1.0000   1.0000   1.0000   1.0000
     1.0000   1.0000   1.0000   1.0000   1.0000   1.0000   1.0000   1.0000
     1.0000   1.0000   1.0000   1.0000   1.0000   1.0000   1.0000   1.0000
     1.0000   1.0000   1.0000   1.0000   1.0000   1.0000   1.0000   1.0000
     1.0000   1.0000   1.0000   1.0000   1.0000   1.0000   1.0000   1.0000
     1.0000   1.0000   1.0000   1.0000   1.0000   1.0000   1.0000   1.0000
     1.0000   1.0000   1.0000   1.0000   1.0000   1.0000   1.0000   1.0000
     1.0000   1.0000   1.0000   1.0000   1.0000   1.0000   1.0000   1.0000
     1.0000   1.0000   1.0000   1.0000   1.0000   1.0000   1.0000   1.0000
     1.0000   1.0000   1.0000   1.0000   1.0000   1.0000   1.0000   1.0000
     1.0000   1.0000   1.0000   1.0000   1.0000   1.0000   1.0000   1.0000
     1.0000   1.0000   1.0000   1.0000   1.0000   1.0000   1.0000   1.0000
     1.0000   1.0000   1.0000   1.0000   1.0000   1.0000   1.0000   1.0000
     1.0000   1.0000   1.0000   1.0000   1.0000   1.0000   1.0000   1.0000
     1.0000   1.0000   1.0000   1.0000   1.0000   1.0000   1.0000   1.0000
     1.0000   1.0000   1.0000   1.0000   1.0000   1.0000   1.0000   1.0000
     1.0000   1.0000   1.0000   1.0000   1.0000   1.0000   1.0000   1.0000
     1.0000   1.0000   1.0000   1.0000   1.0000   1.0000   1.0000   1.0000
     1.0000   1.0000   1.0000   1.0000   1.0000   1.0000   1.0000   1.0000
     1.0000   1.0000   1.0000   1.0000   1.0000   1.0000   1.0000   1.0000
     1.0000   1.0000   1.0000   1.0000   1.0000   1.0000   1.0000   1.0000
     1.0000   1.0000   1.0000   1.0000   1.0000   1.0000   1.0000   1.0000
     1.0000   1.0000   1.0000   1.0000   1.0000   1.0000   1.0000   1.0000
     1.0000   1.0000   1.0000   1.0000   1.0000   1.0000   1.0000   1.0000
     1.0000   1.0000   1.0000   1.0000   1.0000   1.0000   1.0000   1.0000
     1.0000   1.0000   1.0000   1.0000   1.0000   1.0000   1.0000   1.0000
     1.0000   1.0000   1.0000   1.0000   1.0000   1.0000   1.0000   1.0000
     1.0000   1.0000   1.0000   1.0000   1.0000   1.0000   1.0000   1.0000
     1.0000   1.0000   1.0000   1.0000   1.0000   1.0000   1.0000   1.0000
     1.0000   1.0000   1.0000   1.0000   1.0000   1.0000   1.0000   1.0000
     1.0000   1.0000   1.0000   1.0000   1.0000   1.0000   1.0000   1.0000
     1.0000   1.0000   1.0000   1.0000   1.0000   1.0000   1.0000   1.0000
     1.0000   1.0000   1.0000   1.0000   1.0000   1.0000   1.0000   1.0000
     1.0000   1.0000   1.0000   1.0000   1.0000   1.0000   1.0000   1.0000
     1.0000   1.0000   1.0000   1.0000   1.0000   1.0000   1.0000   1.0000
     1.0000   1.0000   1.0000   1.0000   1.0000   1.0000   1.0000   1.0000
     1.0000   1.0000   1.0000   1.0000   1.0000   1.0000   1.0000   1.0000
     1.0000   1.0000   1.0000   1.0000   1.0000   1.0000   1.0000   1.0000
     1.0000   1.0000   1.0000   1.0000   1.0000   1.0000   1.0000   1.0000
     1.0000   1.0000   1.0000   1.0000   1.0000   1.0000   1.0000   1.0000
     1.0000   1.0000   1.0000   1.0000   1.0000   1.0000   1.0000   1.0000
     1.0000   1.0000   1.0000   1.0000   1.0000   1.0000   1.0000   1.0000
     1.0000   1.0000   1.0000   1.0000   1.0000   1.0000   1.0000   1.0000
     1.0000   1.0000   1.0000   1.0000   1.0000   1.0000   1.0000   1.0000
     1.0000   1.0000   1.0000   1.0000   1.0000   1.0000   1.0000   1.0000
     1.0000   1.0000   1.0000   1.0000   1.0000   1.0000   1.0000   1.0000
     1.0000   1.0000   1.0000   1.0000   1.0000   1.0000   1.0000   1.0000
     1.0000   1.0000   1.0000   1.0000   1.0000   1.0000   1.0000   1.0000
     1.0000   1.0000   1.0000   1.0000   1.0000   1.0000   1.0000   1.0000
     1.0000   1.0000   1.0000   1.0000   1.0000   1.0000   1.0000   1.0000
     1.0000   1.0000   1.0000   1.0000   1.0000   1.0000   1.0000   1.0000
     1.0000   1.0000   1.0000   1.0000   1.0000   1.0000   1.0000   1.0000
     1.0000   1.0000   1.0000   1.0000   1.0000   1.0000   1.0000   1.0000
     1.0000   1.0000   1.0000   1.0000   1.0000   1.0000   1.0000   1.0000
     1.0000   1.0000   1.0000   1.0000   1.0000   1.0000   1.0000   1.0000
     1.0000   1.0000   1.0000   1.0000   1.0000   1.0000   1.0000   1.0000
     1.0000   1.0000   1.0000   1.0000   1.0000   1.0000   1.0000   1.0000
     1.0000   1.0000   1.0000   1.0000   1.0000   1.0000   1.0000   1.0000
     1.0000   1.0000   1.0000   1.0000   1.0000   1.0000   1.0000   1.0000
     1.0000   1.0000   1.0830   1.0784   1.0747   1.0625   0.9416   0.9365
     0.8791   0.8103   0.7148   0.7117   0.1503   0.1373   0.0055   0.0026
     0.0002   0.0002   0.0002   0.0001   0.0000   0.0000   0.0000   0.0000
     0.0000   0.0000   0.0000   0.0000   0.0000   0.0000   0.0000   0.0000
     0.0000   0.0000   0.0000   0.0000   0.0000   0.0000   0.0000   0.0000
     0.0000   0.0000   0.0000   0.0000   0.0000   0.0000   0.0000   0.0000
     0.0000   0.0000   0.0000   0.0000   0.0000   0.0000   0.0000   0.0000
     0.0000   0.0000   0.0000   0.0000   0.0000   0.0000   0.0000   0.0000
     0.0000   0.0000   0.0000   0.0000   0.0000   0.0000   0.0000   0.0000
     0.0000   0.0000   0.0000   0.0000   0.0000   0.0000   0.0000   0.0000
     0.0000   0.0000   0.0000   0.0000   0.0000   0.0000   0.0000   0.0000
     0.0000   0.0000   0.0000   0.0000   0.0000   0.0000   0.0000   0.0000
     0.0000   0.0000   0.0000   0.0000   0.0000   0.0000   0.0000   0.0000
     0.0000   0.0000   0.0000   0.0000   0.0000   0.0000   0.0000   0.0000
     0.0000   0.0000   0.0000   0.0000   0.0000   0.0000   0.0000   0.0000
     0.0000   0.0000   0.0000   0.0000   0.0000   0.0000   0.0000   0.0000
     0.0000   0.0000   0.0000   0.0000   0.0000   0.0000   0.0000   0.0000
     0.0000   0.0000   0.0000   0.0000   0.0000

          k =-0.5000 0.0000 0.0000 ( 44032 PWs)   bands (ev):

  -123.4350-123.4334-123.4314-123.4294-123.4286-123.4271-123.4257-123.4246
  -123.4120-123.4085-123.4082-123.4074-123.3674-123.3668-123.3619-123.3590
  -123.3569-123.3547-123.3535-123.3521-123.3157-123.3142-123.3135-123.3099
  -123.2602-123.2595-123.2590-123.2580-123.2565-123.2560-123.2557-123.2550
  -123.2406-123.2387-123.2382-123.2375-123.2350-123.2332-123.2302-123.2291
  -123.2289-123.2270-123.2055-123.1989-123.1266-123.1241-123.1230-123.1220
  -123.1204-123.1195-123.1188-123.1184-123.1179-123.1178-123.1174-123.1137
  -123.1127-123.1021-123.1006-123.0427-123.0347-123.0331-123.0302-123.0084
   -77.5322 -77.5304 -77.5302 -77.5287 -77.5268 -77.5247 -77.5236 -77.5218
   -77.5208 -77.5193 -77.5182 -77.5167 -77.5150 -77.5146 -77.5132 -77.5122
   -77.5117 -77.5115 -77.5110 -77.5106 -77.5104 -77.5102 -77.5091 -77.5086
   -77.5084 -77.5075 -77.5074 -77.4985 -77.4960 -77.4952 -77.4918 -77.4911
   -77.4905 -77.4903 -77.4885 -77.4759 -77.4721 -77.4620 -77.4541 -77.4533
   -77.4525 -77.4509 -77.4495 -77.4491 -77.4481 -77.4452 -77.4437 -77.4435
   -77.4422 -77.4415 -77.4404 -77.4402 -77.4395 -77.4390 -77.4385 -77.4380
   -77.4368 -77.4354 -77.4332 -77.4294 -77.4125 -77.4079 -77.4067 -77.4067
   -77.4053 -77.4050 -77.4044 -77.4013 -77.4010 -77.3927 -77.3901 -77.3783
   -77.3666 -77.3659 -77.3525 -77.3507 -77.3501 -77.3498 -77.3493 -77.3487
   -77.3485 -77.3472 -77.3471 -77.3469 -77.3465 -77.3463 -77.3453 -77.3452
   -77.3451 -77.3450 -77.3445 -77.3434 -77.3426 -77.3422 -77.3412 -77.3401
   -77.3392 -77.3387 -77.3379 -77.3341 -77.3337 -77.3335 -77.3316 -77.3310
   -77.3309 -77.3294 -77.3262 -77.3248 -77.3248 -77.3238 -77.3224 -77.3211
   -77.3211 -77.3203 -77.3185 -77.3177 -77.3149 -77.3115 -77.3078 -77.3071
   -77.3049 -77.3040 -77.3030 -77.3028 -77.3014 -77.3000 -77.2961 -77.2933
   -77.2923 -77.2879 -77.2876 -77.2738 -77.2369 -77.2308 -77.2297 -77.2250
   -77.2237 -77.2215 -77.2208 -77.2194 -77.2188 -77.2181 -77.2178 -77.2169
   -77.2164 -77.2156 -77.2133 -77.2129 -77.2119 -77.2113 -77.2091 -77.2079
   -77.2065 -77.2047 -77.2042 -77.2034 -77.2028 -77.2018 -77.2016 -77.1998
   -77.1994 -77.1993 -77.1989 -77.1982 -77.1981 -77.1978 -77.1968 -77.1930
   -77.1918 -77.1912 -77.1909 -77.1881 -77.1832 -77.1807 -77.1805 -77.1782
   -77.1647 -77.1405 -77.1335 -77.1325 -77.1252 -77.1248 -77.1235 -77.1229
   -77.1208 -77.1206 -77.1204 -77.1178 -77.1058 -77.1047 -77.1042 -77.0930
   -19.2536  -6.8578  -6.2119  -6.0748  -5.3741  -5.3456  -5.0955  -5.0953
    -5.0748  -5.0575  -5.0205  -5.0183  -4.9840  -4.9598  -4.9539  -4.9320
    -4.9254  -4.9213  -4.8894  -4.8824  -4.8463  -4.8450  -4.8274  -4.8116
    -4.8000  -4.7779  -4.7717  -4.7641  -4.7525  -4.7517  -4.7412  -4.7383
    -4.7176  -4.6995  -4.6893  -4.6890  -4.6849  -4.6804  -4.6779  -4.6767
    -4.6750  -4.6660  -4.6649  -4.6641  -4.6590  -4.6580  -4.6435  -4.6276
    -4.6222  -4.6214  -4.6186  -4.6170  -4.6139  -4.6114  -4.6095  -4.5705
    -4.5684  -4.5661  -4.5477  -4.5466  -4.5285  -4.5120  -4.5108  -4.5085
    -4.5072  -4.5037  -4.5033  -4.5021  -4.4955  -4.4834  -4.4804  -4.4760
    -4.4756  -4.4744  -4.4732  -4.4657  -4.4522  -4.4512  -4.4490  -4.4443
    -4.4426  -4.4370  -4.4367  -4.4361  -4.4212  -4.4185  -4.4175  -4.4159
    -4.4149  -4.4111  -4.4069  -4.4030  -4.3943  -4.3920  -4.3914  -4.3839
    -4.3785  -4.3770  -4.3632  -4.3583  -4.3542  -4.3499  -4.3473  -4.3463
    -4.3360  -4.3329  -4.3301  -4.3235  -4.3162  -4.3153  -4.3134  -4.3091
    -4.3076  -4.3049  -4.3019  -4.2918  -4.2859  -4.2608  -4.2524  -4.2411
    -4.2403  -4.2385  -4.2367  -4.2243  -4.2235  -4.2224  -4.2186  -4.2181
    -4.2167  -4.2055  -4.2042  -4.2033  -4.1981  -4.1885  -4.1825  -4.1781
    -4.1759  -4.1746  -4.1638  -4.1628  -4.1614  -4.1601  -4.1528  -4.1414
    -4.1390  -4.1154  -4.1142  -4.1138  -4.1128  -4.1122  -4.1091  -4.1072
    -4.1052  -4.1020  -4.0996  -4.0893  -4.0886  -4.0863  -4.0819  -4.0785
    -4.0761  -4.0718  -4.0704  -4.0679  -4.0677  -4.0579  -4.0520  -4.0502
    -4.0497  -4.0319  -4.0303  -4.0255  -4.0222  -4.0136  -4.0124  -4.0107
    -4.0092  -4.0066  -4.0056  -4.0024  -3.9990  -3.9975  -3.9770  -3.9745
    -3.9739  -3.9628  -3.9596  -3.9577  -3.9570  -3.9550  -3.9521  -3.9481
    -3.9404  -3.9386  -3.9337  -3.9296  -3.9280  -3.9273  -3.9209  -3.9171
    -3.9134  -3.9113  -3.9107  -3.9096  -3.9085  -3.9071  -3.9050  -3.9041
    -3.8998  -3.8962  -3.8914  -3.8897  -3.8869  -3.8857  -3.8846  -3.8782
    -3.8762  -3.8754  -3.8725  -3.8676  -3.8639  -3.8634  -3.8617  -3.8552
    -3.8488  -3.8462  -3.8443  -3.8359  -3.8337  -3.8274  -3.8266  -3.8262
    -3.8248  -3.8220  -3.8216  -3.8192  -3.8119  -3.8080  -3.8049  -3.8033
    -3.8024  -3.7999  -3.7963  -3.7910  -3.7905  -3.7900  -3.7890  -3.7874
    -3.7812  -3.7761  -3.7738  -3.7714  -3.7696  -3.7687  -3.7677  -3.7667
    -3.7643  -3.7640  -3.7623  -3.7604  -3.7493  -3.7478  -3.7460  -3.7407
    -3.7370  -3.7358  -3.7345  -3.7320  -3.7290  -3.7225  -3.7208  -3.7193
    -3.7132  -3.7119  -3.7068  -3.7034  -3.7019  -3.7009  -3.6885  -3.6876
    -3.6827  -3.6810  -3.6797  -3.6781  -3.6741  -3.6656  -3.6631  -3.6613
    -3.6581  -3.6578  -3.6545  -3.6514  -3.6466  -3.6387  -3.6369  -3.6316
    -3.6308  -3.6280  -3.6180  -3.6172  -3.6136  -3.6128  -3.6123  -3.6068
    -3.5997  -3.5958  -3.5927  -3.5864  -3.5779  -3.5768  -3.5679  -3.5571
    -3.5468  -3.5437  -3.5426  -3.5414  -3.5341  -3.5257  -3.5248  -3.5247
    -3.5209  -3.5108  -3.4816  -3.4572  -3.4459  -3.4388  -3.4252  -3.4246
    -3.4197  -3.3861  -3.3131  -3.1611  -3.0860  -3.0836  -3.0783  -2.8709
    -2.8163  -2.1410  -2.0120  -1.8079  -1.5990  -1.5200  -1.5184  -1.4630
    -1.3292  -1.1874  -0.7514  -0.7478  -0.7283  -0.7226  -0.5751  -0.5552
     0.0069   0.0473   0.0892   0.1025   0.1048   0.1319   0.1863   0.2573
     0.2845   0.4188   0.4724   0.4950   0.5827   0.5838   0.9132   0.9375
     1.0505   1.1328   1.5536   1.5903   1.6291   1.7601   1.8097   1.8182
     2.2000   2.2046   2.2216   2.3050   2.4658   2.7455   3.0506   3.0728
     3.0854   3.2675   3.3192   3.3891   3.4190   3.4784   3.6370   3.6703
     3.8295   3.8325   3.8839   3.9010   4.4409   4.5057   4.5127   4.6247
     4.6318   4.8035   4.8717   4.9250   4.9557   5.0637   5.0745   5.2179
     5.2801   5.3377   5.3652   5.4345   5.4720   5.4865   5.8017   5.8165
     5.8773   5.8818   5.9360   5.9439   6.1048   6.1163   6.2657   6.2795
     6.3285   6.4369   6.6332   6.6438   6.6903   6.7013   6.7093   6.7283
     6.7552   6.9586   7.0195   7.0850   7.1251   7.1856   7.3455   7.3517
     7.3792   7.3798   7.4951   7.5114   7.5155   7.5430   7.5697   7.6529
     7.6871   7.7645   7.8682   7.9691   8.0348   8.0513   8.0871   8.1161
     8.1521   8.1749   8.1825   8.2068   8.2584   8.3253   8.3637   8.3718
     8.3809   8.5305   8.6180   8.6328   8.6538   8.7262   8.7759   8.8095
     8.8719   8.9301   8.9438   9.0129   9.0821   9.1559   9.2066   9.2632
     9.3386   9.3701   9.3786   9.4272   9.4367   9.4585   9.5741   9.7303
     9.7414   9.8131   9.8183   9.8921   9.9051   9.9227   9.9606   9.9689
     9.9871  10.0004  10.0050  10.0627  10.1013  10.1135  10.2004  10.2677
    10.3208  10.3504  10.4077  10.4168  10.5732  10.5988  10.6090  10.6210
    10.6613  10.6892  10.7487  10.7563  10.7892

     occupation numbers 
     1.0000   1.0000   1.0000   1.0000   1.0000   1.0000   1.0000   1.0000
     1.0000   1.0000   1.0000   1.0000   1.0000   1.0000   1.0000   1.0000
     1.0000   1.0000   1.0000   1.0000   1.0000   1.0000   1.0000   1.0000
     1.0000   1.0000   1.0000   1.0000   1.0000   1.0000   1.0000   1.0000
     1.0000   1.0000   1.0000   1.0000   1.0000   1.0000   1.0000   1.0000
     1.0000   1.0000   1.0000   1.0000   1.0000   1.0000   1.0000   1.0000
     1.0000   1.0000   1.0000   1.0000   1.0000   1.0000   1.0000   1.0000
     1.0000   1.0000   1.0000   1.0000   1.0000   1.0000   1.0000   1.0000
     1.0000   1.0000   1.0000   1.0000   1.0000   1.0000   1.0000   1.0000
     1.0000   1.0000   1.0000   1.0000   1.0000   1.0000   1.0000   1.0000
     1.0000   1.0000   1.0000   1.0000   1.0000   1.0000   1.0000   1.0000
     1.0000   1.0000   1.0000   1.0000   1.0000   1.0000   1.0000   1.0000
     1.0000   1.0000   1.0000   1.0000   1.0000   1.0000   1.0000   1.0000
     1.0000   1.0000   1.0000   1.0000   1.0000   1.0000   1.0000   1.0000
     1.0000   1.0000   1.0000   1.0000   1.0000   1.0000   1.0000   1.0000
     1.0000   1.0000   1.0000   1.0000   1.0000   1.0000   1.0000   1.0000
     1.0000   1.0000   1.0000   1.0000   1.0000   1.0000   1.0000   1.0000
     1.0000   1.0000   1.0000   1.0000   1.0000   1.0000   1.0000   1.0000
     1.0000   1.0000   1.0000   1.0000   1.0000   1.0000   1.0000   1.0000
     1.0000   1.0000   1.0000   1.0000   1.0000   1.0000   1.0000   1.0000
     1.0000   1.0000   1.0000   1.0000   1.0000   1.0000   1.0000   1.0000
     1.0000   1.0000   1.0000   1.0000   1.0000   1.0000   1.0000   1.0000
     1.0000   1.0000   1.0000   1.0000   1.0000   1.0000   1.0000   1.0000
     1.0000   1.0000   1.0000   1.0000   1.0000   1.0000   1.0000   1.0000
     1.0000   1.0000   1.0000   1.0000   1.0000   1.0000   1.0000   1.0000
     1.0000   1.0000   1.0000   1.0000   1.0000   1.0000   1.0000   1.0000
     1.0000   1.0000   1.0000   1.0000   1.0000   1.0000   1.0000   1.0000
     1.0000   1.0000   1.0000   1.0000   1.0000   1.0000   1.0000   1.0000
     1.0000   1.0000   1.0000   1.0000   1.0000   1.0000   1.0000   1.0000
     1.0000   1.0000   1.0000   1.0000   1.0000   1.0000   1.0000   1.0000
     1.0000   1.0000   1.0000   1.0000   1.0000   1.0000   1.0000   1.0000
     1.0000   1.0000   1.0000   1.0000   1.0000   1.0000   1.0000   1.0000
     1.0000   1.0000   1.0000   1.0000   1.0000   1.0000   1.0000   1.0000
     1.0000   1.0000   1.0000   1.0000   1.0000   1.0000   1.0000   1.0000
     1.0000   1.0000   1.0000   1.0000   1.0000   1.0000   1.0000   1.0000
     1.0000   1.0000   1.0000   1.0000   1.0000   1.0000   1.0000   1.0000
     1.0000   1.0000   1.0000   1.0000   1.0000   1.0000   1.0000   1.0000
     1.0000   1.0000   1.0000   1.0000   1.0000   1.0000   1.0000   1.0000
     1.0000   1.0000   1.0000   1.0000   1.0000   1.0000   1.0000   1.0000
     1.0000   1.0000   1.0000   1.0000   1.0000   1.0000   1.0000   1.0000
     1.0000   1.0000   1.0000   1.0000   1.0000   1.0000   1.0000   1.0000
     1.0000   1.0000   1.0000   1.0000   1.0000   1.0000   1.0000   1.0000
     1.0000   1.0000   1.0000   1.0000   1.0000   1.0000   1.0000   1.0000
     1.0000   1.0000   1.0000   1.0000   1.0000   1.0000   1.0000   1.0000
     1.0000   1.0000   1.0000   1.0000   1.0000   1.0000   1.0000   1.0000
     1.0000   1.0000   1.0000   1.0000   1.0000   1.0000   1.0000   1.0000
     1.0000   1.0000   1.0000   1.0000   1.0000   1.0000   1.0000   1.0000
     1.0000   1.0000   1.0000   1.0000   1.0000   1.0000   1.0000   1.0000
     1.0000   1.0000   1.0000   1.0000   1.0000   1.0000   1.0000   1.0000
     1.0000   1.0000   1.0000   1.0000   1.0000   1.0000   1.0000   1.0000
     1.0000   1.0000   1.0000   1.0000   1.0000   1.0000   1.0000   1.0000
     1.0000   1.0000   1.0000   1.0000   1.0000   1.0000   1.0000   1.0000
     1.0000   1.0000   1.0000   1.0000   1.0000   1.0000   1.0000   1.0000
     1.0000   1.0000   1.0000   1.0000   1.0000   1.0000   1.0000   1.0000
     1.0000   1.0000   1.0000   1.0000   1.0000   1.0000   1.0000   1.0000
     1.0000   1.0000   1.0000   1.0000   1.0000   1.0000   1.0000   1.0000
     1.0000   1.0000   1.0000   1.0000   1.0000   1.0000   1.0000   1.0000
     1.0000   1.0000   1.0000   1.0000   1.0000   1.0000   1.0000   1.0000
     1.0000   1.0000   1.0000   1.0000   1.0000   1.0000   1.0000   1.0000
     1.0000   1.0000   1.0000   1.0000   1.0000   1.0000   1.0000   1.0000
     1.0000   1.0000   1.0000   1.0000   1.0000   1.0000   1.0000   1.0000
     1.0000   1.0000   1.0000   1.0000   1.0000   1.0000   1.0000   1.0000
     1.0000   1.0000   1.0000   1.0000   1.0000   1.0000   1.0000   1.0000
     1.0000   1.0000   1.0000   1.0000   1.0000   1.0000   1.0000   1.0000
     1.0000   1.0000   1.0000   1.0000   1.0000   1.0000   1.0000   1.0000
     1.0000   1.0000   1.0000   1.0000   1.0000   1.0000   1.0000   1.0000
     1.0000   1.0000   1.0000   1.0000   1.0000   1.0000   1.0000   1.0000
     1.0000   1.0000   1.0000   1.0000   1.0000   1.0000   1.0000   1.0000
     1.0000   1.0000   1.0000   1.0000   1.0000   1.0000   1.0000   1.0000
     1.0000   1.0000   1.0000   1.0000   1.0000   1.0000   1.0000   1.0000
     1.0000   1.0000   1.0000   1.0000   1.0000   1.0000   1.0000   1.0000
     1.0000   1.0000   1.0000   1.0000   1.0000   1.0000   1.0000   1.0000
     1.0000   1.0000   1.0000   1.0000   1.0000   1.0000   1.0000   1.0000
     1.0000   1.0000   1.0000   1.0000   1.0000   1.0000   1.0000   1.0000
     1.0000   1.0000   1.0000   1.0000   1.0000   1.0000   1.0000   1.0000
     1.0000   1.0000   1.0000   1.0000   1.0000   1.0000   1.0000   1.0000
     1.0000   1.0000   1.0000   1.0000   1.0000   1.0000   1.0000   1.0000
     1.0000   1.0000   1.0000   1.0000   1.0000   1.0000   1.0000   1.0000
     1.0000   1.0000   1.0000   1.0000   1.0000   1.0000   1.0000   1.0000
     1.0000   1.0000   1.0000   1.0001   1.0011   1.0386   0.9953   0.9607
     0.9382   0.4798   0.3485   0.2048   0.1573   0.0872   0.0117   0.0070
     0.0004   0.0004   0.0001   0.0001   0.0000   0.0000   0.0000   0.0000
     0.0000   0.0000   0.0000   0.0000   0.0000   0.0000   0.0000   0.0000
     0.0000   0.0000   0.0000   0.0000   0.0000   0.0000   0.0000   0.0000
     0.0000   0.0000   0.0000   0.0000   0.0000   0.0000   0.0000   0.0000
     0.0000   0.0000   0.0000   0.0000   0.0000   0.0000   0.0000   0.0000
     0.0000   0.0000   0.0000   0.0000   0.0000   0.0000   0.0000   0.0000
     0.0000   0.0000   0.0000   0.0000   0.0000   0.0000   0.0000   0.0000
     0.0000   0.0000   0.0000   0.0000   0.0000   0.0000   0.0000   0.0000
     0.0000   0.0000   0.0000   0.0000   0.0000   0.0000   0.0000   0.0000
     0.0000   0.0000   0.0000   0.0000   0.0000   0.0000   0.0000   0.0000
     0.0000   0.0000   0.0000   0.0000   0.0000   0.0000   0.0000   0.0000
     0.0000   0.0000   0.0000   0.0000   0.0000   0.0000   0.0000   0.0000
     0.0000   0.0000   0.0000   0.0000   0.0000   0.0000   0.0000   0.0000
     0.0000   0.0000   0.0000   0.0000   0.0000   0.0000   0.0000   0.0000
     0.0000   0.0000   0.0000   0.0000   0.0000   0.0000   0.0000   0.0000
     0.0000   0.0000   0.0000   0.0000   0.0000

          k =-0.5000-0.4660-0.2690 ( 44068 PWs)   bands (ev):

  -123.4352-123.4335-123.4316-123.4296-123.4288-123.4273-123.4259-123.4247
  -123.4121-123.4087-123.4083-123.4075-123.3675-123.3669-123.3621-123.3592
  -123.3571-123.3549-123.3537-123.3523-123.3159-123.3144-123.3136-123.3101
  -123.2604-123.2596-123.2591-123.2581-123.2567-123.2562-123.2559-123.2552
  -123.2408-123.2389-123.2384-123.2376-123.2351-123.2333-123.2304-123.2293
  -123.2290-123.2272-123.2056-123.1991-123.1267-123.1243-123.1232-123.1222
  -123.1205-123.1196-123.1190-123.1186-123.1181-123.1179-123.1175-123.1139
  -123.1128-123.1023-123.1007-123.0429-123.0349-123.0333-123.0303-123.0086
   -77.5310 -77.5293 -77.5272 -77.5270 -77.5255 -77.5249 -77.5243 -77.5231
   -77.5219 -77.5215 -77.5210 -77.5194 -77.5182 -77.5170 -77.5157 -77.5147
   -77.5130 -77.5128 -77.5120 -77.5107 -77.5103 -77.5095 -77.5092 -77.5083
   -77.5049 -77.5046 -77.5030 -77.5028 -77.5015 -77.4989 -77.4951 -77.4925
   -77.4899 -77.4893 -77.4822 -77.4808 -77.4669 -77.4634 -77.4562 -77.4552
   -77.4542 -77.4533 -77.4499 -77.4490 -77.4484 -77.4460 -77.4455 -77.4442
   -77.4435 -77.4423 -77.4413 -77.4404 -77.4400 -77.4394 -77.4379 -77.4369
   -77.4354 -77.4345 -77.4334 -77.4328 -77.4087 -77.4073 -77.4071 -77.4065
   -77.4057 -77.4053 -77.4044 -77.4042 -77.4014 -77.4012 -77.3847 -77.3824
   -77.3610 -77.3602 -77.3584 -77.3579 -77.3528 -77.3510 -77.3504 -77.3499
   -77.3496 -77.3488 -77.3486 -77.3474 -77.3472 -77.3469 -77.3464 -77.3458
   -77.3442 -77.3432 -77.3426 -77.3416 -77.3408 -77.3401 -77.3393 -77.3390
   -77.3388 -77.3383 -77.3383 -77.3374 -77.3369 -77.3363 -77.3344 -77.3320
   -77.3318 -77.3309 -77.3293 -77.3242 -77.3240 -77.3233 -77.3215 -77.3202
   -77.3191 -77.3182 -77.3177 -77.3162 -77.3157 -77.3140 -77.3134 -77.3104
   -77.3082 -77.3054 -77.3037 -77.3030 -77.3024 -77.2962 -77.2940 -77.2935
   -77.2923 -77.2918 -77.2876 -77.2756 -77.2373 -77.2312 -77.2296 -77.2238
   -77.2207 -77.2202 -77.2191 -77.2189 -77.2187 -77.2182 -77.2175 -77.2168
   -77.2164 -77.2155 -77.2152 -77.2139 -77.2134 -77.2121 -77.2116 -77.2098
   -77.2085 -77.2081 -77.2070 -77.2039 -77.2034 -77.2033 -77.2019 -77.1998
   -77.1996 -77.1995 -77.1992 -77.1987 -77.1985 -77.1978 -77.1964 -77.1945
   -77.1943 -77.1923 -77.1909 -77.1866 -77.1835 -77.1823 -77.1809 -77.1800
   -77.1667 -77.1362 -77.1339 -77.1329 -77.1305 -77.1253 -77.1252 -77.1239
   -77.1237 -77.1208 -77.1203 -77.1139 -77.1074 -77.1059 -77.1045 -77.0940
   -19.2537  -6.8579  -5.8716  -5.8696  -5.7412  -5.7361  -5.0920  -5.0733
    -5.0626  -5.0578  -4.9187  -4.9158  -4.9028  -4.9017  -4.9008  -4.9004
    -4.8999  -4.8987  -4.8611  -4.8593  -4.8425  -4.8405  -4.8343  -4.8341
    -4.8213  -4.8188  -4.7886  -4.7833  -4.7822  -4.7816  -4.7804  -4.7781
    -4.7772  -4.7761  -4.7518  -4.7509  -4.7278  -4.7262  -4.6773  -4.6730
    -4.6641  -4.6611  -4.6569  -4.6531  -4.6448  -4.6434  -4.6349  -4.6337
    -4.6318  -4.6301  -4.6185  -4.6105  -4.6068  -4.6059  -4.6043  -4.5991
    -4.5964  -4.5938  -4.5843  -4.5819  -4.5795  -4.5781  -4.5547  -4.5514
    -4.5471  -4.5429  -4.5222  -4.5013  -4.4962  -4.4943  -4.4926  -4.4912
    -4.4771  -4.4699  -4.4681  -4.4661  -4.4638  -4.4540  -4.4499  -4.4495
    -4.4369  -4.4321  -4.4296  -4.4295  -4.4274  -4.4257  -4.4243  -4.4228
    -4.4139  -4.4112  -4.4099  -4.4077  -4.4021  -4.4019  -4.3930  -4.3910
    -4.3895  -4.3828  -4.3806  -4.3776  -4.3721  -4.3700  -4.3670  -4.3654
    -4.3651  -4.3615  -4.3545  -4.3523  -4.3474  -4.3308  -4.3224  -4.3207
    -4.3129  -4.3120  -4.3112  -4.3102  -4.2941  -4.2913  -4.2906  -4.2885
    -4.2817  -4.2811  -4.2721  -4.2683  -4.2501  -4.2489  -4.2431  -4.2366
    -4.2333  -4.2305  -4.2186  -4.2131  -4.2059  -4.1987  -4.1976  -4.1975
    -4.1963  -4.1923  -4.1880  -4.1717  -4.1709  -4.1701  -4.1563  -4.1488
    -4.1371  -4.1316  -4.1293  -4.1241  -4.1211  -4.1202  -4.1132  -4.1117
    -4.1104  -4.1087  -4.1043  -4.1037  -4.1009  -4.0988  -4.0968  -4.0963
    -4.0839  -4.0817  -4.0750  -4.0654  -4.0621  -4.0583  -4.0449  -4.0405
    -4.0314  -4.0276  -4.0261  -4.0250  -4.0240  -4.0197  -4.0170  -4.0162
    -4.0106  -4.0036  -3.9851  -3.9844  -3.9838  -3.9836  -3.9744  -3.9730
    -3.9663  -3.9637  -3.9503  -3.9485  -3.9437  -3.9403  -3.9377  -3.9346
    -3.9344  -3.9332  -3.9307  -3.9252  -3.9236  -3.9153  -3.9103  -3.9090
    -3.9063  -3.9053  -3.9023  -3.8917  -3.8896  -3.8837  -3.8834  -3.8826
    -3.8809  -3.8780  -3.8773  -3.8759  -3.8752  -3.8647  -3.8611  -3.8589
    -3.8536  -3.8437  -3.8377  -3.8368  -3.8345  -3.8319  -3.8307  -3.8283
    -3.8263  -3.8250  -3.8215  -3.8192  -3.8187  -3.8180  -3.8155  -3.8139
    -3.8102  -3.8079  -3.8041  -3.8020  -3.7931  -3.7899  -3.7886  -3.7873
    -3.7857  -3.7852  -3.7833  -3.7816  -3.7797  -3.7769  -3.7703  -3.7692
    -3.7687  -3.7589  -3.7579  -3.7500  -3.7483  -3.7471  -3.7439  -3.7418
    -3.7401  -3.7386  -3.7342  -3.7292  -3.7271  -3.7265  -3.7244  -3.7227
    -3.7158  -3.7151  -3.7138  -3.7059  -3.7045  -3.7028  -3.7015  -3.6999
    -3.6983  -3.6940  -3.6933  -3.6923  -3.6916  -3.6892  -3.6851  -3.6834
    -3.6788  -3.6739  -3.6732  -3.6708  -3.6672  -3.6649  -3.6626  -3.6559
    -3.6487  -3.6454  -3.6427  -3.6416  -3.6403  -3.6353  -3.6336  -3.6325
    -3.6319  -3.6294  -3.6290  -3.6285  -3.6267  -3.6226  -3.6214  -3.6184
    -3.6168  -3.6144  -3.6110  -3.6009  -3.5905  -3.5866  -3.5795  -3.5791
    -3.5678  -3.5662  -3.5630  -3.5557  -3.5549  -3.5485  -3.5406  -3.5386
    -3.5245  -3.5197  -3.5192  -3.5045  -3.5013  -3.5000  -3.4921  -3.4909
    -3.4843  -3.4816  -3.2274  -2.5725  -2.5310  -2.4702  -2.4603  -2.3814
    -2.3810  -2.2505  -2.2478  -1.7566  -1.7560  -1.7039  -1.6082  -1.5599
    -1.5154  -1.4709  -1.4698  -1.3958  -1.0283  -0.9542  -0.9413  -0.8870
    -0.4605  -0.4052  -0.3956  -0.3901   0.0642   0.0997   0.1506   0.1525
     0.5107   0.5845   0.7750   0.7863   0.9137   0.9153   1.1100   1.1180
     1.6539   1.6839   1.7406   1.7445   1.9383   1.9702   2.0899   2.1012
     2.1683   2.1998   2.2018   2.2340   2.6282   2.6287   2.6394   2.6564
     3.0785   3.0936   3.2243   3.2264   3.3497   3.3569   3.4544   3.4619
     4.2586   4.2811   4.3090   4.3228   4.6910   4.7120   4.7714   4.7961
     4.8025   4.8074   4.8492   4.8529   4.9238   4.9324   5.1424   5.2161
     5.2642   5.3023   5.5731   5.5769   5.5835   5.6060   5.6338   5.6464
     5.6783   5.7157   5.8728   5.8755   6.0647   6.0772   6.1094   6.1449
     6.1559   6.5777   6.7075   6.7120   6.7655   6.8207   6.8369   6.8394
     7.0089   7.0472   7.0829   7.1173   7.1267   7.1435   7.1905   7.2161
     7.2877   7.2923   7.4108   7.4151   7.4398   7.4749   7.5689   7.5891
     7.6272   7.6605   7.7578   7.8003   7.8061   7.8243   7.9037   7.9169
     7.9249   7.9409   7.9904   8.0625   8.0651   8.1741   8.2002   8.2595
     8.3291   8.3961   8.4553   8.4655   8.5205   8.5333   8.5443   8.5898
     8.5969   8.6412   8.7734   8.8848   9.0059   9.0743   9.1234   9.1296
     9.1910   9.2129   9.2484   9.3245   9.3449   9.4010   9.4853   9.5026
     9.5713   9.6875   9.8501   9.9036   9.9258   9.9786   9.9823  10.0008
    10.0184  10.0387  10.1303  10.1923  10.2150  10.2461  10.2584  10.2776
    10.2850  10.3134  10.3190  10.3370  10.3530  10.3728  10.4048  10.4813
    10.5054  10.5073  10.6467  10.6509  10.9181

     occupation numbers 
     1.0000   1.0000   1.0000   1.0000   1.0000   1.0000   1.0000   1.0000
     1.0000   1.0000   1.0000   1.0000   1.0000   1.0000   1.0000   1.0000
     1.0000   1.0000   1.0000   1.0000   1.0000   1.0000   1.0000   1.0000
     1.0000   1.0000   1.0000   1.0000   1.0000   1.0000   1.0000   1.0000
     1.0000   1.0000   1.0000   1.0000   1.0000   1.0000   1.0000   1.0000
     1.0000   1.0000   1.0000   1.0000   1.0000   1.0000   1.0000   1.0000
     1.0000   1.0000   1.0000   1.0000   1.0000   1.0000   1.0000   1.0000
     1.0000   1.0000   1.0000   1.0000   1.0000   1.0000   1.0000   1.0000
     1.0000   1.0000   1.0000   1.0000   1.0000   1.0000   1.0000   1.0000
     1.0000   1.0000   1.0000   1.0000   1.0000   1.0000   1.0000   1.0000
     1.0000   1.0000   1.0000   1.0000   1.0000   1.0000   1.0000   1.0000
     1.0000   1.0000   1.0000   1.0000   1.0000   1.0000   1.0000   1.0000
     1.0000   1.0000   1.0000   1.0000   1.0000   1.0000   1.0000   1.0000
     1.0000   1.0000   1.0000   1.0000   1.0000   1.0000   1.0000   1.0000
     1.0000   1.0000   1.0000   1.0000   1.0000   1.0000   1.0000   1.0000
     1.0000   1.0000   1.0000   1.0000   1.0000   1.0000   1.0000   1.0000
     1.0000   1.0000   1.0000   1.0000   1.0000   1.0000   1.0000   1.0000
     1.0000   1.0000   1.0000   1.0000   1.0000   1.0000   1.0000   1.0000
     1.0000   1.0000   1.0000   1.0000   1.0000   1.0000   1.0000   1.0000
     1.0000   1.0000   1.0000   1.0000   1.0000   1.0000   1.0000   1.0000
     1.0000   1.0000   1.0000   1.0000   1.0000   1.0000   1.0000   1.0000
     1.0000   1.0000   1.0000   1.0000   1.0000   1.0000   1.0000   1.0000
     1.0000   1.0000   1.0000   1.0000   1.0000   1.0000   1.0000   1.0000
     1.0000   1.0000   1.0000   1.0000   1.0000   1.0000   1.0000   1.0000
     1.0000   1.0000   1.0000   1.0000   1.0000   1.0000   1.0000   1.0000
     1.0000   1.0000   1.0000   1.0000   1.0000   1.0000   1.0000   1.0000
     1.0000   1.0000   1.0000   1.0000   1.0000   1.0000   1.0000   1.0000
     1.0000   1.0000   1.0000   1.0000   1.0000   1.0000   1.0000   1.0000
     1.0000   1.0000   1.0000   1.0000   1.0000   1.0000   1.0000   1.0000
     1.0000   1.0000   1.0000   1.0000   1.0000   1.0000   1.0000   1.0000
     1.0000   1.0000   1.0000   1.0000   1.0000   1.0000   1.0000   1.0000
     1.0000   1.0000   1.0000   1.0000   1.0000   1.0000   1.0000   1.0000
     1.0000   1.0000   1.0000   1.0000   1.0000   1.0000   1.0000   1.0000
     1.0000   1.0000   1.0000   1.0000   1.0000   1.0000   1.0000   1.0000
     1.0000   1.0000   1.0000   1.0000   1.0000   1.0000   1.0000   1.0000
     1.0000   1.0000   1.0000   1.0000   1.0000   1.0000   1.0000   1.0000
     1.0000   1.0000   1.0000   1.0000   1.0000   1.0000   1.0000   1.0000
     1.0000   1.0000   1.0000   1.0000   1.0000   1.0000   1.0000   1.0000
     1.0000   1.0000   1.0000   1.0000   1.0000   1.0000   1.0000   1.0000
     1.0000   1.0000   1.0000   1.0000   1.0000   1.0000   1.0000   1.0000
     1.0000   1.0000   1.0000   1.0000   1.0000   1.0000   1.0000   1.0000
     1.0000   1.0000   1.0000   1.0000   1.0000   1.0000   1.0000   1.0000
     1.0000   1.0000   1.0000   1.0000   1.0000   1.0000   1.0000   1.0000
     1.0000   1.0000   1.0000   1.0000   1.0000   1.0000   1.0000   1.0000
     1.0000   1.0000   1.0000   1.0000   1.0000   1.0000   1.0000   1.0000
     1.0000   1.0000   1.0000   1.0000   1.0000   1.0000   1.0000   1.0000
     1.0000   1.0000   1.0000   1.0000   1.0000   1.0000   1.0000   1.0000
     1.0000   1.0000   1.0000   1.0000   1.0000   1.0000   1.0000   1.0000
     1.0000   1.0000   1.0000   1.0000   1.0000   1.0000   1.0000   1.0000
     1.0000   1.0000   1.0000   1.0000   1.0000   1.0000   1.0000   1.0000
     1.0000   1.0000   1.0000   1.0000   1.0000   1.0000   1.0000   1.0000
     1.0000   1.0000   1.0000   1.0000   1.0000   1.0000   1.0000   1.0000
     1.0000   1.0000   1.0000   1.0000   1.0000   1.0000   1.0000   1.0000
     1.0000   1.0000   1.0000   1.0000   1.0000   1.0000   1.0000   1.0000
     1.0000   1.0000   1.0000   1.0000   1.0000   1.0000   1.0000   1.0000
     1.0000   1.0000   1.0000   1.0000   1.0000   1.0000   1.0000   1.0000
     1.0000   1.0000   1.0000   1.0000   1.0000   1.0000   1.0000   1.0000
     1.0000   1.0000   1.0000   1.0000   1.0000   1.0000   1.0000   1.0000
     1.0000   1.0000   1.0000   1.0000   1.0000   1.0000   1.0000   1.0000
     1.0000   1.0000   1.0000   1.0000   1.0000   1.0000   1.0000   1.0000
     1.0000   1.0000   1.0000   1.0000   1.0000   1.0000   1.0000   1.0000
     1.0000   1.0000   1.0000   1.0000   1.0000   1.0000   1.0000   1.0000
     1.0000   1.0000   1.0000   1.0000   1.0000   1.0000   1.0000   1.0000
     1.0000   1.0000   1.0000   1.0000   1.0000   1.0000   1.0000   1.0000
     1.0000   1.0000   1.0000   1.0000   1.0000   1.0000   1.0000   1.0000
     1.0000   1.0000   1.0000   1.0000   1.0000   1.0000   1.0000   1.0000
     1.0000   1.0000   1.0000   1.0000   1.0000   1.0000   1.0000   1.0000
     1.0000   1.0000   1.0000   1.0000   1.0000   1.0000   1.0000   1.0000
     1.0000   1.0000   1.0000   1.0000   1.0000   1.0000   1.0000   1.0000
     1.0000   1.0000   1.0000   1.0000   1.0000   1.0000   1.0000   1.0000
     1.0000   1.0000   1.0000   1.0000   1.0000   1.0000   1.0000   1.0000
     1.0000   1.0000   1.0000   1.0000   1.0000   1.0000   1.0000   1.0000
     1.0000   1.0000   1.0000   1.0000   1.0000   1.0000   1.0000   1.0000
     1.0000   1.0000   1.0000   1.0000   1.0000   1.0000   1.0000   1.0000
     1.0000   1.0000   1.0000   1.0000   1.0000   1.0000   1.0000   1.0000
     1.0000   1.0000   1.0000   1.0000   1.0000   1.0000   1.0000   1.0000
     1.0000   1.0000   1.0000   1.0000   1.0000   1.0000   1.0000   1.0000
     1.0000   1.0000   1.0000   1.0000   1.0000   1.0000   1.0000   1.0000
     1.0000   1.0000   1.0000   1.0000   1.0000   1.0000   1.0000   1.0000
     1.0000   1.0000   1.0000   1.0000   1.0118   1.0119   1.0135   1.0164
     0.9508   0.9227   0.5980   0.5924   0.2804   0.2654   0.1119   0.1037
     0.0000   0.0000   0.0000   0.0000   0.0000   0.0000   0.0000   0.0000
     0.0000   0.0000   0.0000   0.0000   0.0000   0.0000   0.0000   0.0000
     0.0000   0.0000   0.0000   0.0000   0.0000   0.0000   0.0000   0.0000
     0.0000   0.0000   0.0000   0.0000   0.0000   0.0000   0.0000   0.0000
     0.0000   0.0000   0.0000   0.0000   0.0000   0.0000   0.0000   0.0000
     0.0000   0.0000   0.0000   0.0000   0.0000   0.0000   0.0000   0.0000
     0.0000   0.0000   0.0000   0.0000   0.0000   0.0000   0.0000   0.0000
     0.0000   0.0000   0.0000   0.0000   0.0000   0.0000   0.0000   0.0000
     0.0000   0.0000   0.0000   0.0000   0.0000   0.0000   0.0000   0.0000
     0.0000   0.0000   0.0000   0.0000   0.0000   0.0000   0.0000   0.0000
     0.0000   0.0000   0.0000   0.0000   0.0000   0.0000   0.0000   0.0000
     0.0000   0.0000   0.0000   0.0000   0.0000   0.0000   0.0000   0.0000
     0.0000   0.0000   0.0000   0.0000   0.0000   0.0000   0.0000   0.0000
     0.0000   0.0000   0.0000   0.0000   0.0000   0.0000   0.0000   0.0000
     0.0000   0.0000   0.0000   0.0000   0.0000   0.0000   0.0000   0.0000
     0.0000   0.0000   0.0000   0.0000   0.0000

     the Fermi energy is     3.2979 ev

[...]
     atom   50 type  1   force =     0.00000000    0.00000000    0.00000000
     atom   51 type  1   force =     0.00000000    0.00000000    0.00000000
     atom   52 type  1   force =     0.00000000    0.00000000    0.00000000
     atom   53 type  1   force =     0.00000000    0.00000000    0.00000000
     atom   54 type  1   force =     0.00000000    0.00000000    0.00000000
     atom   55 type  1   force =     0.00000000    0.00000000    0.00000000
     atom   56 type  1   force =     0.00000000    0.00000000    0.00000000
     atom   57 type  1   force =     0.00000000    0.00000000    0.00000000
     atom   58 type  1   force =     0.00000000    0.00000000    0.00000000
     atom   59 type  1   force =     0.00000000    0.00000000    0.00000000
     atom   60 type  1   force =     0.00000000    0.00000000    0.00000000
     atom   61 type  1   force =     0.00000000    0.00000000    0.00000000
     atom   62 type  1   force =     0.00000000    0.00000000    0.00000000
     atom   63 type  1   force =     0.00000000    0.00000000    0.00000000
     atom   64 type  1   force =     0.00000000    0.00000000    0.00000000
     atom   65 type  2   force =     0.00000000    0.00000000    0.00000000
     atom   66 type  3   force =     0.00000000    0.00000000    0.00000000
     atom   67 type  3   force =     0.00000000    0.00000000    0.00000000
     The SCF correction term to forces
     atom    1 type  1   force =    -0.00000000    0.00000000    0.00000000
     atom    2 type  1   force =    -0.00000000   -0.00000000    0.00000000
     atom    3 type  1   force =    -0.00000000    0.00000000   -0.00000000
     atom    4 type  1   force =    -0.00000000   -0.00000000    0.00000000
     atom    5 type  1   force =     0.00001976    0.00007323    0.00000449
     atom    6 type  1   force =     0.00001332   -0.00006955   -0.00001078
     atom    7 type  1   force =     0.00002955   -0.00005016    0.00000000
     atom    8 type  1   force =     0.00000813    0.00004372   -0.00005385
     atom    9 type  1   force =    -0.00000000   -0.00000000    0.00000000
     atom   10 type  1   force =    -0.00000000    0.00000000    0.00000000
     atom   11 type  1   force =    -0.00000000   -0.00000000    0.00000000
     atom   12 type  1   force =    -0.00000000    0.00000000    0.00000000
     atom   13 type  1   force =    -0.00000017    0.00008006   -0.00006164
     atom   14 type  1   force =     0.00000580   -0.00008116    0.00006028
     atom   15 type  1   force =     0.00001626    0.00002100   -0.00002615
     atom   16 type  1   force =     0.00001358   -0.00001215   -0.00002182
     atom   17 type  1   force =     0.00000000    0.00000000   -0.00000000
     atom   18 type  1   force =     0.00000000   -0.00000000   -0.00000000
     atom   19 type  1   force =     0.00000000    0.00000000   -0.00000000
     atom   20 type  1   force =     0.00000000   -0.00000000   -0.00000000
     atom   21 type  1   force =    -0.00002767    0.00004871    0.00002213
     atom   22 type  1   force =    -0.00002237   -0.00004697    0.00005213
     atom   23 type  1   force =    -0.00004484   -0.00004433    0.00010472
     atom   24 type  1   force =    -0.00001783    0.00005206    0.00000955
     atom   25 type  1   force =     0.00000000   -0.00000000   -0.00000000
     atom   26 type  1   force =     0.00000000    0.00000000   -0.00000000
     atom   27 type  1   force =     0.00000000   -0.00000000   -0.00000000
     atom   28 type  1   force =     0.00000000    0.00000000   -0.00000000
     atom   29 type  1   force =    -0.00000341    0.00008358   -0.00001998
     atom   30 type  1   force =    -0.00001117   -0.00008502    0.00007100
     atom   31 type  1   force =    -0.00003207    0.00001646    0.00007881
     atom   32 type  1   force =    -0.00002518   -0.00001767    0.00005881
     atom   33 type  1   force =    -0.00000000    0.00000000   -0.00000000
     atom   34 type  1   force =    -0.00000000   -0.00000000   -0.00000000
     atom   35 type  1   force =    -0.00000000    0.00000000    0.00000000
     atom   36 type  1   force =    -0.00000000   -0.00000000    0.00000000
     atom   37 type  1   force =    -0.00013785   -0.00000809    0.00008363
     atom   38 type  1   force =    -0.00012997    0.00003222   -0.00002066
     atom   39 type  1   force =    -0.00010082   -0.00003089    0.00005191
     atom   40 type  1   force =    -0.00009257    0.00004724   -0.00000292
     atom   41 type  1   force =    -0.00000000   -0.00000000    0.00000000
     atom   42 type  1   force =    -0.00000000    0.00000000   -0.00000000
     atom   43 type  1   force =    -0.00000000    0.00000000   -0.00000000
     atom   44 type  1   force =    -0.00000000   -0.00000000    0.00000000
     atom   45 type  1   force =    -0.00014129    0.00007323   -0.00001690
     atom   46 type  1   force =    -0.00013258   -0.00009592    0.00005758
     atom   47 type  1   force =    -0.00009914   -0.00003533    0.00005237
     atom   48 type  1   force =    -0.00008771    0.00002206   -0.00001331
     atom   49 type  1   force =     0.00000000    0.00000000   -0.00000000
     atom   50 type  1   force =     0.00000000   -0.00000000   -0.00000000
     atom   51 type  1   force =     0.00000000    0.00000000   -0.00000000
     atom   52 type  1   force =     0.00000000   -0.00000000   -0.00000000
     atom   53 type  1   force =     0.00015028   -0.00003550    0.00004568
     atom   54 type  1   force =     0.00014346    0.00000898   -0.00004291
     atom   55 type  1   force =     0.00009752   -0.00005444    0.00004181
     atom   56 type  1   force =     0.00008843    0.00005570    0.00000343
     atom   57 type  1   force =     0.00000000   -0.00000000    0.00000000
     atom   58 type  1   force =     0.00000000    0.00000000   -0.00000000
     atom   59 type  1   force =     0.00000000    0.00000000   -0.00000000
     atom   60 type  1   force =     0.00000000   -0.00000000   -0.00000000
     atom   61 type  1   force =     0.00015232    0.00010699   -0.00004601
     atom   62 type  1   force =     0.00014673   -0.00008024    0.00003454
     atom   63 type  1   force =     0.00009769   -0.00001509    0.00005205
     atom   64 type  1   force =     0.00008398    0.00001941    0.00000342
     atom   65 type  2   force =     0.00000242    0.00000583    0.00001070
     atom   66 type  3   force =     0.00000079    0.00000087    0.00000100
     atom   67 type  3   force =    -0.00000024   -0.00000002    0.00000126

     Total force =     0.001553     Total SCF correction =     0.000638
     SCF correction compared to forces is large: reduce conv_thr to get better values


     Computing stress (Cartesian axis) and pressure


     negative rho (up, down):  1.284E-02 0.000E+00
          total   stress  (Ry/bohr**3)                   (kbar)     P=     -306.34
  -0.00218056   0.00000056   0.00000036         -320.77        0.08        0.05
   0.00000056  -0.00210245  -0.00000301            0.08     -309.28       -0.44
   0.00000036  -0.00000301  -0.00196439            0.05       -0.44     -288.97

     kinetic stress (kbar)  16131.78     -5.32     -2.21
                               -5.32  16096.41      5.23
                               -2.21      5.23  16182.38

     local   stress (kbar)**********    -12.48    -87.15
                              -12.48**********     47.56
                              -87.15     47.561272933.01

     nonloc. stress (kbar)  -1961.80      0.06      0.01
                                0.06  -1926.81     -0.18
                                0.01     -0.18  -1976.71

     hartree stress (kbar) 664459.08      2.15     36.94
                                2.15 672914.41    -17.33
                               36.94    -17.33-592660.53

     exc-cor stress (kbar)  -8033.59      0.06      0.04
                                0.06  -8029.32     -0.07
                                0.04     -0.07  -8037.31

     corecor stress (kbar)     -3.72      0.01      0.00
                                0.01     -3.73     -0.01
                                0.00     -0.01     -3.87

     ewald   stress (kbar) 585674.29     15.61     52.41
                               15.61 596631.59    -35.63
                               52.41    -35.63-686725.94

     hubbard stress (kbar)      0.00      0.00      0.00
                                0.00      0.00      0.00
                                0.00      0.00      0.00

     DFT-D   stress (kbar)      0.00      0.00      0.00
                                0.00      0.00      0.00
                                0.00      0.00      0.00

     XDM     stress (kbar)      0.00      0.00      0.00
                                0.00      0.00      0.00
                                0.00      0.00      0.00

     dft-nl  stress (kbar)      0.00      0.00      0.00
                                0.00      0.00      0.00
                                0.00      0.00      0.00

     TS-vdW  stress (kbar)      0.00      0.00      0.00
                                0.00      0.00      0.00
                                0.00      0.00      0.00

     MDB     stress (kbar)      0.00      0.00      0.00
                                0.00      0.00      0.00
                                0.00      0.00      0.00

     3D-RISM stress (kbar)      0.00      0.00      0.00
                                0.00      0.00      0.00
                                0.00      0.00      0.00

     Energy error            =      7.7E-06 Ry
     Gradient error          =      4.0E-04 Ry/Bohr

     bfgs converged in  75 scf cycles and  74 bfgs steps
     (criteria: energy <  1.0E-05 Ry, force <  5.0E-04 Ry/Bohr)

     End of BFGS Geometry Optimization

     Final energy             =  -29579.1533131766 Ry

     File ./tmp/Zn100_optimized_topsite_H2O.bfgs deleted, as requested
Begin final coordinates

ATOMIC_POSITIONS (angstrom)
Zn               1.2182902100        1.3071799380        0.7547006810    0   0   0
Zn               1.2182902100        6.5358996490        0.7547006810    0   0   0
Zn               1.2182902100        0.0000000010        3.0188027470    0   0   0
Zn               1.2182902100        5.2287197120        3.0188027470    0   0   0
Zn               1.1952989249       -1.3093500302        5.5775022400
Zn               1.2017604257        3.9206188983        5.5803554256
Zn               1.2509386111       -2.6168391351        8.1485333534
Zn               1.2486459596        2.6134257341        8.1414723987
Zn               1.2182902100        3.9215397940        0.7547006810    0   0   0
Zn               1.2182902100        9.1502595050        0.7547006810    0   0   0
Zn               1.2182902100        2.6143598570        3.0188027470    0   0   0
Zn               1.2182902100        7.8430795680        3.0188027470    0   0   0
Zn               1.1994865174        1.3053102759        5.5784064135
Zn               1.1964088603        6.5348063741        5.5752627071
Zn               1.2515520148        0.0025060376        8.1448921921
Zn               1.2464042423        5.2224613015        8.1429398397
Zn               6.0914510490        1.3071799380        0.7547006810    0   0   0
Zn               6.0914510490        6.5358996490        0.7547006810    0   0   0
Zn               6.0914510490        0.0000000010        3.0188027470    0   0   0
Zn               6.0914510490        5.2287197120        3.0188027470    0   0   0
Zn               6.0579316067       -1.3057241169        6.1741534523
Zn               6.0652875914        3.9158849219        6.1331922994
Zn               6.1370036548       -2.6179207381        8.8604210556
Zn               6.1274398026        2.6174782562        9.1362806977
Zn               6.0914510490        3.9215397940        0.7547006810    0   0   0
Zn               6.0914510490        9.1502595050        0.7547006810    0   0   0
Zn               6.0914510490        2.6143598570        3.0188027470    0   0   0
Zn               6.0914510490        7.8430795680        3.0188027470    0   0   0
Zn               6.0640997386        1.3198701592        6.2030667164
Zn               6.0602769788        6.5295145810        6.1658033124
Zn               6.1353611205       -0.0102253445        8.8352686662
Zn               6.1283929714        5.2311624557        8.8796777939
Zn               3.6548706290       -0.0000000190        1.5094013850    0   0   0
Zn               3.6548706290        5.2287196920        1.5094013850    0   0   0
Zn               3.6548706290       -1.3071799560        3.7735034500    0   0   0
Zn               3.6548706290        3.9215397550        3.7735034500    0   0   0
Zn               3.6141767685       -2.6150937188        6.1060336108
Zn               3.6215431614        2.6138898387        6.1034318122
Zn               3.7178562740       -3.9222858760        8.5322239150
Zn               3.7490829140        1.3111595206        8.5310948091
Zn               3.6548706290        2.6143598370        1.5094013850    0   0   0
Zn               3.6548706290        7.8430795480        1.5094013850    0   0   0
Zn               3.6548706290        1.3071799000        3.7735034500    0   0   0
Zn               3.6548706290        6.5358996110        3.7735034500    0   0   0
Zn               3.6113543845        0.0020963520        6.1123404908
Zn               3.6147062348        5.2248896214        6.1118259084
Zn               3.7112737249       -1.3078149146        8.5320994017
Zn               3.7461229071        3.9142964287        8.5364412099
Zn               8.5280314680       -0.0000000190        1.5094013850    0   0   0
Zn               8.5280314680        5.2287196920        1.5094013850    0   0   0
Zn               8.5280314680       -1.3071799560        3.7735034500    0   0   0
Zn               8.5280314680        3.9215397550        3.7735034500    0   0   0
Zn               8.5014010652       -2.6158150889        6.1079680368
Zn               8.5112614308        2.6134067927        6.0989286073
Zn               8.5471774983       -3.9234079513        8.5293582394
Zn               8.5170487664        1.3109241112        8.5123497121
Zn               8.5280314680        2.6143598370        1.5094013850    0   0   0
Zn               8.5280314680        7.8430795480        1.5094013850    0   0   0
Zn               8.5280314680        1.3071799000        3.7735034500    0   0   0
Zn               8.5280314680        6.5358996110        3.7735034500    0   0   0
Zn               8.5096719268        0.0016786571        6.1090760225
Zn               8.5131835192        5.2255365655        6.1130624135
Zn               8.5553833072       -1.3074580574        8.5264135060
Zn               8.5038276038        3.9133269785        8.5215370364
O                6.2198993889        2.4924296941       11.5601009982
H                7.1688681654        2.3422714050       11.7631138905
H                5.7821380724        1.6454482328       11.7951646377
End final coordinates



     Writing all to output data dir ./tmp/Zn100_optimized_topsite_H2O.save/ :
     XML data file, charge density, pseudopotentials, collected wavefunctions

     init_run     :     52.81s CPU     53.24s WALL (       1 calls)
     electrons    :   3893.82s CPU   3931.06s WALL (       2 calls)
     update_pot   :      0.07s CPU      0.07s WALL (       1 calls)
     forces       :     90.91s CPU     91.42s WALL (       2 calls)
     stress       :    248.38s CPU    249.26s WALL (       2 calls)

     Called by init_run:
     wfcinit      :     52.05s CPU     52.46s WALL (       1 calls)
     wfcinit:atom :      0.03s CPU      0.05s WALL (       4 calls)
     wfcinit:wfcr :     51.65s CPU     51.99s WALL (       4 calls)
     potinit      :      0.06s CPU      0.06s WALL (       1 calls)
     hinit0       :      0.32s CPU      0.33s WALL (       1 calls)

     Called by electrons:
     c_bands      :   3728.74s CPU   3764.82s WALL (      13 calls)
     sum_band     :    160.40s CPU    161.40s WALL (      13 calls)
     v_of_rho     :      0.27s CPU      0.29s WALL (      14 calls)
     v_h          :      0.01s CPU      0.02s WALL (      14 calls)
     v_xc         :      0.33s CPU      0.36s WALL (      18 calls)
     newd         :      4.50s CPU      4.53s WALL (      14 calls)
     PAW_pot      :      0.51s CPU      0.51s WALL (      15 calls)
     mix_rho      :      0.06s CPU      0.09s WALL (      13 calls)

     Called by c_bands:
     init_us_2    :      1.98s CPU      1.99s WALL (     127 calls)
     cegterg      :   3725.11s CPU   3760.90s WALL (      54 calls)

     Called by sum_band:
     sum_band:wei :      0.03s CPU      0.03s WALL (      13 calls)
     sum_band:loo :    156.70s CPU    157.68s WALL (      13 calls)
     sum_band:buf :      0.39s CPU      0.40s WALL (      52 calls)
     sum_band:ini :      0.86s CPU      0.86s WALL (      52 calls)
     sum_band:cal :    150.80s CPU    151.70s WALL (      56 calls)
     sum_band:bec :      2.06s CPU      2.06s WALL (      56 calls)
     addusdens    :      3.55s CPU      3.56s WALL (      13 calls)
                                        0.00s GPU  (      13 calls)
     addusd:skk   :      0.04s CPU      0.04s WALL (      39 calls)
                                        0.00s GPU  (      39 calls)

     Called by *egterg:
     cdiaghg      :    426.12s CPU    444.04s WALL (     354 calls)
     cegterg:over :    618.63s CPU    621.33s WALL (     304 calls)
     cegterg:upda :    266.47s CPU    268.00s WALL (     304 calls)
     cegterg:last :    953.04s CPU    959.86s WALL (     155 calls)
     cdiaghg:chol :     29.95s CPU     30.02s WALL (     354 calls)
     cdiaghg:inve :      4.69s CPU      4.71s WALL (     354 calls)
     cdiaghg:para :    137.98s CPU    139.86s WALL (     708 calls)
     h_psi        :    974.74s CPU    979.80s WALL (     362 calls)
     s_psi        :    419.56s CPU    420.57s WALL (     362 calls)
     g_psi        :      0.39s CPU      0.39s WALL (     304 calls)

     Called by h_psi:
     h_psi:calbec :    459.47s CPU    462.07s WALL (     362 calls)
     vloc_psi     :     88.69s CPU     89.48s WALL (     362 calls)
     add_vuspsi   :    425.61s CPU    426.84s WALL (     362 calls)

     General routines
     calbec       :    720.56s CPU    724.63s WALL (     458 calls)
     fft          :      0.19s CPU      0.22s WALL (     206 calls)
     ffts         :      0.01s CPU      0.01s WALL (      13 calls)
     fftw         :     94.58s CPU     95.45s WALL (  303422 calls)
     davcio       :      0.00s CPU      0.00s WALL (       8 calls)

     Parallel routines

     PAW routines
     PAW_pot      :      0.51s CPU      0.51s WALL (      15 calls)

     PWSCF        :      1h11m CPU      1h12m WALL


   This run was terminated on:   5: 5:55  25Mar2025            

=------------------------------------------------------------------------------=
   JOB DONE.
=------------------------------------------------------------------------------=
Note: The following floating-point exceptions are signalling: IEEE_DENORMAL
Note: The following floating-point exceptions are signalling: IEEE_DENORMAL
Note: The following floating-point exceptions are signalling: IEEE_DENORMAL
Note: The following floating-point exceptions are signalling: IEEE_DENORMAL
Note: The following floating-point exceptions are signalling: IEEE_DENORMAL
Note: The following floating-point exceptions are signalling: IEEE_DENORMAL
Note: The following floating-point exceptions are signalling: IEEE_DENORMAL
Note: The following floating-point exceptions are signalling: IEEE_DENORMAL
Note: The following floating-point exceptions are signalling: IEEE_DENORMAL
Note: The following floating-point exceptions are signalling: IEEE_DENORMAL
Note: The following floating-point exceptions are signalling: IEEE_DENORMAL
Note: The following floating-point exceptions are signalling: IEEE_DENORMAL
