
     Program PWSCF v.7.3.1 starts on  5Apr2025 at  2:17: 7 

     This program is part of the open-source Quantum ESPRESSO suite
     for quantum simulation of materials; please cite
         "P. Giannozzi et al., J. Phys.:Condens. Matter 21 395502 (2009);
         "P. Giannozzi et al., J. Phys.:Condens. Matter 29 465901 (2017);
         "P. Giannozzi et al., J. Chem. Phys. 152 154105 (2020);
          URL http://www.quantum-espresso.org", 
     in publications or presentations arising from this work. More details at
     http://www.quantum-espresso.org/quote

     Parallel version (MPI), running on    33 processors

     MPI processes distributed on     1 nodes
     15710 MiB available memory on the printing compute node when the environment starts

     Waiting for input...
     Reading input from standard input
Warning: card &CELL ignored
Warning: card   CELL_DOFREE = 'ALL' ignored
Warning: card / ignored

     Current dimensions of program PWSCF are:
     Max number of different atomic species (ntypx) = 10
     Max number of k-points (npk) =  40000
     Max angular momentum in pseudopotentials (lmaxx) =  4

     File ./tmp/05_Zn002_ABN_topsite_tilted_edgeon.update deleted, as requested

     File ./tmp/05_Zn002_ABN_topsite_tilted_edgeon.bfgs deleted, as requested
     file C.pbe-n-kjpaw_psl.1.0.0.UPF: wavefunction(s)  2S 2P renormalized

     R & G space division:  proc/nbgrp/npool/nimage =      33
     Subspace diagonalization in iterative solution of the eigenvalue problem:
     one sub-group per band group will be used
     custom distributed-memory algorithm (size of sub-group:  5*  5 procs)


     Parallelization info
     --------------------
     sticks:   dense  smooth     PW     G-vecs:    dense   smooth      PW
     Min         228     130     35                36393    15714    2165
     Max         230     131     36                36401    15723    2173
     Sum        7555    4303   1159              1201061   518755   71619

     Using Slab Decomposition



     bravais-lattice index     =            0
     lattice parameter (alat)  =      19.7617  a.u.
     unit-cell volume          =   15176.5939 (a.u.)^3
     number of atoms/cell      =           63
     number of atomic types    =            4
     number of electrons       =      1004.00
     number of Kohn-Sham states=          602
     kinetic-energy cutoff     =      40.0000  Ry
     charge density cutoff     =     280.0000  Ry
     scf convergence threshold =      1.0E-06
     mixing beta               =       0.4000
     number of iterations used =            8  plain     mixing
     energy convergence thresh.=      1.0E-05
     force convergence thresh. =      5.0E-04
     Exchange-correlation= PBE
                           (   1   4   3   4   0   0   0)
     nstep                     =          500


     celldm(1)=  19.761696  celldm(2)=   0.000000  celldm(3)=   0.000000
     celldm(4)=   0.000000  celldm(5)=   0.000000  celldm(6)=   0.000000

     crystal axes: (cart. coord. in units of alat)
               a(1) = (   1.000000   0.000000   0.000000 )  
               a(2) = (  -0.500000   0.866025   0.000000 )  
               a(3) = (   0.000000   0.000000   2.270759 )  

     reciprocal axes: (cart. coord. in units 2 pi/alat)
               b(1) = (  1.000000  0.577350 -0.000000 )  
               b(2) = (  0.000000  1.154701  0.000000 )  
               b(3) = (  0.000000 -0.000000  0.440381 )  


     PseudoPot. # 1 for Zn read from file:
     /home/ys/qepseudo/SSSP_1.3.0_PBE_efficiency/Zn_pbe_v1.uspp.F.UPF
     MD5 check sum: df62231357ef9e81f77b2b3087fa5675
     Pseudo is Ultrasoft, Zval = 20.0
     Generated by new atomic code, or converted to UPF format
     Using radial grid of  943 points,  6 beta functions with: 
                l(1) =   0
                l(2) =   0
                l(3) =   1
                l(4) =   1
                l(5) =   2
                l(6) =   2
     Q(r) pseudized with  8 coefficients,  rinner =    1.100   1.100   1.100
                                                       1.100   1.100

     PseudoPot. # 2 for N  read from file:
     /home/ys/qepseudo/SSSP_1.3.0_PBE_efficiency/N.pbe-n-radius_5.UPF
     MD5 check sum: 16739722b17309cd8fe442a2ace49922
     Pseudo is Ultrasoft + core correction, Zval =  5.0
     Generated using "atomic" code by A. Dal Corso  v.5.1
     Using radial grid of 1085 points,  4 beta functions with: 
                l(1) =   0
                l(2) =   0
                l(3) =   1
                l(4) =   1
     Q(r) pseudized with 0 coefficients 


     PseudoPot. # 3 for C  read from file:
     /home/ys/qepseudo/SSSP_1.3.0_PBE_efficiency/C.pbe-n-kjpaw_psl.1.0.0.UPF
     MD5 check sum: 5d2aebdfa2cae82b50a7e79e9516da0f
     Pseudo is Projector augmented-wave + core cor, Zval =  4.0
     Generated using "atomic" code by A. Dal Corso  v.5.1
     Shape of augmentation charge: PSQ
     Using radial grid of 1073 points,  4 beta functions with: 
                l(1) =   0
                l(2) =   0
                l(3) =   1
                l(4) =   1
     Q(r) pseudized with 0 coefficients 


     PseudoPot. # 4 for H  read from file:
     /home/ys/qepseudo/SSSP_1.3.0_PBE_efficiency/H.pbe-rrkjus_psl.1.0.0.UPF
     MD5 check sum: f52b6d4d1c606e5624b1dc7b2218f220
     Pseudo is Ultrasoft, Zval =  1.0
     Generated using "atomic" code by A. Dal Corso  v.5.1
     Using radial grid of  929 points,  2 beta functions with: 
                l(1) =   0
                l(2) =   0
     Q(r) pseudized with 0 coefficients 


     atomic species   valence    mass     pseudopotential
     Zn               20.00    65.38000     Zn( 1.00)
     N                 5.00    14.00674     N ( 1.00)
     C                 4.00    12.01070     C ( 1.00)
     H                 1.00     1.00794     H ( 1.00)

     No symmetry found


                                    s                        frac. trans.

      isym =  1     identity                                     

 cryst.   s( 1) = (     1          0          0      )
                  (     0          1          0      )
                  (     0          0          1      )

 cart.    s( 1) = (  1.0000000  0.0000000  0.0000000 )
                  (  0.0000000  1.0000000  0.0000000 )
                  (  0.0000000  0.0000000  1.0000000 )


   Cartesian axes

     site n.     atom                  positions (alat units)
         1        Zn     tau(   1) = (   0.0000000   0.1443375   0.1164998  )
         2        Zn     tau(   2) = (   0.5000000   0.1443375   0.1164998  )
         3        Zn     tau(   3) = (  -0.0000122   0.1447295   0.5899179  )
         4        Zn     tau(   4) = (   0.5000094   0.1447829   0.5934418  )
         5        Zn     tau(   5) = (  -0.1250000   0.3608439   0.1164998  )
         6        Zn     tau(   6) = (   0.3750000   0.3608439   0.1164998  )
         7        Zn     tau(   7) = (  -0.1248849   0.3610468   0.5895810  )
         8        Zn     tau(   8) = (   0.3755169   0.3612329   0.5770007  )
         9        Zn     tau(   9) = (  -0.2500000   0.5773502   0.1164998  )
        10        Zn     tau(  10) = (   0.2500000   0.5773502   0.1164998  )
        11        Zn     tau(  11) = (  -0.2497708   0.5773642   0.5893991  )
        12        Zn     tau(  12) = (   0.2501266   0.5774117   0.5925711  )
        13        Zn     tau(  13) = (  -0.3750000   0.7938567   0.1164998  )
        14        Zn     tau(  14) = (   0.1250000   0.7938567   0.1164998  )
        15        Zn     tau(  15) = (  -0.3748712   0.7939498   0.5893470  )
        16        Zn     tau(  16) = (   0.1249309   0.7942025   0.5897018  )
        17        Zn     tau(  17) = (   0.2500000   0.1443375   0.1164998  )
        18        Zn     tau(  18) = (   0.7500000   0.1443375   0.1164998  )
        19        Zn     tau(  19) = (   0.2501866   0.1445873   0.5889016  )
        20        Zn     tau(  20) = (   0.7497864   0.1446326   0.5899890  )
        21        Zn     tau(  21) = (   0.1250000   0.3608439   0.1164998  )
        22        Zn     tau(  22) = (   0.6250000   0.3608439   0.1164998  )
        23        Zn     tau(  23) = (   0.1253274   0.3609715   0.5920700  )
        24        Zn     tau(  24) = (   0.6250380   0.3608410   0.5920863  )
        25        Zn     tau(  25) = (   0.0000000   0.5773502   0.1164998  )
        26        Zn     tau(  26) = (   0.5000000   0.5773502   0.1164998  )
        27        Zn     tau(  27) = (   0.0002351   0.5775285   0.5900751  )
        28        Zn     tau(  28) = (   0.4999504   0.5773510   0.5921259  )
        29        Zn     tau(  29) = (  -0.1250000   0.7938567   0.1164998  )
        30        Zn     tau(  30) = (   0.3750000   0.7938567   0.1164998  )
        31        Zn     tau(  31) = (  -0.1246570   0.7942124   0.5898584  )
        32        Zn     tau(  32) = (   0.3748102   0.7940894   0.5894900  )
        33        Zn     tau(  33) = (   0.1249698   0.0723091   0.3545219  )
        34        Zn     tau(  34) = (   0.6249827   0.0723488   0.3531690  )
        35        Zn     tau(  35) = (   0.0000055   0.2889700   0.3534653  )
        36        Zn     tau(  36) = (   0.5005865   0.2886149   0.3518608  )
        37        Zn     tau(  37) = (  -0.1249731   0.5052991   0.3530500  )
        38        Zn     tau(  38) = (   0.3750154   0.5060075   0.3519242  )
        39        Zn     tau(  39) = (  -0.2500333   0.7218280   0.3535889  )
        40        Zn     tau(  40) = (   0.2499597   0.7217474   0.3535487  )
        41        Zn     tau(  41) = (   0.3752013   0.0723441   0.3537271  )
        42        Zn     tau(  42) = (   0.8748980   0.0723582   0.3529024  )
        43        Zn     tau(  43) = (   0.2495452   0.2887765   0.3522502  )
        44        Zn     tau(  44) = (   0.7498994   0.2889057   0.3532419  )
        45        Zn     tau(  45) = (   0.1251667   0.5053766   0.3534897  )
        46        Zn     tau(  46) = (   0.6248827   0.5052807   0.3533495  )
        47        Zn     tau(  47) = (   0.0001257   0.7219057   0.3534395  )
        48        Zn     tau(  48) = (   0.4999676   0.7216502   0.3538226  )
        49        C      tau(  49) = (   0.4447566   0.5194494   1.3865383  )
        50        C      tau(  50) = (   0.4204738   0.4635194   1.2647004  )
        51        C      tau(  51) = (   0.4594131   0.5253723   1.1514749  )
        52        C      tau(  52) = (   0.3554209   0.3458906   1.2551753  )
        53        C      tau(  53) = (   0.4334602   0.4720097   1.0329393  )
        54        C      tau(  54) = (   0.3294145   0.2924094   1.1367223  )
        55        C      tau(  55) = (   0.3669360   0.3549320   1.0232278  )
        56        N      tau(  56) = (   0.4639736   0.5654917   1.4864670  )
        57        N      tau(  57) = (   0.3430437   0.3012095   0.9053140  )
        58        H      tau(  58) = (   0.2744019   0.2330194   0.8991929  )
        59        H      tau(  59) = (   0.3467141   0.3595743   0.8276907  )
        60        H      tau(  60) = (   0.3247455   0.2971617   1.3420171  )
        61        H      tau(  61) = (   0.5097126   0.6164709   1.1576153  )
        62        H      tau(  62) = (   0.2791492   0.2010484   1.1311889  )
        63        H      tau(  63) = (   0.4643513   0.5210019   0.9459833  )

     --------------------------------------------
     DFT-D3 Dispersion Correction (3-body terms):
     --------------------------------------------
       Reference C6 values for interpolation: 

         atom   Coordination number   C6
         H          0.912             6.05
         H          0.000            15.18
         C          0.000            98.23
         C          0.987            86.49
         C          1.998            58.72
         C          2.999            51.56
         C          3.984            36.41
         N          0.000            50.54
         N          0.994            44.25
         N          2.014            39.35
         N          2.990            31.16
         Zn         0.000           681.04
         Zn         1.942           306.91

       Values used:

         atom   Coordination number  R0_AB[au]  C6      C8
         Zn         6.754            3.053    306.91  23930.67
         Zn         6.785            3.053    306.91  23930.67
         Zn         6.780            3.053    306.91  23930.67
         Zn         6.637            3.053    306.91  23930.67
         Zn         6.770            3.053    306.91  23930.67
         Zn         6.803            3.053    306.91  23930.67
         Zn         6.786            3.053    306.91  23930.67
         Zn         7.211            3.053    306.91  23930.67
         Zn         6.765            3.053    306.91  23930.67
         Zn         6.784            3.053    306.91  23930.67
         Zn         6.789            3.053    306.91  23930.67
         Zn         6.665            3.053    306.91  23930.67
         Zn         6.742            3.053    306.91  23930.67
         Zn         6.765            3.053    306.91  23930.67
         Zn         6.810            3.053    306.91  23930.67
         Zn         6.789            3.053    306.91  23930.67
         Zn         6.759            3.053    306.91  23930.67
         Zn         6.775            3.053    306.91  23930.67
         Zn         6.818            3.053    306.91  23930.67
         Zn         6.768            3.053    306.91  23930.67
         Zn         6.779            3.053    306.91  23930.67
         Zn         6.790            3.053    306.91  23930.67
         Zn         6.685            3.053    306.91  23930.67
         Zn         6.684            3.053    306.91  23930.67
         Zn         6.765            3.053    306.91  23930.67
         Zn         6.782            3.053    306.91  23930.67
         Zn         6.768            3.053    306.91  23930.67
         Zn         6.683            3.053    306.91  23930.67
         Zn         6.756            3.053    306.91  23930.67
         Zn         6.762            3.053    306.91  23930.67
         Zn         6.785            3.053    306.91  23930.67
         Zn         6.788            3.053    306.91  23930.67
         Zn         8.375            3.053    306.91  23930.67
         Zn         8.329            3.053    306.91  23930.67
         Zn         8.343            3.053    306.91  23930.67
         Zn         8.450            3.053    306.91  23930.67
         Zn         8.367            3.053    306.91  23930.67
         Zn         8.462            3.053    306.91  23930.67
         Zn         8.369            3.053    306.91  23930.67
         Zn         8.343            3.053    306.91  23930.67
         Zn         8.335            3.053    306.91  23930.67
         Zn         8.360            3.053    306.91  23930.67
         Zn         8.492            3.053    306.91  23930.67
         Zn         8.345            3.053    306.91  23930.67
         Zn         8.310            3.053    306.91  23930.67
         Zn         8.321            3.053    306.91  23930.67
         Zn         8.363            3.053    306.91  23930.67
         Zn         8.348            3.053    306.91  23930.67
         C          2.097            2.750     58.61   1695.15
         C          3.146            2.750     50.56   1462.41
         C          3.169            2.750     50.37   1456.78
         C          3.170            2.750     50.36   1456.60
         C          3.165            2.750     50.40   1457.77
         C          3.163            2.750     50.42   1458.36
         C          3.144            2.750     50.58   1462.92
         N          1.022            2.478     44.24    976.02
         N          3.093            2.478     31.24    689.15
         H          1.008            2.062      6.17     74.63
         H          1.020            2.062      6.16     74.52
         H          1.004            2.062      6.18     74.68
         H          1.004            2.062      6.18     74.68
         H          1.003            2.062      6.18     74.68
         H          1.004            2.062      6.18     74.67

         Molecular C6 ( Ry / a.u.^6 ) =    840994.34


   Crystallographic axes

     site n.     atom                  positions (cryst. coord.)
         1        Zn     tau(   1) = (  0.0833333  0.1666666  0.0513044  )
         2        Zn     tau(   2) = (  0.5833333  0.1666666  0.0513044  )
         3        Zn     tau(   3) = (  0.0835474  0.1671192  0.2597889  )
         4        Zn     tau(   4) = (  0.5835998  0.1671809  0.2613408  )
         5        Zn     tau(   5) = (  0.0833333  0.4166666  0.0513044  )
         6        Zn     tau(   6) = (  0.5833333  0.4166666  0.0513044  )
         7        Zn     tau(   7) = (  0.0835655  0.4169009  0.2596405  )
         8        Zn     tau(   8) = (  0.5840748  0.4171158  0.2541004  )
         9        Zn     tau(   9) = (  0.0833333  0.6666666  0.0513044  )
        10        Zn     tau(  10) = (  0.5833333  0.6666666  0.0513044  )
        11        Zn     tau(  11) = (  0.0835705  0.6666827  0.2595604  )
        12        Zn     tau(  12) = (  0.5834954  0.6667376  0.2609573  )
        13        Zn     tau(  13) = (  0.0833333  0.9166667  0.0513044  )
        14        Zn     tau(  14) = (  0.5833334  0.9166667  0.0513044  )
        15        Zn     tau(  15) = (  0.0835159  0.9167743  0.2595375  )
        16        Zn     tau(  16) = (  0.5834639  0.9170660  0.2596937  )
        17        Zn     tau(  17) = (  0.3333333  0.1666666  0.0513044  )
        18        Zn     tau(  18) = (  0.8333334  0.1666666  0.0513044  )
        19        Zn     tau(  19) = (  0.3336641  0.1669550  0.2593413  )
        20        Zn     tau(  20) = (  0.8332900  0.1670073  0.2598202  )
        21        Zn     tau(  21) = (  0.3333333  0.4166666  0.0513044  )
        22        Zn     tau(  22) = (  0.8333333  0.4166666  0.0513044  )
        23        Zn     tau(  23) = (  0.3337344  0.4168140  0.2607366  )
        24        Zn     tau(  24) = (  0.8333696  0.4166633  0.2607438  )
        25        Zn     tau(  25) = (  0.3333333  0.6666666  0.0513044  )
        26        Zn     tau(  26) = (  0.8333333  0.6666666  0.0513044  )
        27        Zn     tau(  27) = (  0.3336713  0.6668725  0.2598581  )
        28        Zn     tau(  28) = (  0.8332842  0.6666675  0.2607613  )
        29        Zn     tau(  29) = (  0.3333334  0.9166667  0.0513044  )
        30        Zn     tau(  30) = (  0.8333334  0.9166667  0.0513044  )
        31        Zn     tau(  31) = (  0.3338817  0.9170775  0.2597627  )
        32        Zn     tau(  32) = (  0.8332779  0.9169355  0.2596004  )
        33        Zn     tau(  33) = (  0.1667175  0.0834954  0.1561249  )
        34        Zn     tau(  34) = (  0.6667533  0.0835412  0.1555291  )
        35        Zn     tau(  35) = (  0.1668424  0.3336738  0.1556596  )
        36        Zn     tau(  36) = (  0.6672184  0.3332638  0.1549530  )
        37        Zn     tau(  37) = (  0.1667615  0.5834692  0.1554767  )
        38        Zn     tau(  38) = (  0.6671589  0.5842871  0.1549809  )
        39        Zn     tau(  39) = (  0.1667143  0.8334951  0.1557140  )
        40        Zn     tau(  40) = (  0.6666608  0.8334021  0.1556963  )
        41        Zn     tau(  41) = (  0.4169691  0.0835358  0.1557749  )
        42        Zn     tau(  42) = (  0.9166740  0.0835521  0.1554117  )
        43        Zn     tau(  43) = (  0.4162704  0.3334504  0.1551244  )
        44        Zn     tau(  44) = (  0.9166992  0.3335995  0.1555612  )
        45        Zn     tau(  45) = (  0.4169461  0.5835587  0.1556703  )
        46        Zn     tau(  46) = (  0.9166066  0.5834479  0.1556085  )
        47        Zn     tau(  47) = (  0.4169182  0.8335850  0.1556482  )
        48        Zn     tau(  48) = (  0.9166125  0.8332899  0.1558169  )
        49        C      tau(  49) = (  0.7446608  0.5998085  0.6106057  )
        50        C      tau(  50) = (  0.6880868  0.5352261  0.5569506  )
        51        C      tau(  51) = (  0.7627369  0.6066477  0.5070882  )
        52        C      tau(  52) = (  0.5551209  0.3994000  0.5527559  )
        53        C      tau(  53) = (  0.7059751  0.5450298  0.4548873  )
        54        C      tau(  54) = (  0.4982372  0.3376453  0.5005914  )
        55        C      tau(  55) = (  0.5718561  0.4098402  0.4506105  )
        56        N      tau(  56) = (  0.7904604  0.6529735  0.6546125  )
        57        N      tau(  57) = (  0.5169470  0.3478067  0.3986835  )
        58        H      tau(  58) = (  0.4089357  0.2690677  0.3959878  )
        59        H      tau(  59) = (  0.5543144  0.4152007  0.3644996  )
        60        H      tau(  60) = (  0.4963119  0.3431328  0.5909994  )
        61        H      tau(  61) = (  0.8656322  0.7118393  0.5097923  )
        62        H      tau(  62) = (  0.3952245  0.2321507  0.4981546  )
        63        H      tau(  63) = (  0.7651519  0.6016012  0.4165935  )

     number of k points=     5  Marzari-Vanderbilt smearing, width (Ry)=  0.0200
                       cart. coord. in units 2pi/alat
        k(    1) = (   0.0000000   0.0000000   0.0000000), wk =   0.2222222
        k(    2) = (   0.0000000   0.3849002   0.0000000), wk =   0.4444444
        k(    3) = (   0.3333333   0.1924501   0.0000000), wk =   0.4444444
        k(    4) = (   0.3333333   0.5773503   0.0000000), wk =   0.4444444
        k(    5) = (   0.3333333  -0.1924501   0.0000000), wk =   0.4444444

                       cryst. coord.
        k(    1) = (   0.0000000   0.0000000   0.0000000), wk =   0.2222222
        k(    2) = (   0.0000000   0.3333333   0.0000000), wk =   0.4444444
        k(    3) = (   0.3333333   0.0000000   0.0000000), wk =   0.4444444
        k(    4) = (   0.3333333   0.3333333   0.0000000), wk =   0.4444444
        k(    5) = (   0.3333333  -0.3333333   0.0000000), wk =   0.4444444

     Dense  grid:  1201061 G-vectors     FFT dimensions: ( 108, 108, 240)

     Smooth grid:   518755 G-vectors     FFT dimensions: (  80,  80, 192)

     Dynamical RAM for                 wfc:      18.04 MB

     Dynamical RAM for     wfc (w. buffer):     108.25 MB

     Dynamical RAM for           str. fact:       2.22 MB

     Dynamical RAM for           local pot:       0.00 MB

     Dynamical RAM for          nlocal pot:      28.41 MB

     Dynamical RAM for                qrad:       5.37 MB

     Dynamical RAM for          rho,v,vnew:       3.80 MB

     Dynamical RAM for               rhoin:       1.27 MB

     Dynamical RAM for            rho*nmix:       8.89 MB

     Dynamical RAM for           G-vectors:       2.20 MB

     Dynamical RAM for          h,s,v(r/c):       2.64 MB

     Dynamical RAM for          <psi|beta>:       8.71 MB

     Dynamical RAM for                 psi:      36.08 MB

     Dynamical RAM for                hpsi:      36.08 MB

     Dynamical RAM for                spsi:      36.08 MB

     Dynamical RAM for      wfcinit/wfcrot:      50.07 MB

     Dynamical RAM for           addusdens:     129.95 MB

     Dynamical RAM for          addusforce:     182.62 MB

     Dynamical RAM for         addusstress:     111.63 MB

     Estimated static dynamical RAM per process >     157.86 MB

     Estimated max dynamical RAM per process >     349.37 MB

     Estimated total dynamical RAM >      11.26 GB

     Initial potential from superposition of free atoms

     starting charge    1003.9929, renormalised to    1004.0000

     negative rho (up, down):  1.721E-03 0.000E+00
     Starting wfcs are  666 randomized atomic wfcs
     Checking if some PAW data can be deallocated... 
       PAW data deallocated on   29 nodes for type:  3

     total cpu time spent up to now is       67.1 secs

     Self-consistent Calculation

     iteration #  1     ecut=    40.00 Ry     beta= 0.40
     Davidson diagonalization with overlap

---- Real-time Memory Report at c_bands before calling an iterative solver
           238 MiB given to the printing process from OS
             0 MiB allocation reported by mallinfo(arena+hblkhd)
          9944 MiB available memory on the node where the printing process lives
------------------
     ethr =  1.00E-02,  avg # of iterations =  9.0

     negative rho (up, down):  2.173E-03 0.000E+00

     total cpu time spent up to now is      544.8 secs

     total energy              =  -22326.31623899 Ry
     estimated scf accuracy    <      11.27451175 Ry

     iteration #  2     ecut=    40.00 Ry     beta= 0.40
     Davidson diagonalization with overlap

---- Real-time Memory Report at c_bands before calling an iterative solver
           330 MiB given to the printing process from OS
             0 MiB allocation reported by mallinfo(arena+hblkhd)
          8671 MiB available memory on the node where the printing process lives
------------------
     ethr =  1.12E-03,  avg # of iterations = 10.8

     negative rho (up, down):  3.685E-03 0.000E+00

     total cpu time spent up to now is     1022.3 secs

     total energy              =  -22309.15775183 Ry
     estimated scf accuracy    <     361.08440701 Ry

     iteration #  3     ecut=    40.00 Ry     beta= 0.40
     Davidson diagonalization with overlap

---- Real-time Memory Report at c_bands before calling an iterative solver
           344 MiB given to the printing process from OS
             0 MiB allocation reported by mallinfo(arena+hblkhd)
          8648 MiB available memory on the node where the printing process lives
------------------
     ethr =  1.12E-03,  avg # of iterations =  8.0

     negative rho (up, down):  3.310E-03 0.000E+00

     total cpu time spent up to now is     1581.7 secs

     total energy              =  -22330.66926554 Ry
     estimated scf accuracy    <       8.02344432 Ry

     iteration #  4     ecut=    40.00 Ry     beta= 0.40
     Davidson diagonalization with overlap

---- Real-time Memory Report at c_bands before calling an iterative solver
           345 MiB given to the printing process from OS
             0 MiB allocation reported by mallinfo(arena+hblkhd)
          8628 MiB available memory on the node where the printing process lives
------------------
     ethr =  7.99E-04,  avg # of iterations =  4.8

     negative rho (up, down):  3.179E-03 0.000E+00

     total cpu time spent up to now is     1970.9 secs

     total energy              =  -22331.15130998 Ry
     estimated scf accuracy    <       5.83864992 Ry

     iteration #  5     ecut=    40.00 Ry     beta= 0.40
     Davidson diagonalization with overlap

---- Real-time Memory Report at c_bands before calling an iterative solver
           345 MiB given to the printing process from OS
             0 MiB allocation reported by mallinfo(arena+hblkhd)
          8608 MiB available memory on the node where the printing process lives
------------------
     ethr =  5.82E-04,  avg # of iterations =  2.8

     negative rho (up, down):  3.151E-03 0.000E+00

     total cpu time spent up to now is     2343.9 secs

     total energy              =  -22331.54781072 Ry
     estimated scf accuracy    <       0.33599031 Ry

     iteration #  6     ecut=    40.00 Ry     beta= 0.40
     Davidson diagonalization with overlap

---- Real-time Memory Report at c_bands before calling an iterative solver
           346 MiB given to the printing process from OS
             0 MiB allocation reported by mallinfo(arena+hblkhd)
          8585 MiB available memory on the node where the printing process lives
------------------
     ethr =  3.35E-05,  avg # of iterations = 12.4

     negative rho (up, down):  3.264E-03 0.000E+00

     total cpu time spent up to now is     2766.5 secs

     total energy              =  -22331.54722557 Ry
     estimated scf accuracy    <       0.16222398 Ry

     iteration #  7     ecut=    40.00 Ry     beta= 0.40
     Davidson diagonalization with overlap

---- Real-time Memory Report at c_bands before calling an iterative solver
           347 MiB given to the printing process from OS
             0 MiB allocation reported by mallinfo(arena+hblkhd)
          8561 MiB available memory on the node where the printing process lives
------------------
     ethr =  1.62E-05,  avg # of iterations =  3.4

     negative rho (up, down):  3.343E-03 0.000E+00

     total cpu time spent up to now is     3146.1 secs

     total energy              =  -22331.54958538 Ry
     estimated scf accuracy    <       0.05145193 Ry

     iteration #  8     ecut=    40.00 Ry     beta= 0.40
     Davidson diagonalization with overlap

---- Real-time Memory Report at c_bands before calling an iterative solver
           347 MiB given to the printing process from OS
             0 MiB allocation reported by mallinfo(arena+hblkhd)
          8543 MiB available memory on the node where the printing process lives
------------------
     ethr =  5.12E-06,  avg # of iterations = 13.8

     negative rho (up, down):  3.382E-03 0.000E+00

     total cpu time spent up to now is     3555.2 secs

     total energy              =  -22331.54732629 Ry
     estimated scf accuracy    <       0.03588470 Ry

     iteration #  9     ecut=    40.00 Ry     beta= 0.40
     Davidson diagonalization with overlap

---- Real-time Memory Report at c_bands before calling an iterative solver
           348 MiB given to the printing process from OS
             0 MiB allocation reported by mallinfo(arena+hblkhd)
          8518 MiB available memory on the node where the printing process lives
------------------
     c_bands:  2 eigenvalues not converged
     c_bands:  1 eigenvalues not converged
     ethr =  3.57E-06,  avg # of iterations = 13.6

     negative rho (up, down):  3.410E-03 0.000E+00

     total cpu time spent up to now is     3945.0 secs

     total energy              =  -22331.54490773 Ry
     estimated scf accuracy    <       0.02982535 Ry

     iteration # 10     ecut=    40.00 Ry     beta= 0.40
     Davidson diagonalization with overlap

---- Real-time Memory Report at c_bands before calling an iterative solver
           349 MiB given to the printing process from OS
             0 MiB allocation reported by mallinfo(arena+hblkhd)
          8494 MiB available memory on the node where the printing process lives
------------------
     c_bands:  1 eigenvalues not converged
     ethr =  2.97E-06,  avg # of iterations = 16.8

     negative rho (up, down):  3.439E-03 0.000E+00

     total cpu time spent up to now is     4349.3 secs

     total energy              =  -22331.54083913 Ry
     estimated scf accuracy    <       0.02440648 Ry

     iteration # 11     ecut=    40.00 Ry     beta= 0.40
     Davidson diagonalization with overlap

---- Real-time Memory Report at c_bands before calling an iterative solver
           349 MiB given to the printing process from OS
             0 MiB allocation reported by mallinfo(arena+hblkhd)
          8487 MiB available memory on the node where the printing process lives
------------------
     c_bands:  2 eigenvalues not converged
     c_bands:  2 eigenvalues not converged
     c_bands:  2 eigenvalues not converged
     ethr =  2.43E-06,  avg # of iterations = 16.2

     negative rho (up, down):  3.527E-03 0.000E+00

     total cpu time spent up to now is     4768.4 secs

     total energy              =  -22331.52851095 Ry
     estimated scf accuracy    <       0.01680052 Ry

     iteration # 12     ecut=    40.00 Ry     beta= 0.40
     Davidson diagonalization with overlap

---- Real-time Memory Report at c_bands before calling an iterative solver
           349 MiB given to the printing process from OS
             0 MiB allocation reported by mallinfo(arena+hblkhd)
          8484 MiB available memory on the node where the printing process lives
------------------
     ethr =  1.67E-06,  avg # of iterations = 16.8

     negative rho (up, down):  3.485E-03 0.000E+00

     total cpu time spent up to now is     5277.0 secs

     total energy              =  -22331.53185973 Ry
     estimated scf accuracy    <       0.00045730 Ry

     iteration # 13     ecut=    40.00 Ry     beta= 0.40
     Davidson diagonalization with overlap

---- Real-time Memory Report at c_bands before calling an iterative solver
           349 MiB given to the printing process from OS
             0 MiB allocation reported by mallinfo(arena+hblkhd)
          8487 MiB available memory on the node where the printing process lives
------------------
     ethr =  4.55E-08,  avg # of iterations =  3.0

     negative rho (up, down):  3.468E-03 0.000E+00

     total cpu time spent up to now is     5654.6 secs

     total energy              =  -22331.53190578 Ry
     estimated scf accuracy    <       0.00009953 Ry

     iteration # 14     ecut=    40.00 Ry     beta= 0.40
     Davidson diagonalization with overlap

---- Real-time Memory Report at c_bands before calling an iterative solver
           349 MiB given to the printing process from OS
             0 MiB allocation reported by mallinfo(arena+hblkhd)
          8484 MiB available memory on the node where the printing process lives
------------------
     ethr =  9.91E-09,  avg # of iterations =  2.8

     negative rho (up, down):  3.462E-03 0.000E+00

     total cpu time spent up to now is     6030.4 secs

     total energy              =  -22331.53190699 Ry
     estimated scf accuracy    <       0.00009597 Ry

     iteration # 15     ecut=    40.00 Ry     beta= 0.40
     Davidson diagonalization with overlap

---- Real-time Memory Report at c_bands before calling an iterative solver
           349 MiB given to the printing process from OS
             0 MiB allocation reported by mallinfo(arena+hblkhd)
          8486 MiB available memory on the node where the printing process lives
------------------
     ethr =  9.56E-09,  avg # of iterations =  2.0

     negative rho (up, down):  3.456E-03 0.000E+00

     total cpu time spent up to now is     6399.8 secs

     total energy              =  -22331.53191639 Ry
     estimated scf accuracy    <       0.00009363 Ry

     iteration # 16     ecut=    40.00 Ry     beta= 0.40
     Davidson diagonalization with overlap

---- Real-time Memory Report at c_bands before calling an iterative solver
           349 MiB given to the printing process from OS
             0 MiB allocation reported by mallinfo(arena+hblkhd)
          8486 MiB available memory on the node where the printing process lives
------------------
     ethr =  9.33E-09,  avg # of iterations =  1.0

     negative rho (up, down):  3.454E-03 0.000E+00

     total cpu time spent up to now is     6665.4 secs

     total energy              =  -22331.53192398 Ry
     estimated scf accuracy    <       0.00001061 Ry

     iteration # 17     ecut=    40.00 Ry     beta= 0.40
     Davidson diagonalization with overlap

---- Real-time Memory Report at c_bands before calling an iterative solver
           349 MiB given to the printing process from OS
             0 MiB allocation reported by mallinfo(arena+hblkhd)
          8486 MiB available memory on the node where the printing process lives
------------------
     ethr =  1.06E-09,  avg # of iterations =  2.0

     negative rho (up, down):  3.453E-03 0.000E+00

     total cpu time spent up to now is     7035.7 secs

     total energy              =  -22331.53192509 Ry
     estimated scf accuracy    <       0.00000128 Ry

     iteration # 18     ecut=    40.00 Ry     beta= 0.40
     Davidson diagonalization with overlap

---- Real-time Memory Report at c_bands before calling an iterative solver
           349 MiB given to the printing process from OS
             0 MiB allocation reported by mallinfo(arena+hblkhd)
          8485 MiB available memory on the node where the printing process lives
------------------
     ethr =  1.28E-10,  avg # of iterations =  2.0

     negative rho (up, down):  3.452E-03 0.000E+00

     total cpu time spent up to now is     7410.0 secs

     End of self-consistent calculation

          k = 0.0000 0.0000 0.0000 ( 64855 PWs)   bands (ev):

  -124.9480-124.9454-124.9440-124.9345-124.9336-124.9329-124.9326-124.9321
  -124.9318-124.9310-124.9308-124.9306-124.9304-124.9296-124.9294-124.9291
  -124.8121-124.7500-124.7388-124.7363-124.7352-124.7351-124.7347-124.7344
  -124.7340-124.7334-124.7331-124.7321-124.7311-124.7310-124.7279-124.7264
  -124.7261-124.7258-124.7253-124.7250-124.7244-124.7240-124.7239-124.7235
  -124.7233-124.7228-124.7227-124.7223-124.7221-124.7216-124.7207-124.7176
   -79.1102 -79.1077 -79.1065 -79.0993 -79.0990 -79.0988 -79.0983 -79.0973
   -79.0971 -79.0931 -79.0914 -79.0909 -79.0902 -79.0890 -79.0884 -79.0874
   -79.0864 -79.0858 -79.0838 -79.0830 -79.0829 -79.0819 -79.0818 -79.0815
   -79.0797 -79.0787 -79.0782 -79.0779 -79.0776 -79.0772 -79.0768 -79.0766
   -79.0764 -79.0759 -79.0758 -79.0757 -79.0754 -79.0747 -79.0745 -79.0740
   -79.0735 -79.0732 -79.0717 -79.0712 -79.0711 -79.0700 -79.0669 -79.0666
   -78.9687 -78.9586 -78.9578 -78.9068 -78.9030 -78.9022 -78.8994 -78.8963
   -78.8952 -78.8945 -78.8935 -78.8926 -78.8915 -78.8914 -78.8911 -78.8906
   -78.8905 -78.8904 -78.8904 -78.8902 -78.8899 -78.8894 -78.8888 -78.8884
   -78.8884 -78.8880 -78.8872 -78.8863 -78.8858 -78.8849 -78.8844 -78.8840
   -78.8838 -78.8834 -78.8833 -78.8832 -78.8831 -78.8830 -78.8825 -78.8821
   -78.8816 -78.8814 -78.8812 -78.8810 -78.8805 -78.8799 -78.8797 -78.8795
   -78.8794 -78.8792 -78.8790 -78.8786 -78.8786 -78.8782 -78.8782 -78.8778
   -78.8776 -78.8774 -78.8770 -78.8767 -78.8764 -78.8760 -78.8743 -78.8733
   -78.8730 -78.8727 -78.8725 -78.8723 -78.8722 -78.8720 -78.8716 -78.8707
   -78.8705 -78.8705 -78.8703 -78.8701 -78.8701 -78.8698 -78.8697 -78.8695
   -78.8672 -78.8656 -78.8647 -78.8639 -78.8635 -78.8634 -78.8605 -78.8594
   -78.8592 -78.8589 -78.8587 -78.8585 -78.8582 -78.8580 -78.8541 -78.8540
   -17.4062 -15.9947 -15.1635 -12.7803 -12.6906  -9.7579  -9.5052  -8.4188
    -7.6146  -7.2573  -7.0589  -6.9947  -6.9502  -6.8931  -6.8800  -6.8776
    -6.8753  -6.8743  -6.8730  -6.7754  -6.7728  -6.7725  -6.5788  -6.5780
    -6.5750  -6.5387  -6.5379  -6.5337  -6.4538  -6.4457  -6.4452  -6.4413
    -6.4405  -6.4393  -6.4008  -6.3969  -6.3956  -6.3944  -6.3931  -6.3928
    -6.3911  -6.3900  -6.3888  -6.3284  -6.3265  -6.3263  -6.3192  -6.3181
    -6.3174  -6.2951  -6.2922  -6.2918  -6.2892  -6.2888  -6.2878  -6.1975
    -6.1944  -6.1838  -6.1833  -6.1829  -6.1735  -6.1725  -6.1701  -6.1695
    -6.1409  -6.1327  -6.1300  -6.1295  -6.1258  -6.1254  -6.1248  -6.0812
    -6.0797  -6.0735  -6.0730  -6.0715  -6.0687  -6.0358  -6.0342  -6.0283
    -6.0274  -6.0266  -6.0255  -6.0133  -6.0121  -6.0116  -6.0092  -6.0084
    -6.0077  -5.9904  -5.9903  -5.9839  -5.9786  -5.9782  -5.9744  -5.9727
    -5.9718  -5.9654  -5.9646  -5.9637  -5.9534  -5.9517  -5.9508  -5.9507
    -5.9484  -5.9480  -5.8710  -5.8698  -5.8668  -5.8657  -5.8634  -5.8631
    -5.7864  -5.7861  -5.7657  -5.7655  -5.7519  -5.7509  -5.7489  -5.7331
    -5.7316  -5.7304  -5.7298  -5.7285  -5.7278  -5.7247  -5.7235  -5.7213
    -5.6880  -5.6874  -5.6837  -5.6654  -5.6629  -5.6611  -5.6599  -5.6581
    -5.6555  -5.6529  -5.6514  -5.6509  -5.6505  -5.6490  -5.6483  -5.6428
    -5.6422  -5.6414  -5.6413  -5.6410  -5.6406  -5.6302  -5.6294  -5.6256
    -5.6204  -5.6194  -5.6107  -5.6034  -5.6029  -5.6003  -5.5992  -5.5984
    -5.5977  -5.5968  -5.5965  -5.5951  -5.5933  -5.5929  -5.5924  -5.5813
    -5.5796  -5.5788  -5.5748  -5.5723  -5.5713  -5.5699  -5.5636  -5.5614
    -5.5606  -5.4749  -5.4747  -5.4583  -5.4576  -5.4570  -5.4566  -5.4553
    -5.4549  -5.4493  -5.4428  -5.4421  -5.4416  -5.4406  -5.4391  -5.4157
    -5.4142  -5.4066  -5.4063  -5.4046  -5.4038  -5.3975  -5.3962  -5.3946
    -5.3824  -5.3816  -5.3749  -5.3725  -5.3710  -5.3689  -5.3626  -5.3623
    -5.3609  -5.3607  -5.3605  -5.3598  -5.3229  -5.3224  -5.3165  -5.3151
    -5.3145  -5.3140  -5.3131  -5.3119  -5.3118  -5.3111  -5.3081  -5.3065
    -5.2772  -5.2739  -5.2733  -5.2699  -5.2697  -5.2679  -5.2676  -5.2673
    -5.2669  -5.2553  -5.2542  -5.2332  -5.2330  -5.2045  -5.1993  -5.1988
    -5.1977  -5.1954  -5.1950  -5.1686  -5.1679  -5.1676  -5.1675  -5.1661
    -5.1658  -5.1525  -5.1513  -5.1512  -4.9761  -4.9536  -4.9520  -4.9439
    -4.9353  -4.9352  -4.9351  -4.8911  -4.4763  -4.2671  -4.2654  -4.2610
    -4.2573  -4.2564  -4.2553  -3.9561  -3.6765  -3.3682  -2.7808  -2.6173
    -1.9742  -1.9726  -1.9705  -1.9670  -1.9618  -1.9592  -1.9291  -1.9289
    -1.9247  -1.9172  -1.9168  -1.9155  -1.9125  -1.5653  -1.3469  -0.6664
    -0.6517  -0.6509  -0.6083  -0.5976  -0.5021  -0.4986  -0.4928  -0.4923
    -0.4902  -0.4869   0.0908   0.0932   0.0945   0.4000   0.4011   0.4096
     0.7068   1.5835   1.5876   1.5908   1.5944   1.6102   1.6116   1.6589
     1.6668   1.6822   1.6879   1.6928   1.7076   2.4323   2.4404   2.4429
     3.1306   3.3435   3.3580   3.3611   4.2023   4.2059   4.2096   4.3115
     4.5165   4.8237   4.8808   4.9083   4.9436   4.9473   4.9854   5.1682
     5.4772   5.5078   5.5109   5.5157   5.5212   5.5403   5.6113   5.6139
     5.6200   5.6256   5.6295   5.6312   5.6604   5.7796   5.7817   5.7930
     5.7961   5.8002   5.8027   6.1723   6.4034   6.4761   6.6084   6.6234
     6.6573   6.6625   6.7753   6.7848   7.0466   7.1141   7.1344   7.1455
     7.1502   7.1509   7.1579   7.1586   7.2241   7.2514   7.3107   7.3204
     7.3231   7.3275   7.3315   7.3378   7.4099   7.4216   7.5050   7.6153
     7.6540   7.6984   7.8435   8.0293   8.1111   8.1571   8.1775   8.1891
     8.2015   8.2124   8.2432   8.3049   8.3379   8.4053   8.4185   8.4336
     8.4651   8.4766   8.4953   8.5511   8.5651   8.5925   8.6465   8.6619
     8.8240   9.2202

     occupation numbers 
     1.0000   1.0000   1.0000   1.0000   1.0000   1.0000   1.0000   1.0000
     1.0000   1.0000   1.0000   1.0000   1.0000   1.0000   1.0000   1.0000
     1.0000   1.0000   1.0000   1.0000   1.0000   1.0000   1.0000   1.0000
     1.0000   1.0000   1.0000   1.0000   1.0000   1.0000   1.0000   1.0000
     1.0000   1.0000   1.0000   1.0000   1.0000   1.0000   1.0000   1.0000
     1.0000   1.0000   1.0000   1.0000   1.0000   1.0000   1.0000   1.0000
     1.0000   1.0000   1.0000   1.0000   1.0000   1.0000   1.0000   1.0000
     1.0000   1.0000   1.0000   1.0000   1.0000   1.0000   1.0000   1.0000
     1.0000   1.0000   1.0000   1.0000   1.0000   1.0000   1.0000   1.0000
     1.0000   1.0000   1.0000   1.0000   1.0000   1.0000   1.0000   1.0000
     1.0000   1.0000   1.0000   1.0000   1.0000   1.0000   1.0000   1.0000
     1.0000   1.0000   1.0000   1.0000   1.0000   1.0000   1.0000   1.0000
     1.0000   1.0000   1.0000   1.0000   1.0000   1.0000   1.0000   1.0000
     1.0000   1.0000   1.0000   1.0000   1.0000   1.0000   1.0000   1.0000
     1.0000   1.0000   1.0000   1.0000   1.0000   1.0000   1.0000   1.0000
     1.0000   1.0000   1.0000   1.0000   1.0000   1.0000   1.0000   1.0000
     1.0000   1.0000   1.0000   1.0000   1.0000   1.0000   1.0000   1.0000
     1.0000   1.0000   1.0000   1.0000   1.0000   1.0000   1.0000   1.0000
     1.0000   1.0000   1.0000   1.0000   1.0000   1.0000   1.0000   1.0000
     1.0000   1.0000   1.0000   1.0000   1.0000   1.0000   1.0000   1.0000
     1.0000   1.0000   1.0000   1.0000   1.0000   1.0000   1.0000   1.0000
     1.0000   1.0000   1.0000   1.0000   1.0000   1.0000   1.0000   1.0000
     1.0000   1.0000   1.0000   1.0000   1.0000   1.0000   1.0000   1.0000
     1.0000   1.0000   1.0000   1.0000   1.0000   1.0000   1.0000   1.0000
     1.0000   1.0000   1.0000   1.0000   1.0000   1.0000   1.0000   1.0000
     1.0000   1.0000   1.0000   1.0000   1.0000   1.0000   1.0000   1.0000
     1.0000   1.0000   1.0000   1.0000   1.0000   1.0000   1.0000   1.0000
     1.0000   1.0000   1.0000   1.0000   1.0000   1.0000   1.0000   1.0000
     1.0000   1.0000   1.0000   1.0000   1.0000   1.0000   1.0000   1.0000
     1.0000   1.0000   1.0000   1.0000   1.0000   1.0000   1.0000   1.0000
     1.0000   1.0000   1.0000   1.0000   1.0000   1.0000   1.0000   1.0000
     1.0000   1.0000   1.0000   1.0000   1.0000   1.0000   1.0000   1.0000
     1.0000   1.0000   1.0000   1.0000   1.0000   1.0000   1.0000   1.0000
     1.0000   1.0000   1.0000   1.0000   1.0000   1.0000   1.0000   1.0000
     1.0000   1.0000   1.0000   1.0000   1.0000   1.0000   1.0000   1.0000
     1.0000   1.0000   1.0000   1.0000   1.0000   1.0000   1.0000   1.0000
     1.0000   1.0000   1.0000   1.0000   1.0000   1.0000   1.0000   1.0000
     1.0000   1.0000   1.0000   1.0000   1.0000   1.0000   1.0000   1.0000
     1.0000   1.0000   1.0000   1.0000   1.0000   1.0000   1.0000   1.0000
     1.0000   1.0000   1.0000   1.0000   1.0000   1.0000   1.0000   1.0000
     1.0000   1.0000   1.0000   1.0000   1.0000   1.0000   1.0000   1.0000
     1.0000   1.0000   1.0000   1.0000   1.0000   1.0000   1.0000   1.0000
     1.0000   1.0000   1.0000   1.0000   1.0000   1.0000   1.0000   1.0000
     1.0000   1.0000   1.0000   1.0000   1.0000   1.0000   1.0000   1.0000
     1.0000   1.0000   1.0000   1.0000   1.0000   1.0000   1.0000   1.0000
     1.0000   1.0000   1.0000   1.0000   1.0000   1.0000   1.0000   1.0000
     1.0000   1.0000   1.0000   1.0000   1.0000   1.0000   1.0000   1.0000
     1.0000   1.0000   1.0000   1.0000   1.0000   1.0000   1.0000   1.0000
     1.0000   1.0000   1.0000   1.0000   1.0000   1.0000   1.0000   1.0000
     1.0000   1.0000   1.0000   1.0000   1.0000   1.0000   1.0000   1.0000
     1.0000   1.0000   1.0000   1.0000   1.0000   1.0000   1.0000   1.0000
     1.0000   1.0000   1.0000   1.0000   1.0000   1.0000   1.0000   1.0000
     1.0000   1.0000   1.0000   1.0000   1.0000   1.0000   1.0000   1.0000
     1.0000   1.0000   1.0000   1.0000   1.0000   1.0000   1.0000   1.0000
     1.0000   1.0000   1.0000   1.0000   1.0000   1.0000   1.0000   1.0000
     1.0000   1.0000   1.0000   1.0000   1.0000   1.0000   1.0000   1.0000
     1.0000   1.0000   1.0000   1.0000   1.0000   1.0000   1.0000   1.0000
     1.0000   1.0000   1.0000   1.0000   1.0000   1.0000   1.0000   1.0000
     1.0000   1.0000   1.0000   1.0000   1.0000   1.0000   1.0000   1.0000
     1.0000   1.0000   1.0000   1.0000   1.0000   1.0000   1.0000   1.0000
     1.0000   1.0000   1.0000   1.0000   1.0000   1.0000   1.0000   1.0000
     1.0000   1.0000   1.0000   1.0000   1.0000   1.0000   1.0000   1.0000
     1.0002   0.5167   0.5057   0.4969   0.4873   0.4452   0.4415   0.3254
     0.3076   0.2745   0.2629   0.2531   0.2247   0.0000   0.0000   0.0000
     0.0000   0.0000   0.0000   0.0000   0.0000   0.0000   0.0000   0.0000
     0.0000   0.0000   0.0000   0.0000   0.0000   0.0000   0.0000   0.0000
     0.0000   0.0000   0.0000   0.0000   0.0000   0.0000   0.0000   0.0000
     0.0000   0.0000   0.0000   0.0000   0.0000   0.0000   0.0000   0.0000
     0.0000   0.0000   0.0000   0.0000   0.0000   0.0000   0.0000   0.0000
     0.0000   0.0000   0.0000   0.0000   0.0000   0.0000   0.0000   0.0000
     0.0000   0.0000   0.0000   0.0000   0.0000   0.0000   0.0000   0.0000
     0.0000   0.0000   0.0000   0.0000   0.0000   0.0000   0.0000   0.0000
     0.0000   0.0000   0.0000   0.0000   0.0000   0.0000   0.0000   0.0000
     0.0000   0.0000   0.0000   0.0000   0.0000   0.0000   0.0000   0.0000
     0.0000   0.0000   0.0000   0.0000   0.0000   0.0000   0.0000   0.0000
     0.0000   0.0000

          k = 0.0000 0.3849 0.0000 ( 64840 PWs)   bands (ev):

  -124.9480-124.9454-124.9440-124.9344-124.9337-124.9329-124.9324-124.9321
  -124.9318-124.9310-124.9308-124.9305-124.9304-124.9297-124.9294-124.9290
  -124.8121-124.7500-124.7388-124.7363-124.7353-124.7349-124.7347-124.7344
  -124.7341-124.7334-124.7331-124.7321-124.7312-124.7310-124.7278-124.7263
  -124.7261-124.7260-124.7253-124.7250-124.7244-124.7239-124.7238-124.7236
  -124.7233-124.7229-124.7227-124.7223-124.7221-124.7216-124.7207-124.7176
   -79.1095 -79.1070 -79.1057 -79.1007 -79.0999 -79.0986 -79.0977 -79.0967
   -79.0958 -79.0941 -79.0932 -79.0930 -79.0905 -79.0902 -79.0892 -79.0891
   -79.0874 -79.0864 -79.0842 -79.0826 -79.0804 -79.0797 -79.0793 -79.0790
   -79.0789 -79.0782 -79.0780 -79.0775 -79.0772 -79.0771 -79.0768 -79.0764
   -79.0760 -79.0759 -79.0759 -79.0756 -79.0754 -79.0747 -79.0746 -79.0743
   -79.0740 -79.0739 -79.0728 -79.0720 -79.0704 -79.0693 -79.0687 -79.0673
   -78.9687 -78.9586 -78.9578 -78.9068 -78.9024 -78.9022 -78.8983 -78.8959
   -78.8949 -78.8945 -78.8935 -78.8926 -78.8921 -78.8914 -78.8912 -78.8908
   -78.8903 -78.8901 -78.8900 -78.8894 -78.8894 -78.8889 -78.8888 -78.8884
   -78.8880 -78.8879 -78.8873 -78.8872 -78.8870 -78.8863 -78.8858 -78.8856
   -78.8850 -78.8845 -78.8838 -78.8833 -78.8829 -78.8825 -78.8821 -78.8817
   -78.8816 -78.8813 -78.8811 -78.8808 -78.8805 -78.8800 -78.8795 -78.8794
   -78.8793 -78.8790 -78.8789 -78.8786 -78.8784 -78.8782 -78.8780 -78.8777
   -78.8775 -78.8774 -78.8772 -78.8771 -78.8770 -78.8763 -78.8760 -78.8750
   -78.8744 -78.8743 -78.8742 -78.8737 -78.8726 -78.8721 -78.8712 -78.8708
   -78.8691 -78.8689 -78.8684 -78.8682 -78.8681 -78.8681 -78.8662 -78.8656
   -78.8654 -78.8650 -78.8650 -78.8645 -78.8631 -78.8630 -78.8614 -78.8610
   -78.8608 -78.8607 -78.8585 -78.8585 -78.8582 -78.8565 -78.8563 -78.8545
   -17.4062 -15.9947 -15.1635 -12.7803 -12.6906  -9.7579  -9.5051  -8.2083
    -7.6156  -7.6094  -7.1129  -7.0825  -7.0763  -7.0412  -6.9758  -6.8430
    -6.7452  -6.6999  -6.6978  -6.6931  -6.6459  -6.6141  -6.6112  -6.5901
    -6.5444  -6.5171  -6.5162  -6.5091  -6.4922  -6.4900  -6.4679  -6.4651
    -6.4595  -6.4498  -6.4253  -6.4199  -6.4000  -6.3992  -6.3917  -6.3886
    -6.3767  -6.3739  -6.3693  -6.3647  -6.3606  -6.3503  -6.3492  -6.3474
    -6.3466  -6.3297  -6.3282  -6.3013  -6.2954  -6.2898  -6.2857  -6.2836
    -6.2805  -6.2641  -6.2460  -6.2447  -6.1936  -6.1929  -6.1824  -6.1781
    -6.1693  -6.1633  -6.1599  -6.1557  -6.1500  -6.1312  -6.1286  -6.1229
    -6.1193  -6.1068  -6.1066  -6.0935  -6.0911  -6.0860  -6.0821  -6.0805
    -6.0722  -6.0686  -6.0646  -6.0638  -6.0498  -6.0456  -6.0438  -6.0364
    -6.0281  -6.0166  -5.9800  -5.9789  -5.9740  -5.9709  -5.9629  -5.9529
    -5.9520  -5.9479  -5.9463  -5.9385  -5.9315  -5.9271  -5.9248  -5.9119
    -5.9067  -5.8958  -5.8930  -5.8752  -5.8718  -5.8549  -5.8531  -5.8363
    -5.8268  -5.8241  -5.8228  -5.8155  -5.8120  -5.8005  -5.7965  -5.7951
    -5.7923  -5.7712  -5.7649  -5.7429  -5.7408  -5.7353  -5.7288  -5.7262
    -5.7142  -5.7128  -5.7110  -5.7096  -5.6999  -5.6992  -5.6940  -5.6773
    -5.6695  -5.6668  -5.6604  -5.6567  -5.6522  -5.6498  -5.6460  -5.6445
    -5.6428  -5.6408  -5.6385  -5.6272  -5.6245  -5.6222  -5.6219  -5.6178
    -5.6023  -5.5999  -5.5949  -5.5905  -5.5893  -5.5734  -5.5659  -5.5596
    -5.5533  -5.5525  -5.5442  -5.5433  -5.5358  -5.5298  -5.5281  -5.5272
    -5.5082  -5.5071  -5.5045  -5.4971  -5.4956  -5.4896  -5.4879  -5.4860
    -5.4849  -5.4822  -5.4506  -5.4431  -5.4396  -5.4365  -5.4350  -5.4302
    -5.4243  -5.4214  -5.4197  -5.4127  -5.4108  -5.4072  -5.4064  -5.4031
    -5.4017  -5.4004  -5.3997  -5.3983  -5.3977  -5.3946  -5.3889  -5.3792
    -5.3779  -5.3736  -5.3717  -5.3590  -5.3544  -5.3535  -5.3515  -5.3505
    -5.3434  -5.3432  -5.3273  -5.3198  -5.3129  -5.3119  -5.3093  -5.3083
    -5.3070  -5.3044  -5.3024  -5.3021  -5.2933  -5.2886  -5.2868  -5.2856
    -5.2807  -5.2791  -5.2662  -5.2651  -5.2633  -5.2515  -5.2502  -5.2499
    -5.2380  -5.2378  -5.2375  -5.2186  -5.2180  -5.2111  -5.2091  -5.1879
    -5.1874  -5.1812  -5.1767  -5.1766  -5.1758  -5.1658  -5.1523  -5.1503
    -5.1485  -5.0473  -5.0419  -5.0288  -5.0282  -5.0085  -4.9946  -4.9866
    -4.9241  -4.8898  -4.7860  -4.7822  -4.5427  -4.5378  -4.4754  -4.4044
    -3.9580  -3.6806  -3.5986  -3.5902  -3.4988  -3.4963  -3.2255  -2.9548
    -2.7987  -2.7640  -2.6114  -2.5636  -2.2992  -2.2881  -2.2189  -2.2178
    -1.9226  -1.7727  -1.7719  -1.5656  -1.3577  -1.2843  -1.2809  -1.2406
    -1.2276  -1.1369  -0.7068  -0.6080  -0.3581  -0.3545  -0.3103  -0.0526
    -0.0410   0.0524   0.0562   0.1650   0.1775   0.4710   0.7048   0.8241
     1.0234   1.0318   1.2074   1.2232   1.5825   1.5898   1.6205   1.6347
     2.5519   2.5629   2.5839   2.5915   2.9226   2.9277   3.1389   3.2139
     3.2352   3.2450   3.3326   3.6356   3.6377   3.8775   3.8886   3.9327
     3.9459   3.9518   4.2680   4.2993   4.3375   4.3407   4.4812   4.5532
     4.5949   4.8834   4.8897   5.2165   5.2252   5.2454   5.2503   5.2659
     5.3317   5.6529   5.6901   5.8362   5.8512   5.8589   5.8753   5.9506
     6.1946   6.2510   6.2618   6.3313   6.3801   6.4103   6.4286   6.4343
     6.4598   6.4731   6.4951   6.6246   6.7004   6.7308   6.7364   6.8960
     6.9123   6.9334   6.9566   6.9630   7.0142   7.0993   7.1741   7.2656
     7.4239   7.4566   7.5305   7.5658   7.5757   7.7635   7.8356   7.8459
     7.8883   7.9687   8.0125   8.0172   8.0619   8.0972   8.1557   8.2448
     8.2552   8.2736   8.3996   8.4426   8.4875   8.6236   8.7457   8.7735
     8.8185   8.8342   8.8487   8.8785   8.9360   8.9547   8.9613   9.0112
     9.0565   9.1117

     occupation numbers 
     1.0000   1.0000   1.0000   1.0000   1.0000   1.0000   1.0000   1.0000
     1.0000   1.0000   1.0000   1.0000   1.0000   1.0000   1.0000   1.0000
     1.0000   1.0000   1.0000   1.0000   1.0000   1.0000   1.0000   1.0000
     1.0000   1.0000   1.0000   1.0000   1.0000   1.0000   1.0000   1.0000
     1.0000   1.0000   1.0000   1.0000   1.0000   1.0000   1.0000   1.0000
     1.0000   1.0000   1.0000   1.0000   1.0000   1.0000   1.0000   1.0000
     1.0000   1.0000   1.0000   1.0000   1.0000   1.0000   1.0000   1.0000
     1.0000   1.0000   1.0000   1.0000   1.0000   1.0000   1.0000   1.0000
     1.0000   1.0000   1.0000   1.0000   1.0000   1.0000   1.0000   1.0000
     1.0000   1.0000   1.0000   1.0000   1.0000   1.0000   1.0000   1.0000
     1.0000   1.0000   1.0000   1.0000   1.0000   1.0000   1.0000   1.0000
     1.0000   1.0000   1.0000   1.0000   1.0000   1.0000   1.0000   1.0000
     1.0000   1.0000   1.0000   1.0000   1.0000   1.0000   1.0000   1.0000
     1.0000   1.0000   1.0000   1.0000   1.0000   1.0000   1.0000   1.0000
     1.0000   1.0000   1.0000   1.0000   1.0000   1.0000   1.0000   1.0000
     1.0000   1.0000   1.0000   1.0000   1.0000   1.0000   1.0000   1.0000
     1.0000   1.0000   1.0000   1.0000   1.0000   1.0000   1.0000   1.0000
     1.0000   1.0000   1.0000   1.0000   1.0000   1.0000   1.0000   1.0000
     1.0000   1.0000   1.0000   1.0000   1.0000   1.0000   1.0000   1.0000
     1.0000   1.0000   1.0000   1.0000   1.0000   1.0000   1.0000   1.0000
     1.0000   1.0000   1.0000   1.0000   1.0000   1.0000   1.0000   1.0000
     1.0000   1.0000   1.0000   1.0000   1.0000   1.0000   1.0000   1.0000
     1.0000   1.0000   1.0000   1.0000   1.0000   1.0000   1.0000   1.0000
     1.0000   1.0000   1.0000   1.0000   1.0000   1.0000   1.0000   1.0000
     1.0000   1.0000   1.0000   1.0000   1.0000   1.0000   1.0000   1.0000
     1.0000   1.0000   1.0000   1.0000   1.0000   1.0000   1.0000   1.0000
     1.0000   1.0000   1.0000   1.0000   1.0000   1.0000   1.0000   1.0000
     1.0000   1.0000   1.0000   1.0000   1.0000   1.0000   1.0000   1.0000
     1.0000   1.0000   1.0000   1.0000   1.0000   1.0000   1.0000   1.0000
     1.0000   1.0000   1.0000   1.0000   1.0000   1.0000   1.0000   1.0000
     1.0000   1.0000   1.0000   1.0000   1.0000   1.0000   1.0000   1.0000
     1.0000   1.0000   1.0000   1.0000   1.0000   1.0000   1.0000   1.0000
     1.0000   1.0000   1.0000   1.0000   1.0000   1.0000   1.0000   1.0000
     1.0000   1.0000   1.0000   1.0000   1.0000   1.0000   1.0000   1.0000
     1.0000   1.0000   1.0000   1.0000   1.0000   1.0000   1.0000   1.0000
     1.0000   1.0000   1.0000   1.0000   1.0000   1.0000   1.0000   1.0000
     1.0000   1.0000   1.0000   1.0000   1.0000   1.0000   1.0000   1.0000
     1.0000   1.0000   1.0000   1.0000   1.0000   1.0000   1.0000   1.0000
     1.0000   1.0000   1.0000   1.0000   1.0000   1.0000   1.0000   1.0000
     1.0000   1.0000   1.0000   1.0000   1.0000   1.0000   1.0000   1.0000
     1.0000   1.0000   1.0000   1.0000   1.0000   1.0000   1.0000   1.0000
     1.0000   1.0000   1.0000   1.0000   1.0000   1.0000   1.0000   1.0000
     1.0000   1.0000   1.0000   1.0000   1.0000   1.0000   1.0000   1.0000
     1.0000   1.0000   1.0000   1.0000   1.0000   1.0000   1.0000   1.0000
     1.0000   1.0000   1.0000   1.0000   1.0000   1.0000   1.0000   1.0000
     1.0000   1.0000   1.0000   1.0000   1.0000   1.0000   1.0000   1.0000
     1.0000   1.0000   1.0000   1.0000   1.0000   1.0000   1.0000   1.0000
     1.0000   1.0000   1.0000   1.0000   1.0000   1.0000   1.0000   1.0000
     1.0000   1.0000   1.0000   1.0000   1.0000   1.0000   1.0000   1.0000
     1.0000   1.0000   1.0000   1.0000   1.0000   1.0000   1.0000   1.0000
     1.0000   1.0000   1.0000   1.0000   1.0000   1.0000   1.0000   1.0000
     1.0000   1.0000   1.0000   1.0000   1.0000   1.0000   1.0000   1.0000
     1.0000   1.0000   1.0000   1.0000   1.0000   1.0000   1.0000   1.0000
     1.0000   1.0000   1.0000   1.0000   1.0000   1.0000   1.0000   1.0000
     1.0000   1.0000   1.0000   1.0000   1.0000   1.0000   1.0000   1.0000
     1.0000   1.0000   1.0000   1.0000   1.0000   1.0000   1.0000   1.0000
     1.0000   1.0000   1.0000   1.0000   1.0000   1.0000   1.0000   1.0000
     1.0000   1.0000   1.0000   1.0000   1.0000   1.0000   1.0000   1.0000
     1.0000   1.0000   1.0000   1.0000   1.0000   1.0000   1.0000   1.0000
     1.0000   1.0000   1.0000   1.0000   1.0000   1.0000   1.0000   1.0000
     1.0000   1.0000   1.0000   1.0000   1.0000   1.0000   1.0000   1.0000
     1.0000   1.0000   1.0000   1.0000   1.0000   1.0000   1.0002   1.0018
     1.0242   1.0263   1.0797   1.0822   0.5195   0.4995   0.4187   0.3829
     0.0000   0.0000   0.0000   0.0000   0.0000   0.0000   0.0000   0.0000
     0.0000   0.0000   0.0000   0.0000   0.0000   0.0000   0.0000   0.0000
     0.0000   0.0000   0.0000   0.0000   0.0000   0.0000   0.0000   0.0000
     0.0000   0.0000   0.0000   0.0000   0.0000   0.0000   0.0000   0.0000
     0.0000   0.0000   0.0000   0.0000   0.0000   0.0000   0.0000   0.0000
     0.0000   0.0000   0.0000   0.0000   0.0000   0.0000   0.0000   0.0000
     0.0000   0.0000   0.0000   0.0000   0.0000   0.0000   0.0000   0.0000
     0.0000   0.0000   0.0000   0.0000   0.0000   0.0000   0.0000   0.0000
     0.0000   0.0000   0.0000   0.0000   0.0000   0.0000   0.0000   0.0000
     0.0000   0.0000   0.0000   0.0000   0.0000   0.0000   0.0000   0.0000
     0.0000   0.0000   0.0000   0.0000   0.0000   0.0000   0.0000   0.0000
     0.0000   0.0000   0.0000   0.0000   0.0000   0.0000   0.0000   0.0000
     0.0000   0.0000

          k = 0.3333 0.1925 0.0000 ( 64840 PWs)   bands (ev):

  -124.9480-124.9454-124.9440-124.9344-124.9336-124.9330-124.9325-124.9320
  -124.9317-124.9312-124.9308-124.9305-124.9304-124.9296-124.9294-124.9290
  -124.8121-124.7500-124.7388-124.7363-124.7354-124.7349-124.7348-124.7344
  -124.7339-124.7336-124.7331-124.7321-124.7312-124.7310-124.7278-124.7263
  -124.7261-124.7260-124.7255-124.7248-124.7244-124.7239-124.7238-124.7236
  -124.7233-124.7230-124.7226-124.7223-124.7222-124.7216-124.7207-124.7176
   -79.1094 -79.1070 -79.1057 -79.1007 -79.1002 -79.0987 -79.0977 -79.0961
   -79.0956 -79.0943 -79.0930 -79.0929 -79.0905 -79.0902 -79.0894 -79.0892
   -79.0873 -79.0867 -79.0845 -79.0823 -79.0805 -79.0797 -79.0793 -79.0790
   -79.0788 -79.0783 -79.0780 -79.0776 -79.0773 -79.0771 -79.0766 -79.0763
   -79.0761 -79.0759 -79.0758 -79.0757 -79.0754 -79.0747 -79.0746 -79.0743
   -79.0740 -79.0738 -79.0729 -79.0720 -79.0705 -79.0692 -79.0686 -79.0674
   -78.9687 -78.9586 -78.9578 -78.9068 -78.9028 -78.9021 -78.8985 -78.8954
   -78.8948 -78.8945 -78.8930 -78.8925 -78.8920 -78.8914 -78.8912 -78.8908
   -78.8905 -78.8901 -78.8900 -78.8894 -78.8893 -78.8889 -78.8889 -78.8884
   -78.8883 -78.8879 -78.8879 -78.8875 -78.8872 -78.8863 -78.8859 -78.8856
   -78.8847 -78.8843 -78.8838 -78.8833 -78.8825 -78.8821 -78.8820 -78.8817
   -78.8816 -78.8813 -78.8812 -78.8808 -78.8804 -78.8802 -78.8799 -78.8794
   -78.8793 -78.8790 -78.8789 -78.8788 -78.8787 -78.8784 -78.8780 -78.8777
   -78.8777 -78.8774 -78.8773 -78.8770 -78.8770 -78.8760 -78.8757 -78.8745
   -78.8743 -78.8742 -78.8742 -78.8737 -78.8729 -78.8725 -78.8712 -78.8705
   -78.8691 -78.8690 -78.8684 -78.8682 -78.8680 -78.8678 -78.8667 -78.8657
   -78.8654 -78.8649 -78.8647 -78.8645 -78.8632 -78.8630 -78.8614 -78.8610
   -78.8607 -78.8607 -78.8586 -78.8586 -78.8581 -78.8565 -78.8563 -78.8546
   -17.4062 -15.9947 -15.1635 -12.7803 -12.6906  -9.7579  -9.5052  -8.2083
    -7.6157  -7.6093  -7.1131  -7.0823  -7.0761  -7.0414  -6.9758  -6.8430
    -6.7452  -6.6998  -6.6979  -6.6930  -6.6458  -6.6142  -6.6111  -6.5901
    -6.5444  -6.5169  -6.5165  -6.5089  -6.4921  -6.4900  -6.4676  -6.4655
    -6.4595  -6.4496  -6.4254  -6.4198  -6.4002  -6.3992  -6.3916  -6.3890
    -6.3773  -6.3746  -6.3687  -6.3642  -6.3606  -6.3504  -6.3494  -6.3474
    -6.3465  -6.3297  -6.3280  -6.3016  -6.2952  -6.2896  -6.2859  -6.2838
    -6.2803  -6.2640  -6.2460  -6.2448  -6.1937  -6.1928  -6.1829  -6.1778
    -6.1691  -6.1632  -6.1593  -6.1565  -6.1501  -6.1313  -6.1284  -6.1228
    -6.1194  -6.1068  -6.1065  -6.0935  -6.0912  -6.0863  -6.0818  -6.0808
    -6.0720  -6.0694  -6.0649  -6.0628  -6.0498  -6.0450  -6.0442  -6.0364
    -6.0280  -6.0167  -5.9801  -5.9787  -5.9742  -5.9705  -5.9630  -5.9524
    -5.9518  -5.9479  -5.9473  -5.9384  -5.9314  -5.9270  -5.9246  -5.9119
    -5.9066  -5.8961  -5.8929  -5.8753  -5.8718  -5.8550  -5.8531  -5.8355
    -5.8271  -5.8241  -5.8238  -5.8153  -5.8123  -5.8006  -5.7960  -5.7952
    -5.7923  -5.7719  -5.7642  -5.7424  -5.7415  -5.7351  -5.7288  -5.7263
    -5.7142  -5.7129  -5.7112  -5.7101  -5.6999  -5.6992  -5.6938  -5.6768
    -5.6696  -5.6669  -5.6601  -5.6571  -5.6521  -5.6505  -5.6454  -5.6445
    -5.6431  -5.6406  -5.6385  -5.6270  -5.6240  -5.6221  -5.6219  -5.6179
    -5.6025  -5.5993  -5.5952  -5.5901  -5.5895  -5.5734  -5.5654  -5.5596
    -5.5532  -5.5524  -5.5443  -5.5435  -5.5357  -5.5301  -5.5280  -5.5270
    -5.5077  -5.5068  -5.5045  -5.4972  -5.4957  -5.4896  -5.4882  -5.4859
    -5.4847  -5.4821  -5.4499  -5.4435  -5.4390  -5.4373  -5.4350  -5.4301
    -5.4248  -5.4211  -5.4200  -5.4129  -5.4107  -5.4071  -5.4065  -5.4028
    -5.4013  -5.4007  -5.4001  -5.3984  -5.3977  -5.3944  -5.3888  -5.3790
    -5.3780  -5.3733  -5.3716  -5.3591  -5.3545  -5.3533  -5.3515  -5.3503
    -5.3434  -5.3432  -5.3273  -5.3197  -5.3130  -5.3116  -5.3091  -5.3080
    -5.3071  -5.3048  -5.3024  -5.3022  -5.2933  -5.2881  -5.2873  -5.2857
    -5.2806  -5.2790  -5.2661  -5.2651  -5.2634  -5.2517  -5.2503  -5.2499
    -5.2381  -5.2380  -5.2376  -5.2185  -5.2180  -5.2110  -5.2091  -5.1878
    -5.1872  -5.1810  -5.1770  -5.1766  -5.1761  -5.1658  -5.1523  -5.1501
    -5.1486  -5.0470  -5.0424  -5.0288  -5.0282  -5.0084  -4.9946  -4.9866
    -4.9244  -4.8893  -4.7862  -4.7821  -4.5429  -4.5380  -4.4756  -4.4044
    -3.9577  -3.6804  -3.5990  -3.5898  -3.4991  -3.4962  -3.2255  -2.9543
    -2.7971  -2.7665  -2.6114  -2.5638  -2.2977  -2.2891  -2.2198  -2.2170
    -1.9226  -1.7726  -1.7720  -1.5656  -1.3579  -1.2846  -1.2805  -1.2395
    -1.2284  -1.1372  -0.7068  -0.6080  -0.3589  -0.3540  -0.3099  -0.0533
    -0.0403   0.0526   0.0560   0.1644   0.1779   0.4713   0.7052   0.8227
     1.0244   1.0316   1.2081   1.2231   1.5821   1.5900   1.6214   1.6340
     2.5516   2.5631   2.5799   2.5949   2.9218   2.9277   3.1394   3.2138
     3.2340   3.2462   3.3318   3.6355   3.6374   3.8715   3.8933   3.9320
     3.9452   3.9563   4.2750   4.3004   4.3334   4.3419   4.4843   4.5400
     4.6026   4.8825   4.8897   5.2176   5.2247   5.2457   5.2495   5.2663
     5.3258   5.6458   5.6866   5.8425   5.8514   5.8623   5.8720   5.9839
     6.1954   6.2482   6.2619   6.3274   6.3698   6.4107   6.4308   6.4355
     6.4659   6.4748   6.5286   6.5857   6.6567   6.7305   6.7340   6.8900
     6.9260   6.9413   6.9554   6.9635   7.0335   7.0891   7.1590   7.2727
     7.4212   7.4596   7.5382   7.5607   7.5805   7.7980   7.8320   7.8417
     7.8628   7.9386   8.0137   8.0177   8.0668   8.0972   8.1504   8.2469
     8.2545   8.2732   8.3767   8.4706   8.5028   8.6193   8.7329   8.7747
     8.8141   8.8346   8.8540   8.8804   8.9394   8.9567   8.9630   9.0372
     9.0560   9.1062

     occupation numbers 
     1.0000   1.0000   1.0000   1.0000   1.0000   1.0000   1.0000   1.0000
     1.0000   1.0000   1.0000   1.0000   1.0000   1.0000   1.0000   1.0000
     1.0000   1.0000   1.0000   1.0000   1.0000   1.0000   1.0000   1.0000
     1.0000   1.0000   1.0000   1.0000   1.0000   1.0000   1.0000   1.0000
     1.0000   1.0000   1.0000   1.0000   1.0000   1.0000   1.0000   1.0000
     1.0000   1.0000   1.0000   1.0000   1.0000   1.0000   1.0000   1.0000
     1.0000   1.0000   1.0000   1.0000   1.0000   1.0000   1.0000   1.0000
     1.0000   1.0000   1.0000   1.0000   1.0000   1.0000   1.0000   1.0000
     1.0000   1.0000   1.0000   1.0000   1.0000   1.0000   1.0000   1.0000
     1.0000   1.0000   1.0000   1.0000   1.0000   1.0000   1.0000   1.0000
     1.0000   1.0000   1.0000   1.0000   1.0000   1.0000   1.0000   1.0000
     1.0000   1.0000   1.0000   1.0000   1.0000   1.0000   1.0000   1.0000
     1.0000   1.0000   1.0000   1.0000   1.0000   1.0000   1.0000   1.0000
     1.0000   1.0000   1.0000   1.0000   1.0000   1.0000   1.0000   1.0000
     1.0000   1.0000   1.0000   1.0000   1.0000   1.0000   1.0000   1.0000
     1.0000   1.0000   1.0000   1.0000   1.0000   1.0000   1.0000   1.0000
     1.0000   1.0000   1.0000   1.0000   1.0000   1.0000   1.0000   1.0000
     1.0000   1.0000   1.0000   1.0000   1.0000   1.0000   1.0000   1.0000
     1.0000   1.0000   1.0000   1.0000   1.0000   1.0000   1.0000   1.0000
     1.0000   1.0000   1.0000   1.0000   1.0000   1.0000   1.0000   1.0000
     1.0000   1.0000   1.0000   1.0000   1.0000   1.0000   1.0000   1.0000
     1.0000   1.0000   1.0000   1.0000   1.0000   1.0000   1.0000   1.0000
     1.0000   1.0000   1.0000   1.0000   1.0000   1.0000   1.0000   1.0000
     1.0000   1.0000   1.0000   1.0000   1.0000   1.0000   1.0000   1.0000
     1.0000   1.0000   1.0000   1.0000   1.0000   1.0000   1.0000   1.0000
     1.0000   1.0000   1.0000   1.0000   1.0000   1.0000   1.0000   1.0000
     1.0000   1.0000   1.0000   1.0000   1.0000   1.0000   1.0000   1.0000
     1.0000   1.0000   1.0000   1.0000   1.0000   1.0000   1.0000   1.0000
     1.0000   1.0000   1.0000   1.0000   1.0000   1.0000   1.0000   1.0000
     1.0000   1.0000   1.0000   1.0000   1.0000   1.0000   1.0000   1.0000
     1.0000   1.0000   1.0000   1.0000   1.0000   1.0000   1.0000   1.0000
     1.0000   1.0000   1.0000   1.0000   1.0000   1.0000   1.0000   1.0000
     1.0000   1.0000   1.0000   1.0000   1.0000   1.0000   1.0000   1.0000
     1.0000   1.0000   1.0000   1.0000   1.0000   1.0000   1.0000   1.0000
     1.0000   1.0000   1.0000   1.0000   1.0000   1.0000   1.0000   1.0000
     1.0000   1.0000   1.0000   1.0000   1.0000   1.0000   1.0000   1.0000
     1.0000   1.0000   1.0000   1.0000   1.0000   1.0000   1.0000   1.0000
     1.0000   1.0000   1.0000   1.0000   1.0000   1.0000   1.0000   1.0000
     1.0000   1.0000   1.0000   1.0000   1.0000   1.0000   1.0000   1.0000
     1.0000   1.0000   1.0000   1.0000   1.0000   1.0000   1.0000   1.0000
     1.0000   1.0000   1.0000   1.0000   1.0000   1.0000   1.0000   1.0000
     1.0000   1.0000   1.0000   1.0000   1.0000   1.0000   1.0000   1.0000
     1.0000   1.0000   1.0000   1.0000   1.0000   1.0000   1.0000   1.0000
     1.0000   1.0000   1.0000   1.0000   1.0000   1.0000   1.0000   1.0000
     1.0000   1.0000   1.0000   1.0000   1.0000   1.0000   1.0000   1.0000
     1.0000   1.0000   1.0000   1.0000   1.0000   1.0000   1.0000   1.0000
     1.0000   1.0000   1.0000   1.0000   1.0000   1.0000   1.0000   1.0000
     1.0000   1.0000   1.0000   1.0000   1.0000   1.0000   1.0000   1.0000
     1.0000   1.0000   1.0000   1.0000   1.0000   1.0000   1.0000   1.0000
     1.0000   1.0000   1.0000   1.0000   1.0000   1.0000   1.0000   1.0000
     1.0000   1.0000   1.0000   1.0000   1.0000   1.0000   1.0000   1.0000
     1.0000   1.0000   1.0000   1.0000   1.0000   1.0000   1.0000   1.0000
     1.0000   1.0000   1.0000   1.0000   1.0000   1.0000   1.0000   1.0000
     1.0000   1.0000   1.0000   1.0000   1.0000   1.0000   1.0000   1.0000
     1.0000   1.0000   1.0000   1.0000   1.0000   1.0000   1.0000   1.0000
     1.0000   1.0000   1.0000   1.0000   1.0000   1.0000   1.0000   1.0000
     1.0000   1.0000   1.0000   1.0000   1.0000   1.0000   1.0000   1.0000
     1.0000   1.0000   1.0000   1.0000   1.0000   1.0000   1.0000   1.0000
     1.0000   1.0000   1.0000   1.0000   1.0000   1.0000   1.0000   1.0000
     1.0000   1.0000   1.0000   1.0000   1.0000   1.0000   1.0000   1.0000
     1.0000   1.0000   1.0000   1.0000   1.0000   1.0000   1.0000   1.0000
     1.0000   1.0000   1.0000   1.0000   1.0000   1.0000   1.0002   1.0018
     1.0245   1.0263   1.0799   1.0821   0.5206   0.4990   0.4163   0.3845
     0.0000   0.0000   0.0000   0.0000   0.0000   0.0000   0.0000   0.0000
     0.0000   0.0000   0.0000   0.0000   0.0000   0.0000   0.0000   0.0000
     0.0000   0.0000   0.0000   0.0000   0.0000   0.0000   0.0000   0.0000
     0.0000   0.0000   0.0000   0.0000   0.0000   0.0000   0.0000   0.0000
     0.0000   0.0000   0.0000   0.0000   0.0000   0.0000   0.0000   0.0000
     0.0000   0.0000   0.0000   0.0000   0.0000   0.0000   0.0000   0.0000
     0.0000   0.0000   0.0000   0.0000   0.0000   0.0000   0.0000   0.0000
     0.0000   0.0000   0.0000   0.0000   0.0000   0.0000   0.0000   0.0000
     0.0000   0.0000   0.0000   0.0000   0.0000   0.0000   0.0000   0.0000
     0.0000   0.0000   0.0000   0.0000   0.0000   0.0000   0.0000   0.0000
     0.0000   0.0000   0.0000   0.0000   0.0000   0.0000   0.0000   0.0000
     0.0000   0.0000   0.0000   0.0000   0.0000   0.0000   0.0000   0.0000
     0.0000   0.0000

          k = 0.3333 0.5774 0.0000 ( 64848 PWs)   bands (ev):

  -124.9480-124.9454-124.9440-124.9344-124.9338-124.9330-124.9324-124.9321
  -124.9317-124.9311-124.9308-124.9305-124.9305-124.9297-124.9294-124.9290
  -124.8121-124.7500-124.7388-124.7363-124.7353-124.7349-124.7348-124.7344
  -124.7339-124.7336-124.7330-124.7321-124.7312-124.7310-124.7278-124.7264
  -124.7261-124.7259-124.7254-124.7249-124.7244-124.7239-124.7237-124.7236
  -124.7233-124.7230-124.7227-124.7223-124.7222-124.7216-124.7207-124.7176
   -79.1092 -79.1066 -79.1052 -79.1005 -79.0997 -79.0989 -79.0981 -79.0972
   -79.0964 -79.0941 -79.0939 -79.0930 -79.0904 -79.0901 -79.0899 -79.0892
   -79.0888 -79.0861 -79.0849 -79.0819 -79.0796 -79.0795 -79.0791 -79.0790
   -79.0783 -79.0781 -79.0774 -79.0772 -79.0771 -79.0767 -79.0762 -79.0759
   -79.0758 -79.0756 -79.0755 -79.0753 -79.0751 -79.0747 -79.0745 -79.0743
   -79.0740 -79.0735 -79.0733 -79.0729 -79.0723 -79.0693 -79.0687 -79.0679
   -78.9687 -78.9586 -78.9578 -78.9068 -78.9022 -78.9019 -78.8976 -78.8952
   -78.8948 -78.8945 -78.8938 -78.8932 -78.8926 -78.8915 -78.8913 -78.8912
   -78.8908 -78.8904 -78.8900 -78.8894 -78.8892 -78.8889 -78.8884 -78.8881
   -78.8880 -78.8875 -78.8872 -78.8871 -78.8871 -78.8863 -78.8854 -78.8853
   -78.8848 -78.8844 -78.8843 -78.8840 -78.8839 -78.8832 -78.8825 -78.8822
   -78.8821 -78.8817 -78.8811 -78.8807 -78.8805 -78.8800 -78.8796 -78.8796
   -78.8793 -78.8793 -78.8793 -78.8791 -78.8786 -78.8784 -78.8781 -78.8781
   -78.8777 -78.8775 -78.8769 -78.8764 -78.8760 -78.8753 -78.8751 -78.8749
   -78.8744 -78.8743 -78.8740 -78.8733 -78.8730 -78.8723 -78.8714 -78.8705
   -78.8696 -78.8695 -78.8692 -78.8688 -78.8682 -78.8670 -78.8652 -78.8645
   -78.8644 -78.8637 -78.8636 -78.8630 -78.8628 -78.8619 -78.8617 -78.8613
   -78.8612 -78.8609 -78.8604 -78.8603 -78.8585 -78.8563 -78.8558 -78.8556
   -17.4062 -15.9947 -15.1635 -12.7803 -12.6906  -9.7579  -9.5052  -7.8168
    -7.7945  -7.7916  -7.6144  -7.0588  -6.9927  -6.7625  -6.7619  -6.7613
    -6.6618  -6.6538  -6.6531  -6.6451  -6.6446  -6.6414  -6.6396  -6.6386
    -6.6380  -6.5277  -6.5267  -6.5231  -6.4767  -6.4653  -6.4612  -6.4592
    -6.4556  -6.4520  -6.4497  -6.4493  -6.4479  -6.4232  -6.4189  -6.4145
    -6.4134  -6.4124  -6.4113  -6.4097  -6.4081  -6.4058  -6.3145  -6.3109
    -6.3073  -6.2931  -6.2885  -6.2852  -6.2838  -6.2835  -6.2831  -6.2710
    -6.2690  -6.2684  -6.2502  -6.2487  -6.2442  -6.2239  -6.2236  -6.2223
    -6.2112  -6.2065  -6.2051  -6.2047  -6.1424  -6.1352  -6.1316  -6.1278
    -6.1269  -6.1258  -6.1242  -6.1047  -6.1041  -6.1035  -6.0983  -6.0944
    -6.0914  -6.0902  -6.0685  -6.0663  -6.0516  -6.0507  -6.0481  -6.0026
    -6.0017  -5.9988  -5.9786  -5.9767  -5.9718  -5.9657  -5.9652  -5.9638
    -5.9633  -5.9629  -5.9620  -5.9198  -5.9193  -5.9187  -5.9085  -5.9011
    -5.8995  -5.8957  -5.8934  -5.8924  -5.8908  -5.8895  -5.8820  -5.8471
    -5.8454  -5.8434  -5.8293  -5.8289  -5.8267  -5.8190  -5.8184  -5.8182
    -5.8064  -5.7866  -5.7848  -5.7750  -5.7711  -5.7681  -5.7673  -5.7334
    -5.7317  -5.7204  -5.7167  -5.6866  -5.6852  -5.6842  -5.6809  -5.6777
    -5.6765  -5.6749  -5.6745  -5.6733  -5.6727  -5.6723  -5.6719  -5.6705
    -5.6615  -5.6608  -5.6596  -5.6445  -5.6441  -5.6408  -5.6087  -5.6080
    -5.6054  -5.5913  -5.5861  -5.5849  -5.5435  -5.5342  -5.5292  -5.5251
    -5.5206  -5.5199  -5.5184  -5.5157  -5.5141  -5.5110  -5.4786  -5.4725
    -5.4694  -5.4690  -5.4676  -5.4660  -5.4471  -5.4461  -5.4395  -5.4376
    -5.4363  -5.4344  -5.4293  -5.4288  -5.4273  -5.4233  -5.4170  -5.4159
    -5.4128  -5.4115  -5.4105  -5.4086  -5.4075  -5.4057  -5.4046  -5.4040
    -5.4026  -5.4023  -5.4008  -5.3985  -5.3813  -5.3807  -5.3782  -5.3570
    -5.3525  -5.3368  -5.3361  -5.3326  -5.3316  -5.3303  -5.3293  -5.3288
    -5.3282  -5.3280  -5.3164  -5.3154  -5.3142  -5.3131  -5.3124  -5.3115
    -5.3096  -5.3088  -5.3076  -5.2950  -5.2891  -5.2874  -5.2858  -5.2812
    -5.2798  -5.2790  -5.2750  -5.2748  -5.2739  -5.2587  -5.2582  -5.2567
    -5.2564  -5.2562  -5.2549  -5.2390  -5.2383  -5.2369  -5.1910  -5.1900
    -5.1899  -5.1368  -5.1354  -5.1314  -5.1278  -5.1267  -5.1253  -5.1133
    -5.1132  -5.1125  -5.1113  -5.1110  -5.1106  -5.0504  -5.0310  -5.0297
    -4.9548  -4.8907  -4.8117  -4.8103  -4.8098  -4.4760  -3.9587  -3.6953
    -3.6476  -3.6452  -3.6251  -3.3347  -3.3241  -3.3212  -3.3142  -3.3139
    -3.3098  -2.9365  -2.9350  -2.9292  -2.7727  -2.6069  -1.9232  -1.8989
    -1.8952  -1.8907  -1.8877  -1.8866  -1.8844  -1.5659  -1.4204  -1.4047
    -1.3964  -1.3304  -0.6080   0.1903   0.2124   0.2185   0.2361   0.2437
     0.2469   0.2500   0.2523   0.2543   0.2588   0.2629   0.2697   0.7151
     0.7554   0.7579   0.7665   1.3377   1.3437   1.3465   2.3046   2.3622
     2.3724   2.3840   2.5637   2.6210   2.8701   2.8780   2.8808   3.4908
     3.7011   3.7201   3.7565   3.9998   4.0074   4.0097   4.0335   4.2036
     4.2299   4.2513   4.2604   4.2645   4.2701   4.3875   4.5455   4.5643
     4.5693   4.5750   4.5801   4.5830   4.5847   4.6041   4.6999   4.7166
     4.7194   5.4266   5.4838   5.5145   5.5856   5.8018   5.8554   5.9313
     6.0665   6.0744   6.0780   6.0839   6.0850   6.0883   6.1374   6.2006
     6.2712   6.3275   6.4036   6.5298   6.8251   6.9041   6.9579   6.9993
     7.0521   7.0754   7.0985   7.1122   7.1664   7.2071   7.2549   7.2725
     7.3069   7.3458   7.3562   7.3859   7.4508   7.6644   7.7166   7.8591
     8.0450   8.0485   8.0507   8.0711   8.1219   8.3201   8.3956   8.4213
     8.4471   8.4598   8.4889   8.5046   8.5709   8.6947   8.7310   8.8216
     8.8421   8.8741   8.8923   8.9293   8.9732   8.9886   9.0579   9.1213
     9.2004   9.2281

     occupation numbers 
     1.0000   1.0000   1.0000   1.0000   1.0000   1.0000   1.0000   1.0000
     1.0000   1.0000   1.0000   1.0000   1.0000   1.0000   1.0000   1.0000
     1.0000   1.0000   1.0000   1.0000   1.0000   1.0000   1.0000   1.0000
     1.0000   1.0000   1.0000   1.0000   1.0000   1.0000   1.0000   1.0000
     1.0000   1.0000   1.0000   1.0000   1.0000   1.0000   1.0000   1.0000
     1.0000   1.0000   1.0000   1.0000   1.0000   1.0000   1.0000   1.0000
     1.0000   1.0000   1.0000   1.0000   1.0000   1.0000   1.0000   1.0000
     1.0000   1.0000   1.0000   1.0000   1.0000   1.0000   1.0000   1.0000
     1.0000   1.0000   1.0000   1.0000   1.0000   1.0000   1.0000   1.0000
     1.0000   1.0000   1.0000   1.0000   1.0000   1.0000   1.0000   1.0000
     1.0000   1.0000   1.0000   1.0000   1.0000   1.0000   1.0000   1.0000
     1.0000   1.0000   1.0000   1.0000   1.0000   1.0000   1.0000   1.0000
     1.0000   1.0000   1.0000   1.0000   1.0000   1.0000   1.0000   1.0000
     1.0000   1.0000   1.0000   1.0000   1.0000   1.0000   1.0000   1.0000
     1.0000   1.0000   1.0000   1.0000   1.0000   1.0000   1.0000   1.0000
     1.0000   1.0000   1.0000   1.0000   1.0000   1.0000   1.0000   1.0000
     1.0000   1.0000   1.0000   1.0000   1.0000   1.0000   1.0000   1.0000
     1.0000   1.0000   1.0000   1.0000   1.0000   1.0000   1.0000   1.0000
     1.0000   1.0000   1.0000   1.0000   1.0000   1.0000   1.0000   1.0000
     1.0000   1.0000   1.0000   1.0000   1.0000   1.0000   1.0000   1.0000
     1.0000   1.0000   1.0000   1.0000   1.0000   1.0000   1.0000   1.0000
     1.0000   1.0000   1.0000   1.0000   1.0000   1.0000   1.0000   1.0000
     1.0000   1.0000   1.0000   1.0000   1.0000   1.0000   1.0000   1.0000
     1.0000   1.0000   1.0000   1.0000   1.0000   1.0000   1.0000   1.0000
     1.0000   1.0000   1.0000   1.0000   1.0000   1.0000   1.0000   1.0000
     1.0000   1.0000   1.0000   1.0000   1.0000   1.0000   1.0000   1.0000
     1.0000   1.0000   1.0000   1.0000   1.0000   1.0000   1.0000   1.0000
     1.0000   1.0000   1.0000   1.0000   1.0000   1.0000   1.0000   1.0000
     1.0000   1.0000   1.0000   1.0000   1.0000   1.0000   1.0000   1.0000
     1.0000   1.0000   1.0000   1.0000   1.0000   1.0000   1.0000   1.0000
     1.0000   1.0000   1.0000   1.0000   1.0000   1.0000   1.0000   1.0000
     1.0000   1.0000   1.0000   1.0000   1.0000   1.0000   1.0000   1.0000
     1.0000   1.0000   1.0000   1.0000   1.0000   1.0000   1.0000   1.0000
     1.0000   1.0000   1.0000   1.0000   1.0000   1.0000   1.0000   1.0000
     1.0000   1.0000   1.0000   1.0000   1.0000   1.0000   1.0000   1.0000
     1.0000   1.0000   1.0000   1.0000   1.0000   1.0000   1.0000   1.0000
     1.0000   1.0000   1.0000   1.0000   1.0000   1.0000   1.0000   1.0000
     1.0000   1.0000   1.0000   1.0000   1.0000   1.0000   1.0000   1.0000
     1.0000   1.0000   1.0000   1.0000   1.0000   1.0000   1.0000   1.0000
     1.0000   1.0000   1.0000   1.0000   1.0000   1.0000   1.0000   1.0000
     1.0000   1.0000   1.0000   1.0000   1.0000   1.0000   1.0000   1.0000
     1.0000   1.0000   1.0000   1.0000   1.0000   1.0000   1.0000   1.0000
     1.0000   1.0000   1.0000   1.0000   1.0000   1.0000   1.0000   1.0000
     1.0000   1.0000   1.0000   1.0000   1.0000   1.0000   1.0000   1.0000
     1.0000   1.0000   1.0000   1.0000   1.0000   1.0000   1.0000   1.0000
     1.0000   1.0000   1.0000   1.0000   1.0000   1.0000   1.0000   1.0000
     1.0000   1.0000   1.0000   1.0000   1.0000   1.0000   1.0000   1.0000
     1.0000   1.0000   1.0000   1.0000   1.0000   1.0000   1.0000   1.0000
     1.0000   1.0000   1.0000   1.0000   1.0000   1.0000   1.0000   1.0000
     1.0000   1.0000   1.0000   1.0000   1.0000   1.0000   1.0000   1.0000
     1.0000   1.0000   1.0000   1.0000   1.0000   1.0000   1.0000   1.0000
     1.0000   1.0000   1.0000   1.0000   1.0000   1.0000   1.0000   1.0000
     1.0000   1.0000   1.0000   1.0000   1.0000   1.0000   1.0000   1.0000
     1.0000   1.0000   1.0000   1.0000   1.0000   1.0000   1.0000   1.0000
[...]
     atom   27 type  1   force =    -0.00001818    0.00001603    0.00001673
     atom   28 type  1   force =     0.00001617    0.00000761    0.00002779
     atom   29 type  1   force =     0.00000000   -0.00000000   -0.00000000
     atom   30 type  1   force =    -0.00000000    0.00000000   -0.00000000
     atom   31 type  1   force =     0.00000699   -0.00000439    0.00002685
     atom   32 type  1   force =    -0.00001102    0.00001295    0.00000566
     atom   33 type  1   force =    -0.00002838   -0.00000817    0.00000490
     atom   34 type  1   force =     0.00002789   -0.00002747    0.00000229
     atom   35 type  1   force =    -0.00002962    0.00000499   -0.00001535
     atom   36 type  1   force =     0.00003694   -0.00001290    0.00004468
     atom   37 type  1   force =     0.00001224    0.00000181   -0.00000888
     atom   38 type  1   force =    -0.00001701    0.00004874    0.00000928
     atom   39 type  1   force =     0.00001165   -0.00000612    0.00000704
     atom   40 type  1   force =    -0.00001838    0.00002089   -0.00003369
     atom   41 type  1   force =     0.00000939   -0.00003976    0.00004415
     atom   42 type  1   force =    -0.00001473    0.00000244   -0.00003885
     atom   43 type  1   force =    -0.00004191    0.00000010    0.00002795
     atom   44 type  1   force =     0.00002815   -0.00000770    0.00000503
     atom   45 type  1   force =    -0.00003058    0.00003066   -0.00001200
     atom   46 type  1   force =     0.00003092    0.00001252    0.00002318
     atom   47 type  1   force =     0.00001435   -0.00000782   -0.00000580
     atom   48 type  1   force =    -0.00001337    0.00002256   -0.00001931
     atom   49 type  3   force =     0.00000415   -0.00000350   -0.00000050
     atom   50 type  3   force =     0.00000094   -0.00000381    0.00000670
     atom   51 type  3   force =    -0.00000020   -0.00000265    0.00000502
     atom   52 type  3   force =     0.00000490    0.00000553    0.00000592
     atom   53 type  3   force =     0.00000430    0.00000261    0.00000386
     atom   54 type  3   force =     0.00000029   -0.00000399    0.00000755
     atom   55 type  3   force =     0.00000883   -0.00000167    0.00000611
     atom   56 type  2   force =     0.00000603   -0.00000256   -0.00000036
     atom   57 type  2   force =     0.00000523   -0.00001151   -0.00000572
     atom   58 type  4   force =    -0.00000046   -0.00000157   -0.00000041
     atom   59 type  4   force =     0.00000078    0.00000011   -0.00000100
     atom   60 type  4   force =     0.00000029    0.00000070    0.00000096
     atom   61 type  4   force =    -0.00000030   -0.00000022    0.00000014
     atom   62 type  4   force =    -0.00000008    0.00000005    0.00000099
     atom   63 type  4   force =     0.00000048    0.00000066    0.00000019

     DFT-D3 dispersion contribution to forces:
     atom    1 type  1   force =    -0.00000206   -0.00001111    0.00264874
     atom    2 type  1   force =    -0.00001527    0.00002212    0.00269886
     atom    3 type  1   force =     0.00020810    0.00008844   -0.00238370
     atom    4 type  1   force =    -0.00043001    0.00045829   -0.00165618
     atom    5 type  1   force =     0.00000396   -0.00000305    0.00264124
     atom    6 type  1   force =    -0.00000884   -0.00000308    0.00275415
     atom    7 type  1   force =     0.00002075   -0.00000331   -0.00259043
     atom    8 type  1   force =     0.00001428   -0.00007270   -0.00238217
     atom    9 type  1   force =    -0.00001182   -0.00000028    0.00265852
     atom   10 type  1   force =     0.00002197   -0.00001487    0.00267572
     atom   11 type  1   force =    -0.00011795   -0.00003551   -0.00246537
     atom   12 type  1   force =     0.00030179   -0.00051686   -0.00173171
     atom   13 type  1   force =    -0.00000006    0.00000772    0.00265154
     atom   14 type  1   force =     0.00000412   -0.00000533    0.00262604
     atom   15 type  1   force =     0.00001057    0.00002513   -0.00244002
     atom   16 type  1   force =    -0.00000636    0.00000859   -0.00260365
     atom   17 type  1   force =     0.00000389    0.00002477    0.00272059
     atom   18 type  1   force =     0.00001120   -0.00000775    0.00262813
     atom   19 type  1   force =     0.00024503    0.00049648   -0.00167376
     atom   20 type  1   force =    -0.00007975    0.00004029   -0.00258072
     atom   21 type  1   force =     0.00002935   -0.00001702    0.00269342
     atom   22 type  1   force =    -0.00002803   -0.00001079    0.00268785
     atom   23 type  1   force =     0.00062983   -0.00012945   -0.00161795
     atom   24 type  1   force =    -0.00055256    0.00004137   -0.00185267
     atom   25 type  1   force =     0.00000890   -0.00000553    0.00264102
     atom   26 type  1   force =    -0.00002295   -0.00001943    0.00268333
     atom   27 type  1   force =     0.00008748   -0.00005548   -0.00254615
     atom   28 type  1   force =    -0.00028529   -0.00045320   -0.00158949
     atom   29 type  1   force =    -0.00000435    0.00001829    0.00267065
     atom   30 type  1   force =    -0.00000226    0.00001238    0.00262293
     atom   31 type  1   force =    -0.00003236    0.00018011   -0.00243389
     atom   32 type  1   force =     0.00002642   -0.00013973   -0.00245821
     atom   33 type  1   force =     0.00001379    0.00000833    0.00005617
     atom   34 type  1   force =     0.00000118    0.00000189    0.00001686
     atom   35 type  1   force =    -0.00001628    0.00001739   -0.00000067
     atom   36 type  1   force =    -0.00000913    0.00003220    0.00011138
     atom   37 type  1   force =     0.00000073   -0.00001190    0.00003991
     atom   38 type  1   force =    -0.00000101   -0.00002480    0.00014745
     atom   39 type  1   force =    -0.00001369   -0.00002513   -0.00000991
     atom   40 type  1   force =     0.00000420   -0.00001143    0.00002246
     atom   41 type  1   force =    -0.00001161   -0.00010495   -0.00009156
     atom   42 type  1   force =     0.00000206    0.00000012   -0.00000534
     atom   43 type  1   force =     0.00003207    0.00000780    0.00021464
     atom   44 type  1   force =    -0.00002017   -0.00000172    0.00005494
     atom   45 type  1   force =    -0.00009408    0.00005539   -0.00008122
     atom   46 type  1   force =     0.00010191    0.00006685   -0.00010363
     atom   47 type  1   force =     0.00000988    0.00001977    0.00005523
     atom   48 type  1   force =     0.00000278   -0.00001441    0.00003860
     atom   49 type  3   force =     0.00003382    0.00007786    0.00004472
     atom   50 type  3   force =     0.00003206    0.00005006   -0.00014931
     atom   51 type  3   force =     0.00004946    0.00010442   -0.00023798
     atom   52 type  3   force =    -0.00010423   -0.00016630    0.00005163
     atom   53 type  3   force =     0.00016433    0.00028232   -0.00085466
     atom   54 type  3   force =    -0.00004871   -0.00008206   -0.00008113
     atom   55 type  3   force =    -0.00002050   -0.00007919   -0.00100813
     atom   56 type  2   force =    -0.00008305   -0.00018521   -0.00026473
     atom   57 type  2   force =     0.00000327   -0.00000229   -0.00191857
     atom   58 type  4   force =     0.00000189    0.00003866   -0.00149357
     atom   59 type  4   force =    -0.00011437   -0.00007431   -0.00118325
     atom   60 type  4   force =     0.00001891    0.00002992   -0.00001333
     atom   61 type  4   force =     0.00002303    0.00004110   -0.00006673
     atom   62 type  4   force =    -0.00000522   -0.00000691   -0.00007441
     atom   63 type  4   force =     0.00001897    0.00003705   -0.00091250

     Total force =     0.001598     Total SCF correction =     0.000202

     DFT-D3 dispersion Force =     0.014345
     SCF correction compared to forces is large: reduce conv_thr to get better values


     Computing stress (Cartesian axis) and pressure


     negative rho (up, down):  3.451E-03 0.000E+00
          total   stress  (Ry/bohr**3)                   (kbar)     P=       -9.18
  -0.00009096   0.00000038  -0.00000006          -13.38        0.06       -0.01
   0.00000038  -0.00009059   0.00000027            0.06      -13.33        0.04
  -0.00000006   0.00000027  -0.00000575           -0.01        0.04       -0.85

     kinetic stress (kbar)  13006.53    -30.31     -4.58
                              -30.31  12972.03     -6.70
                               -4.58     -6.70  13022.44

     local   stress (kbar)**********   -937.27   -234.09
                             -937.27**********   -572.63
                             -234.09   -572.631170969.52

     nonloc. stress (kbar)  -1181.31      2.35      0.58
                                2.35  -1178.21      1.70
                                0.58      1.70  -1219.11

     hartree stress (kbar) 606572.98    361.51     96.83
                              361.51 607032.04    237.12
                               96.83    237.12-549619.25

     exc-cor stress (kbar)  -6328.03      1.53      0.20
                                1.53  -6326.17      0.52
                                0.20      0.52  -6333.76

     corecor stress (kbar)    -82.87     -0.46     -0.04
                               -0.46    -83.45     -0.17
                               -0.04     -0.17    -83.96

     ewald   stress (kbar) 547461.05    602.70    141.10
                              602.70 548212.57    340.21
                              141.10    340.21-626732.18

     hubbard stress (kbar)      0.00      0.00      0.00
                                0.00      0.00      0.00
                                0.00      0.00      0.00

     DFT-D   stress (kbar)    -10.34      0.00     -0.00
                                0.00    -10.34     -0.00
                               -0.00     -0.00     -4.55

     XDM     stress (kbar)      0.00      0.00      0.00
                                0.00      0.00      0.00
                                0.00      0.00      0.00

     dft-nl  stress (kbar)      0.00      0.00      0.00
                                0.00      0.00      0.00
                                0.00      0.00      0.00

     TS-vdW  stress (kbar)      0.00      0.00      0.00
                                0.00      0.00      0.00
                                0.00      0.00      0.00

     MDB     stress (kbar)      0.00      0.00      0.00
                                0.00      0.00      0.00
                                0.00      0.00      0.00

     3D-RISM stress (kbar)      0.00      0.00      0.00
                                0.00      0.00      0.00
                                0.00      0.00      0.00

     Energy error            =      3.8E-06 Ry
     Gradient error          =      5.0E-04 Ry/Bohr

     bfgs converged in  17 scf cycles and  16 bfgs steps
     (criteria: energy <  1.0E-05 Ry, force <  5.0E-04 Ry/Bohr)

     End of BFGS Geometry Optimization

     Final energy             =  -22331.5320681776 Ry

     File ./tmp/05_Zn002_ABN_topsite_tilted_edgeon.bfgs deleted, as requested
Begin final coordinates

ATOMIC_POSITIONS (angstrom)
Zn               0.0000000000        1.5094010000        1.2182900000    0   0   0
Zn               5.2287200000        1.5094010000        1.2182900000    0   0   0
Zn               0.0014113615        1.5109374357        6.1795454757
Zn               5.2278510493        1.5126562460        6.2026554474
Zn              -1.3071800000        3.7735030000        1.2182900000    0   0   0
Zn               3.9215400000        3.7735030000        1.2182900000    0   0   0
Zn              -1.3054656736        3.7749803509        6.1702813520
Zn               3.9265827987        3.7764334361        6.0332834506
Zn              -2.6143600000        6.0376050000        1.2182900000    0   0   0
Zn               2.6143600000        6.0376050000        1.2182900000    0   0   0
Zn              -2.6138510411        6.0388880332        6.1789605778
Zn               2.6173931766        6.0372140346        6.1873610748
Zn              -3.9215400000        8.3017080000        1.2182900000    0   0   0
Zn               1.3071800000        8.3017080000        1.2182900000    0   0   0
Zn              -3.9206494438        8.3023166034        6.1747832739
Zn               1.3073884232        8.3033960922        6.1715619327
Zn               2.6143600000        1.5094010000        1.2182900000    0   0   0
Zn               7.8430800000        1.5094010000        1.2182900000    0   0   0
Zn               2.6152578963        1.5096061763        6.1392352378
Zn               7.8427066744        1.5111249928        6.1736946307
Zn               1.3071800000        3.7735030000        1.2182900000    0   0   0
Zn               6.5359000000        3.7735030000        1.2182900000    0   0   0
Zn               1.3114278882        3.7732762807        6.1835102527
Zn               6.5363094135        3.7737928298        6.1806576637
Zn               0.0000000000        6.0376050000        1.2182900000    0   0   0
Zn               5.2287200000        6.0376050000        1.2182900000    0   0   0
Zn               0.0022341684        6.0385746747        6.1757464297
Zn               5.2291561119        6.0377281663        6.1838429032
Zn              -1.3071800000        8.3017080000        1.2182900000    0   0   0
Zn               3.9215400000        8.3017080000        1.2182900000    0   0   0
Zn              -1.3055926813        8.3045755661        6.1762991401
Zn               3.9219385093        8.3026805293        6.1806826147
Zn               1.3059059914        0.7532796513        3.6929595406
Zn               6.5374332592        0.7543701924        3.7019622105
Zn              -0.0012014153        3.0198780856        3.6992353330
Zn               5.2362935251        3.0163265947        3.6790971172
Zn              -1.3065866981        5.2836658306        3.7006836722
Zn               3.9227851754        5.2917206421        3.6792113411
Zn              -2.6138005267        7.5470775745        3.6957138696
Zn               2.6143362326        7.5489475403        3.7017003811
Zn               3.9244500464        0.7526731354        3.6869762468
Zn               9.1500597517        0.7553987526        3.6964916876
Zn               2.6098105742        3.0183633377        3.6734767286
Zn               7.8449282096        3.0195387223        3.7008466462
Zn               1.3067872699        5.2851870951        3.7007753748
Zn               6.5380076914        5.2848752452        3.6967361365
Zn               0.0012598868        7.5480557990        3.7004135867
Zn               5.2297935897        7.5480729574        3.7020554098
C                4.6618092455        5.4322081889       14.4935061119
C                4.3938758586        4.8510064531       13.2214746862
C                4.7981464088        5.4980497775       12.0367748796
C                3.7114993824        3.6221605474       13.1254146999
C                4.5218618365        4.9406732165       10.7982058019
C                3.4352231441        3.0642456108       11.8872447286
C                3.8278020501        3.7155376601       10.6992258354
N                4.8748939185        5.9127597391       15.5363796855
N                3.5857591848        3.1479033355        9.4677780904
H                2.8812239949        2.4225830340        9.3990858912
H                3.6293148024        3.7482146024        8.6493217722
H                3.3984295294        3.1098545631       14.0349311164
H                5.3312405226        6.4466621674       12.1006421278
H                2.9069747078        2.1108235634       11.8290892286
H                4.8411169756        5.4509162214        9.8867292248
End final coordinates



     Writing all to output data dir ./tmp/05_Zn002_ABN_topsite_tilted_edgeon.save/ :
     XML data file, charge density, pseudopotentials, collected wavefunctions

     init_run     :     66.26s CPU     66.88s WALL (       1 calls)
     electrons    :  55842.70s CPU  56293.01s WALL (      17 calls)
     update_pot   :      2.86s CPU      2.96s WALL (      16 calls)
     forces       :   2560.51s CPU   2575.27s WALL (      17 calls)
     force_dftd3  :      3.98s CPU      4.26s WALL (      17 calls)
     stress       :   3479.39s CPU   3505.76s WALL (      17 calls)
     stres_dftd3  :      4.01s CPU      4.22s WALL (      17 calls)

     Called by init_run:
     wfcinit      :     64.78s CPU     65.34s WALL (       1 calls)
     wfcinit:atom :      0.03s CPU      0.05s WALL (       5 calls)
     wfcinit:wfcr :     64.18s CPU     64.60s WALL (       5 calls)
     potinit      :      0.14s CPU      0.16s WALL (       1 calls)
     hinit0       :      0.08s CPU      0.09s WALL (       1 calls)

     Called by electrons:
     c_bands      :  53026.86s CPU  53421.03s WALL (     140 calls)
     sum_band     :   2464.21s CPU   2503.12s WALL (     140 calls)
     v_of_rho     :     11.84s CPU     12.40s WALL (     141 calls)
     v_h          :      0.71s CPU      0.77s WALL (     141 calls)
     v_xc         :     13.78s CPU     14.59s WALL (     175 calls)
     newd         :    370.85s CPU    387.30s WALL (     141 calls)
     PAW_pot      :     10.35s CPU     10.40s WALL (     157 calls)
     mix_rho      :      1.16s CPU      1.64s WALL (     140 calls)
     energy_dftd3 :      2.34s CPU      2.35s WALL (      17 calls)

     Called by c_bands:
     init_us_2    :     32.33s CPU     32.62s WALL (    1655 calls)
     cegterg      :  52966.62s CPU  53353.93s WALL (     700 calls)

     Called by sum_band:
     sum_band:wei :      0.34s CPU      0.35s WALL (     140 calls)
     sum_band:loo :   2115.20s CPU   2126.61s WALL (     140 calls)
     sum_band:buf :      5.82s CPU      6.28s WALL (     700 calls)
     sum_band:ini :     13.50s CPU     13.58s WALL (     700 calls)
     sum_band:cal :   2030.43s CPU   2040.17s WALL (     780 calls)
     sum_band:bec :     18.28s CPU     18.33s WALL (     780 calls)
     addusdens    :    345.96s CPU    372.11s WALL (     140 calls)
                                        0.00s GPU  (     140 calls)
     addusd:skk   :      1.97s CPU      4.17s WALL (     560 calls)
                                        0.00s GPU  (     560 calls)

     Called by *egterg:
     cdiaghg      :   1703.02s CPU   1774.76s WALL (    2935 calls)
     cegterg:over :  12291.24s CPU  12335.67s WALL (    2395 calls)
     cegterg:upda :   3590.18s CPU   3618.76s WALL (    2395 calls)
     cegterg:last :  20859.03s CPU  20965.63s WALL (    1381 calls)
     cdiaghg:chol :    119.32s CPU    119.66s WALL (    2935 calls)
     cdiaghg:inve :     18.06s CPU     18.12s WALL (    2935 calls)
     cdiaghg:para :    466.08s CPU    477.28s WALL (    5870 calls)
     h_psi        :   8873.68s CPU   8937.61s WALL (    3100 calls)
     s_psi        :   3745.75s CPU   3755.52s WALL (    3100 calls)
     g_psi        :      4.50s CPU      4.57s WALL (    2395 calls)

     Called by h_psi:
     h_psi:calbec :   4050.32s CPU   4070.97s WALL (    3100 calls)
     vloc_psi     :   1055.70s CPU   1063.92s WALL (    3100 calls)
     add_vuspsi   :   3757.73s CPU   3769.98s WALL (    3100 calls)

     General routines
     calbec       :   8689.59s CPU   8729.09s WALL (    4305 calls)
     fft          :      8.25s CPU      9.29s WALL (    2256 calls)
     ffts         :      0.29s CPU      0.34s WALL (     281 calls)
     fftw         :   1138.47s CPU   1147.09s WALL ( 2293912 calls)
     interpolate  :      0.57s CPU      0.64s WALL (     141 calls)

     Parallel routines

     PAW routines
     PAW_pot      :     10.35s CPU     10.40s WALL (     157 calls)

     PWSCF        :     17h16m CPU     17h25m WALL


   This run was terminated on:  19:42:15   5Apr2025            

=------------------------------------------------------------------------------=
   JOB DONE.
=------------------------------------------------------------------------------=
