
     Program PWSCF v.7.3.1 starts on 27Mar2025 at 20:39:59 

     This program is part of the open-source Quantum ESPRESSO suite
     for quantum simulation of materials; please cite
         "P. Giannozzi et al., J. Phys.:Condens. Matter 21 395502 (2009);
         "P. Giannozzi et al., J. Phys.:Condens. Matter 29 465901 (2017);
         "P. Giannozzi et al., J. Chem. Phys. 152 154105 (2020);
          URL http://www.quantum-espresso.org", 
     in publications or presentations arising from this work. More details at
     http://www.quantum-espresso.org/quote

     Parallel version (MPI), running on    33 processors

     MPI processes distributed on     1 nodes
     9070 MiB available memory on the printing compute node when the environment starts

     Waiting for input...
     Reading input from standard input
Warning: card &CELL ignored
Warning: card   CELL_DOFREE = 'ALL' ignored
Warning: card / ignored

     Current dimensions of program PWSCF are:
     Max number of different atomic species (ntypx) = 10
     Max number of k-points (npk) =  40000
     Max angular momentum in pseudopotentials (lmaxx) =  4

     R & G space division:  proc/nbgrp/npool/nimage =      33
     Subspace diagonalization in iterative solution of the eigenvalue problem:
     one sub-group per band group will be used
     custom distributed-memory algorithm (size of sub-group:  5*  5 procs)


     Parallelization info
     --------------------
     sticks:   dense  smooth     PW     G-vecs:    dense   smooth      PW
     Min         245     140     36                38015    16424    2211
     Max         246     141     37                38023    16429    2226
     Sum        8103    4637   1215              1254623   542067   73181

     Using Slab Decomposition



     bravais-lattice index     =            0
     lattice parameter (alat)  =      18.4179  a.u.
     unit-cell volume          =   15858.2170 (a.u.)^3
     number of atoms/cell      =           64
     number of atomic types    =            1
     number of electrons       =      1280.00
     number of Kohn-Sham states=          768
     kinetic-energy cutoff     =      40.0000  Ry
     charge density cutoff     =     280.0000  Ry
     scf convergence threshold =      1.0E-06
     mixing beta               =       0.4000
     number of iterations used =            8  plain     mixing
     energy convergence thresh.=      1.0E-05
     force convergence thresh. =      5.0E-04
     Exchange-correlation= SLA  PW   PBE  PBE
                           (   1   4   3   4   0   0   0)
     nstep                     =          100


     celldm(1)=  18.417879  celldm(2)=   0.000000  celldm(3)=   0.000000
     celldm(4)=   0.000000  celldm(5)=   0.000000  celldm(6)=   0.000000

     crystal axes: (cart. coord. in units of alat)
               a(1) = (   1.000000   0.000000   0.000000 )  
               a(2) = (   0.000000   1.072963   0.000000 )  
               a(3) = (   0.000000  -1.365810   2.365652 )  

     reciprocal axes: (cart. coord. in units 2 pi/alat)
               b(1) = (  1.000000  0.000000 -0.000000 )  
               b(2) = ( -0.000000  0.931999  0.538090 )  
               b(3) = (  0.000000  0.000000  0.422716 )  


     PseudoPot. # 1 for Zn read from file:
     /home/ys/qepseudo/SSSP_1.3.0_PBE_efficiency/Zn_pbe_v1.uspp.F.UPF
     MD5 check sum: df62231357ef9e81f77b2b3087fa5675
     Pseudo is Ultrasoft, Zval = 20.0
     Generated by new atomic code, or converted to UPF format
     Using radial grid of  943 points,  6 beta functions with: 
                l(1) =   0
                l(2) =   0
                l(3) =   1
                l(4) =   1
                l(5) =   2
                l(6) =   2
     Q(r) pseudized with  8 coefficients,  rinner =    1.100   1.100   1.100
                                                       1.100   1.100

     atomic species   valence    mass     pseudopotential
     Zn               20.00    65.38000     Zn( 1.00)

     No symmetry found


                                    s                        frac. trans.

      isym =  1     identity                                     

 cryst.   s( 1) = (     1          0          0      )
                  (     0          1          0      )
                  (     0          0          1      )

 cart.    s( 1) = (  1.0000000  0.0000000  0.0000000 )
                  (  0.0000000  1.0000000 -0.0000000 )
                  (  0.0000000  0.0000000  1.0000000 )


   Cartesian axes

     site n.     atom                  positions (alat units)
         1        Zn     tau(   1) = (   0.1250000   0.1341203   0.0774344  )
         2        Zn     tau(   2) = (   0.1250000   0.6706017   0.0774344  )
         3        Zn     tau(   3) = (   0.1250000   0.0000000   0.3097376  )
         4        Zn     tau(   4) = (   0.1250000   0.5364813   0.3097376  )
         5        Zn     tau(   5) = (   0.1250290  -0.1341417   0.5820584  )
         6        Zn     tau(   6) = (   0.1250405   0.4023616   0.5819647  )
         7        Zn     tau(   7) = (   0.1250408  -0.2682706   0.8528810  )
         8        Zn     tau(   8) = (   0.1250466   0.2682807   0.8528293  )
         9        Zn     tau(   9) = (   0.1250000   0.4023610   0.0774344  )
        10        Zn     tau(  10) = (   0.1250000   0.9388423   0.0774344  )
        11        Zn     tau(  11) = (   0.1250000   0.2682407   0.3097376  )
        12        Zn     tau(  12) = (   0.1250000   0.8047220   0.3097376  )
        13        Zn     tau(  13) = (   0.1250408   0.1341312   0.5819983  )
        14        Zn     tau(  14) = (   0.1250279   0.6705889   0.5820360  )
        15        Zn     tau(  15) = (   0.1250442  -0.0000368   0.8528823  )
        16        Zn     tau(  16) = (   0.1250426   0.5365266   0.8528201  )
        17        Zn     tau(  17) = (   0.6250000   0.1341203   0.0774344  )
        18        Zn     tau(  18) = (   0.6250000   0.6706017   0.0774344  )
        19        Zn     tau(  19) = (   0.6250000   0.0000000   0.3097376  )
        20        Zn     tau(  20) = (   0.6250000   0.5364813   0.3097376  )
        21        Zn     tau(  21) = (   0.6249675  -0.1341249   0.5822560  )
        22        Zn     tau(  22) = (   0.6249625   0.4023466   0.5821830  )
        23        Zn     tau(  23) = (   0.6249647  -0.2682775   0.8528614  )
        24        Zn     tau(  24) = (   0.6249499   0.2682885   0.8528196  )
        25        Zn     tau(  25) = (   0.6250000   0.4023610   0.0774344  )
        26        Zn     tau(  26) = (   0.6250000   0.9388423   0.0774344  )
        27        Zn     tau(  27) = (   0.6250000   0.2682407   0.3097376  )
        28        Zn     tau(  28) = (   0.6250000   0.8047220   0.3097376  )
        29        Zn     tau(  29) = (   0.6249643   0.1341641   0.5822135  )
        30        Zn     tau(  30) = (   0.6249672   0.6705553   0.5822335  )
        31        Zn     tau(  31) = (   0.6249591  -0.0000159   0.8528717  )
        32        Zn     tau(  32) = (   0.6249573   0.5365055   0.8528056  )
        33        Zn     tau(  33) = (   0.3750000  -0.0000000   0.1548688  )
        34        Zn     tau(  34) = (   0.3750000   0.5364813   0.1548688  )
        35        Zn     tau(  35) = (   0.3750000  -0.1341203   0.3871721  )
        36        Zn     tau(  36) = (   0.3750000   0.4023610   0.3871721  )
        37        Zn     tau(  37) = (   0.3749795  -0.2682828   0.6236034  )
        38        Zn     tau(  38) = (   0.3749869   0.2682730   0.6235323  )
        39        Zn     tau(  39) = (   0.3751136  -0.4023763   0.8687437  )
        40        Zn     tau(  40) = (   0.3751189   0.1341221   0.8687719  )
        41        Zn     tau(  41) = (   0.3750000   0.2682407   0.1548688  )
        42        Zn     tau(  42) = (   0.3750000   0.8047220   0.1548688  )
        43        Zn     tau(  43) = (   0.3750000   0.1341203   0.3871721  )
        44        Zn     tau(  44) = (   0.3750000   0.6706017   0.3871721  )
        45        Zn     tau(  45) = (   0.3749870   0.0000171   0.6235532  )
        46        Zn     tau(  46) = (   0.3749914   0.5364504   0.6235764  )
        47        Zn     tau(  47) = (   0.3751105  -0.1341730   0.8687759  )
        48        Zn     tau(  48) = (   0.3751210   0.4023978   0.8687386  )
        49        Zn     tau(  49) = (   0.8750000  -0.0000000   0.1548688  )
        50        Zn     tau(  50) = (   0.8750000   0.5364813   0.1548688  )
        51        Zn     tau(  51) = (   0.8750000  -0.1341203   0.3871721  )
        52        Zn     tau(  52) = (   0.8750000   0.4023610   0.3871721  )
        53        Zn     tau(  53) = (   0.8750137  -0.2682816   0.6236127  )
        54        Zn     tau(  54) = (   0.8750145   0.2682702   0.6235379  )
        55        Zn     tau(  55) = (   0.8748930  -0.4023645   0.8688529  )
        56        Zn     tau(  56) = (   0.8748831   0.1341076   0.8688814  )
        57        Zn     tau(  57) = (   0.8750000   0.2682407   0.1548688  )
        58        Zn     tau(  58) = (   0.8750000   0.8047220   0.1548688  )
        59        Zn     tau(  59) = (   0.8750000   0.1341203   0.3871721  )
        60        Zn     tau(  60) = (   0.8750000   0.6706017   0.3871721  )
        61        Zn     tau(  61) = (   0.8750191  -0.0000014   0.6235616  )
        62        Zn     tau(  62) = (   0.8750146   0.5364705   0.6235843  )
        63        Zn     tau(  63) = (   0.8748974  -0.1341803   0.8688835  )
        64        Zn     tau(  64) = (   0.8748800   0.4024084   0.8688483  )

   Crystallographic axes

     site n.     atom                  positions (cryst. coord.)
         1        Zn     tau(   1) = (  0.1250000  0.1666667  0.0327328  )
         2        Zn     tau(   2) = (  0.1250000  0.6666667  0.0327328  )
         3        Zn     tau(   3) = (  0.1250000  0.1666667  0.1309312  )
         4        Zn     tau(   4) = (  0.1250000  0.6666667  0.1309312  )
         5        Zn     tau(   5) = (  0.1250290  0.1881798  0.2460456  )
         6        Zn     tau(   6) = (  0.1250405  0.6881498  0.2460060  )
         7        Zn     tau(   7) = (  0.1250408  0.2088987  0.3605268  )
         8        Zn     tau(   8) = (  0.1250466  0.7089361  0.3605049  )
         9        Zn     tau(   9) = (  0.1250000  0.4166667  0.0327328  )
        10        Zn     tau(  10) = (  0.1250000  0.9166667  0.0327328  )
        11        Zn     tau(  11) = (  0.1250000  0.4166667  0.1309312  )
        12        Zn     tau(  12) = (  0.1250000  0.9166667  0.1309312  )
        13        Zn     tau(  13) = (  0.1250408  0.4381774  0.2460202  )
        14        Zn     tau(  14) = (  0.1250279  0.9381757  0.2460362  )
        15        Zn     tau(  15) = (  0.1250442  0.4588930  0.3605273  )
        16        Zn     tau(  16) = (  0.1250426  0.9589360  0.3605011  )
        17        Zn     tau(  17) = (  0.6250000  0.1666667  0.0327328  )
        18        Zn     tau(  18) = (  0.6250000  0.6666667  0.0327328  )
        19        Zn     tau(  19) = (  0.6250000  0.1666667  0.1309312  )
        20        Zn     tau(  20) = (  0.6250000  0.6666667  0.1309312  )
        21        Zn     tau(  21) = (  0.6249675  0.1883018  0.2461292  )
        22        Zn     tau(  22) = (  0.6249625  0.6882533  0.2460983  )
        23        Zn     tau(  23) = (  0.6249647  0.2088817  0.3605185  )
        24        Zn     tau(  24) = (  0.6249499  0.7089381  0.3605008  )
        25        Zn     tau(  25) = (  0.6250000  0.4166667  0.0327328  )
        26        Zn     tau(  26) = (  0.6250000  0.9166667  0.0327328  )
        27        Zn     tau(  27) = (  0.6250000  0.4166667  0.1309312  )
        28        Zn     tau(  28) = (  0.6250000  0.9166667  0.1309312  )
        29        Zn     tau(  29) = (  0.6249643  0.4383239  0.2461112  )
        30        Zn     tau(  30) = (  0.6249672  0.9382507  0.2461196  )
        31        Zn     tau(  31) = (  0.6249591  0.4589067  0.3605228  )
        32        Zn     tau(  32) = (  0.6249573  0.9589085  0.3604949  )
        33        Zn     tau(  33) = (  0.3750000  0.0833333  0.0654656  )
        34        Zn     tau(  34) = (  0.3750000  0.5833333  0.0654656  )
        35        Zn     tau(  35) = (  0.3750000  0.0833333  0.1636640  )
        36        Zn     tau(  36) = (  0.3750000  0.5833333  0.1636640  )
        37        Zn     tau(  37) = (  0.3749795  0.0855154  0.2636074  )
        38        Zn     tau(  38) = (  0.3749869  0.5855465  0.2635773  )
        39        Zn     tau(  39) = (  0.3751136  0.0924479  0.3672322  )
        40        Zn     tau(  40) = (  0.3751189  0.5924790  0.3672441  )
        41        Zn     tau(  41) = (  0.3750000  0.3333333  0.0654656  )
        42        Zn     tau(  42) = (  0.3750000  0.8333333  0.0654656  )
        43        Zn     tau(  43) = (  0.3750000  0.3333333  0.1636640  )
        44        Zn     tau(  44) = (  0.3750000  0.8333333  0.1636640  )
        45        Zn     tau(  45) = (  0.3749870  0.3355436  0.2635862  )
        46        Zn     tau(  46) = (  0.3749914  0.8355113  0.2635959  )
        47        Zn     tau(  47) = (  0.3751105  0.3424304  0.3672458  )
        48        Zn     tau(  48) = (  0.3751210  0.8424936  0.3672300  )
        49        Zn     tau(  49) = (  0.8750000  0.0833333  0.0654656  )
        50        Zn     tau(  50) = (  0.8750000  0.5833333  0.0654656  )
        51        Zn     tau(  51) = (  0.8750000  0.0833333  0.1636640  )
        52        Zn     tau(  52) = (  0.8750000  0.5833333  0.1636640  )
        53        Zn     tau(  53) = (  0.8750137  0.0855215  0.2636113  )
        54        Zn     tau(  54) = (  0.8750145  0.5855469  0.2635797  )
        55        Zn     tau(  55) = (  0.8748930  0.0925177  0.3672784  )
        56        Zn     tau(  56) = (  0.8748831  0.5925243  0.3672904  )
        57        Zn     tau(  57) = (  0.8750000  0.3333333  0.0654656  )
        58        Zn     tau(  58) = (  0.8750000  0.8333333  0.0654656  )
        59        Zn     tau(  59) = (  0.8750000  0.3333333  0.1636640  )
        60        Zn     tau(  60) = (  0.8750000  0.8333333  0.1636640  )
        61        Zn     tau(  61) = (  0.8750191  0.3355308  0.2635897  )
        62        Zn     tau(  62) = (  0.8750146  0.8355343  0.2635993  )
        63        Zn     tau(  63) = (  0.8748974  0.3424815  0.3672913  )
        64        Zn     tau(  64) = (  0.8748800  0.8425626  0.3672764  )

     number of k points=     5  Marzari-Vanderbilt smearing, width (Ry)=  0.0200
                       cart. coord. in units 2pi/alat
        k(    1) = (   0.0000000   0.0000000   0.0000000), wk =   0.2222222
        k(    2) = (   0.0000000   0.3106663   0.1793633), wk =   0.4444444
        k(    3) = (   0.3333333   0.0000000   0.0000000), wk =   0.4444444
        k(    4) = (   0.3333333   0.3106663   0.1793633), wk =   0.4444444
        k(    5) = (   0.3333333  -0.3106663  -0.1793633), wk =   0.4444444

                       cryst. coord.
        k(    1) = (   0.0000000   0.0000000   0.0000000), wk =   0.2222222
        k(    2) = (   0.0000000   0.3333333  -0.0000000), wk =   0.4444444
        k(    3) = (   0.3333333   0.0000000   0.0000000), wk =   0.4444444
        k(    4) = (   0.3333333   0.3333333  -0.0000000), wk =   0.4444444
        k(    5) = (   0.3333333  -0.3333333   0.0000000), wk =   0.4444444

     Dense  grid:  1254623 G-vectors     FFT dimensions: ( 100, 108, 270)

     Smooth grid:   542067 G-vectors     FFT dimensions: (  75,  80, 216)

     Dynamical RAM for                 wfc:      24.05 MB

     Dynamical RAM for     wfc (w. buffer):     144.28 MB

     Dynamical RAM for           str. fact:       0.58 MB

     Dynamical RAM for           local pot:       0.00 MB

     Dynamical RAM for          nlocal pot:      36.07 MB

     Dynamical RAM for                qrad:       1.34 MB

     Dynamical RAM for          rho,v,vnew:       3.97 MB

     Dynamical RAM for               rhoin:       1.32 MB

     Dynamical RAM for            rho*nmix:       9.28 MB

     Dynamical RAM for           G-vectors:       2.30 MB

     Dynamical RAM for          h,s,v(r/c):       4.31 MB

     Dynamical RAM for          <psi|beta>:      13.50 MB

     Dynamical RAM for                 psi:      48.09 MB

     Dynamical RAM for                hpsi:      48.09 MB

     Dynamical RAM for                spsi:      48.09 MB

     Dynamical RAM for      wfcinit/wfcrot:      67.95 MB

     Dynamical RAM for           addusdens:     145.04 MB

     Dynamical RAM for          addusforce:     218.68 MB

     Dynamical RAM for         addusstress:     116.61 MB

     Estimated static dynamical RAM per process >     194.73 MB

     Estimated max dynamical RAM per process >     422.69 MB

     Estimated total dynamical RAM >      13.62 GB

     Initial potential from superposition of free atoms

     starting charge    1279.9910, renormalised to    1280.0000

     negative rho (up, down):  3.243E-03 0.000E+00
     Starting wfcs are  832 randomized atomic wfcs

     total cpu time spent up to now is      166.7 secs

     Self-consistent Calculation

     iteration #  1     ecut=    40.00 Ry     beta= 0.40
     Davidson diagonalization with overlap

---- Real-time Memory Report at c_bands before calling an iterative solver
           279 MiB given to the printing process from OS
             0 MiB allocation reported by mallinfo(arena+hblkhd)
          3128 MiB available memory on the node where the printing process lives
------------------
     ethr =  1.00E-02,  avg # of iterations =  7.8

     Threshold (ethr) on eigenvalues was too large:
     Diagonalizing with lowered threshold

     Davidson diagonalization with overlap

---- Real-time Memory Report at c_bands before calling an iterative solver
           396 MiB given to the printing process from OS
             0 MiB allocation reported by mallinfo(arena+hblkhd)
          5523 MiB available memory on the node where the printing process lives
------------------
     ethr =  1.38E-04,  avg # of iterations =  6.6

     negative rho (up, down):  3.912E-03 0.000E+00

     total cpu time spent up to now is     1516.0 secs

     total energy              =  -29538.30285940 Ry
     estimated scf accuracy    <       1.79699426 Ry

     iteration #  2     ecut=    40.00 Ry     beta= 0.40
     Davidson diagonalization with overlap

---- Real-time Memory Report at c_bands before calling an iterative solver
           397 MiB given to the printing process from OS
             0 MiB allocation reported by mallinfo(arena+hblkhd)
          5516 MiB available memory on the node where the printing process lives
------------------
     ethr =  1.40E-04,  avg # of iterations =  3.4

     negative rho (up, down):  4.424E-03 0.000E+00

     total cpu time spent up to now is     2338.4 secs

     total energy              =  -29538.51038690 Ry
     estimated scf accuracy    <       0.93630967 Ry

     iteration #  3     ecut=    40.00 Ry     beta= 0.40
     Davidson diagonalization with overlap

---- Real-time Memory Report at c_bands before calling an iterative solver
           400 MiB given to the printing process from OS
             0 MiB allocation reported by mallinfo(arena+hblkhd)
          5494 MiB available memory on the node where the printing process lives
------------------
     ethr =  7.31E-05,  avg # of iterations = 10.6

     negative rho (up, down):  4.933E-03 0.000E+00

     total cpu time spent up to now is     3135.5 secs

     total energy              =  -29538.12608550 Ry
     estimated scf accuracy    <      15.23645899 Ry

     iteration #  4     ecut=    40.00 Ry     beta= 0.40
     Davidson diagonalization with overlap

---- Real-time Memory Report at c_bands before calling an iterative solver
           401 MiB given to the printing process from OS
             0 MiB allocation reported by mallinfo(arena+hblkhd)
          5481 MiB available memory on the node where the printing process lives
------------------
     ethr =  7.31E-05,  avg # of iterations =  9.4

     negative rho (up, down):  4.778E-03 0.000E+00

     total cpu time spent up to now is     3913.4 secs

     total energy              =  -29538.74654213 Ry
     estimated scf accuracy    <       0.08752080 Ry

     iteration #  5     ecut=    40.00 Ry     beta= 0.40
     Davidson diagonalization with overlap

---- Real-time Memory Report at c_bands before calling an iterative solver
           402 MiB given to the printing process from OS
             0 MiB allocation reported by mallinfo(arena+hblkhd)
          5465 MiB available memory on the node where the printing process lives
------------------
     c_bands:  2 eigenvalues not converged
     ethr =  6.84E-06,  avg # of iterations = 15.8

     negative rho (up, down):  4.785E-03 0.000E+00

     total cpu time spent up to now is     4743.8 secs

     total energy              =  -29538.73199979 Ry
     estimated scf accuracy    <       0.32619386 Ry

     iteration #  6     ecut=    40.00 Ry     beta= 0.40
     Davidson diagonalization with overlap

---- Real-time Memory Report at c_bands before calling an iterative solver
           402 MiB given to the printing process from OS
             0 MiB allocation reported by mallinfo(arena+hblkhd)
          5485 MiB available memory on the node where the printing process lives
------------------
     ethr =  6.84E-06,  avg # of iterations =  8.4

     negative rho (up, down):  4.831E-03 0.000E+00

     total cpu time spent up to now is     5504.9 secs

     total energy              =  -29538.75893611 Ry
     estimated scf accuracy    <       0.00228961 Ry

     iteration #  7     ecut=    40.00 Ry     beta= 0.40
     Davidson diagonalization with overlap

---- Real-time Memory Report at c_bands before calling an iterative solver
           403 MiB given to the printing process from OS
             0 MiB allocation reported by mallinfo(arena+hblkhd)
          5471 MiB available memory on the node where the printing process lives
------------------
     ethr =  1.79E-07,  avg # of iterations =  6.0

     negative rho (up, down):  4.861E-03 0.000E+00

     total cpu time spent up to now is     6328.5 secs

     total energy              =  -29538.75932636 Ry
     estimated scf accuracy    <       0.00033380 Ry

     iteration #  8     ecut=    40.00 Ry     beta= 0.40
     Davidson diagonalization with overlap

---- Real-time Memory Report at c_bands before calling an iterative solver
           403 MiB given to the printing process from OS
             0 MiB allocation reported by mallinfo(arena+hblkhd)
          5495 MiB available memory on the node where the printing process lives
------------------
     ethr =  2.61E-08,  avg # of iterations =  2.0

     negative rho (up, down):  4.879E-03 0.000E+00

     total cpu time spent up to now is     7087.1 secs

     total energy              =  -29538.75939687 Ry
     estimated scf accuracy    <       0.00003655 Ry

     iteration #  9     ecut=    40.00 Ry     beta= 0.40
     Davidson diagonalization with overlap

---- Real-time Memory Report at c_bands before calling an iterative solver
           404 MiB given to the printing process from OS
             0 MiB allocation reported by mallinfo(arena+hblkhd)
          5464 MiB available memory on the node where the printing process lives
------------------
     ethr =  2.86E-09,  avg # of iterations =  2.0

     negative rho (up, down):  4.890E-03 0.000E+00

     total cpu time spent up to now is     7814.6 secs

     total energy              =  -29538.75939896 Ry
     estimated scf accuracy    <       0.00002285 Ry

     iteration # 10     ecut=    40.00 Ry     beta= 0.40
     Davidson diagonalization with overlap

---- Real-time Memory Report at c_bands before calling an iterative solver
           405 MiB given to the printing process from OS
             0 MiB allocation reported by mallinfo(arena+hblkhd)
          5485 MiB available memory on the node where the printing process lives
------------------
     ethr =  1.79E-09,  avg # of iterations =  2.0

     negative rho (up, down):  4.896E-03 0.000E+00

     total cpu time spent up to now is     8499.0 secs

     total energy              =  -29538.75940180 Ry
     estimated scf accuracy    <       0.00001414 Ry

     iteration # 11     ecut=    40.00 Ry     beta= 0.40
     Davidson diagonalization with overlap

---- Real-time Memory Report at c_bands before calling an iterative solver
           405 MiB given to the printing process from OS
             0 MiB allocation reported by mallinfo(arena+hblkhd)
          5470 MiB available memory on the node where the printing process lives
------------------
     ethr =  1.10E-09,  avg # of iterations =  2.0

     negative rho (up, down):  4.900E-03 0.000E+00

     total cpu time spent up to now is     9181.4 secs

     total energy              =  -29538.75940359 Ry
     estimated scf accuracy    <       0.00000169 Ry

     iteration # 12     ecut=    40.00 Ry     beta= 0.40
     Davidson diagonalization with overlap

---- Real-time Memory Report at c_bands before calling an iterative solver
           405 MiB given to the printing process from OS
             0 MiB allocation reported by mallinfo(arena+hblkhd)
          5468 MiB available memory on the node where the printing process lives
------------------
     ethr =  1.32E-10,  avg # of iterations =  2.0

     negative rho (up, down):  4.902E-03 0.000E+00

     total cpu time spent up to now is     9879.1 secs

     total energy              =  -29538.75940379 Ry
     estimated scf accuracy    <       0.00000178 Ry

     iteration # 13     ecut=    40.00 Ry     beta= 0.40
     Davidson diagonalization with overlap

---- Real-time Memory Report at c_bands before calling an iterative solver
           405 MiB given to the printing process from OS
             0 MiB allocation reported by mallinfo(arena+hblkhd)
          5468 MiB available memory on the node where the printing process lives
------------------
     ethr =  1.32E-10,  avg # of iterations =  2.0

     negative rho (up, down):  4.905E-03 0.000E+00

     total cpu time spent up to now is    10560.9 secs

     End of self-consistent calculation

          k = 0.0000 0.0000 0.0000 ( 67685 PWs)   bands (ev):

  -123.4409-123.4407-123.4401-123.4400-123.4398-123.4397-123.4391-123.4388
  -123.3779-123.3770-123.3768-123.3768-123.3759-123.3759-123.3758-123.3749
  -123.3670-123.3663-123.3662-123.3662-123.3654-123.3654-123.3653-123.3645
  -123.2547-123.2545-123.2538-123.2537-123.2535-123.2535-123.2529-123.2525
  -123.2463-123.2463-123.2455-123.2455-123.2454-123.2454-123.2446-123.2445
  -123.2089-123.2087-123.2080-123.2080-123.2079-123.2079-123.2072-123.2070
  -123.1624-123.1614-123.1613-123.1613-123.1604-123.1603-123.1603-123.1593
  -123.0925-123.0916-123.0915-123.0909-123.0906-123.0900-123.0898-123.0889
   -77.6001 -77.5998 -77.5984 -77.5981 -77.5970 -77.5969 -77.5967 -77.5967
   -77.5956 -77.5953 -77.5898 -77.5894 -77.5887 -77.5887 -77.5884 -77.5884
   -77.5876 -77.5875 -77.5875 -77.5873 -77.5873 -77.5873 -77.5749 -77.5746
   -77.5355 -77.5344 -77.5330 -77.5322 -77.5320 -77.5320 -77.5313 -77.5311
   -77.5310 -77.5303 -77.5265 -77.5264 -77.5257 -77.5253 -77.5253 -77.5253
   -77.5253 -77.5251 -77.5245 -77.5245 -77.5242 -77.5241 -77.5241 -77.5240
   -77.5233 -77.5233 -77.5233 -77.5232 -77.5230 -77.5224 -77.5222 -77.5222
   -77.5209 -77.5201 -77.5199 -77.5199 -77.5192 -77.5192 -77.5190 -77.5182
   -77.5110 -77.5108 -77.5108 -77.5100 -77.5100 -77.5099 -77.4984 -77.4976
   -77.4144 -77.4141 -77.4140 -77.4136 -77.4130 -77.4129 -77.4127 -77.4126
   -77.4121 -77.4117 -77.4055 -77.4054 -77.4045 -77.4043 -77.4038 -77.4036
   -77.4035 -77.4035 -77.4033 -77.4032 -77.4026 -77.4026 -77.4025 -77.4025
   -77.4025 -77.4022 -77.4021 -77.4020 -77.4017 -77.4017 -77.4016 -77.4014
   -77.3979 -77.3978 -77.3970 -77.3970 -77.3969 -77.3969 -77.3961 -77.3961
   -77.3932 -77.3932 -77.3932 -77.3932 -77.3898 -77.3894 -77.3842 -77.3840
   -77.3834 -77.3834 -77.3832 -77.3832 -77.3826 -77.3825 -77.3809 -77.3809
   -77.3609 -77.3606 -77.3528 -77.3523 -77.3518 -77.3518 -77.3516 -77.3515
   -77.3509 -77.3507 -77.3487 -77.3487 -77.3485 -77.3485 -77.3365 -77.3363
   -77.3256 -77.3246 -77.3246 -77.3245 -77.3236 -77.3235 -77.3235 -77.3225
   -77.3205 -77.3193 -77.3102 -77.3088 -77.3088 -77.3086 -77.3081 -77.3081
   -77.3077 -77.3076 -77.3074 -77.3070 -77.3070 -77.3064 -77.2957 -77.2946
   -77.2529 -77.2519 -77.2519 -77.2514 -77.2509 -77.2504 -77.2502 -77.2493
   -77.2489 -77.2479 -77.2478 -77.2470 -77.2469 -77.2463 -77.2462 -77.2460
   -77.2453 -77.2446 -77.2340 -77.2340 -77.2324 -77.2323 -77.2218 -77.2201
    -6.7825  -5.8715  -5.6999  -5.5018  -5.5017  -5.4065  -5.2345  -5.1587
    -5.1554  -5.0885  -5.0803  -5.0605  -5.0554  -5.0538  -5.0480  -5.0440
    -5.0371  -4.9864  -4.9861  -4.9860  -4.9813  -4.9305  -4.9305  -4.9249
    -4.8970  -4.8897  -4.8861  -4.8861  -4.8830  -4.8773  -4.8550  -4.8550
    -4.8544  -4.8528  -4.8419  -4.8350  -4.8343  -4.8342  -4.8290  -4.8196
    -4.8159  -4.8099  -4.8099  -4.7918  -4.7835  -4.7835  -4.7699  -4.7699
    -4.7580  -4.7498  -4.7299  -4.7263  -4.7222  -4.7108  -4.7108  -4.7008
    -4.7007  -4.6843  -4.6819  -4.6644  -4.6644  -4.6617  -4.6617  -4.6247
    -4.6246  -4.6228  -4.6227  -4.6203  -4.6183  -4.6183  -4.6144  -4.6107
    -4.6078  -4.6078  -4.5981  -4.5926  -4.5894  -4.5886  -4.5886  -4.5809
    -4.5809  -4.5727  -4.5723  -4.5723  -4.5664  -4.5620  -4.5300  -4.5193
    -4.5140  -4.5140  -4.5019  -4.4998  -4.4942  -4.4941  -4.4865  -4.4768
    -4.4591  -4.4585  -4.4585  -4.4506  -4.4391  -4.4391  -4.4360  -4.4360
    -4.4340  -4.4237  -4.4127  -4.4127  -4.4124  -4.4123  -4.4029  -4.4012
    -4.4012  -4.3801  -4.3689  -4.3689  -4.3645  -4.3645  -4.3603  -4.3592
    -4.3592  -4.3499  -4.3486  -4.3486  -4.3405  -4.3368  -4.3359  -4.3331
    -4.3298  -4.3298  -4.3278  -4.3219  -4.3219  -4.3167  -4.2982  -4.2978
    -4.2978  -4.2936  -4.2901  -4.2864  -4.2863  -4.2821  -4.2821  -4.2772
    -4.2771  -4.2609  -4.2551  -4.2469  -4.2469  -4.2434  -4.2433  -4.2370
    -4.2359  -4.2299  -4.2268  -4.2170  -4.2137  -4.2137  -4.2047  -4.2047
    -4.2002  -4.1885  -4.1871  -4.1775  -4.1775  -4.1770  -4.1752  -4.1752
    -4.1565  -4.1542  -4.1542  -4.1519  -4.1469  -4.1411  -4.1410  -4.1364
    -4.1364  -4.1350  -4.1344  -4.1316  -4.1301  -4.1220  -4.1220  -4.1143
    -4.1143  -4.1121  -4.1121  -4.0843  -4.0843  -4.0818  -4.0746  -4.0734
    -4.0669  -4.0668  -4.0616  -4.0531  -4.0531  -4.0525  -4.0525  -4.0480
    -4.0475  -4.0474  -4.0444  -4.0246  -4.0204  -4.0184  -4.0087  -4.0086
    -4.0086  -4.0070  -4.0070  -4.0037  -4.0037  -4.0010  -4.0007  -3.9998
    -3.9975  -3.9929  -3.9898  -3.9898  -3.9880  -3.9820  -3.9820  -3.9756
    -3.9714  -3.9713  -3.9683  -3.9682  -3.9625  -3.9594  -3.9556  -3.9552
    -3.9491  -3.9451  -3.9402  -3.9401  -3.9401  -3.9342  -3.9342  -3.9315
    -3.9315  -3.9268  -3.9184  -3.9184  -3.8997  -3.8997  -3.8894  -3.8874
    -3.8874  -3.8849  -3.8837  -3.8837  -3.8801  -3.8781  -3.8767  -3.8750
    -3.8724  -3.8665  -3.8664  -3.8640  -3.8587  -3.8587  -3.8495  -3.8494
    -3.8442  -3.8314  -3.8305  -3.8283  -3.8283  -3.8250  -3.8211  -3.8167
    -3.7991  -3.7975  -3.7975  -3.7974  -3.7925  -3.7925  -3.7871  -3.7871
    -3.7782  -3.7759  -3.7755  -3.7755  -3.7730  -3.7667  -3.7667  -3.7619
    -3.7619  -3.7609  -3.7583  -3.7583  -3.7580  -3.7550  -3.7450  -3.7293
    -3.7062  -3.7054  -3.7054  -3.7040  -3.6998  -3.6943  -3.6919  -3.6919
    -3.6904  -3.6888  -3.6876  -3.6828  -3.6819  -3.6819  -3.6741  -3.6657
    -3.6537  -3.6517  -3.6503  -3.6469  -3.6373  -3.6343  -3.6103  -3.6040
    -3.5979  -3.5792  -3.5711  -3.4801  -3.4790  -3.4790  -3.4599  -3.4215
    -3.4066  -3.3751  -3.3095  -3.0351  -3.0350  -2.8715  -2.8714  -2.1835
    -2.1835  -2.0948  -2.0947  -2.0819  -2.0818  -2.0086  -1.9135  -1.2239
    -0.5811  -0.5811  -0.5282  -0.5281  -0.3945  -0.3915  -0.0121  -0.0121
     0.1620   0.2228   0.3068   0.3917   0.6262   0.7679   0.7972   0.8935
     0.9422   1.1372   1.2242   1.3415   1.4332   1.4333   1.5209   1.6700
     1.6819   1.6819   1.7177   1.7178   1.7278   1.8297   1.8326   2.0590
     2.1361   2.1362   2.2474   2.5071   2.5072   2.6542   2.6749   2.6749
     2.6987   2.9380   2.9468   3.1477   3.1478   3.7372   3.7700   4.0884
     4.1328   4.1474   4.1475   4.1774   4.2348   4.3081   4.3082   4.3150
     4.3493   4.3493   4.6731   4.6732   4.8090   5.0998   5.1988   5.1989
     5.2776   5.5055   5.6964   5.7651   5.8225   6.0245   6.0435   6.0553
     6.1478   6.2510   6.2510   6.3792   6.4440   6.4646   6.4647   6.6988
     6.6989   6.7032   6.8457   6.9039   6.9040   6.9048   7.0104   7.1032
     7.1721   7.3216   7.3216   7.3441   7.3751   7.5014   7.5014   7.7784
     7.7785   7.7921   7.8434   8.1280   8.1557   8.2202   8.2202   8.2760
     8.2760   8.3765   8.4738   8.4738   8.4883   8.5096   8.5097   8.5442
     8.6311   8.6923   8.7281   8.7309   8.7626   8.7665   8.8245   8.8661
     8.8750   8.9418   8.9982   8.9982   9.0786   9.0787   9.1434   9.1434
     9.1823   9.3338   9.3338   9.3717   9.3850   9.3850   9.4336   9.4479
     9.4481   9.5583   9.5615   9.5698   9.6794   9.8207   9.8207   9.8217
     9.8217   9.8490   9.8490   9.9190   9.9190   9.9753   9.9753  10.2460
    10.2562  10.4043  10.4758  10.4759  10.5251  10.5251  10.5937  10.6255
    10.6425  10.6425  10.6669  10.7688  10.8120  10.8215  10.8754  10.8755

     occupation numbers 
     1.0000   1.0000   1.0000   1.0000   1.0000   1.0000   1.0000   1.0000
     1.0000   1.0000   1.0000   1.0000   1.0000   1.0000   1.0000   1.0000
     1.0000   1.0000   1.0000   1.0000   1.0000   1.0000   1.0000   1.0000
     1.0000   1.0000   1.0000   1.0000   1.0000   1.0000   1.0000   1.0000
     1.0000   1.0000   1.0000   1.0000   1.0000   1.0000   1.0000   1.0000
     1.0000   1.0000   1.0000   1.0000   1.0000   1.0000   1.0000   1.0000
     1.0000   1.0000   1.0000   1.0000   1.0000   1.0000   1.0000   1.0000
     1.0000   1.0000   1.0000   1.0000   1.0000   1.0000   1.0000   1.0000
     1.0000   1.0000   1.0000   1.0000   1.0000   1.0000   1.0000   1.0000
     1.0000   1.0000   1.0000   1.0000   1.0000   1.0000   1.0000   1.0000
     1.0000   1.0000   1.0000   1.0000   1.0000   1.0000   1.0000   1.0000
     1.0000   1.0000   1.0000   1.0000   1.0000   1.0000   1.0000   1.0000
     1.0000   1.0000   1.0000   1.0000   1.0000   1.0000   1.0000   1.0000
     1.0000   1.0000   1.0000   1.0000   1.0000   1.0000   1.0000   1.0000
     1.0000   1.0000   1.0000   1.0000   1.0000   1.0000   1.0000   1.0000
     1.0000   1.0000   1.0000   1.0000   1.0000   1.0000   1.0000   1.0000
     1.0000   1.0000   1.0000   1.0000   1.0000   1.0000   1.0000   1.0000
     1.0000   1.0000   1.0000   1.0000   1.0000   1.0000   1.0000   1.0000
     1.0000   1.0000   1.0000   1.0000   1.0000   1.0000   1.0000   1.0000
     1.0000   1.0000   1.0000   1.0000   1.0000   1.0000   1.0000   1.0000
     1.0000   1.0000   1.0000   1.0000   1.0000   1.0000   1.0000   1.0000
     1.0000   1.0000   1.0000   1.0000   1.0000   1.0000   1.0000   1.0000
     1.0000   1.0000   1.0000   1.0000   1.0000   1.0000   1.0000   1.0000
     1.0000   1.0000   1.0000   1.0000   1.0000   1.0000   1.0000   1.0000
     1.0000   1.0000   1.0000   1.0000   1.0000   1.0000   1.0000   1.0000
     1.0000   1.0000   1.0000   1.0000   1.0000   1.0000   1.0000   1.0000
     1.0000   1.0000   1.0000   1.0000   1.0000   1.0000   1.0000   1.0000
     1.0000   1.0000   1.0000   1.0000   1.0000   1.0000   1.0000   1.0000
     1.0000   1.0000   1.0000   1.0000   1.0000   1.0000   1.0000   1.0000
     1.0000   1.0000   1.0000   1.0000   1.0000   1.0000   1.0000   1.0000
     1.0000   1.0000   1.0000   1.0000   1.0000   1.0000   1.0000   1.0000
     1.0000   1.0000   1.0000   1.0000   1.0000   1.0000   1.0000   1.0000
     1.0000   1.0000   1.0000   1.0000   1.0000   1.0000   1.0000   1.0000
     1.0000   1.0000   1.0000   1.0000   1.0000   1.0000   1.0000   1.0000
     1.0000   1.0000   1.0000   1.0000   1.0000   1.0000   1.0000   1.0000
     1.0000   1.0000   1.0000   1.0000   1.0000   1.0000   1.0000   1.0000
     1.0000   1.0000   1.0000   1.0000   1.0000   1.0000   1.0000   1.0000
     1.0000   1.0000   1.0000   1.0000   1.0000   1.0000   1.0000   1.0000
     1.0000   1.0000   1.0000   1.0000   1.0000   1.0000   1.0000   1.0000
     1.0000   1.0000   1.0000   1.0000   1.0000   1.0000   1.0000   1.0000
     1.0000   1.0000   1.0000   1.0000   1.0000   1.0000   1.0000   1.0000
     1.0000   1.0000   1.0000   1.0000   1.0000   1.0000   1.0000   1.0000
     1.0000   1.0000   1.0000   1.0000   1.0000   1.0000   1.0000   1.0000
     1.0000   1.0000   1.0000   1.0000   1.0000   1.0000   1.0000   1.0000
     1.0000   1.0000   1.0000   1.0000   1.0000   1.0000   1.0000   1.0000
     1.0000   1.0000   1.0000   1.0000   1.0000   1.0000   1.0000   1.0000
     1.0000   1.0000   1.0000   1.0000   1.0000   1.0000   1.0000   1.0000
     1.0000   1.0000   1.0000   1.0000   1.0000   1.0000   1.0000   1.0000
     1.0000   1.0000   1.0000   1.0000   1.0000   1.0000   1.0000   1.0000
     1.0000   1.0000   1.0000   1.0000   1.0000   1.0000   1.0000   1.0000
     1.0000   1.0000   1.0000   1.0000   1.0000   1.0000   1.0000   1.0000
     1.0000   1.0000   1.0000   1.0000   1.0000   1.0000   1.0000   1.0000
     1.0000   1.0000   1.0000   1.0000   1.0000   1.0000   1.0000   1.0000
     1.0000   1.0000   1.0000   1.0000   1.0000   1.0000   1.0000   1.0000
     1.0000   1.0000   1.0000   1.0000   1.0000   1.0000   1.0000   1.0000
     1.0000   1.0000   1.0000   1.0000   1.0000   1.0000   1.0000   1.0000
     1.0000   1.0000   1.0000   1.0000   1.0000   1.0000   1.0000   1.0000
     1.0000   1.0000   1.0000   1.0000   1.0000   1.0000   1.0000   1.0000
     1.0000   1.0000   1.0000   1.0000   1.0000   1.0000   1.0000   1.0000
     1.0000   1.0000   1.0000   1.0000   1.0000   1.0000   1.0000   1.0000
     1.0000   1.0000   1.0000   1.0000   1.0000   1.0000   1.0000   1.0000
     1.0000   1.0000   1.0000   1.0000   1.0000   1.0000   1.0000   1.0000
     1.0000   1.0000   1.0000   1.0000   1.0000   1.0000   1.0000   1.0000
     1.0000   1.0000   1.0000   1.0000   1.0000   1.0000   1.0000   1.0000
     1.0000   1.0000   1.0000   1.0000   1.0000   1.0000   1.0000   1.0000
     1.0000   1.0000   1.0000   1.0000   1.0000   1.0000   1.0000   1.0000
     1.0000   1.0000   1.0000   1.0000   1.0000   1.0000   1.0000   1.0000
     1.0000   1.0000   1.0000   1.0000   1.0000   1.0000   1.0000   1.0000
     1.0000   1.0000   1.0000   1.0000   1.0000   1.0000   1.0000   1.0000
     1.0000   1.0000   1.0000   1.0000   1.0000   1.0000   1.0000   1.0000
     1.0000   1.0000   1.0000   1.0000   1.0000   1.0000   1.0000   1.0000
     1.0000   1.0000   1.0000   1.0000   1.0000   1.0000   1.0000   1.0000
     1.0000   1.0000   1.0000   1.0000   1.0000   1.0000   1.0000   1.0000
     1.0000   1.0000   1.0000   1.0000   1.0000   1.0000   1.0000   1.0000
     1.0000   1.0000   1.0000   1.0000   1.0000   1.0000   1.0000   1.0000
     1.0000   1.0000   1.0000   1.0000   1.0000   1.0000   1.0000   1.0000
     1.0000   1.0000   1.0000   1.0000   1.0000   1.0000   1.0000   1.0000
     1.0000   1.0000   1.0000   1.0000   1.0000   1.0000   1.0000   1.0000
     1.0000   1.0000   1.0000   1.0000   1.0000   1.0000   1.0000   1.0000
     1.0001   1.0001   1.0011   1.0323   1.0324   1.0785   1.0820   1.0820
     1.0833   0.7834   0.7608   0.2490   0.2490   0.0000   0.0000   0.0000
     0.0000   0.0000   0.0000   0.0000   0.0000   0.0000   0.0000   0.0000
     0.0000   0.0000   0.0000   0.0000   0.0000   0.0000   0.0000   0.0000
     0.0000   0.0000   0.0000   0.0000   0.0000   0.0000   0.0000   0.0000
     0.0000   0.0000   0.0000   0.0000   0.0000   0.0000   0.0000   0.0000
     0.0000   0.0000   0.0000   0.0000   0.0000   0.0000   0.0000   0.0000
     0.0000   0.0000   0.0000   0.0000   0.0000   0.0000   0.0000   0.0000
     0.0000   0.0000   0.0000   0.0000   0.0000   0.0000   0.0000   0.0000
     0.0000   0.0000   0.0000   0.0000   0.0000   0.0000   0.0000   0.0000
     0.0000   0.0000   0.0000   0.0000   0.0000   0.0000   0.0000   0.0000
     0.0000   0.0000   0.0000   0.0000   0.0000   0.0000   0.0000   0.0000
     0.0000   0.0000   0.0000   0.0000   0.0000   0.0000   0.0000   0.0000
     0.0000   0.0000   0.0000   0.0000   0.0000   0.0000   0.0000   0.0000
     0.0000   0.0000   0.0000   0.0000   0.0000   0.0000   0.0000   0.0000
     0.0000   0.0000   0.0000   0.0000   0.0000   0.0000   0.0000   0.0000
     0.0000   0.0000   0.0000   0.0000   0.0000   0.0000   0.0000   0.0000

          k = 0.0000 0.3107 0.1794 ( 67822 PWs)   bands (ev):

  -123.4408-123.4406-123.4404-123.4402-123.4396-123.4393-123.4392-123.4389
  -123.3778-123.3773-123.3767-123.3765-123.3762-123.3760-123.3754-123.3749
  -123.3669-123.3666-123.3662-123.3658-123.3657-123.3654-123.3649-123.3646
  -123.2546-123.2544-123.2542-123.2539-123.2534-123.2531-123.2530-123.2526
  -123.2462-123.2462-123.2459-123.2458-123.2450-123.2450-123.2447-123.2447
  -123.2088-123.2086-123.2085-123.2083-123.2076-123.2074-123.2073-123.2071
  -123.1623-123.1617-123.1613-123.1610-123.1606-123.1604-123.1600-123.1593
  -123.0924-123.0919-123.0912-123.0908-123.0907-123.0903-123.0895-123.0890
   -77.5984 -77.5982 -77.5981 -77.5979 -77.5976 -77.5974 -77.5963 -77.5960
   -77.5957 -77.5955 -77.5938 -77.5935 -77.5897 -77.5893 -77.5892 -77.5889
   -77.5882 -77.5879 -77.5877 -77.5875 -77.5812 -77.5810 -77.5766 -77.5763
   -77.5339 -77.5330 -77.5328 -77.5325 -77.5319 -77.5318 -77.5314 -77.5313
   -77.5308 -77.5303 -77.5294 -77.5283 -77.5263 -77.5263 -77.5258 -77.5257
   -77.5255 -77.5252 -77.5251 -77.5248 -77.5247 -77.5246 -77.5243 -77.5241
   -77.5239 -77.5237 -77.5235 -77.5231 -77.5216 -77.5208 -77.5208 -77.5204
   -77.5199 -77.5196 -77.5195 -77.5192 -77.5187 -77.5184 -77.5172 -77.5170
   -77.5162 -77.5161 -77.5126 -77.5116 -77.5046 -77.5038 -77.5001 -77.4993
   -77.4140 -77.4135 -77.4134 -77.4130 -77.4127 -77.4126 -77.4124 -77.4123
   -77.4121 -77.4118 -77.4082 -77.4078 -77.4044 -77.4043 -77.4040 -77.4039
   -77.4038 -77.4037 -77.4036 -77.4033 -77.4032 -77.4031 -77.4030 -77.4029
   -77.4026 -77.4023 -77.4020 -77.4020 -77.4017 -77.4015 -77.3994 -77.3993
   -77.3977 -77.3977 -77.3974 -77.3974 -77.3966 -77.3965 -77.3963 -77.3962
   -77.3959 -77.3956 -77.3914 -77.3911 -77.3871 -77.3870 -77.3841 -77.3839
   -77.3838 -77.3836 -77.3830 -77.3828 -77.3827 -77.3826 -77.3826 -77.3825
   -77.3593 -77.3590 -77.3548 -77.3546 -77.3526 -77.3522 -77.3522 -77.3519
   -77.3513 -77.3511 -77.3510 -77.3508 -77.3426 -77.3424 -77.3381 -77.3379
   -77.3255 -77.3250 -77.3245 -77.3242 -77.3239 -77.3236 -77.3232 -77.3225
   -77.3188 -77.3177 -77.3142 -77.3131 -77.3101 -77.3094 -77.3087 -77.3082
   -77.3080 -77.3076 -77.3072 -77.3065 -77.3019 -77.3008 -77.2973 -77.2962
   -77.2528 -77.2523 -77.2515 -77.2513 -77.2510 -77.2508 -77.2499 -77.2494
   -77.2488 -77.2483 -77.2475 -77.2471 -77.2469 -77.2464 -77.2459 -77.2454
   -77.2446 -77.2429 -77.2401 -77.2384 -77.2279 -77.2263 -77.2234 -77.2218
    -6.6237  -6.1643  -5.7213  -5.5699  -5.3118  -5.2855  -5.2407  -5.1573
    -5.0839  -5.0798  -5.0628  -5.0538  -5.0368  -5.0251  -5.0170  -5.0067
    -4.9939  -4.9835  -4.9810  -4.9806  -4.9719  -4.9679  -4.9674  -4.9672
    -4.9555  -4.9405  -4.9211  -4.9202  -4.9065  -4.8845  -4.8660  -4.8572
    -4.8565  -4.8480  -4.8474  -4.8439  -4.8415  -4.8397  -4.8177  -4.8146
    -4.8132  -4.8091  -4.8052  -4.7996  -4.7889  -4.7839  -4.7738  -4.7689
    -4.7553  -4.7538  -4.7498  -4.7498  -4.7497  -4.7387  -4.7247  -4.7181
    -4.7097  -4.7036  -4.7009  -4.6955  -4.6902  -4.6900  -4.6866  -4.6727
    -4.6626  -4.6543  -4.6502  -4.6497  -4.6453  -4.6389  -4.6382  -4.6306
    -4.6143  -4.6031  -4.5964  -4.5825  -4.5790  -4.5750  -4.5725  -4.5722
    -4.5679  -4.5620  -4.5491  -4.5477  -4.5458  -4.5449  -4.5401  -4.5383
    -4.5334  -4.5317  -4.5291  -4.5269  -4.5181  -4.5128  -4.4997  -4.4987
    -4.4971  -4.4933  -4.4868  -4.4759  -4.4607  -4.4532  -4.4492  -4.4387
    -4.4370  -4.4330  -4.4256  -4.4237  -4.4108  -4.4067  -4.4022  -4.3995
    -4.3977  -4.3948  -4.3848  -4.3800  -4.3769  -4.3639  -4.3590  -4.3544
    -4.3482  -4.3450  -4.3440  -4.3422  -4.3401  -4.3393  -4.3392  -4.3377
    -4.3336  -4.3313  -4.3282  -4.3149  -4.3133  -4.3133  -4.3031  -4.2956
    -4.2918  -4.2899  -4.2894  -4.2807  -4.2789  -4.2778  -4.2772  -4.2707
    -4.2702  -4.2695  -4.2629  -4.2609  -4.2529  -4.2435  -4.2435  -4.2427
    -4.2411  -4.2396  -4.2341  -4.2288  -4.2248  -4.2235  -4.2232  -4.2232
    -4.2227  -4.2223  -4.2218  -4.2169  -4.2024  -4.1838  -4.1820  -4.1812
    -4.1790  -4.1707  -4.1676  -4.1639  -4.1567  -4.1477  -4.1403  -4.1391
    -4.1387  -4.1268  -4.1241  -4.1216  -4.1128  -4.1083  -4.1082  -4.1024
    -4.1013  -4.0974  -4.0819  -4.0796  -4.0777  -4.0760  -4.0729  -4.0728
    -4.0661  -4.0624  -4.0614  -4.0607  -4.0558  -4.0557  -4.0555  -4.0547
    -4.0507  -4.0503  -4.0501  -4.0450  -4.0397  -4.0381  -4.0343  -4.0270
    -4.0251  -4.0119  -4.0062  -4.0037  -4.0032  -4.0026  -3.9968  -3.9961
    -3.9890  -3.9807  -3.9788  -3.9654  -3.9651  -3.9644  -3.9612  -3.9539
    -3.9534  -3.9473  -3.9464  -3.9454  -3.9439  -3.9334  -3.9322  -3.9250
    -3.9215  -3.9210  -3.9178  -3.9174  -3.9035  -3.8999  -3.8955  -3.8921
    -3.8912  -3.8883  -3.8879  -3.8854  -3.8766  -3.8698  -3.8697  -3.8693
    -3.8644  -3.8635  -3.8623  -3.8620  -3.8543  -3.8529  -3.8528  -3.8504
    -3.8500  -3.8457  -3.8319  -3.8280  -3.8274  -3.8237  -3.8153  -3.8114
    -3.8102  -3.8087  -3.8070  -3.8068  -3.8033  -3.8022  -3.7989  -3.7960
    -3.7916  -3.7892  -3.7890  -3.7743  -3.7734  -3.7712  -3.7711  -3.7698
    -3.7686  -3.7639  -3.7634  -3.7631  -3.7623  -3.7623  -3.7580  -3.7561
    -3.7552  -3.7489  -3.7475  -3.7465  -3.7460  -3.7405  -3.7381  -3.7361
    -3.7315  -3.7311  -3.7265  -3.7262  -3.7253  -3.7181  -3.7151  -3.7135
    -3.6996  -3.6995  -3.6981  -3.6953  -3.6933  -3.6924  -3.6852  -3.6804
    -3.6770  -3.6617  -3.6609  -3.6604  -3.6602  -3.6600  -3.6480  -3.6284
    -3.6205  -3.6105  -3.6079  -3.5494  -3.5097  -3.4756  -3.4631  -3.3944
    -3.3810  -3.2412  -3.2001  -3.1359  -2.8408  -2.7799  -2.7322  -2.6575
    -2.1573  -2.1223  -1.9142  -1.8316  -1.7478  -1.3433  -1.2788  -1.2607
    -1.1793  -1.0889  -1.0796  -1.0630  -0.8048  -0.6883  -0.5271   0.1629
     0.2995   0.3054   0.3089   0.4565   0.4646   0.4684   0.5111   0.7306
     0.8649   0.9365   0.9733   1.1341   1.1367   1.1664   1.5620   1.6352
     1.6745   1.6812   1.6946   1.7515   1.9920   2.1873   2.2142   2.3955
     2.5737   2.6492   2.6583   2.7876   2.8535   2.8863   2.9285   3.0750
     3.1525   3.4080   3.4167   3.4328   3.4344   3.4809   3.7454   3.7513
     3.7812   3.9026   3.9299   4.1169   4.3695   4.3864   4.3960   4.5686
     4.6095   4.6518   4.7151   4.9134   5.0019   5.1544   5.2438   5.3005
     5.4377   5.4397   5.5243   5.5616   5.5657   5.6710   5.7582   5.8537
     5.8823   5.9204   5.9662   6.0009   6.0274   6.1702   6.2899   6.3213
     6.3237   6.5263   6.6076   6.7298   6.7366   6.7507   6.8247   6.8675
     6.9433   7.0203   7.1718   7.2752   7.4582   7.4800   7.6546   7.6831
     7.7266   7.7337   7.7613   7.8093   7.9785   8.0393   8.0474   8.0879
     8.0951   8.1655   8.3302   8.3898   8.4202   8.4222   8.4535   8.5081
     8.5085   8.5241   8.5493   8.7071   8.7077   8.8143   8.8206   8.8486
     8.9909   9.1210   9.1339   9.1699   9.1805   9.1906   9.2765   9.2983
     9.3110   9.4665   9.4698   9.4848   9.5368   9.6021   9.6049   9.6289
     9.6573   9.6973   9.7918   9.8472   9.9066   9.9223   9.9673  10.0148
    10.0475  10.0542  10.0726  10.1283  10.1693  10.1756  10.2244  10.2450
    10.3206  10.3864  10.4695  10.5023  10.6194  10.6239  10.6325  10.7011
    10.7629  10.8160  10.8276  10.8379  10.8667  10.8750  10.8937  10.9052

     occupation numbers 
     1.0000   1.0000   1.0000   1.0000   1.0000   1.0000   1.0000   1.0000
     1.0000   1.0000   1.0000   1.0000   1.0000   1.0000   1.0000   1.0000
     1.0000   1.0000   1.0000   1.0000   1.0000   1.0000   1.0000   1.0000
     1.0000   1.0000   1.0000   1.0000   1.0000   1.0000   1.0000   1.0000
     1.0000   1.0000   1.0000   1.0000   1.0000   1.0000   1.0000   1.0000
     1.0000   1.0000   1.0000   1.0000   1.0000   1.0000   1.0000   1.0000
     1.0000   1.0000   1.0000   1.0000   1.0000   1.0000   1.0000   1.0000
     1.0000   1.0000   1.0000   1.0000   1.0000   1.0000   1.0000   1.0000
     1.0000   1.0000   1.0000   1.0000   1.0000   1.0000   1.0000   1.0000
     1.0000   1.0000   1.0000   1.0000   1.0000   1.0000   1.0000   1.0000
     1.0000   1.0000   1.0000   1.0000   1.0000   1.0000   1.0000   1.0000
     1.0000   1.0000   1.0000   1.0000   1.0000   1.0000   1.0000   1.0000
     1.0000   1.0000   1.0000   1.0000   1.0000   1.0000   1.0000   1.0000
     1.0000   1.0000   1.0000   1.0000   1.0000   1.0000   1.0000   1.0000
     1.0000   1.0000   1.0000   1.0000   1.0000   1.0000   1.0000   1.0000
     1.0000   1.0000   1.0000   1.0000   1.0000   1.0000   1.0000   1.0000
     1.0000   1.0000   1.0000   1.0000   1.0000   1.0000   1.0000   1.0000
     1.0000   1.0000   1.0000   1.0000   1.0000   1.0000   1.0000   1.0000
     1.0000   1.0000   1.0000   1.0000   1.0000   1.0000   1.0000   1.0000
     1.0000   1.0000   1.0000   1.0000   1.0000   1.0000   1.0000   1.0000
     1.0000   1.0000   1.0000   1.0000   1.0000   1.0000   1.0000   1.0000
     1.0000   1.0000   1.0000   1.0000   1.0000   1.0000   1.0000   1.0000
     1.0000   1.0000   1.0000   1.0000   1.0000   1.0000   1.0000   1.0000
     1.0000   1.0000   1.0000   1.0000   1.0000   1.0000   1.0000   1.0000
     1.0000   1.0000   1.0000   1.0000   1.0000   1.0000   1.0000   1.0000
     1.0000   1.0000   1.0000   1.0000   1.0000   1.0000   1.0000   1.0000
     1.0000   1.0000   1.0000   1.0000   1.0000   1.0000   1.0000   1.0000
     1.0000   1.0000   1.0000   1.0000   1.0000   1.0000   1.0000   1.0000
     1.0000   1.0000   1.0000   1.0000   1.0000   1.0000   1.0000   1.0000
     1.0000   1.0000   1.0000   1.0000   1.0000   1.0000   1.0000   1.0000
     1.0000   1.0000   1.0000   1.0000   1.0000   1.0000   1.0000   1.0000
     1.0000   1.0000   1.0000   1.0000   1.0000   1.0000   1.0000   1.0000
     1.0000   1.0000   1.0000   1.0000   1.0000   1.0000   1.0000   1.0000
     1.0000   1.0000   1.0000   1.0000   1.0000   1.0000   1.0000   1.0000
     1.0000   1.0000   1.0000   1.0000   1.0000   1.0000   1.0000   1.0000
     1.0000   1.0000   1.0000   1.0000   1.0000   1.0000   1.0000   1.0000
     1.0000   1.0000   1.0000   1.0000   1.0000   1.0000   1.0000   1.0000
     1.0000   1.0000   1.0000   1.0000   1.0000   1.0000   1.0000   1.0000
     1.0000   1.0000   1.0000   1.0000   1.0000   1.0000   1.0000   1.0000
     1.0000   1.0000   1.0000   1.0000   1.0000   1.0000   1.0000   1.0000
     1.0000   1.0000   1.0000   1.0000   1.0000   1.0000   1.0000   1.0000
     1.0000   1.0000   1.0000   1.0000   1.0000   1.0000   1.0000   1.0000
     1.0000   1.0000   1.0000   1.0000   1.0000   1.0000   1.0000   1.0000
     1.0000   1.0000   1.0000   1.0000   1.0000   1.0000   1.0000   1.0000
     1.0000   1.0000   1.0000   1.0000   1.0000   1.0000   1.0000   1.0000
     1.0000   1.0000   1.0000   1.0000   1.0000   1.0000   1.0000   1.0000
     1.0000   1.0000   1.0000   1.0000   1.0000   1.0000   1.0000   1.0000
     1.0000   1.0000   1.0000   1.0000   1.0000   1.0000   1.0000   1.0000
     1.0000   1.0000   1.0000   1.0000   1.0000   1.0000   1.0000   1.0000
     1.0000   1.0000   1.0000   1.0000   1.0000   1.0000   1.0000   1.0000
     1.0000   1.0000   1.0000   1.0000   1.0000   1.0000   1.0000   1.0000
     1.0000   1.0000   1.0000   1.0000   1.0000   1.0000   1.0000   1.0000
     1.0000   1.0000   1.0000   1.0000   1.0000   1.0000   1.0000   1.0000
     1.0000   1.0000   1.0000   1.0000   1.0000   1.0000   1.0000   1.0000
     1.0000   1.0000   1.0000   1.0000   1.0000   1.0000   1.0000   1.0000
     1.0000   1.0000   1.0000   1.0000   1.0000   1.0000   1.0000   1.0000
     1.0000   1.0000   1.0000   1.0000   1.0000   1.0000   1.0000   1.0000
     1.0000   1.0000   1.0000   1.0000   1.0000   1.0000   1.0000   1.0000
     1.0000   1.0000   1.0000   1.0000   1.0000   1.0000   1.0000   1.0000
     1.0000   1.0000   1.0000   1.0000   1.0000   1.0000   1.0000   1.0000
     1.0000   1.0000   1.0000   1.0000   1.0000   1.0000   1.0000   1.0000
     1.0000   1.0000   1.0000   1.0000   1.0000   1.0000   1.0000   1.0000
     1.0000   1.0000   1.0000   1.0000   1.0000   1.0000   1.0000   1.0000
     1.0000   1.0000   1.0000   1.0000   1.0000   1.0000   1.0000   1.0000
     1.0000   1.0000   1.0000   1.0000   1.0000   1.0000   1.0000   1.0000
     1.0000   1.0000   1.0000   1.0000   1.0000   1.0000   1.0000   1.0000
     1.0000   1.0000   1.0000   1.0000   1.0000   1.0000   1.0000   1.0000
     1.0000   1.0000   1.0000   1.0000   1.0000   1.0000   1.0000   1.0000
     1.0000   1.0000   1.0000   1.0000   1.0000   1.0000   1.0000   1.0000
     1.0000   1.0000   1.0000   1.0000   1.0000   1.0000   1.0000   1.0000
     1.0000   1.0000   1.0000   1.0000   1.0000   1.0000   1.0000   1.0000
     1.0000   1.0000   1.0000   1.0000   1.0000   1.0000   1.0000   1.0000
     1.0000   1.0000   1.0000   1.0000   1.0000   1.0000   1.0000   1.0000
     1.0000   1.0000   1.0000   1.0000   1.0000   1.0000   1.0000   1.0000
     1.0000   1.0000   1.0000   1.0000   1.0000   1.0000   1.0000   1.0000
     1.0000   1.0000   1.0000   1.0000   1.0000   1.0000   1.0000   1.0000
     1.0000   1.0000   1.0000   1.0000   1.0000   1.0000   1.0000   1.0000
     1.0000   1.0000   1.0000   1.0000   1.0000   1.0000   1.0000   1.0000
     1.0000   1.0000   1.0000   1.0000   1.0000   1.0004   1.0006   1.0098
     1.0539   1.0774   1.0793   1.0473   0.9637   0.9025   0.8070   0.4146
     0.2398   0.0138   0.0122   0.0096   0.0093   0.0045   0.0000   0.0000
     0.0000   0.0000   0.0000   0.0000   0.0000   0.0000   0.0000   0.0000
     0.0000   0.0000   0.0000   0.0000   0.0000   0.0000   0.0000   0.0000
     0.0000   0.0000   0.0000   0.0000   0.0000   0.0000   0.0000   0.0000
     0.0000   0.0000   0.0000   0.0000   0.0000   0.0000   0.0000   0.0000
     0.0000   0.0000   0.0000   0.0000   0.0000   0.0000   0.0000   0.0000
     0.0000   0.0000   0.0000   0.0000   0.0000   0.0000   0.0000   0.0000
     0.0000   0.0000   0.0000   0.0000   0.0000   0.0000   0.0000   0.0000
     0.0000   0.0000   0.0000   0.0000   0.0000   0.0000   0.0000   0.0000
     0.0000   0.0000   0.0000   0.0000   0.0000   0.0000   0.0000   0.0000
     0.0000   0.0000   0.0000   0.0000   0.0000   0.0000   0.0000   0.0000
     0.0000   0.0000   0.0000   0.0000   0.0000   0.0000   0.0000   0.0000
     0.0000   0.0000   0.0000   0.0000   0.0000   0.0000   0.0000   0.0000
     0.0000   0.0000   0.0000   0.0000   0.0000   0.0000   0.0000   0.0000
     0.0000   0.0000   0.0000   0.0000   0.0000   0.0000   0.0000   0.0000
     0.0000   0.0000   0.0000   0.0000   0.0000   0.0000   0.0000   0.0000

          k = 0.3333 0.0000 0.0000 ( 67745 PWs)   bands (ev):

  -123.4409-123.4407-123.4401-123.4400-123.4398-123.4397-123.4391-123.4388
  -123.3779-123.3770-123.3768-123.3768-123.3759-123.3759-123.3758-123.3749
  -123.3670-123.3663-123.3662-123.3662-123.3654-123.3654-123.3653-123.3645
  -123.2547-123.2545-123.2538-123.2537-123.2535-123.2535-123.2529-123.2525
  -123.2463-123.2463-123.2455-123.2455-123.2454-123.2454-123.2446-123.2445
  -123.2089-123.2087-123.2080-123.2080-123.2079-123.2079-123.2072-123.2070
  -123.1624-123.1614-123.1613-123.1613-123.1604-123.1603-123.1603-123.1593
  -123.0925-123.0916-123.0915-123.0909-123.0906-123.0900-123.0898-123.0889
   -77.6001 -77.5998 -77.5984 -77.5981 -77.5970 -77.5969 -77.5967 -77.5967
   -77.5956 -77.5953 -77.5898 -77.5895 -77.5887 -77.5887 -77.5884 -77.5884
   -77.5876 -77.5875 -77.5875 -77.5874 -77.5873 -77.5873 -77.5749 -77.5746
   -77.5355 -77.5344 -77.5330 -77.5322 -77.5320 -77.5320 -77.5313 -77.5311
   -77.5310 -77.5303 -77.5265 -77.5264 -77.5257 -77.5253 -77.5253 -77.5253
   -77.5253 -77.5251 -77.5245 -77.5245 -77.5242 -77.5241 -77.5241 -77.5240
   -77.5233 -77.5233 -77.5233 -77.5232 -77.5230 -77.5224 -77.5222 -77.5222
   -77.5209 -77.5201 -77.5200 -77.5199 -77.5192 -77.5192 -77.5190 -77.5183
   -77.5110 -77.5108 -77.5108 -77.5100 -77.5100 -77.5099 -77.4984 -77.4976
   -77.4143 -77.4140 -77.4140 -77.4136 -77.4130 -77.4129 -77.4127 -77.4127
   -77.4120 -77.4117 -77.4055 -77.4054 -77.4045 -77.4043 -77.4037 -77.4036
   -77.4035 -77.4035 -77.4033 -77.4032 -77.4026 -77.4026 -77.4025 -77.4025
   -77.4025 -77.4022 -77.4021 -77.4020 -77.4017 -77.4017 -77.4015 -77.4014
   -77.3979 -77.3978 -77.3970 -77.3970 -77.3969 -77.3969 -77.3961 -77.3961
   -77.3932 -77.3932 -77.3932 -77.3932 -77.3898 -77.3895 -77.3842 -77.3840
   -77.3834 -77.3834 -77.3832 -77.3832 -77.3826 -77.3825 -77.3809 -77.3809
   -77.3609 -77.3607 -77.3527 -77.3524 -77.3518 -77.3518 -77.3516 -77.3516
   -77.3509 -77.3507 -77.3487 -77.3487 -77.3485 -77.3485 -77.3365 -77.3363
   -77.3256 -77.3246 -77.3246 -77.3245 -77.3236 -77.3235 -77.3235 -77.3225
   -77.3204 -77.3193 -77.3100 -77.3089 -77.3088 -77.3087 -77.3081 -77.3081
   -77.3076 -77.3076 -77.3075 -77.3070 -77.3069 -77.3064 -77.2957 -77.2946
   -77.2529 -77.2519 -77.2519 -77.2514 -77.2509 -77.2504 -77.2502 -77.2493
   -77.2488 -77.2479 -77.2478 -77.2470 -77.2470 -77.2463 -77.2462 -77.2461
   -77.2453 -77.2446 -77.2340 -77.2340 -77.2324 -77.2323 -77.2218 -77.2201
    -6.6147  -6.1508  -5.7254  -5.3932  -5.3931  -5.3904  -5.2248  -5.2121
    -5.1479  -5.1478  -5.1296  -5.1136  -5.0866  -5.0784  -5.0591  -5.0543
    -5.0417  -5.0412  -5.0393  -4.9699  -4.9556  -4.9525  -4.9309  -4.9290
    -4.9196  -4.9195  -4.9127  -4.9048  -4.8918  -4.8918  -4.8640  -4.8370
    -4.8370  -4.8245  -4.8190  -4.8188  -4.8188  -4.8020  -4.8000  -4.7999
    -4.7999  -4.7968  -4.7968  -4.7938  -4.7917  -4.7752  -4.7671  -4.7589
    -4.7551  -4.7551  -4.7501  -4.7320  -4.7320  -4.7046  -4.7046  -4.6987
    -4.6774  -4.6774  -4.6566  -4.6505  -4.6467  -4.6467  -4.6429  -4.6345
    -4.6264  -4.6264  -4.6161  -4.6154  -4.6154  -4.6129  -4.6129  -4.6098
    -4.6098  -4.6025  -4.6009  -4.5926  -4.5894  -4.5770  -4.5743  -4.5743
    -4.5712  -4.5544  -4.5533  -4.5520  -4.5520  -4.5358  -4.5358  -4.5254
    -4.5169  -4.5169  -4.5124  -4.5124  -4.5062  -4.5044  -4.4985  -4.4985
    -4.4984  -4.4917  -4.4873  -4.4832  -4.4808  -4.4794  -4.4794  -4.4709
    -4.4709  -4.4636  -4.4635  -4.4633  -4.4609  -4.4556  -4.4240  -4.4240
    -4.4128  -4.4112  -4.4112  -4.4000  -4.3846  -4.3846  -4.3838  -4.3671
    -4.3670  -4.3590  -4.3534  -4.3534  -4.3430  -4.3391  -4.3391  -4.3320
    -4.3319  -4.3278  -4.3261  -4.3208  -4.3194  -4.3194  -4.3139  -4.2796
    -4.2740  -4.2707  -4.2643  -4.2617  -4.2617  -4.2565  -4.2501  -4.2501
    -4.2452  -4.2451  -4.2410  -4.2373  -4.2373  -4.2248  -4.2248  -4.2192
    -4.2141  -4.2129  -4.2129  -4.2027  -4.2023  -4.1987  -4.1987  -4.1956
    -4.1925  -4.1925  -4.1870  -4.1836  -4.1738  -4.1738  -4.1639  -4.1633
    -4.1608  -4.1607  -4.1548  -4.1548  -4.1491  -4.1490  -4.1377  -4.1377
    -4.1360  -4.1291  -4.1242  -4.1171  -4.1117  -4.0983  -4.0983  -4.0982
    -4.0928  -4.0864  -4.0864  -4.0694  -4.0694  -4.0662  -4.0662  -4.0555
    -4.0555  -4.0554  -4.0534  -4.0534  -4.0416  -4.0416  -4.0338  -4.0279
    -4.0279  -4.0261  -4.0261  -4.0226  -4.0211  -4.0149  -4.0149  -4.0127
    -4.0092  -4.0086  -4.0086  -4.0006  -4.0006  -4.0005  -3.9935  -3.9873
    -3.9873  -3.9843  -3.9827  -3.9737  -3.9737  -3.9717  -3.9675  -3.9674
    -3.9652  -3.9643  -3.9584  -3.9567  -3.9518  -3.9503  -3.9425  -3.9425
    -3.9297  -3.9297  -3.9272  -3.9241  -3.9241  -3.9236  -3.9228  -3.9227
    -3.9219  -3.9181  -3.9181  -3.9076  -3.8914  -3.8912  -3.8898  -3.8898
    -3.8898  -3.8881  -3.8878  -3.8850  -3.8817  -3.8798  -3.8797  -3.8796
    -3.8772  -3.8725  -3.8725  -3.8685  -3.8684  -3.8533  -3.8533  -3.8527
    -3.8498  -3.8455  -3.8455  -3.8450  -3.8387  -3.8228  -3.8228  -3.8228
    -3.8183  -3.8178  -3.8178  -3.8098  -3.8042  -3.8042  -3.8020  -3.8019
    -3.8019  -3.7986  -3.7945  -3.7897  -3.7805  -3.7803  -3.7803  -3.7754
    -3.7700  -3.7700  -3.7685  -3.7591  -3.7523  -3.7523  -3.7500  -3.7389
    -3.7389  -3.7253  -3.7194  -3.7165  -3.7000  -3.6993  -3.6971  -3.6922
    -3.6867  -3.6767  -3.6767  -3.6738  -3.6687  -3.6592  -3.6574  -3.6574
    -3.6572  -3.6490  -3.6490  -3.6428  -3.6375  -3.6357  -3.6356  -3.6196
    -3.6070  -3.5986  -3.5985  -3.5834  -3.5508  -3.5161  -3.5152  -3.4741
    -3.4041  -3.4041  -3.2048  -3.1193  -3.0198  -3.0198  -2.7539  -2.2390
    -1.9432  -1.9431  -1.7959  -1.7958  -1.5479  -1.3988  -1.3987  -1.1038
    -0.8692  -0.8305  -0.8305  -0.5454  -0.4232  -0.2486  -0.2386  -0.1408
    -0.1407   0.1753   0.1753   0.1968   0.2389   0.5236   0.5236   0.5407
     0.7451   0.8180   0.8663   0.8664   0.8942   0.8943   0.9755   1.1122
     1.3191   1.3998   1.7980   1.9005   1.9098   2.2899   2.2899   2.3415
     2.3488   2.3601   2.5419   2.7393   2.7393   2.8325   2.9420   2.9420
     2.9870   3.4385   3.5110   3.5111   3.6205   3.7550   3.7698   3.9264
     3.9812   4.1646   4.2611   4.2611   4.4094   4.4094   4.7111   4.8787
     4.9901   4.9998   5.0080   5.0268   5.1884   5.1884   5.2076   5.2593
     5.2593   5.2811   5.2947   5.3096   5.4147   5.4148   5.6141   6.0970
     6.2987   6.3747   6.3747   6.4352   6.5282   6.5283   6.5831   6.6160
     6.7415   6.8192   6.9615   6.9616   6.9721   6.9722   7.0825   7.0838
     7.1003   7.2603   7.3480   7.4422   7.4422   7.4526   7.4952   7.4953
     7.5680   7.7326   7.7327   7.8219   7.8220   7.8576   7.9343   7.9593
     7.9593   7.9706   8.0468   8.0468   8.0830   8.1450   8.4226   8.4226
     8.4805   8.4805   8.5039   8.5160   8.6020   8.6281   8.6281   8.6610
     8.6610   8.7409   8.7668   8.9897   8.9897   9.1667   9.1667   9.1923
     9.2531   9.2993   9.2994   9.3086   9.3578   9.3819   9.4094   9.4923
     9.4923   9.6408   9.6632   9.6680   9.6681   9.7798   9.7798   9.7826
     9.8217   9.8657   9.9067   9.9067   9.9577  10.1027  10.1055  10.1056
    10.1138  10.2206  10.2206  10.3180  10.4729  10.4729  10.5438  10.5438
    10.5632  10.5657  10.6457  10.6458  10.7880  10.9865  11.0783  11.0783

     occupation numbers 
     1.0000   1.0000   1.0000   1.0000   1.0000   1.0000   1.0000   1.0000
     1.0000   1.0000   1.0000   1.0000   1.0000   1.0000   1.0000   1.0000
     1.0000   1.0000   1.0000   1.0000   1.0000   1.0000   1.0000   1.0000
     1.0000   1.0000   1.0000   1.0000   1.0000   1.0000   1.0000   1.0000
     1.0000   1.0000   1.0000   1.0000   1.0000   1.0000   1.0000   1.0000
     1.0000   1.0000   1.0000   1.0000   1.0000   1.0000   1.0000   1.0000
     1.0000   1.0000   1.0000   1.0000   1.0000   1.0000   1.0000   1.0000
     1.0000   1.0000   1.0000   1.0000   1.0000   1.0000   1.0000   1.0000
     1.0000   1.0000   1.0000   1.0000   1.0000   1.0000   1.0000   1.0000
     1.0000   1.0000   1.0000   1.0000   1.0000   1.0000   1.0000   1.0000
     1.0000   1.0000   1.0000   1.0000   1.0000   1.0000   1.0000   1.0000
     1.0000   1.0000   1.0000   1.0000   1.0000   1.0000   1.0000   1.0000
     1.0000   1.0000   1.0000   1.0000   1.0000   1.0000   1.0000   1.0000
     1.0000   1.0000   1.0000   1.0000   1.0000   1.0000   1.0000   1.0000
     1.0000   1.0000   1.0000   1.0000   1.0000   1.0000   1.0000   1.0000
     1.0000   1.0000   1.0000   1.0000   1.0000   1.0000   1.0000   1.0000
     1.0000   1.0000   1.0000   1.0000   1.0000   1.0000   1.0000   1.0000
     1.0000   1.0000   1.0000   1.0000   1.0000   1.0000   1.0000   1.0000
     1.0000   1.0000   1.0000   1.0000   1.0000   1.0000   1.0000   1.0000
     1.0000   1.0000   1.0000   1.0000   1.0000   1.0000   1.0000   1.0000
     1.0000   1.0000   1.0000   1.0000   1.0000   1.0000   1.0000   1.0000
     1.0000   1.0000   1.0000   1.0000   1.0000   1.0000   1.0000   1.0000
     1.0000   1.0000   1.0000   1.0000   1.0000   1.0000   1.0000   1.0000
     1.0000   1.0000   1.0000   1.0000   1.0000   1.0000   1.0000   1.0000
     1.0000   1.0000   1.0000   1.0000   1.0000   1.0000   1.0000   1.0000
     1.0000   1.0000   1.0000   1.0000   1.0000   1.0000   1.0000   1.0000
     1.0000   1.0000   1.0000   1.0000   1.0000   1.0000   1.0000   1.0000
     1.0000   1.0000   1.0000   1.0000   1.0000   1.0000   1.0000   1.0000
     1.0000   1.0000   1.0000   1.0000   1.0000   1.0000   1.0000   1.0000
     1.0000   1.0000   1.0000   1.0000   1.0000   1.0000   1.0000   1.0000
     1.0000   1.0000   1.0000   1.0000   1.0000   1.0000   1.0000   1.0000
     1.0000   1.0000   1.0000   1.0000   1.0000   1.0000   1.0000   1.0000
     1.0000   1.0000   1.0000   1.0000   1.0000   1.0000   1.0000   1.0000
     1.0000   1.0000   1.0000   1.0000   1.0000   1.0000   1.0000   1.0000
     1.0000   1.0000   1.0000   1.0000   1.0000   1.0000   1.0000   1.0000
     1.0000   1.0000   1.0000   1.0000   1.0000   1.0000   1.0000   1.0000
     1.0000   1.0000   1.0000   1.0000   1.0000   1.0000   1.0000   1.0000
     1.0000   1.0000   1.0000   1.0000   1.0000   1.0000   1.0000   1.0000
     1.0000   1.0000   1.0000   1.0000   1.0000   1.0000   1.0000   1.0000
     1.0000   1.0000   1.0000   1.0000   1.0000   1.0000   1.0000   1.0000
     1.0000   1.0000   1.0000   1.0000   1.0000   1.0000   1.0000   1.0000
     1.0000   1.0000   1.0000   1.0000   1.0000   1.0000   1.0000   1.0000
     1.0000   1.0000   1.0000   1.0000   1.0000   1.0000   1.0000   1.0000
     1.0000   1.0000   1.0000   1.0000   1.0000   1.0000   1.0000   1.0000
     1.0000   1.0000   1.0000   1.0000   1.0000   1.0000   1.0000   1.0000
     1.0000   1.0000   1.0000   1.0000   1.0000   1.0000   1.0000   1.0000
     1.0000   1.0000   1.0000   1.0000   1.0000   1.0000   1.0000   1.0000
     1.0000   1.0000   1.0000   1.0000   1.0000   1.0000   1.0000   1.0000
     1.0000   1.0000   1.0000   1.0000   1.0000   1.0000   1.0000   1.0000
     1.0000   1.0000   1.0000   1.0000   1.0000   1.0000   1.0000   1.0000
     1.0000   1.0000   1.0000   1.0000   1.0000   1.0000   1.0000   1.0000
     1.0000   1.0000   1.0000   1.0000   1.0000   1.0000   1.0000   1.0000
     1.0000   1.0000   1.0000   1.0000   1.0000   1.0000   1.0000   1.0000
     1.0000   1.0000   1.0000   1.0000   1.0000   1.0000   1.0000   1.0000
     1.0000   1.0000   1.0000   1.0000   1.0000   1.0000   1.0000   1.0000
     1.0000   1.0000   1.0000   1.0000   1.0000   1.0000   1.0000   1.0000
     1.0000   1.0000   1.0000   1.0000   1.0000   1.0000   1.0000   1.0000
     1.0000   1.0000   1.0000   1.0000   1.0000   1.0000   1.0000   1.0000
     1.0000   1.0000   1.0000   1.0000   1.0000   1.0000   1.0000   1.0000
     1.0000   1.0000   1.0000   1.0000   1.0000   1.0000   1.0000   1.0000
     1.0000   1.0000   1.0000   1.0000   1.0000   1.0000   1.0000   1.0000
     1.0000   1.0000   1.0000   1.0000   1.0000   1.0000   1.0000   1.0000
     1.0000   1.0000   1.0000   1.0000   1.0000   1.0000   1.0000   1.0000
     1.0000   1.0000   1.0000   1.0000   1.0000   1.0000   1.0000   1.0000
     1.0000   1.0000   1.0000   1.0000   1.0000   1.0000   1.0000   1.0000
     1.0000   1.0000   1.0000   1.0000   1.0000   1.0000   1.0000   1.0000
     1.0000   1.0000   1.0000   1.0000   1.0000   1.0000   1.0000   1.0000
     1.0000   1.0000   1.0000   1.0000   1.0000   1.0000   1.0000   1.0000
     1.0000   1.0000   1.0000   1.0000   1.0000   1.0000   1.0000   1.0000
     1.0000   1.0000   1.0000   1.0000   1.0000   1.0000   1.0000   1.0000
     1.0000   1.0000   1.0000   1.0000   1.0000   1.0000   1.0000   1.0000
     1.0000   1.0000   1.0000   1.0000   1.0000   1.0000   1.0000   1.0000
     1.0000   1.0000   1.0000   1.0000   1.0000   1.0000   1.0000   1.0000
     1.0000   1.0000   1.0000   1.0000   1.0000   1.0000   1.0000   1.0000
     1.0000   1.0000   1.0000   1.0000   1.0000   1.0000   1.0000   1.0000
     1.0000   1.0000   1.0000   1.0000   1.0000   1.0000   1.0000   1.0000
     1.0000   1.0000   1.0000   1.0000   1.0000   1.0000   1.0000   1.0000
     1.0000   1.0000   1.0000   1.0000   1.0000   1.0000   1.0000   1.0000
     1.0000   1.0000   1.0000   1.0000   1.0000   1.0022   1.0022   1.0048
     1.0053   1.0062   1.0431   1.0762   1.0761   0.9963   0.7732   0.7730
     0.6531   0.0088   0.0027   0.0027   0.0004   0.0000   0.0000   0.0000
     0.0000   0.0000   0.0000   0.0000   0.0000   0.0000   0.0000   0.0000
     0.0000   0.0000   0.0000   0.0000   0.0000   0.0000   0.0000   0.0000
     0.0000   0.0000   0.0000   0.0000   0.0000   0.0000   0.0000   0.0000
     0.0000   0.0000   0.0000   0.0000   0.0000   0.0000   0.0000   0.0000
     0.0000   0.0000   0.0000   0.0000   0.0000   0.0000   0.0000   0.0000
     0.0000   0.0000   0.0000   0.0000   0.0000   0.0000   0.0000   0.0000
     0.0000   0.0000   0.0000   0.0000   0.0000   0.0000   0.0000   0.0000
     0.0000   0.0000   0.0000   0.0000   0.0000   0.0000   0.0000   0.0000
     0.0000   0.0000   0.0000   0.0000   0.0000   0.0000   0.0000   0.0000
     0.0000   0.0000   0.0000   0.0000   0.0000   0.0000   0.0000   0.0000
     0.0000   0.0000   0.0000   0.0000   0.0000   0.0000   0.0000   0.0000
     0.0000   0.0000   0.0000   0.0000   0.0000   0.0000   0.0000   0.0000
     0.0000   0.0000   0.0000   0.0000   0.0000   0.0000   0.0000   0.0000
     0.0000   0.0000   0.0000   0.0000   0.0000   0.0000   0.0000   0.0000
     0.0000   0.0000   0.0000   0.0000   0.0000   0.0000   0.0000   0.0000

          k = 0.3333 0.3107 0.1794 ( 67762 PWs)   bands (ev):

  -123.4408-123.4406-123.4404-123.4402-123.4396-123.4393-123.4392-123.4389
  -123.3778-123.3773-123.3767-123.3765-123.3762-123.3760-123.3754-123.3749
  -123.3669-123.3666-123.3662-123.3658-123.3657-123.3654-123.3649-123.3646
  -123.2546-123.2544-123.2542-123.2539-123.2534-123.2531-123.2530-123.2526
  -123.2462-123.2462-123.2459-123.2458-123.2450-123.2450-123.2447-123.2447
  -123.2088-123.2086-123.2085-123.2083-123.2076-123.2074-123.2073-123.2071
  -123.1623-123.1617-123.1613-123.1610-123.1606-123.1604-123.1600-123.1593
  -123.0924-123.0919-123.0912-123.0908-123.0907-123.0903-123.0895-123.0890
   -77.5984 -77.5982 -77.5981 -77.5979 -77.5976 -77.5974 -77.5963 -77.5960
   -77.5957 -77.5955 -77.5938 -77.5935 -77.5897 -77.5894 -77.5892 -77.5889
   -77.5882 -77.5879 -77.5877 -77.5875 -77.5812 -77.5810 -77.5766 -77.5763
   -77.5339 -77.5330 -77.5328 -77.5325 -77.5319 -77.5318 -77.5314 -77.5313
   -77.5308 -77.5303 -77.5294 -77.5283 -77.5263 -77.5263 -77.5258 -77.5257
   -77.5255 -77.5252 -77.5251 -77.5248 -77.5247 -77.5246 -77.5243 -77.5241
   -77.5239 -77.5237 -77.5235 -77.5231 -77.5216 -77.5208 -77.5208 -77.5204
   -77.5200 -77.5196 -77.5195 -77.5192 -77.5187 -77.5184 -77.5172 -77.5170
   -77.5162 -77.5161 -77.5126 -77.5116 -77.5046 -77.5038 -77.5001 -77.4993
   -77.4139 -77.4136 -77.4134 -77.4130 -77.4127 -77.4126 -77.4124 -77.4123
   -77.4121 -77.4118 -77.4082 -77.4079 -77.4044 -77.4043 -77.4040 -77.4039
   -77.4038 -77.4037 -77.4035 -77.4034 -77.4031 -77.4031 -77.4030 -77.4029
   -77.4026 -77.4023 -77.4020 -77.4020 -77.4017 -77.4016 -77.3994 -77.3993
   -77.3977 -77.3977 -77.3974 -77.3974 -77.3966 -77.3965 -77.3963 -77.3962
   -77.3959 -77.3956 -77.3914 -77.3911 -77.3871 -77.3870 -77.3841 -77.3839
   -77.3838 -77.3836 -77.3830 -77.3828 -77.3827 -77.3826 -77.3826 -77.3825
   -77.3592 -77.3590 -77.3548 -77.3546 -77.3525 -77.3523 -77.3522 -77.3520
   -77.3513 -77.3511 -77.3510 -77.3508 -77.3426 -77.3424 -77.3381 -77.3379
   -77.3255 -77.3250 -77.3245 -77.3242 -77.3239 -77.3236 -77.3232 -77.3225
   -77.3188 -77.3177 -77.3142 -77.3131 -77.3099 -77.3093 -77.3088 -77.3082
   -77.3081 -77.3076 -77.3072 -77.3065 -77.3019 -77.3008 -77.2973 -77.2962
   -77.2528 -77.2523 -77.2515 -77.2513 -77.2510 -77.2508 -77.2499 -77.2494
   -77.2487 -77.2482 -77.2475 -77.2471 -77.2470 -77.2465 -77.2459 -77.2454
   -77.2446 -77.2429 -77.2401 -77.2385 -77.2279 -77.2263 -77.2234 -77.2218
    -6.4577  -6.0083  -6.0016  -5.5931  -5.5804  -5.2704  -5.2016  -5.1480
    -5.1258  -5.0620  -5.0603  -5.0543  -5.0495  -5.0377  -5.0356  -5.0222
    -5.0213  -5.0009  -4.9899  -4.9804  -4.9712  -4.9667  -4.9582  -4.9531
    -4.9446  -4.9328  -4.9270  -4.9262  -4.9037  -4.8935  -4.8808  -4.8679
    -4.8674  -4.8548  -4.8541  -4.8525  -4.8524  -4.8491  -4.8341  -4.8315
    -4.8289  -4.7885  -4.7865  -4.7803  -4.7718  -4.7623  -4.7578  -4.7552
    -4.7525  -4.7451  -4.7338  -4.7326  -4.7280  -4.7234  -4.7207  -4.7194
    -4.7135  -4.7127  -4.6971  -4.6801  -4.6749  -4.6687  -4.6668  -4.6632
    -4.6449  -4.6438  -4.6394  -4.6376  -4.6374  -4.6322  -4.6295  -4.6145
    -4.6123  -4.6062  -4.6020  -4.5997  -4.5862  -4.5752  -4.5728  -4.5714
    -4.5675  -4.5646  -4.5612  -4.5607  -4.5581  -4.5438  -4.5355  -4.5330
    -4.5329  -4.5305  -4.5249  -4.5224  -4.5198  -4.5080  -4.5080  -4.4962
    -4.4958  -4.4880  -4.4873  -4.4852  -4.4817  -4.4797  -4.4743  -4.4727
    -4.4723  -4.4694  -4.4650  -4.4572  -4.4563  -4.4559  -4.4375  -4.4337
    -4.4253  -4.4205  -4.4198  -4.4117  -4.4078  -4.4058  -4.3984  -4.3962
    -4.3903  -4.3831  -4.3791  -4.3728  -4.3704  -4.3597  -4.3428  -4.3414
    -4.3388  -4.3324  -4.3272  -4.3247  -4.3224  -4.3161  -4.3149  -4.3139
    -4.3106  -4.3024  -4.2982  -4.2879  -4.2789  -4.2754  -4.2713  -4.2712
    -4.2661  -4.2596  -4.2518  -4.2475  -4.2447  -4.2446  -4.2422  -4.2333
    -4.2330  -4.2249  -4.2219  -4.2200  -4.2107  -4.2091  -4.2067  -4.2067
    -4.2034  -4.1924  -4.1922  -4.1880  -4.1778  -4.1768  -4.1753  -4.1611
    -4.1572  -4.1546  -4.1482  -4.1398  -4.1325  -4.1279  -4.1220  -4.1185
    -4.1154  -4.1153  -4.1063  -4.1053  -4.0987  -4.0947  -4.0942  -4.0878
    -4.0797  -4.0776  -4.0704  -4.0702  -4.0648  -4.0615  -4.0521  -4.0520
    -4.0508  -4.0482  -4.0447  -4.0392  -4.0350  -4.0314  -4.0204  -4.0201
    -4.0192  -4.0152  -4.0126  -4.0103  -4.0102  -4.0089  -4.0063  -3.9988
    -3.9970  -3.9927  -3.9848  -3.9791  -3.9777  -3.9776  -3.9774  -3.9773
    -3.9727  -3.9656  -3.9642  -3.9578  -3.9517  -3.9517  -3.9506  -3.9453
    -3.9447  -3.9418  -3.9383  -3.9361  -3.9322  -3.9321  -3.9248  -3.9213
    -3.9195  -3.9189  -3.9083  -3.9073  -3.9055  -3.9029  -3.9009  -3.9000
    -3.8997  -3.8890  -3.8824  -3.8824  -3.8791  -3.8781  -3.8775  -3.8764
    -3.8746  -3.8744  -3.8703  -3.8671  -3.8653  -3.8586  -3.8539  -3.8513
    -3.8497  -3.8481  -3.8443  -3.8432  -3.8423  -3.8409  -3.8404  -3.8356
    -3.8342  -3.8313  -3.8290  -3.8222  -3.8206  -3.8160  -3.8097  -3.8080
    -3.8075  -3.8031  -3.7993  -3.7990  -3.7987  -3.7977  -3.7947  -3.7929
    -3.7881  -3.7861  -3.7856  -3.7819  -3.7809  -3.7801  -3.7784  -3.7735
    -3.7631  -3.7628  -3.7556  -3.7541  -3.7496  -3.7480  -3.7462  -3.7378
    -3.7340  -3.7330  -3.7325  -3.7295  -3.7293  -3.7133  -3.7110  -3.7070
    -3.7060  -3.7058  -3.7053  -3.6970  -3.6923  -3.6855  -3.6850  -3.6729
    -3.6718  -3.6674  -3.6670  -3.6567  -3.6519  -3.6504  -3.6499  -3.6449
    -3.6431  -3.6402  -3.6388  -3.5913  -3.5758  -3.5754  -3.5189  -3.4918
    -3.3068  -3.0286  -2.9305  -2.9109  -2.6113  -2.5797  -2.5271  -2.4841
    -2.1218  -2.0623  -2.0520  -1.9885  -1.5814  -1.5297  -1.3681  -1.1168
    -0.9582  -0.9324  -0.8827  -0.7895  -0.7029  -0.6489  -0.5310  -0.3764
    -0.3640  -0.2738  -0.2282   0.1051   0.1673   0.2083   0.4392   0.5529
     0.8794   0.9829   0.9946   1.1777   1.4809   1.4997   1.5116   1.5359
     1.5581   1.8087   1.8974   1.8992   1.9983   2.0139   2.0674   2.2086
     2.2928   2.3233   2.4683   2.5845   2.8454   2.9510   2.9957   3.1058
     3.1486   3.2805   3.4770   3.5816   3.6315   3.8124   3.9305   4.0244
     4.0967   4.1326   4.2242   4.3718   4.4068   4.6003   4.6617   4.7159
     4.8339   5.0152   5.1456   5.1542   5.1656   5.1857   5.3422   5.3487
     5.4204   5.5658   5.6155   5.6863   5.7005   5.7036   5.7661   5.9014
     6.1499   6.2192   6.2400   6.2478   6.2516   6.4057   6.4121   6.4630
     6.5080   6.6168   6.6915   6.7002   6.8991   6.9029   6.9083   6.9475
     6.9815   7.0245   7.0598   7.1416   7.1825   7.2296   7.3284   7.3914
     7.4287   7.4598   7.4663   7.6289   7.6817   7.7017   7.7858   7.8035
     7.8639   7.9140   7.9612   8.0076   8.1305   8.2201   8.2237   8.2698
     8.3347   8.3393   8.4834   8.6469   8.6587   8.6904   8.7488   8.7753
     8.8054   8.8679   8.8768   8.8859   8.9659   9.0413   9.0514   9.1558
     9.2542   9.2705   9.3006   9.3178   9.3784   9.3946   9.4313   9.4964
     9.5792   9.6291   9.6752   9.6993   9.7662   9.7788   9.8354   9.8637
     9.8913  10.0239  10.0315  10.0808  10.2612  10.2720  10.2926  10.3175
    10.3615  10.4181  10.4421  10.4677  10.5581  10.6777  10.7178  10.7379
    10.7419  10.7688  10.8039  10.8050  10.8054  10.8391  10.9087  10.9535

     occupation numbers 
     1.0000   1.0000   1.0000   1.0000   1.0000   1.0000   1.0000   1.0000
     1.0000   1.0000   1.0000   1.0000   1.0000   1.0000   1.0000   1.0000
     1.0000   1.0000   1.0000   1.0000   1.0000   1.0000   1.0000   1.0000
     1.0000   1.0000   1.0000   1.0000   1.0000   1.0000   1.0000   1.0000
     1.0000   1.0000   1.0000   1.0000   1.0000   1.0000   1.0000   1.0000
     1.0000   1.0000   1.0000   1.0000   1.0000   1.0000   1.0000   1.0000
     1.0000   1.0000   1.0000   1.0000   1.0000   1.0000   1.0000   1.0000
     1.0000   1.0000   1.0000   1.0000   1.0000   1.0000   1.0000   1.0000
     1.0000   1.0000   1.0000   1.0000   1.0000   1.0000   1.0000   1.0000
     1.0000   1.0000   1.0000   1.0000   1.0000   1.0000   1.0000   1.0000
     1.0000   1.0000   1.0000   1.0000   1.0000   1.0000   1.0000   1.0000
     1.0000   1.0000   1.0000   1.0000   1.0000   1.0000   1.0000   1.0000
     1.0000   1.0000   1.0000   1.0000   1.0000   1.0000   1.0000   1.0000
     1.0000   1.0000   1.0000   1.0000   1.0000   1.0000   1.0000   1.0000
     1.0000   1.0000   1.0000   1.0000   1.0000   1.0000   1.0000   1.0000
     1.0000   1.0000   1.0000   1.0000   1.0000   1.0000   1.0000   1.0000
     1.0000   1.0000   1.0000   1.0000   1.0000   1.0000   1.0000   1.0000
     1.0000   1.0000   1.0000   1.0000   1.0000   1.0000   1.0000   1.0000
     1.0000   1.0000   1.0000   1.0000   1.0000   1.0000   1.0000   1.0000
     1.0000   1.0000   1.0000   1.0000   1.0000   1.0000   1.0000   1.0000
     1.0000   1.0000   1.0000   1.0000   1.0000   1.0000   1.0000   1.0000
     1.0000   1.0000   1.0000   1.0000   1.0000   1.0000   1.0000   1.0000
     1.0000   1.0000   1.0000   1.0000   1.0000   1.0000   1.0000   1.0000
     1.0000   1.0000   1.0000   1.0000   1.0000   1.0000   1.0000   1.0000
     1.0000   1.0000   1.0000   1.0000   1.0000   1.0000   1.0000   1.0000
     1.0000   1.0000   1.0000   1.0000   1.0000   1.0000   1.0000   1.0000
     1.0000   1.0000   1.0000   1.0000   1.0000   1.0000   1.0000   1.0000
     1.0000   1.0000   1.0000   1.0000   1.0000   1.0000   1.0000   1.0000
     1.0000   1.0000   1.0000   1.0000   1.0000   1.0000   1.0000   1.0000
     1.0000   1.0000   1.0000   1.0000   1.0000   1.0000   1.0000   1.0000
     1.0000   1.0000   1.0000   1.0000   1.0000   1.0000   1.0000   1.0000
     1.0000   1.0000   1.0000   1.0000   1.0000   1.0000   1.0000   1.0000
     1.0000   1.0000   1.0000   1.0000   1.0000   1.0000   1.0000   1.0000
     1.0000   1.0000   1.0000   1.0000   1.0000   1.0000   1.0000   1.0000
     1.0000   1.0000   1.0000   1.0000   1.0000   1.0000   1.0000   1.0000
     1.0000   1.0000   1.0000   1.0000   1.0000   1.0000   1.0000   1.0000
     1.0000   1.0000   1.0000   1.0000   1.0000   1.0000   1.0000   1.0000
     1.0000   1.0000   1.0000   1.0000   1.0000   1.0000   1.0000   1.0000
     1.0000   1.0000   1.0000   1.0000   1.0000   1.0000   1.0000   1.0000
[...]
     atom   25 type  1   force =     0.00000000    0.00000000    0.00000000
     atom   26 type  1   force =     0.00000000    0.00000000    0.00000000
     atom   27 type  1   force =     0.00000000    0.00000000    0.00000000
     atom   28 type  1   force =     0.00000000    0.00000000    0.00000000
     atom   29 type  1   force =     0.00000000    0.00000000    0.00000000
     atom   30 type  1   force =     0.00000000    0.00000000    0.00000000
     atom   31 type  1   force =     0.00000000    0.00000000    0.00000000
     atom   32 type  1   force =     0.00000000    0.00000000    0.00000000
     atom   33 type  1   force =     0.00000000    0.00000000    0.00000000
     atom   34 type  1   force =     0.00000000    0.00000000    0.00000000
     atom   35 type  1   force =     0.00000000    0.00000000    0.00000000
     atom   36 type  1   force =     0.00000000    0.00000000    0.00000000
     atom   37 type  1   force =     0.00000000    0.00000000    0.00000000
     atom   38 type  1   force =     0.00000000    0.00000000    0.00000000
     atom   39 type  1   force =     0.00000000    0.00000000    0.00000000
     atom   40 type  1   force =     0.00000000    0.00000000    0.00000000
     atom   41 type  1   force =     0.00000000    0.00000000    0.00000000
     atom   42 type  1   force =     0.00000000    0.00000000    0.00000000
     atom   43 type  1   force =     0.00000000    0.00000000    0.00000000
     atom   44 type  1   force =     0.00000000    0.00000000    0.00000000
     atom   45 type  1   force =     0.00000000    0.00000000    0.00000000
     atom   46 type  1   force =     0.00000000    0.00000000    0.00000000
     atom   47 type  1   force =     0.00000000    0.00000000    0.00000000
     atom   48 type  1   force =     0.00000000    0.00000000    0.00000000
     atom   49 type  1   force =     0.00000000    0.00000000    0.00000000
     atom   50 type  1   force =     0.00000000    0.00000000    0.00000000
     atom   51 type  1   force =     0.00000000    0.00000000    0.00000000
     atom   52 type  1   force =     0.00000000    0.00000000    0.00000000
     atom   53 type  1   force =     0.00000000    0.00000000    0.00000000
     atom   54 type  1   force =     0.00000000    0.00000000    0.00000000
     atom   55 type  1   force =     0.00000000    0.00000000    0.00000000
     atom   56 type  1   force =     0.00000000    0.00000000    0.00000000
     atom   57 type  1   force =     0.00000000    0.00000000    0.00000000
     atom   58 type  1   force =     0.00000000    0.00000000    0.00000000
     atom   59 type  1   force =     0.00000000    0.00000000    0.00000000
     atom   60 type  1   force =     0.00000000    0.00000000    0.00000000
     atom   61 type  1   force =     0.00000000    0.00000000    0.00000000
     atom   62 type  1   force =     0.00000000    0.00000000    0.00000000
     atom   63 type  1   force =     0.00000000    0.00000000    0.00000000
     atom   64 type  1   force =     0.00000000    0.00000000    0.00000000
     The SCF correction term to forces
     atom    1 type  1   force =    -0.00000000   -0.00000000   -0.00000000
     atom    2 type  1   force =    -0.00000000    0.00000000   -0.00000000
     atom    3 type  1   force =    -0.00000000   -0.00000000   -0.00000000
     atom    4 type  1   force =    -0.00000000    0.00000000   -0.00000000
     atom    5 type  1   force =    -0.00004978   -0.00003963   -0.00139559
     atom    6 type  1   force =    -0.00003937    0.00003597   -0.00125037
     atom    7 type  1   force =    -0.00003345    0.00013860   -0.00043875
     atom    8 type  1   force =    -0.00002942   -0.00012827   -0.00030591
     atom    9 type  1   force =    -0.00000000    0.00000000   -0.00000000
     atom   10 type  1   force =    -0.00000000   -0.00000000   -0.00000000
     atom   11 type  1   force =    -0.00000000   -0.00000000   -0.00000000
     atom   12 type  1   force =    -0.00000000    0.00000000   -0.00000000
     atom   13 type  1   force =    -0.00003727   -0.00033406   -0.00127574
     atom   14 type  1   force =    -0.00004197    0.00034175   -0.00136908
     atom   15 type  1   force =    -0.00003350   -0.00012188   -0.00042333
     atom   16 type  1   force =    -0.00003283    0.00011155   -0.00031776
     atom   17 type  1   force =     0.00000000   -0.00000000   -0.00000000
     atom   18 type  1   force =     0.00000000    0.00000000   -0.00000000
     atom   19 type  1   force =     0.00000000   -0.00000000   -0.00000000
     atom   20 type  1   force =     0.00000000    0.00000000   -0.00000000
     atom   21 type  1   force =     0.00005271   -0.00003729   -0.00147675
     atom   22 type  1   force =     0.00005519    0.00003886   -0.00135233
     atom   23 type  1   force =     0.00003430    0.00013137   -0.00061561
     atom   24 type  1   force =     0.00003205   -0.00014050   -0.00046167
     atom   25 type  1   force =     0.00000000    0.00000000   -0.00000000
     atom   26 type  1   force =     0.00000000   -0.00000000   -0.00000000
     atom   27 type  1   force =     0.00000000   -0.00000000   -0.00000000
     atom   28 type  1   force =     0.00000000    0.00000000   -0.00000000
     atom   29 type  1   force =     0.00005268   -0.00031146   -0.00136672
     atom   30 type  1   force =     0.00005290    0.00030923   -0.00145173
     atom   31 type  1   force =     0.00003318   -0.00011258   -0.00060456
     atom   32 type  1   force =     0.00003314    0.00012342   -0.00048019
     atom   33 type  1   force =     0.00000000   -0.00000000   -0.00000000
     atom   34 type  1   force =     0.00000000    0.00000000   -0.00000000
     atom   35 type  1   force =     0.00000000   -0.00000000   -0.00000000
     atom   36 type  1   force =     0.00000000    0.00000000   -0.00000000
     atom   37 type  1   force =     0.00028161    0.00019473   -0.00117780
     atom   38 type  1   force =     0.00028507   -0.00018470   -0.00101785
     atom   39 type  1   force =     0.00016586    0.00017782    0.00007016
     atom   40 type  1   force =     0.00016388   -0.00017379    0.00009046
     atom   41 type  1   force =     0.00000000   -0.00000000   -0.00000000
     atom   42 type  1   force =     0.00000000    0.00000000   -0.00000000
     atom   43 type  1   force =     0.00000000   -0.00000000   -0.00000000
     atom   44 type  1   force =     0.00000000    0.00000000   -0.00000000
     atom   45 type  1   force =     0.00028164   -0.00022985   -0.00111624
     atom   46 type  1   force =     0.00028652    0.00022150   -0.00107728
     atom   47 type  1   force =     0.00015380    0.00001292   -0.00002821
     atom   48 type  1   force =     0.00016796   -0.00001638    0.00017649
     atom   49 type  1   force =    -0.00000000   -0.00000000   -0.00000000
     atom   50 type  1   force =    -0.00000000    0.00000000   -0.00000000
     atom   51 type  1   force =    -0.00000000   -0.00000000   -0.00000000
     atom   52 type  1   force =    -0.00000000    0.00000000   -0.00000000
     atom   53 type  1   force =    -0.00029694    0.00019533   -0.00119296
     atom   54 type  1   force =    -0.00029272   -0.00018308   -0.00102884
     atom   55 type  1   force =    -0.00017307    0.00017465    0.00005083
     atom   56 type  1   force =    -0.00017348   -0.00017133    0.00006924
     atom   57 type  1   force =    -0.00000000   -0.00000000   -0.00000000
     atom   58 type  1   force =    -0.00000000    0.00000000   -0.00000000
     atom   59 type  1   force =    -0.00000000   -0.00000000   -0.00000000
     atom   60 type  1   force =    -0.00000000    0.00000000   -0.00000000
     atom   61 type  1   force =    -0.00029499   -0.00023235   -0.00113147
     atom   62 type  1   force =    -0.00029481    0.00022282   -0.00109032
     atom   63 type  1   force =    -0.00016513    0.00001217   -0.00003466
     atom   64 type  1   force =    -0.00017146   -0.00001501    0.00014930

     Total force =     0.001697     Total SCF correction =     0.005344
     SCF correction compared to forces is large: reduce conv_thr to get better values


     Computing stress (Cartesian axis) and pressure

          total   stress  (Ry/bohr**3)                   (kbar)     P=       -6.82
  -0.00016970  -0.00000000  -0.00000000          -24.96       -0.00       -0.00
  -0.00000000  -0.00002819   0.00000001           -0.00       -4.15        0.00
  -0.00000000   0.00000001   0.00005874           -0.00        0.00        8.64

     kinetic stress (kbar)  15921.20      0.00     -0.00
                                0.00  15892.58     -0.00
                               -0.00     -0.00  15954.52

     local   stress (kbar)**********     -0.00     -0.04
                               -0.00**********     -0.13
                               -0.04     -0.131322954.65

     nonloc. stress (kbar)  -1716.86     -0.00      0.00
                               -0.00  -1677.38      0.00
                                0.00      0.00  -1728.50

     hartree stress (kbar) 688835.04      0.00      0.02
                                0.00 696102.14      0.05
                                0.02      0.05-617358.82

     exc-cor stress (kbar)  -8018.12      0.00      0.00
                                0.00  -8013.45      0.00
                                0.00      0.00  -8021.63

     corecor stress (kbar)      0.00      0.00      0.00
                                0.00      0.00      0.00
                                0.00      0.00      0.00

     ewald   stress (kbar) 610469.72      0.00      0.02
                                0.00 620124.16      0.08
                                0.02      0.08-711791.59

     hubbard stress (kbar)      0.00      0.00      0.00
                                0.00      0.00      0.00
                                0.00      0.00      0.00

     DFT-D   stress (kbar)      0.00      0.00      0.00
                                0.00      0.00      0.00
                                0.00      0.00      0.00

     XDM     stress (kbar)      0.00      0.00      0.00
                                0.00      0.00      0.00
                                0.00      0.00      0.00

     dft-nl  stress (kbar)      0.00      0.00      0.00
                                0.00      0.00      0.00
                                0.00      0.00      0.00

     TS-vdW  stress (kbar)      0.00      0.00      0.00
                                0.00      0.00      0.00
                                0.00      0.00      0.00

     MDB     stress (kbar)      0.00      0.00      0.00
                                0.00      0.00      0.00
                                0.00      0.00      0.00

     3D-RISM stress (kbar)      0.00      0.00      0.00
                                0.00      0.00      0.00
                                0.00      0.00      0.00


     BFGS Geometry Optimization
     Energy error            =      0.0E+00 Ry
     Gradient error          =      4.9E-04 Ry/Bohr

     bfgs converged in   1 scf cycles and   0 bfgs steps
     (criteria: energy <  1.0E-05 Ry, force <  5.0E-04 Ry/Bohr)

     End of BFGS Geometry Optimization

     Final energy             =  -29538.7594034489 Ry
Begin final coordinates

ATOMIC_POSITIONS (angstrom)
Zn               1.2182902100        1.3071799380        0.7547006810    0   0   0
Zn               1.2182902100        6.5358996490        0.7547006810    0   0   0
Zn               1.2182902100        0.0000000010        3.0188027470    0   0   0
Zn               1.2182902100        5.2287197120        3.0188027470    0   0   0
Zn               1.2185726075       -1.3073880994        5.6729282852
Zn               1.2186851431        3.9215451479        5.6720151579
Zn               1.2186874652       -2.6146512868        8.3124525080
Zn               1.2187441482        2.6147502354        8.3119490829
Zn               1.2182902100        3.9215397940        0.7547006810    0   0   0
Zn               1.2182902100        9.1502595050        0.7547006810    0   0   0
Zn               1.2182902100        2.6143598570        3.0188027470    0   0   0
Zn               1.2182902100        7.8430795680        3.0188027470    0   0   0
Zn               1.2186883199        1.3072854268        5.6723424169
Zn               1.2185625130        6.5357747424        5.6727099542
Zn               1.2187214220       -0.0003586288        8.3124656907
Zn               1.2187057638        5.2291606609        8.3118595007
Zn               6.0914510490        1.3071799380        0.7547006810    0   0   0
Zn               6.0914510490        6.5358996490        0.7547006810    0   0   0
Zn               6.0914510490        0.0000000010        3.0188027470    0   0   0
Zn               6.0914510490        5.2287197120        3.0188027470    0   0   0
Zn               6.0911338514       -1.3072242637        5.6748546444
Zn               6.0910857638        3.9213990650        5.6741431289
Zn               6.0911071145       -2.6147187100        8.3122617478
Zn               6.0909630492        2.6148257972        8.3118541494
Zn               6.0914510490        3.9215397940        0.7547006810    0   0   0
Zn               6.0914510490        9.1502595050        0.7547006810    0   0   0
Zn               6.0914510490        2.6143598570        3.0188027470    0   0   0
Zn               6.0914510490        7.8430795680        3.0188027470    0   0   0
Zn               6.0911030401        1.3076064174        5.6744400348
Zn               6.0911314819        6.5354481156        5.6746346244
Zn               6.0910519940       -0.0001550310        8.3123616547
Zn               6.0910350808        5.2289552434        8.3117181402
Zn               3.6548706290       -0.0000000190        1.5094013850    0   0   0
Zn               3.6548706290        5.2287196920        1.5094013850    0   0   0
Zn               3.6548706290       -1.3071799560        3.7735034500    0   0   0
Zn               3.6548706290        3.9215397550        3.7735034500    0   0   0
Zn               3.6546710580       -2.6147701593        6.0778389286
Zn               3.6547432516        2.6146750712        6.0771464013
Zn               3.6559778408       -3.9216886876        8.4670559092
Zn               3.6560296889        1.3071976063        8.4673307023
Zn               3.6548706290        2.6143598370        1.5094013850    0   0   0
Zn               3.6548706290        7.8430795480        1.5094013850    0   0   0
Zn               3.6548706290        1.3071799000        3.7735034500    0   0   0
Zn               3.6548706290        6.5358996110        3.7735034500    0   0   0
Zn               3.6547437702        0.0001669099        6.0773502731
Zn               3.6547864959        5.2284186199        6.0775758154
Zn               3.6559474203       -1.3076933695        8.4673694336
Zn               3.6560502897        3.9218980393        8.4670053876
Zn               8.5280314680       -0.0000000190        1.5094013850    0   0   0
Zn               8.5280314680        5.2287196920        1.5094013850    0   0   0
Zn               8.5280314680       -1.3071799560        3.7735034500    0   0   0
Zn               8.5280314680        3.9215397550        3.7735034500    0   0   0
Zn               8.5281647867       -2.6147587956        6.0779299812
Zn               8.5281732184        2.6146472247        6.0772010317
Zn               8.5269885230       -3.9215735360        8.4681201244
Zn               8.5268924990        1.3070557120        8.4683976833
Zn               8.5280314680        2.6143598370        1.5094013850    0   0   0
Zn               8.5280314680        7.8430795480        1.5094013850    0   0   0
Zn               8.5280314680        1.3071799000        3.7735034500    0   0   0
Zn               8.5280314680        6.5358996110        3.7735034500    0   0   0
Zn               8.5282171944       -0.0000137934        6.0774321744
Zn               8.5281738077        5.2286143460        6.0776528160
Zn               8.5270310305       -1.3077639996        8.4684178960
Zn               8.5268620331        3.9220020700        8.4680752259
End final coordinates



     Writing all to output data dir ./tmp/Zn100_4layer_relax.save/ :
     XML data file, charge density, pseudopotentials, collected wavefunctions

     init_run     :    163.36s CPU    166.58s WALL (       1 calls)
     electrons    :  10285.25s CPU  10394.35s WALL (       1 calls)
     forces       :    245.69s CPU    247.11s WALL (       1 calls)
     stress       :    250.72s CPU    252.38s WALL (       1 calls)

     Called by init_run:
     wfcinit      :    160.42s CPU    163.49s WALL (       1 calls)
     wfcinit:atom :      0.07s CPU      0.21s WALL (       5 calls)
     wfcinit:wfcr :    159.61s CPU    162.34s WALL (       5 calls)
     potinit      :      0.09s CPU      0.10s WALL (       1 calls)
     hinit0       :      0.03s CPU      0.04s WALL (       1 calls)

     Called by electrons:
     c_bands      :   9834.63s CPU   9931.01s WALL (      14 calls)
     sum_band     :    404.63s CPU    414.51s WALL (      14 calls)
     v_of_rho     :      1.05s CPU      1.11s WALL (      14 calls)
     v_h          :      0.07s CPU      0.08s WALL (      14 calls)
     v_xc         :      0.98s CPU      1.03s WALL (      14 calls)
     newd         :     47.21s CPU     50.01s WALL (      14 calls)
     mix_rho      :      0.14s CPU      0.16s WALL (      14 calls)

     Called by c_bands:
     init_us_2    :      3.41s CPU      3.61s WALL (     155 calls)
     cegterg      :   9826.72s CPU   9921.90s WALL (      70 calls)

     Called by sum_band:
     sum_band:wei :      0.04s CPU      0.04s WALL (      14 calls)
     sum_band:loo :    358.13s CPU    364.27s WALL (      14 calls)
     sum_band:buf :      0.73s CPU      1.09s WALL (      70 calls)
     sum_band:ini :      1.38s CPU      1.40s WALL (      70 calls)
     sum_band:cal :    315.39s CPU    316.92s WALL (      70 calls)
     sum_band:bec :      2.66s CPU      2.67s WALL (      70 calls)
     addusdens    :     46.10s CPU     49.78s WALL (      14 calls)
                                        0.00s GPU  (      14 calls)
     addusd:skk   :      0.12s CPU      0.90s WALL (      14 calls)
                                        0.00s GPU  (      14 calls)

     Called by *egterg:
     cdiaghg      :    400.90s CPU    417.22s WALL (     465 calls)
     cegterg:over :   2134.36s CPU   2143.12s WALL (     400 calls)
     cegterg:upda :    852.77s CPU    858.57s WALL (     400 calls)
     cegterg:last :   3840.22s CPU   3861.19s WALL (     140 calls)
     cdiaghg:chol :     27.25s CPU     27.32s WALL (     465 calls)
     cdiaghg:inve :      4.33s CPU      4.34s WALL (     465 calls)
     cdiaghg:para :    122.99s CPU    125.20s WALL (     930 calls)
     h_psi        :   1539.47s CPU   1571.30s WALL (     475 calls)
     s_psi        :    650.21s CPU    652.07s WALL (     475 calls)
     g_psi        :      0.53s CPU      0.56s WALL (     400 calls)

     Called by h_psi:
     h_psi:calbec :    719.30s CPU    723.24s WALL (     475 calls)
     vloc_psi     :    160.48s CPU    181.13s WALL (     475 calls)
     add_vuspsi   :    658.53s CPU    660.95s WALL (     475 calls)

     General routines
     calbec       :   1293.88s CPU   1300.26s WALL (     570 calls)
     fft          :      0.81s CPU      0.91s WALL (     189 calls)
     ffts         :      0.03s CPU      0.04s WALL (      28 calls)
     fftw         :    176.18s CPU    199.00s WALL (  300646 calls)
     interpolate  :      0.06s CPU      0.08s WALL (      14 calls)

     Parallel routines

     PWSCF        :      3h 2m CPU      3h 4m WALL


   This run was terminated on:  23:44:26  27Mar2025            

=------------------------------------------------------------------------------=
   JOB DONE.
=------------------------------------------------------------------------------=
