--------------------------------------------------------------------------
WARNING: There was an error initializing an OpenFabrics device.

  Local host:   ga00
  Local device: mlx5_0
--------------------------------------------------------------------------

     Program PWSCF v.7.3.1 starts on  4Apr2025 at 20:13:55 

     This program is part of the open-source Quantum ESPRESSO suite
     for quantum simulation of materials; please cite
         "P. Giannozzi et al., J. Phys.:Condens. Matter 21 395502 (2009);
         "P. Giannozzi et al., J. Phys.:Condens. Matter 29 465901 (2017);
         "P. Giannozzi et al., J. Chem. Phys. 152 154105 (2020);
          URL http://www.quantum-espresso.org", 
     in publications or presentations arising from this work. More details at
     http://www.quantum-espresso.org/quote

     Parallel version (MPI), running on     7 processors

     MPI processes distributed on     1 nodes
     66599 MiB available memory on the printing compute node when the environment starts

     Waiting for input...
     Reading input from standard input
Warning: card &CELL ignored
Warning: card   CELL_DOFREE = 'ALL' ignored
Warning: card / ignored

     Current dimensions of program PWSCF are:
     Max number of different atomic species (ntypx) = 10
     Max number of k-points (npk) =  40000
     Max angular momentum in pseudopotentials (lmaxx) =  4

     File ./tmp/aniline_protonated.update deleted, as requested

     File ./tmp/aniline_protonated.bfgs deleted, as requested
     file C.pbe-n-kjpaw_psl.1.0.0.UPF: wavefunction(s)  2S 2P renormalized

     R & G space division:  proc/nbgrp/npool/nimage =       7
     Subspace diagonalization in iterative solution of the eigenvalue problem:
     a serial algorithm will be used


     Parallelization info
     --------------------
     sticks:   dense  smooth     PW     G-vecs:    dense   smooth      PW
     Min       10227    5848   1486              2059409   889588  114040
     Max       10228    5852   1487              2059414   889589  114045
     Sum       71593   40945  10405             14415877  6227117  798295

     Using Slab Decomposition



     bravais-lattice index     =            1
     lattice parameter (alat)  =      56.6918  a.u.
     unit-cell volume          =  182205.0314 (a.u.)^3
     number of atoms/cell      =           15
     number of atomic types    =            3
     number of electrons       =        36.00
     number of Kohn-Sham states=           22
     kinetic-energy cutoff     =      40.0000  Ry
     charge density cutoff     =     280.0000  Ry
     scf convergence threshold =      1.0E-06
     mixing beta               =       0.4000
     number of iterations used =            8  plain     mixing
     Exchange-correlation= PBE
                           (   1   4   3   4   0   0   0)

     celldm(1)=  56.691784  celldm(2)=   0.000000  celldm(3)=   0.000000
     celldm(4)=   0.000000  celldm(5)=   0.000000  celldm(6)=   0.000000

     crystal axes: (cart. coord. in units of alat)
               a(1) = (   1.000000   0.000000   0.000000 )  
               a(2) = (   0.000000   1.000000   0.000000 )  
               a(3) = (   0.000000   0.000000   1.000000 )  

     reciprocal axes: (cart. coord. in units 2 pi/alat)
               b(1) = (  1.000000  0.000000  0.000000 )  
               b(2) = (  0.000000  1.000000  0.000000 )  
               b(3) = (  0.000000  0.000000  1.000000 )  


     PseudoPot. # 1 for N  read from file:
     /home/yongsang/Research/PSID_server_room/qe/[00]QE/qepseudo/SSSP_1.3.0_PBE_efficiency/N.pbe-n-radius_5.UPF
     MD5 check sum: 16739722b17309cd8fe442a2ace49922
     Pseudo is Ultrasoft + core correction, Zval =  5.0
     Generated using "atomic" code by A. Dal Corso  v.5.1
     Using radial grid of 1085 points,  4 beta functions with: 
                l(1) =   0
                l(2) =   0
                l(3) =   1
                l(4) =   1
     Q(r) pseudized with 0 coefficients 


     PseudoPot. # 2 for C  read from file:
     /home/yongsang/Research/PSID_server_room/qe/[00]QE/qepseudo/SSSP_1.3.0_PBE_efficiency/C.pbe-n-kjpaw_psl.1.0.0.UPF
     MD5 check sum: 5d2aebdfa2cae82b50a7e79e9516da0f
     Pseudo is Projector augmented-wave + core cor, Zval =  4.0
     Generated using "atomic" code by A. Dal Corso  v.5.1
     Shape of augmentation charge: PSQ
     Using radial grid of 1073 points,  4 beta functions with: 
                l(1) =   0
                l(2) =   0
                l(3) =   1
                l(4) =   1
     Q(r) pseudized with 0 coefficients 


     PseudoPot. # 3 for H  read from file:
     /home/yongsang/Research/PSID_server_room/qe/[00]QE/qepseudo/SSSP_1.3.0_PBE_efficiency/H.pbe-rrkjus_psl.1.0.0.UPF
     MD5 check sum: f52b6d4d1c606e5624b1dc7b2218f220
     Pseudo is Ultrasoft, Zval =  1.0
     Generated using "atomic" code by A. Dal Corso  v.5.1
     Using radial grid of  929 points,  2 beta functions with: 
                l(1) =   0
                l(2) =   0
     Q(r) pseudized with 0 coefficients 


     atomic species   valence    mass     pseudopotential
     N                 5.00    14.00674     N ( 1.00)
     C                 4.00    12.01070     C ( 1.00)
     H                 1.00     1.00794     H ( 1.00)

     No symmetry found


                                    s                        frac. trans.

      isym =  1     identity                                     

 cryst.   s( 1) = (     1          0          0      )
                  (     0          1          0      )
                  (     0          0          1      )

 cart.    s( 1) = (  1.0000000  0.0000000  0.0000000 )
                  (  0.0000000  1.0000000  0.0000000 )
                  (  0.0000000  0.0000000  1.0000000 )


     point group C_1 (1)    
     there are  1 classes
     the character table:

       E    
A      1.00

     the symmetry operations in each class and the name of the first element:

     E        1
          identity                                               

   Cartesian axes

     site n.     atom                  positions (alat units)
         1        N      tau(   1) = (  -0.0752697   0.0083432   0.0197990  )
         2        C      tau(   2) = (  -0.0269469   0.0075181   0.0075534  )
         3        C      tau(   3) = (  -0.0051327   0.0479756   0.0017529  )
         4        C      tau(   4) = (  -0.0060105  -0.0336126   0.0035744  )
         5        C      tau(   5) = (   0.0402651   0.0469005  -0.0085528  )
         6        C      tau(   6) = (   0.0394048  -0.0339786  -0.0067085  )
         7        C      tau(   7) = (   0.0623634   0.0061044  -0.0126613  )
         8        H      tau(   8) = (  -0.0226103   0.0797401   0.0050256  )
         9        H      tau(   9) = (  -0.0241563  -0.0648265   0.0082419  )
        10        H      tau(  10) = (   0.0582227   0.0780982  -0.0133589  )
        11        H      tau(  11) = (   0.0566902  -0.0657373  -0.0101070  )
        12        H      tau(  12) = (   0.0977957   0.0055446  -0.0206605  )
        13        H      tau(  13) = (  -0.0912825  -0.0199307   0.0086998  )
        14        H      tau(  14) = (  -0.0910884   0.0354187   0.0058057  )
        15        H      tau(  15) = (  -0.0797544   0.0101362   0.0538565  )

     --------------------------------------------
     DFT-D3 Dispersion Correction (3-body terms):
     --------------------------------------------
       Reference C6 values for interpolation: 

         atom   Coordination number   C6
         H          0.912             6.05
         H          0.000            15.18
         C          0.000            98.23
         C          0.987            86.49
         C          1.998            58.72
         C          2.999            51.56
         C          3.984            36.41
         N          0.000            50.54
         N          0.994            44.25
         N          2.014            39.35
         N          2.990            31.16

       Values used:

         atom   Coordination number  R0_AB[au]  C6      C8
         N          4.042            2.478     31.16    687.49
         C          3.168            2.750     50.38   1456.95
         C          3.147            2.750     50.56   1462.30
         C          3.147            2.750     50.56   1462.32
         C          3.136            2.750     50.64   1464.60
         C          3.136            2.750     50.64   1464.60
         C          3.129            2.750     50.70   1466.21
         H          1.002            2.062      6.18     74.70
         H          1.002            2.062      6.18     74.70
         H          1.002            2.062      6.18     74.70
         H          1.002            2.062      6.18     74.70
         H          1.002            2.062      6.18     74.70
         H          1.003            2.062      6.18     74.69
         H          1.003            2.062      6.18     74.69
         H          1.002            2.062      6.18     74.70

         Molecular C6 ( Ry / a.u.^6 ) =      4633.52


   Crystallographic axes

     site n.     atom                  positions (cryst. coord.)
         1        N      tau(   1) = ( -0.0752697  0.0083432  0.0197990  )
         2        C      tau(   2) = ( -0.0269469  0.0075181  0.0075534  )
         3        C      tau(   3) = ( -0.0051327  0.0479756  0.0017529  )
         4        C      tau(   4) = ( -0.0060105 -0.0336126  0.0035744  )
         5        C      tau(   5) = (  0.0402651  0.0469005 -0.0085528  )
         6        C      tau(   6) = (  0.0394048 -0.0339786 -0.0067085  )
         7        C      tau(   7) = (  0.0623634  0.0061044 -0.0126613  )
         8        H      tau(   8) = ( -0.0226103  0.0797401  0.0050256  )
         9        H      tau(   9) = ( -0.0241563 -0.0648265  0.0082419  )
        10        H      tau(  10) = (  0.0582227  0.0780982 -0.0133589  )
        11        H      tau(  11) = (  0.0566902 -0.0657373 -0.0101070  )
        12        H      tau(  12) = (  0.0977957  0.0055446 -0.0206605  )
        13        H      tau(  13) = ( -0.0912825 -0.0199307  0.0086998  )
        14        H      tau(  14) = ( -0.0910884  0.0354187  0.0058057  )
        15        H      tau(  15) = ( -0.0797544  0.0101362  0.0538565  )

     number of k points=     5  Marzari-Vanderbilt smearing, width (Ry)=  0.0200
                       cart. coord. in units 2pi/alat
        k(    1) = (   0.0000000   0.0000000   0.0000000), wk =   0.2222222
        k(    2) = (   0.0000000   0.3333333   0.0000000), wk =   0.4444444
        k(    3) = (   0.3333333   0.0000000   0.0000000), wk =   0.4444444
        k(    4) = (   0.3333333   0.3333333   0.0000000), wk =   0.4444444
        k(    5) = (   0.3333333  -0.3333333   0.0000000), wk =   0.4444444

                       cryst. coord.
        k(    1) = (   0.0000000   0.0000000   0.0000000), wk =   0.2222222
        k(    2) = (   0.0000000   0.3333333   0.0000000), wk =   0.4444444
        k(    3) = (   0.3333333   0.0000000   0.0000000), wk =   0.4444444
        k(    4) = (   0.3333333   0.3333333   0.0000000), wk =   0.4444444
        k(    5) = (   0.3333333  -0.3333333   0.0000000), wk =   0.4444444

     Dense  grid: 14415877 G-vectors     FFT dimensions: ( 320, 320, 320)

     Smooth grid:  6227117 G-vectors     FFT dimensions: ( 240, 240, 240)

     Dynamical RAM for                 wfc:      37.33 MB

     Dynamical RAM for     wfc (w. buffer):     223.97 MB

     Dynamical RAM for           str. fact:      94.27 MB

     Dynamical RAM for           local pot:       0.00 MB

     Dynamical RAM for          nlocal pot:     122.17 MB

     Dynamical RAM for                qrad:       1.15 MB

     Dynamical RAM for          rho,v,vnew:     202.08 MB

     Dynamical RAM for               rhoin:      67.36 MB

     Dynamical RAM for            rho*nmix:     502.79 MB

     Dynamical RAM for           G-vectors:     124.63 MB

     Dynamical RAM for          h,s,v(r/c):       0.09 MB

     Dynamical RAM for          <psi|beta>:       0.02 MB

     Dynamical RAM for                 psi:      74.66 MB

     Dynamical RAM for                hpsi:      74.66 MB

     Dynamical RAM for                spsi:      74.66 MB

     Dynamical RAM for      wfcinit/wfcrot:     122.20 MB

     Dynamical RAM for           addusdens:    1602.63 MB

     Dynamical RAM for          addusforce:    2058.29 MB

     Dynamical RAM for         addusstress:    1571.21 MB

     Estimated static dynamical RAM per process >       1.11 GB

     Estimated max dynamical RAM per process >       3.62 GB

     Estimated total dynamical RAM >      25.31 GB
[ga00:3460542] 6 more processes have sent help message help-mpi-btl-openib.txt / error in device init
[ga00:3460542] Set MCA parameter "orte_base_help_aggregate" to 0 to see all help / error messages

     Initial potential from superposition of free atoms

     starting charge      36.9997, renormalised to      36.0000

     negative rho (up, down):  1.144E-02 0.000E+00
     Starting wfcs are   36 randomized atomic wfcs
     Checking if some PAW data can be deallocated... 
       PAW data deallocated on    4 nodes for type:  2

     total cpu time spent up to now is       31.7 secs

     Self-consistent Calculation

     iteration #  1     ecut=    40.00 Ry     beta= 0.40
     Davidson diagonalization with overlap

---- Real-time Memory Report at c_bands before calling an iterative solver
          2162 MiB given to the printing process from OS
             0 MiB allocation reported by mallinfo(arena+hblkhd)
         56823 MiB available memory on the node where the printing process lives
------------------
     ethr =  1.00E-02,  avg # of iterations =  2.0

     negative rho (up, down):  1.307E-02 0.000E+00

     total cpu time spent up to now is      104.5 secs

     total energy              =    -139.58740237 Ry
     estimated scf accuracy    <       2.81242930 Ry

     iteration #  2     ecut=    40.00 Ry     beta= 0.40
     Davidson diagonalization with overlap

---- Real-time Memory Report at c_bands before calling an iterative solver
          2751 MiB given to the printing process from OS
             0 MiB allocation reported by mallinfo(arena+hblkhd)
         35842 MiB available memory on the node where the printing process lives
------------------
     ethr =  7.81E-03,  avg # of iterations =  2.0

     negative rho (up, down):  1.413E-02 0.000E+00

     total cpu time spent up to now is      175.1 secs

     total energy              =    -139.79369542 Ry
     estimated scf accuracy    <       0.28727602 Ry

     iteration #  3     ecut=    40.00 Ry     beta= 0.40
     Davidson diagonalization with overlap

---- Real-time Memory Report at c_bands before calling an iterative solver
          2778 MiB given to the printing process from OS
             0 MiB allocation reported by mallinfo(arena+hblkhd)
         28747 MiB available memory on the node where the printing process lives
------------------
     ethr =  7.98E-04,  avg # of iterations =  6.0

     negative rho (up, down):  1.505E-02 0.000E+00

     total cpu time spent up to now is      263.6 secs

     total energy              =    -139.81713927 Ry
     estimated scf accuracy    <       0.05002315 Ry

     iteration #  4     ecut=    40.00 Ry     beta= 0.40
     Davidson diagonalization with overlap

---- Real-time Memory Report at c_bands before calling an iterative solver
          2805 MiB given to the printing process from OS
             0 MiB allocation reported by mallinfo(arena+hblkhd)
         41415 MiB available memory on the node where the printing process lives
------------------
     ethr =  1.39E-04,  avg # of iterations =  3.0

     negative rho (up, down):  1.523E-02 0.000E+00

     total cpu time spent up to now is      337.5 secs

     total energy              =    -139.82068404 Ry
     estimated scf accuracy    <       0.00669052 Ry

     iteration #  5     ecut=    40.00 Ry     beta= 0.40
     Davidson diagonalization with overlap

---- Real-time Memory Report at c_bands before calling an iterative solver
          2833 MiB given to the printing process from OS
             0 MiB allocation reported by mallinfo(arena+hblkhd)
         29366 MiB available memory on the node where the printing process lives
------------------
     ethr =  1.86E-05,  avg # of iterations =  4.0

     negative rho (up, down):  1.529E-02 0.000E+00

     total cpu time spent up to now is      408.3 secs

     total energy              =    -139.82062720 Ry
     estimated scf accuracy    <       0.00110130 Ry

     iteration #  6     ecut=    40.00 Ry     beta= 0.40
     Davidson diagonalization with overlap

---- Real-time Memory Report at c_bands before calling an iterative solver
          2860 MiB given to the printing process from OS
             0 MiB allocation reported by mallinfo(arena+hblkhd)
         45708 MiB available memory on the node where the printing process lives
------------------
     c_bands:  1 eigenvalues not converged
     c_bands:  1 eigenvalues not converged
     c_bands:  1 eigenvalues not converged
     c_bands:  1 eigenvalues not converged
     c_bands:  1 eigenvalues not converged
     ethr =  3.06E-06,  avg # of iterations = 20.0

     negative rho (up, down):  1.524E-02 0.000E+00

     total cpu time spent up to now is      515.8 secs

     total energy              =    -139.82093056 Ry
     estimated scf accuracy    <       0.00060373 Ry

     iteration #  7     ecut=    40.00 Ry     beta= 0.40
     Davidson diagonalization with overlap

---- Real-time Memory Report at c_bands before calling an iterative solver
          2887 MiB given to the printing process from OS
             0 MiB allocation reported by mallinfo(arena+hblkhd)
         38444 MiB available memory on the node where the printing process lives
------------------
     ethr =  1.68E-06,  avg # of iterations =  4.0

     negative rho (up, down):  1.527E-02 0.000E+00

     total cpu time spent up to now is      594.2 secs

     total energy              =    -139.82099653 Ry
     estimated scf accuracy    <       0.00002559 Ry

     iteration #  8     ecut=    40.00 Ry     beta= 0.40
     Davidson diagonalization with overlap

---- Real-time Memory Report at c_bands before calling an iterative solver
          2914 MiB given to the printing process from OS
             0 MiB allocation reported by mallinfo(arena+hblkhd)
         27840 MiB available memory on the node where the printing process lives
------------------
     ethr =  7.11E-08,  avg # of iterations =  4.0

     negative rho (up, down):  1.527E-02 0.000E+00

     total cpu time spent up to now is      681.8 secs

     total energy              =    -139.82100812 Ry
     estimated scf accuracy    <       0.00001065 Ry

     iteration #  9     ecut=    40.00 Ry     beta= 0.40
     Davidson diagonalization with overlap

---- Real-time Memory Report at c_bands before calling an iterative solver
          2941 MiB given to the printing process from OS
             0 MiB allocation reported by mallinfo(arena+hblkhd)
         44585 MiB available memory on the node where the printing process lives
------------------
     ethr =  2.96E-08,  avg # of iterations =  2.0

     negative rho (up, down):  1.530E-02 0.000E+00

     total cpu time spent up to now is      755.9 secs

     End of self-consistent calculation

          k = 0.0000 0.0000 0.0000 (778439 PWs)   bands (ev):

   -29.1891 -24.5090 -21.7942 -21.7586 -19.0150 -18.6150 -18.3989 -17.4282
   -16.6638 -15.0390 -14.1691 -13.6377 -13.4405 -12.3223 -11.6210 -11.4339
    -9.5655  -9.4954  -4.5408  -4.4372  -4.4031  -2.8446

     occupation numbers 
     1.0000   1.0000   1.0000   1.0000   1.0000   1.0000   1.0000   1.0000
     1.0000   1.0000   1.0000   1.0000   1.0000   1.0000   1.0000   1.0000
     1.0000   1.0000   0.0000   0.0000   0.0000   0.0000

          k = 0.0000 0.3333 0.0000 (778370 PWs)   bands (ev):

   -29.1891 -24.5090 -21.7942 -21.7586 -19.0150 -18.6150 -18.3989 -17.4282
   -16.6638 -15.0390 -14.1691 -13.6377 -13.4405 -12.3223 -11.6210 -11.4339
    -9.5655  -9.4954  -4.5408  -4.4372  -4.4031  -2.8446

     occupation numbers 
     1.0000   1.0000   1.0000   1.0000   1.0000   1.0000   1.0000   1.0000
     1.0000   1.0000   1.0000   1.0000   1.0000   1.0000   1.0000   1.0000
     1.0000   1.0000   0.0000   0.0000   0.0000   0.0000

          k = 0.3333 0.0000 0.0000 (778370 PWs)   bands (ev):

   -29.1891 -24.5090 -21.7942 -21.7585 -19.0150 -18.6150 -18.3989 -17.4282
   -16.6638 -15.0390 -14.1691 -13.6377 -13.4405 -12.3223 -11.6210 -11.4339
    -9.5655  -9.4954  -4.5408  -4.4372  -4.4031  -2.8446

     occupation numbers 
     1.0000   1.0000   1.0000   1.0000   1.0000   1.0000   1.0000   1.0000
     1.0000   1.0000   1.0000   1.0000   1.0000   1.0000   1.0000   1.0000
     1.0000   1.0000   0.0000   0.0000   0.0000   0.0000

          k = 0.3333 0.3333 0.0000 (778369 PWs)   bands (ev):

   -29.1891 -24.5090 -21.7942 -21.7585 -19.0150 -18.6150 -18.3989 -17.4282
   -16.6638 -15.0390 -14.1691 -13.6377 -13.4405 -12.3223 -11.6210 -11.4339
    -9.5655  -9.4954  -4.5408  -4.4372  -4.4031  -2.8446

     occupation numbers 
     1.0000   1.0000   1.0000   1.0000   1.0000   1.0000   1.0000   1.0000
     1.0000   1.0000   1.0000   1.0000   1.0000   1.0000   1.0000   1.0000
     1.0000   1.0000   0.0000   0.0000   0.0000   0.0000

          k = 0.3333-0.3333 0.0000 (778369 PWs)   bands (ev):

   -29.1891 -24.5090 -21.7942 -21.7585 -19.0150 -18.6150 -18.3989 -17.4282
   -16.6638 -15.0390 -14.1691 -13.6377 -13.4405 -12.3223 -11.6210 -11.4339
    -9.5655  -9.4954  -4.5408  -4.4372  -4.4031  -2.8446

     occupation numbers 
     1.0000   1.0000   1.0000   1.0000   1.0000   1.0000   1.0000   1.0000
     1.0000   1.0000   1.0000   1.0000   1.0000   1.0000   1.0000   1.0000
     1.0000   1.0000   0.0000   0.0000   0.0000   0.0000

     the Fermi energy is    -8.0701 ev

!    total energy              =    -139.82100884 Ry
     estimated scf accuracy    <       0.00000055 Ry
     smearing contrib. (-TS)   =       0.00000000 Ry
     internal energy E=F+TS    =    -139.82100884 Ry

     The total energy is F=E-TS. E is the sum of the following terms:
     one-electron contribution =    -576.10157766 Ry
     hartree contribution      =     287.18176348 Ry
     xc contribution           =     -38.31473907 Ry
     ewald contribution        =     224.42862028 Ry
     DFT-D3 Dispersion         =      -0.00962037 Ry
     one-center paw contrib.   =     -37.00545549 Ry
      -> PAW hartree energy AE =      18.64312754 Ry
      -> PAW hartree energy PS =     -18.62592035 Ry
      -> PAW xc energy AE      =     -21.26867398 Ry
      -> PAW xc energy PS      =       8.91767210 Ry
      -> total E_H with PAW    =     287.19897067 Ry
      -> total E_XC with PAW   =     -50.66574095 Ry

     convergence has been achieved in   9 iterations

     negative rho (up, down):  1.530E-02 0.000E+00

     Forces acting on atoms (cartesian axes, Ry/au):

     atom    1 type  1   force =     0.00034966   -0.00006680   -0.00020236
     atom    2 type  2   force =    -0.00060729    0.00003479    0.00040073
     atom    3 type  2   force =     0.00021387   -0.00049660    0.00003347
     atom    4 type  2   force =     0.00036325    0.00004376    0.00000149
     atom    5 type  2   force =    -0.00031193   -0.00030790    0.00001394
     atom    6 type  2   force =     0.00016615    0.00028728   -0.00002468
     atom    7 type  2   force =    -0.00024814    0.00008422    0.00034676
     atom    8 type  3   force =     0.00017105   -0.00006099    0.00012718
     atom    9 type  3   force =     0.00011356    0.00024213    0.00015033
     atom   10 type  3   force =     0.00003297    0.00010037   -0.00015635
     atom   11 type  3   force =    -0.00001317   -0.00000184   -0.00007030
     atom   12 type  3   force =    -0.00005337    0.00004180   -0.00015871
     atom   13 type  3   force =    -0.00003282    0.00017076   -0.00016562
     atom   14 type  3   force =    -0.00013944   -0.00009328   -0.00013375
     atom   15 type  3   force =    -0.00000434    0.00002229   -0.00016212
     The non-local contrib.  to forces
     atom    1 type  1   force =    -0.18622303    0.00384223    0.05131212
     atom    2 type  2   force =    -0.64570006    0.01097464    0.16594734
     atom    3 type  2   force =    -0.10279180   -0.07884805    0.02732979
     atom    4 type  2   force =    -0.10078995    0.08158326    0.02380085
     atom    5 type  2   force =    -0.09364185   -0.02463679    0.02110323
     atom    6 type  2   force =    -0.09318434    0.02742717    0.01981390
     atom    7 type  2   force =    -0.06226078    0.00108368    0.01192292
     atom    8 type  3   force =     0.03532146   -0.06981376   -0.00657105
     atom    9 type  3   force =     0.03674667    0.06867925   -0.00962810
     atom   10 type  3   force =    -0.04017456   -0.06887591    0.01072453
     atom   11 type  3   force =    -0.03869042    0.07011805    0.00762186
     atom   12 type  3   force =    -0.07845076    0.00124045    0.01769642
     atom   13 type  3   force =     0.04602312    0.08229815    0.03275672
     atom   14 type  3   force =     0.04541508   -0.07875053    0.04120229
     atom   15 type  3   force =     0.01180102   -0.00515685   -0.09828599
     The ionic contribution  to forces
     atom    1 type  1   force =    -7.94330422    0.13382931    1.98448296
     atom    2 type  2   force =    -2.39529547    0.03148005    0.39559198
     atom    3 type  2   force =    -1.59851723    7.11689273    0.18829894
     atom    4 type  2   force =    -1.75266722   -7.06521791    0.50200141
     atom    5 type  2   force =     4.41501276    6.27072863   -1.14822545
     atom    6 type  2   force =     4.27996517   -6.41031281   -0.85352719
     atom    7 type  2   force =     7.55249522   -0.11881060   -1.70157985
     atom    8 type  3   force =    -1.29089885    3.26140413    0.22048212
     atom    9 type  3   force =    -1.35936344   -3.21978182    0.36393525
     atom   10 type  3   force =     1.80802106    2.94620014   -0.47985927
     atom   11 type  3   force =     1.74433940   -3.00265572   -0.34589451
     atom   12 type  3   force =     3.38901571   -0.05357183   -0.76543078
     atom   13 type  3   force =    -2.71990139   -2.79607163   -0.91356591
     atom   14 type  3   force =    -2.69609774    2.70897543   -1.21075209
     atom   15 type  3   force =    -1.43280376    0.19691191    3.76404239
     The local contribution  to forces
     atom    1 type  1   force =     8.12980644   -0.13784185   -2.03607029
     atom    2 type  2   force =     3.02586830   -0.04213658   -0.55741538
     atom    3 type  2   force =     1.69943158   -7.03868317   -0.21519407
     atom    4 type  2   force =     1.85134963    6.98421507   -0.52513633
     atom    5 type  2   force =    -4.32286010   -6.24589409    1.12754220
     atom    6 type  2   force =    -4.18810362    6.38279244    0.83373339
     atom    7 type  2   force =    -7.49082675    0.11770035    1.68991023
     atom    8 type  3   force =     1.25581378   -3.19176403   -0.21383593
     atom    9 type  3   force =     1.32278447    3.15136676   -0.35421136
     atom   10 type  3   force =    -1.76785131   -2.87730230    0.46897083
     atom   11 type  3   force =    -1.70570137    2.93252642    0.33819316
     atom   12 type  3   force =    -3.31064762    0.05232652    0.74756479
     atom   13 type  3   force =     2.67404614    2.71388729    0.88065451
     atom   14 type  3   force =     2.65071899   -2.63036527    1.16943313
     atom   15 type  3   force =     1.42084508   -0.19178224   -3.66595345
     The core correction contribution to forces
     atom    1 type  1   force =     0.00077842   -0.00002378   -0.00028292
     atom    2 type  2   force =     0.01480934   -0.00035187   -0.00384462
     atom    3 type  2   force =     0.00205961   -0.00075623   -0.00045836
     atom    4 type  2   force =     0.00243892    0.00024892   -0.00075684
     atom    5 type  2   force =     0.00073530   -0.00106248   -0.00032392
     atom    6 type  2   force =     0.00105837    0.00084929    0.00000853
     atom    7 type  2   force =    -0.00038160    0.00006414    0.00022792
     atom    8 type  3   force =     0.00000000    0.00000000    0.00000000
     atom    9 type  3   force =     0.00000000    0.00000000    0.00000000
     atom   10 type  3   force =     0.00000000    0.00000000    0.00000000
     atom   11 type  3   force =     0.00000000    0.00000000    0.00000000
     atom   12 type  3   force =     0.00000000    0.00000000    0.00000000
     atom   13 type  3   force =     0.00000000    0.00000000    0.00000000
     atom   14 type  3   force =     0.00000000    0.00000000    0.00000000
     atom   15 type  3   force =     0.00000000    0.00000000    0.00000000
     The Hubbard contrib.    to forces
     atom    1 type  1   force =     0.00000000    0.00000000    0.00000000
     atom    2 type  2   force =     0.00000000    0.00000000    0.00000000
     atom    3 type  2   force =     0.00000000    0.00000000    0.00000000
     atom    4 type  2   force =     0.00000000    0.00000000    0.00000000
     atom    5 type  2   force =     0.00000000    0.00000000    0.00000000
     atom    6 type  2   force =     0.00000000    0.00000000    0.00000000
     atom    7 type  2   force =     0.00000000    0.00000000    0.00000000
     atom    8 type  3   force =     0.00000000    0.00000000    0.00000000
     atom    9 type  3   force =     0.00000000    0.00000000    0.00000000
     atom   10 type  3   force =     0.00000000    0.00000000    0.00000000
     atom   11 type  3   force =     0.00000000    0.00000000    0.00000000
     atom   12 type  3   force =     0.00000000    0.00000000    0.00000000
     atom   13 type  3   force =     0.00000000    0.00000000    0.00000000
     atom   14 type  3   force =     0.00000000    0.00000000    0.00000000
     atom   15 type  3   force =     0.00000000    0.00000000    0.00000000
     The SCF correction term to forces
     atom    1 type  1   force =    -0.00063727    0.00008154    0.00032002
     atom    2 type  2   force =    -0.00041604    0.00002544    0.00014342
     atom    3 type  2   force =    -0.00000962    0.00067298    0.00001085
     atom    4 type  2   force =    -0.00001201   -0.00065458    0.00004136
     atom    5 type  2   force =     0.00051509    0.00037518   -0.00011390
     atom    6 type  2   force =     0.00050640   -0.00038060   -0.00009137
     atom    7 type  2   force =     0.00061793    0.00000283   -0.00012848
     atom    8 type  3   force =    -0.00004024    0.00011221    0.00001006
     atom    9 type  3   force =    -0.00003954   -0.00011146    0.00001464
     atom   10 type  3   force =     0.00004927    0.00003631   -0.00001054
     atom   11 type  3   force =     0.00005051   -0.00003976   -0.00000878
     atom   12 type  3   force =     0.00003458    0.00000094   -0.00000645
     atom   13 type  3   force =    -0.00008900   -0.00004874    0.00001212
     atom   14 type  3   force =    -0.00008475    0.00005623    0.00001091
     atom   15 type  3   force =    -0.00006799    0.00001090    0.00006845

     DFT-D3 dispersion contribution to forces:
     atom    1 type  1   force =    -0.00007406    0.00000026    0.00002072
     atom    2 type  2   force =     0.00012325   -0.00000238   -0.00003706
     atom    3 type  2   force =     0.00003794    0.00017966    0.00003127
     atom    4 type  2   force =     0.00004049   -0.00017647    0.00003599
     atom    5 type  2   force =    -0.00007651    0.00013616    0.00001675
     atom    6 type  2   force =    -0.00007922   -0.00013369    0.00002302
     atom    7 type  2   force =     0.00010445   -0.00000167   -0.00002103
     atom    8 type  3   force =    -0.00002849   -0.00004504    0.00002694
     atom    9 type  3   force =    -0.00001800    0.00004392    0.00002486
     atom   10 type  3   force =    -0.00001489   -0.00000336    0.00000306
     atom   11 type  3   force =    -0.00001469    0.00000369    0.00000293
     atom   12 type  3   force =    -0.00000867    0.00000023    0.00000227
     atom   13 type  3   force =    -0.00011510    0.00006021   -0.00003811
     atom   14 type  3   force =    -0.00009441   -0.00005462   -0.00004304
     atom   15 type  3   force =     0.00021792   -0.00000691   -0.00004857

     Total force =     0.001401     Total SCF correction =     0.001699

     DFT-D3 dispersion Force =     0.000491
     SCF correction compared to forces is large: reduce conv_thr to get better values


     Computing stress (Cartesian axis) and pressure


     negative rho (up, down):  1.530E-02 0.000E+00
          total   stress  (Ry/bohr**3)                   (kbar)     P=       -0.05
  -0.00000033   0.00000000   0.00000001           -0.05        0.00        0.00
   0.00000000  -0.00000032  -0.00000000            0.00       -0.05       -0.00
   0.00000001  -0.00000000  -0.00000031            0.00       -0.00       -0.05

     kinetic stress (kbar)     33.32      0.01      0.76
                                0.01     33.02      0.07
                                0.76      0.07     36.47

     local   stress (kbar)   -247.05      1.52     43.89
                                1.52   -198.30      2.46
                               43.89      2.46    -67.14

     nonloc. stress (kbar)      7.54     -0.00     -0.10
                               -0.00      7.59     -0.01
                               -0.10     -0.01      7.11

     hartree stress (kbar)    108.50     -0.63    -17.43
                               -0.63     86.31     -0.91
                              -17.43     -0.91     37.05

     exc-cor stress (kbar)     -2.78     -0.00     -0.06
                               -0.00     -2.76     -0.00
                               -0.06     -0.00     -3.01

     corecor stress (kbar)     -5.75      0.00      0.02
                                0.00     -5.78      0.00
                                0.02      0.00     -5.68

     ewald   stress (kbar)    106.17     -0.90    -27.07
                               -0.90     79.88     -1.60
                              -27.07     -1.60     -4.85

     hubbard stress (kbar)      0.00      0.00      0.00
                                0.00      0.00      0.00
                                0.00      0.00      0.00

     DFT-D   stress (kbar)      0.00      0.00      0.00
                                0.00      0.00     -0.00
                                0.00     -0.00     -0.00

     XDM     stress (kbar)      0.00      0.00      0.00
                                0.00      0.00      0.00
                                0.00      0.00      0.00

     dft-nl  stress (kbar)      0.00      0.00      0.00
                                0.00      0.00      0.00
                                0.00      0.00      0.00

     TS-vdW  stress (kbar)      0.00      0.00      0.00
                                0.00      0.00      0.00
                                0.00      0.00      0.00

     MDB     stress (kbar)      0.00      0.00      0.00
                                0.00      0.00      0.00
                                0.00      0.00      0.00

     3D-RISM stress (kbar)      0.00      0.00      0.00
                                0.00      0.00      0.00
                                0.00      0.00      0.00


     Writing all to output data dir ./tmp/aniline_protonated.save/ :
     XML data file, charge density, pseudopotentials, collected wavefunctions

     init_run     :     29.77s CPU     31.66s WALL (       1 calls)
     electrons    :    674.98s CPU    725.53s WALL (       1 calls)
     forces       :     16.07s CPU     20.85s WALL (       1 calls)
     force_dftd3  :      0.00s CPU      0.00s WALL (       1 calls)
     stress       :     57.10s CPU     66.72s WALL (       1 calls)
     stres_dftd3  :      0.00s CPU      0.00s WALL (       1 calls)

     Called by init_run:
     wfcinit      :     18.34s CPU     18.63s WALL (       1 calls)
     wfcinit:atom :      0.17s CPU      0.22s WALL (       5 calls)
     wfcinit:wfcr :     17.02s CPU     17.20s WALL (       5 calls)
     potinit      :      3.09s CPU      3.63s WALL (       1 calls)
     hinit0       :      1.24s CPU      1.40s WALL (       1 calls)

     Called by electrons:
     c_bands      :    468.09s CPU    471.64s WALL (       9 calls)
     sum_band     :    135.41s CPU    153.15s WALL (       9 calls)
     v_of_rho     :     31.88s CPU     41.17s WALL (      10 calls)
     v_h          :      3.62s CPU      4.32s WALL (      10 calls)
     v_xc         :     34.18s CPU     45.02s WALL (      12 calls)
     newd         :     29.28s CPU     48.82s WALL (      10 calls)
     PAW_pot      :      0.73s CPU      0.73s WALL (      10 calls)
     mix_rho      :      8.27s CPU      8.87s WALL (       9 calls)
     energy_dftd3 :      0.00s CPU      0.00s WALL (       1 calls)

     Called by c_bands:
     init_us_2    :     11.65s CPU     11.76s WALL (     105 calls)
     cegterg      :    457.44s CPU    460.89s WALL (      45 calls)

     Called by sum_band:
     sum_band:wei :      0.00s CPU      0.00s WALL (       9 calls)
     sum_band:loo :     87.21s CPU     87.66s WALL (       9 calls)
     sum_band:buf :      0.74s CPU      0.75s WALL (      45 calls)
     sum_band:ini :      5.18s CPU      5.22s WALL (      45 calls)
     sum_band:cal :      6.34s CPU      6.36s WALL (      45 calls)
     sum_band:bec :      0.00s CPU      0.00s WALL (      45 calls)
     addusdens    :     44.00s CPU     60.76s WALL (       9 calls)
                                        0.00s GPU  (       9 calls)
     addusd:skk   :      1.24s CPU      3.33s WALL (      27 calls)
                                        0.00s GPU  (      27 calls)

     Called by *egterg:
     cdiaghg      :      0.14s CPU      0.14s WALL (     280 calls)
     cegterg:over :     17.19s CPU     17.28s WALL (     235 calls)
     cegterg:upda :     10.35s CPU     10.49s WALL (     235 calls)
     cegterg:last :     21.24s CPU     21.41s WALL (     105 calls)
     h_psi        :    393.38s CPU    395.95s WALL (     285 calls)
     s_psi        :     21.08s CPU     21.16s WALL (     285 calls)
     g_psi        :      1.08s CPU      1.09s WALL (     235 calls)

     Called by h_psi:
     h_psi:calbec :     22.09s CPU     22.18s WALL (     285 calls)
     vloc_psi     :    348.11s CPU    350.19s WALL (     285 calls)
     add_vuspsi   :     21.12s CPU     21.24s WALL (     285 calls)

     General routines
     calbec       :     32.05s CPU     32.18s WALL (     355 calls)
     fft          :     34.81s CPU     43.49s WALL (     153 calls)
     ffts         :      2.48s CPU      2.74s WALL (      19 calls)
     fftw         :    272.21s CPU    273.88s WALL (    6870 calls)
     interpolate  :      4.45s CPU      4.90s WALL (      10 calls)

     Parallel routines

     PAW routines
     PAW_pot      :      0.73s CPU      0.73s WALL (      10 calls)

     PWSCF        :  13m 0.91s CPU  14m 9.75s WALL


   This run was terminated on:  20:28: 5   4Apr2025            

=------------------------------------------------------------------------------=
   JOB DONE.
=------------------------------------------------------------------------------=
