--------------------------------------------------------------------------
By default, for Open MPI 4.0 and later, infiniband ports on a device
are not used by default.  The intent is to use UCX for these devices.
You can override this policy by setting the btl_openib_allow_ib MCA parameter
to true.

  Local host:              psid05
  Local adapter:           mlx4_0
  Local port:              1

--------------------------------------------------------------------------
--------------------------------------------------------------------------
WARNING: There was an error initializing an OpenFabrics device.

  Local host:   psid05
  Local device: mlx4_0
--------------------------------------------------------------------------

     Program PWSCF v.7.3.1 starts on 26Mar2025 at 15:19:13 

     This program is part of the open-source Quantum ESPRESSO suite
     for quantum simulation of materials; please cite
         "P. Giannozzi et al., J. Phys.:Condens. Matter 21 395502 (2009);
         "P. Giannozzi et al., J. Phys.:Condens. Matter 29 465901 (2017);
         "P. Giannozzi et al., J. Chem. Phys. 152 154105 (2020);
          URL http://www.quantum-espresso.org", 
     in publications or presentations arising from this work. More details at
     http://www.quantum-espresso.org/quote

     Parallel version (MPI), running on    33 processors

     MPI processes distributed on     1 nodes
     73521 MiB available memory on the printing compute node when the environment starts

     Waiting for input...
     Reading input from standard input

     Current dimensions of program PWSCF are:
     Max number of different atomic species (ntypx) = 10
     Max number of k-points (npk) =  40000
     Max angular momentum in pseudopotentials (lmaxx) =  4
     Found identity + ( -0.5000  0.0000  0.0000) symmetry
     This is a supercell, fractional translations are disabled

     R & G space division:  proc/nbgrp/npool/nimage =      33
     Subspace diagonalization in iterative solution of the eigenvalue problem:
     one sub-group per band group will be used
     custom distributed-memory algorithm (size of sub-group:  5*  5 procs)


     Parallelization info
     --------------------
     sticks:   dense  smooth     PW     G-vecs:    dense   smooth      PW
     Min         228     130     36                36393    15714    2270
     Max         230     131     37                36401    15723    2280
     Sum        7555    4303   1189              1201061   518755   75035

     Using Slab Decomposition



     bravais-lattice index     =            0
     lattice parameter (alat)  =      19.7617  a.u.
     unit-cell volume          =   15176.5939 (a.u.)^3
     number of atoms/cell      =           48
     number of atomic types    =            1
     number of electrons       =       960.00
     number of Kohn-Sham states=          576
     kinetic-energy cutoff     =      40.0000  Ry
     charge density cutoff     =     280.0000  Ry
     scf convergence threshold =      1.0E-06
     mixing beta               =       0.4000
     number of iterations used =            8  plain     mixing
     Exchange-correlation= SLA  PW   PBE  PBE
                           (   1   4   3   4   0   0   0)

     celldm(1)=  19.761696  celldm(2)=   0.000000  celldm(3)=   0.000000
     celldm(4)=   0.000000  celldm(5)=   0.000000  celldm(6)=   0.000000

     crystal axes: (cart. coord. in units of alat)
               a(1) = (   1.000000   0.000000   0.000000 )  
               a(2) = (  -0.500000   0.866025   0.000000 )  
               a(3) = (   0.000000   0.000000   2.270759 )  

     reciprocal axes: (cart. coord. in units 2 pi/alat)
               b(1) = (  1.000000  0.577350 -0.000000 )  
               b(2) = (  0.000000  1.154701  0.000000 )  
               b(3) = (  0.000000 -0.000000  0.440381 )  


     PseudoPot. # 1 for Zn read from file:
     /home/ys/qepseudo/SSSP_1.3.0_PBE_efficiency/Zn_pbe_v1.uspp.F.UPF
     MD5 check sum: df62231357ef9e81f77b2b3087fa5675
     Pseudo is Ultrasoft, Zval = 20.0
     Generated by new atomic code, or converted to UPF format
     Using radial grid of  943 points,  6 beta functions with: 
                l(1) =   0
                l(2) =   0
                l(3) =   1
                l(4) =   1
                l(5) =   2
                l(6) =   2
     Q(r) pseudized with  8 coefficients,  rinner =    1.100   1.100   1.100
                                                       1.100   1.100

     atomic species   valence    mass     pseudopotential
     Zn               20.00    65.38000     Zn( 1.00)

     No symmetry found


                                    s                        frac. trans.

      isym =  1     identity                                     

 cryst.   s( 1) = (     1          0          0      )
                  (     0          1          0      )
                  (     0          0          1      )

 cart.    s( 1) = (  1.0000000  0.0000000  0.0000000 )
                  (  0.0000000  1.0000000  0.0000000 )
                  (  0.0000000  0.0000000  1.0000000 )


   Cartesian axes

     site n.     atom                  positions (alat units)
         1        Zn     tau(   1) = (   0.0000000   0.1443375   0.1164998  )
         2        Zn     tau(   2) = (   0.5000000   0.1443375   0.1164998  )
         3        Zn     tau(   3) = (   0.0000000   0.1443375   0.5824993  )
         4        Zn     tau(   4) = (   0.5000000   0.1443375   0.5824993  )
         5        Zn     tau(   5) = (  -0.1250000   0.3608439   0.1164998  )
         6        Zn     tau(   6) = (   0.3750000   0.3608439   0.1164998  )
         7        Zn     tau(   7) = (  -0.1250000   0.3608439   0.5824993  )
         8        Zn     tau(   8) = (   0.3750000   0.3608439   0.5824993  )
         9        Zn     tau(   9) = (  -0.2500000   0.5773502   0.1164998  )
        10        Zn     tau(  10) = (   0.2500000   0.5773502   0.1164998  )
        11        Zn     tau(  11) = (  -0.2500000   0.5773502   0.5824993  )
        12        Zn     tau(  12) = (   0.2500000   0.5773502   0.5824993  )
        13        Zn     tau(  13) = (  -0.3750000   0.7938567   0.1164998  )
        14        Zn     tau(  14) = (   0.1250000   0.7938567   0.1164998  )
        15        Zn     tau(  15) = (  -0.3750000   0.7938567   0.5824993  )
        16        Zn     tau(  16) = (   0.1250000   0.7938567   0.5824993  )
        17        Zn     tau(  17) = (   0.2500000   0.1443375   0.1164998  )
        18        Zn     tau(  18) = (   0.7500000   0.1443375   0.1164998  )
        19        Zn     tau(  19) = (   0.2500000   0.1443375   0.5824993  )
        20        Zn     tau(  20) = (   0.7500000   0.1443375   0.5824993  )
        21        Zn     tau(  21) = (   0.1250000   0.3608439   0.1164998  )
        22        Zn     tau(  22) = (   0.6250000   0.3608439   0.1164998  )
        23        Zn     tau(  23) = (   0.1250000   0.3608439   0.5824993  )
        24        Zn     tau(  24) = (   0.6250000   0.3608439   0.5824993  )
        25        Zn     tau(  25) = (   0.0000000   0.5773502   0.1164998  )
        26        Zn     tau(  26) = (   0.5000000   0.5773502   0.1164998  )
        27        Zn     tau(  27) = (   0.0000000   0.5773502   0.5824993  )
        28        Zn     tau(  28) = (   0.5000000   0.5773502   0.5824993  )
        29        Zn     tau(  29) = (  -0.1250000   0.7938567   0.1164998  )
        30        Zn     tau(  30) = (   0.3750000   0.7938567   0.1164998  )
        31        Zn     tau(  31) = (  -0.1250000   0.7938567   0.5824993  )
        32        Zn     tau(  32) = (   0.3750000   0.7938567   0.5824993  )
        33        Zn     tau(  33) = (   0.1250000   0.0721688   0.3494996  )
        34        Zn     tau(  34) = (   0.6250000   0.0721688   0.3494996  )
        35        Zn     tau(  35) = (   0.0000000   0.2886752   0.3494996  )
        36        Zn     tau(  36) = (   0.5000000   0.2886752   0.3494996  )
        37        Zn     tau(  37) = (  -0.1250000   0.5051815   0.3494996  )
        38        Zn     tau(  38) = (   0.3750000   0.5051815   0.3494996  )
        39        Zn     tau(  39) = (  -0.2500000   0.7216879   0.3494996  )
        40        Zn     tau(  40) = (   0.2500000   0.7216879   0.3494996  )
        41        Zn     tau(  41) = (   0.3750000   0.0721688   0.3494996  )
        42        Zn     tau(  42) = (   0.8750000   0.0721688   0.3494996  )
        43        Zn     tau(  43) = (   0.2500000   0.2886752   0.3494996  )
        44        Zn     tau(  44) = (   0.7500000   0.2886752   0.3494996  )
        45        Zn     tau(  45) = (   0.1250000   0.5051815   0.3494996  )
        46        Zn     tau(  46) = (   0.6250000   0.5051815   0.3494996  )
        47        Zn     tau(  47) = (   0.0000000   0.7216879   0.3494996  )
        48        Zn     tau(  48) = (   0.5000000   0.7216879   0.3494996  )

   Crystallographic axes

     site n.     atom                  positions (cryst. coord.)
         1        Zn     tau(   1) = (  0.0833333  0.1666666  0.0513044  )
         2        Zn     tau(   2) = (  0.5833333  0.1666666  0.0513044  )
         3        Zn     tau(   3) = (  0.0833333  0.1666666  0.2565219  )
         4        Zn     tau(   4) = (  0.5833333  0.1666666  0.2565219  )
         5        Zn     tau(   5) = (  0.0833333  0.4166666  0.0513044  )
         6        Zn     tau(   6) = (  0.5833333  0.4166666  0.0513044  )
         7        Zn     tau(   7) = (  0.0833333  0.4166666  0.2565219  )
         8        Zn     tau(   8) = (  0.5833333  0.4166666  0.2565219  )
         9        Zn     tau(   9) = (  0.0833333  0.6666666  0.0513044  )
        10        Zn     tau(  10) = (  0.5833333  0.6666666  0.0513044  )
        11        Zn     tau(  11) = (  0.0833333  0.6666666  0.2565219  )
        12        Zn     tau(  12) = (  0.5833333  0.6666666  0.2565219  )
        13        Zn     tau(  13) = (  0.0833333  0.9166667  0.0513044  )
        14        Zn     tau(  14) = (  0.5833334  0.9166667  0.0513044  )
        15        Zn     tau(  15) = (  0.0833333  0.9166667  0.2565219  )
        16        Zn     tau(  16) = (  0.5833334  0.9166667  0.2565219  )
        17        Zn     tau(  17) = (  0.3333333  0.1666666  0.0513044  )
        18        Zn     tau(  18) = (  0.8333334  0.1666666  0.0513044  )
        19        Zn     tau(  19) = (  0.3333333  0.1666666  0.2565219  )
        20        Zn     tau(  20) = (  0.8333334  0.1666666  0.2565219  )
        21        Zn     tau(  21) = (  0.3333333  0.4166666  0.0513044  )
        22        Zn     tau(  22) = (  0.8333333  0.4166666  0.0513044  )
        23        Zn     tau(  23) = (  0.3333333  0.4166666  0.2565219  )
        24        Zn     tau(  24) = (  0.8333333  0.4166666  0.2565219  )
        25        Zn     tau(  25) = (  0.3333333  0.6666666  0.0513044  )
        26        Zn     tau(  26) = (  0.8333333  0.6666666  0.0513044  )
        27        Zn     tau(  27) = (  0.3333333  0.6666666  0.2565219  )
        28        Zn     tau(  28) = (  0.8333333  0.6666666  0.2565219  )
        29        Zn     tau(  29) = (  0.3333334  0.9166667  0.0513044  )
        30        Zn     tau(  30) = (  0.8333334  0.9166667  0.0513044  )
        31        Zn     tau(  31) = (  0.3333334  0.9166667  0.2565219  )
        32        Zn     tau(  32) = (  0.8333334  0.9166667  0.2565219  )
        33        Zn     tau(  33) = (  0.1666667  0.0833334  0.1539131  )
        34        Zn     tau(  34) = (  0.6666667  0.0833334  0.1539131  )
        35        Zn     tau(  35) = (  0.1666667  0.3333334  0.1539131  )
        36        Zn     tau(  36) = (  0.6666667  0.3333334  0.1539131  )
        37        Zn     tau(  37) = (  0.1666667  0.5833334  0.1539131  )
        38        Zn     tau(  38) = (  0.6666667  0.5833334  0.1539131  )
        39        Zn     tau(  39) = (  0.1666667  0.8333334  0.1539131  )
        40        Zn     tau(  40) = (  0.6666667  0.8333334  0.1539131  )
        41        Zn     tau(  41) = (  0.4166667  0.0833334  0.1539131  )
        42        Zn     tau(  42) = (  0.9166667  0.0833334  0.1539131  )
        43        Zn     tau(  43) = (  0.4166667  0.3333334  0.1539131  )
        44        Zn     tau(  44) = (  0.9166667  0.3333334  0.1539131  )
        45        Zn     tau(  45) = (  0.4166667  0.5833334  0.1539131  )
        46        Zn     tau(  46) = (  0.9166667  0.5833334  0.1539131  )
        47        Zn     tau(  47) = (  0.4166667  0.8333334  0.1539131  )
        48        Zn     tau(  48) = (  0.9166667  0.8333334  0.1539131  )

     number of k points=    10  Marzari-Vanderbilt smearing, width (Ry)=  0.0100
                       cart. coord. in units 2pi/alat
        k(    1) = (   0.0000000   0.0000000   0.0000000), wk =   0.1250000
        k(    2) = (   0.0000000   0.2886751   0.0000000), wk =   0.2500000
        k(    3) = (   0.0000000  -0.5773503   0.0000000), wk =   0.1250000
        k(    4) = (   0.2500000   0.1443376   0.0000000), wk =   0.2500000
        k(    5) = (   0.2500000   0.4330127   0.0000000), wk =   0.2500000
        k(    6) = (   0.2500000  -0.4330127   0.0000000), wk =   0.2500000
        k(    7) = (   0.2500000  -0.1443376   0.0000000), wk =   0.2500000
        k(    8) = (  -0.5000000  -0.2886751   0.0000000), wk =   0.1250000
        k(    9) = (  -0.5000000   0.0000000   0.0000000), wk =   0.2500000
        k(   10) = (  -0.5000000  -0.8660254   0.0000000), wk =   0.1250000

                       cryst. coord.
        k(    1) = (   0.0000000   0.0000000   0.0000000), wk =   0.1250000
        k(    2) = (   0.0000000   0.2500000   0.0000000), wk =   0.2500000
        k(    3) = (   0.0000000  -0.5000000   0.0000000), wk =   0.1250000
        k(    4) = (   0.2500000   0.0000000   0.0000000), wk =   0.2500000
        k(    5) = (   0.2500000   0.2500000   0.0000000), wk =   0.2500000
        k(    6) = (   0.2500000  -0.5000000   0.0000000), wk =   0.2500000
        k(    7) = (   0.2500000  -0.2500000   0.0000000), wk =   0.2500000
        k(    8) = (  -0.5000000   0.0000000   0.0000000), wk =   0.1250000
        k(    9) = (  -0.5000000   0.2500000   0.0000000), wk =   0.2500000
        k(   10) = (  -0.5000000  -0.5000000   0.0000000), wk =   0.1250000

     Dense  grid:  1201061 G-vectors     FFT dimensions: ( 108, 108, 240)

     Smooth grid:   518755 G-vectors     FFT dimensions: (  80,  80, 192)

     Dynamical RAM for                 wfc:      17.26 MB

     Dynamical RAM for     wfc (w. buffer):     189.88 MB

     Dynamical RAM for           str. fact:       0.56 MB

     Dynamical RAM for           local pot:       0.00 MB

     Dynamical RAM for          nlocal pot:      25.89 MB

     Dynamical RAM for                qrad:       1.34 MB

     Dynamical RAM for          rho,v,vnew:       3.80 MB

     Dynamical RAM for               rhoin:       1.27 MB

     Dynamical RAM for            rho*nmix:       8.89 MB

     Dynamical RAM for           G-vectors:       2.20 MB

     Dynamical RAM for          h,s,v(r/c):       2.42 MB

     Dynamical RAM for          <psi|beta>:       7.59 MB

     Dynamical RAM for                 psi:      34.52 MB

     Dynamical RAM for                hpsi:      34.52 MB

     Dynamical RAM for                spsi:      34.52 MB

     Dynamical RAM for      wfcinit/wfcrot:      46.32 MB

     Dynamical RAM for           addusdens:     129.95 MB

     Estimated static dynamical RAM per process >     229.61 MB

     Estimated max dynamical RAM per process >     368.45 MB

     Estimated total dynamical RAM >      11.87 GB

     Initial potential from superposition of free atoms

     starting charge     959.9932, renormalised to     960.0000

     negative rho (up, down):  4.194E-03 0.000E+00
     Starting wfcs are  624 randomized atomic wfcs
[psid05:61647] 32 more processes have sent help message help-mpi-btl-openib.txt / ib port not selected
[psid05:61647] Set MCA parameter "orte_base_help_aggregate" to 0 to see all help / error messages
[psid05:61647] 32 more processes have sent help message help-mpi-btl-openib.txt / error in device init

     total cpu time spent up to now is      116.6 secs

     Self-consistent Calculation

     iteration #  1     ecut=    40.00 Ry     beta= 0.40
     Davidson diagonalization with overlap

---- Real-time Memory Report at c_bands before calling an iterative solver
           298 MiB given to the printing process from OS
             0 MiB allocation reported by mallinfo(arena+hblkhd)
         65505 MiB available memory on the node where the printing process lives
------------------
     ethr =  1.00E-02,  avg # of iterations =  9.4

     Threshold (ethr) on eigenvalues was too large:
     Diagonalizing with lowered threshold

     Davidson diagonalization with overlap

---- Real-time Memory Report at c_bands before calling an iterative solver
           391 MiB given to the printing process from OS
             0 MiB allocation reported by mallinfo(arena+hblkhd)
         64369 MiB available memory on the node where the printing process lives
------------------
     ethr =  1.61E-04,  avg # of iterations = 11.2

     negative rho (up, down):  4.983E-03 0.000E+00

     total cpu time spent up to now is     1023.5 secs

     total energy              =  -22153.85355012 Ry
     estimated scf accuracy    <       1.57830127 Ry

     iteration #  2     ecut=    40.00 Ry     beta= 0.40
     Davidson diagonalization with overlap

---- Real-time Memory Report at c_bands before calling an iterative solver
           400 MiB given to the printing process from OS
             0 MiB allocation reported by mallinfo(arena+hblkhd)
         64264 MiB available memory on the node where the printing process lives
------------------
     ethr =  1.64E-04,  avg # of iterations =  2.6

     negative rho (up, down):  5.515E-03 0.000E+00

     total cpu time spent up to now is     1466.8 secs

     total energy              =  -22154.23377837 Ry
     estimated scf accuracy    <       0.27740320 Ry

     iteration #  3     ecut=    40.00 Ry     beta= 0.40
     Davidson diagonalization with overlap

---- Real-time Memory Report at c_bands before calling an iterative solver
           405 MiB given to the printing process from OS
             0 MiB allocation reported by mallinfo(arena+hblkhd)
         64241 MiB available memory on the node where the printing process lives
------------------
     c_bands:  1 eigenvalues not converged
     ethr =  2.89E-05,  avg # of iterations =  8.6

     negative rho (up, down):  5.984E-03 0.000E+00

     total cpu time spent up to now is     1869.1 secs

     total energy              =  -22154.25111146 Ry
     estimated scf accuracy    <       0.04695798 Ry

     iteration #  4     ecut=    40.00 Ry     beta= 0.40
     Davidson diagonalization with overlap

---- Real-time Memory Report at c_bands before calling an iterative solver
           406 MiB given to the printing process from OS
             0 MiB allocation reported by mallinfo(arena+hblkhd)
         64222 MiB available memory on the node where the printing process lives
------------------
     ethr =  4.89E-06,  avg # of iterations = 12.1

     negative rho (up, down):  5.989E-03 0.000E+00

     total cpu time spent up to now is     2317.2 secs

     total energy              =  -22154.25269006 Ry
     estimated scf accuracy    <       0.00615443 Ry

     iteration #  5     ecut=    40.00 Ry     beta= 0.40
     Davidson diagonalization with overlap

---- Real-time Memory Report at c_bands before calling an iterative solver
           406 MiB given to the printing process from OS
             0 MiB allocation reported by mallinfo(arena+hblkhd)
         64203 MiB available memory on the node where the printing process lives
------------------
     ethr =  6.41E-07,  avg # of iterations =  2.0

     negative rho (up, down):  6.015E-03 0.000E+00

     total cpu time spent up to now is     2754.5 secs

     total energy              =  -22154.25347733 Ry
     estimated scf accuracy    <       0.00081560 Ry

     iteration #  6     ecut=    40.00 Ry     beta= 0.40
     Davidson diagonalization with overlap

---- Real-time Memory Report at c_bands before calling an iterative solver
           407 MiB given to the printing process from OS
             0 MiB allocation reported by mallinfo(arena+hblkhd)
         64187 MiB available memory on the node where the printing process lives
------------------
     ethr =  8.50E-08,  avg # of iterations =  2.0

     negative rho (up, down):  6.044E-03 0.000E+00

     total cpu time spent up to now is     3163.5 secs

     total energy              =  -22154.25364201 Ry
     estimated scf accuracy    <       0.00011358 Ry

     iteration #  7     ecut=    40.00 Ry     beta= 0.40
     Davidson diagonalization with overlap

---- Real-time Memory Report at c_bands before calling an iterative solver
           407 MiB given to the printing process from OS
             0 MiB allocation reported by mallinfo(arena+hblkhd)
         64167 MiB available memory on the node where the printing process lives
------------------
     ethr =  1.18E-08,  avg # of iterations =  2.0

     negative rho (up, down):  6.067E-03 0.000E+00

     total cpu time spent up to now is     3540.9 secs

     total energy              =  -22154.25362642 Ry
     estimated scf accuracy    <       0.00049078 Ry

     iteration #  8     ecut=    40.00 Ry     beta= 0.40
     Davidson diagonalization with overlap

---- Real-time Memory Report at c_bands before calling an iterative solver
           408 MiB given to the printing process from OS
             0 MiB allocation reported by mallinfo(arena+hblkhd)
         64151 MiB available memory on the node where the printing process lives
------------------
     ethr =  1.18E-08,  avg # of iterations =  1.7

     negative rho (up, down):  6.083E-03 0.000E+00

     total cpu time spent up to now is     3893.3 secs

     total energy              =  -22154.25364461 Ry
     estimated scf accuracy    <       0.00003410 Ry

     iteration #  9     ecut=    40.00 Ry     beta= 0.40
     Davidson diagonalization with overlap

---- Real-time Memory Report at c_bands before calling an iterative solver
           408 MiB given to the printing process from OS
             0 MiB allocation reported by mallinfo(arena+hblkhd)
         64132 MiB available memory on the node where the printing process lives
------------------
     ethr =  3.55E-09,  avg # of iterations =  2.0

     negative rho (up, down):  6.094E-03 0.000E+00

     total cpu time spent up to now is     4350.5 secs

     total energy              =  -22154.25365365 Ry
     estimated scf accuracy    <       0.00000920 Ry

     iteration # 10     ecut=    40.00 Ry     beta= 0.40
     Davidson diagonalization with overlap

---- Real-time Memory Report at c_bands before calling an iterative solver
           409 MiB given to the printing process from OS
             0 MiB allocation reported by mallinfo(arena+hblkhd)
         64115 MiB available memory on the node where the printing process lives
------------------
     ethr =  9.59E-10,  avg # of iterations =  2.0

     negative rho (up, down):  6.101E-03 0.000E+00

     total cpu time spent up to now is     4785.5 secs

     total energy              =  -22154.25365454 Ry
     estimated scf accuracy    <       0.00000186 Ry

     iteration # 11     ecut=    40.00 Ry     beta= 0.40
     Davidson diagonalization with overlap

---- Real-time Memory Report at c_bands before calling an iterative solver
           409 MiB given to the printing process from OS
             0 MiB allocation reported by mallinfo(arena+hblkhd)
         64113 MiB available memory on the node where the printing process lives
------------------
     ethr =  1.94E-10,  avg # of iterations =  2.0

     negative rho (up, down):  6.113E-03 0.000E+00

     total cpu time spent up to now is     5227.5 secs

     End of self-consistent calculation

          k = 0.0000 0.0000 0.0000 ( 64855 PWs)   bands (ev):

  -125.0387-125.0370-125.0370-125.0369-125.0369-125.0369-125.0369-125.0352
  -125.0352-125.0352-125.0352-125.0352-125.0352-125.0352-125.0352-125.0352
  -124.8597-124.8596-124.8580-124.8579-124.8579-124.8579-124.8579-124.8579
  -124.8579-124.8579-124.8579-124.8579-124.8579-124.8578-124.8562-124.8562
  -124.8562-124.8562-124.8562-124.8562-124.8562-124.8562-124.8562-124.8562
  -124.8562-124.8562-124.8561-124.8561-124.8561-124.8561-124.8561-124.8561
   -79.2049 -79.2049 -79.2049 -79.1983 -79.1983 -79.1983 -79.1983 -79.1983
   -79.1983 -79.1874 -79.1869 -79.1869 -79.1869 -79.1869 -79.1869 -79.1869
   -79.1855 -79.1855 -79.1855 -79.1855 -79.1854 -79.1854 -79.1849 -79.1849
   -79.1849 -79.1849 -79.1849 -79.1849 -79.1835 -79.1835 -79.1835 -79.1835
   -79.1835 -79.1835 -79.1834 -79.1834 -79.1834 -79.1783 -79.1783 -79.1783
   -79.1736 -79.1736 -79.1736 -79.1736 -79.1736 -79.1736 -79.1689 -79.1689
   -79.0228 -79.0228 -79.0228 -79.0228 -79.0228 -79.0228 -79.0163 -79.0162
   -79.0162 -79.0162 -79.0162 -79.0162 -79.0162 -79.0161 -79.0161 -79.0161
   -79.0161 -79.0161 -79.0161 -79.0161 -79.0144 -79.0144 -79.0144 -79.0144
   -79.0144 -79.0144 -79.0143 -79.0143 -79.0143 -79.0142 -79.0142 -79.0142
   -79.0125 -79.0125 -79.0125 -79.0125 -79.0125 -79.0125 -79.0125 -79.0125
   -79.0124 -79.0124 -79.0124 -79.0124 -79.0124 -79.0124 -79.0124 -79.0124
   -79.0123 -79.0123 -79.0049 -79.0049 -79.0049 -79.0048 -79.0048 -79.0048
   -79.0048 -79.0048 -79.0048 -79.0048 -79.0048 -79.0048 -79.0028 -79.0028
   -79.0028 -79.0028 -79.0028 -79.0028 -79.0028 -79.0028 -79.0028 -79.0028
   -79.0028 -79.0028 -78.9962 -78.9962 -78.9962 -78.9962 -78.9962 -78.9962
   -78.9915 -78.9915 -78.9915 -78.9915 -78.9915 -78.9915 -78.9915 -78.9915
   -78.9915 -78.9915 -78.9915 -78.9915 -78.9868 -78.9868 -78.9868 -78.9868
    -8.6039  -7.3943  -7.0759  -7.0490  -7.0490  -7.0490  -7.0490  -7.0490
    -7.0490  -6.8873  -6.8873  -6.8873  -6.7129  -6.7129  -6.7129  -6.6725
    -6.6725  -6.6725  -6.5718  -6.5718  -6.5718  -6.5718  -6.5718  -6.5718
    -6.5303  -6.5303  -6.5303  -6.5303  -6.5303  -6.5303  -6.5227  -6.5227
    -6.5226  -6.4567  -6.4567  -6.4567  -6.4567  -6.4567  -6.4567  -6.4066
    -6.4066  -6.4066  -6.4066  -6.4066  -6.4065  -6.3233  -6.3233  -6.3233
    -6.3225  -6.3225  -6.3225  -6.3225  -6.3225  -6.3225  -6.2563  -6.2563
    -6.2563  -6.2563  -6.2563  -6.2563  -6.2541  -6.1988  -6.1988  -6.1988
    -6.1988  -6.1988  -6.1988  -6.1591  -6.1591  -6.1591  -6.1591  -6.1591
    -6.1591  -6.1387  -6.1386  -6.1386  -6.1386  -6.1386  -6.1386  -6.1089
    -6.1089  -6.1089  -6.1089  -6.1089  -6.1089  -6.0937  -6.0937  -6.0905
    -6.0905  -6.0905  -6.0752  -6.0752  -6.0752  -6.0752  -6.0752  -6.0752
    -5.9762  -5.9762  -5.9762  -5.9762  -5.9762  -5.9762  -5.9115  -5.9115
    -5.8938  -5.8938  -5.8612  -5.8612  -5.8612  -5.8612  -5.8612  -5.8612
    -5.8532  -5.8532  -5.8532  -5.8532  -5.8532  -5.8532  -5.8096  -5.8096
    -5.8096  -5.7761  -5.7761  -5.7761  -5.7761  -5.7761  -5.7761  -5.7707
    -5.7707  -5.7707  -5.7707  -5.7707  -5.7707  -5.7666  -5.7666  -5.7666
    -5.7666  -5.7666  -5.7666  -5.7472  -5.7472  -5.7472  -5.7472  -5.7472
    -5.7472  -5.7222  -5.7222  -5.7222  -5.7222  -5.7222  -5.7222  -5.7090
    -5.7022  -5.7022  -5.7022  -5.7022  -5.7022  -5.7022  -5.7004  -5.7004
    -5.7004  -5.7004  -5.7004  -5.7004  -5.6837  -5.6837  -5.6836  -5.5864
    -5.5864  -5.5651  -5.5651  -5.5651  -5.5651  -5.5651  -5.5651  -5.5586
    -5.5586  -5.5586  -5.5586  -5.5586  -5.5586  -5.5390  -5.5390  -5.5390
    -5.5390  -5.5390  -5.5390  -5.5254  -5.5254  -5.5254  -5.4987  -5.4987
    -5.4987  -5.4987  -5.4987  -5.4987  -5.4899  -5.4899  -5.4899  -5.4899
    -5.4899  -5.4899  -5.4407  -5.4407  -5.4407  -5.4407  -5.4407  -5.4407
    -5.4236  -5.4236  -5.4236  -5.4207  -5.4207  -5.4207  -5.3907  -5.3907
    -5.3907  -5.3819  -5.3819  -5.3819  -5.3819  -5.3819  -5.3819  -5.3793
    -5.3793  -5.3554  -5.3554  -5.3131  -5.3131  -5.3131  -5.3131  -5.3131
    -5.3130  -5.2764  -5.2764  -5.2764  -5.2764  -5.2764  -5.2764  -5.2522
    -5.2522  -5.2522  -5.0677  -5.0677  -5.0677  -5.0676  -5.0676  -5.0676
    -4.3881  -4.3881  -4.3881  -4.3881  -4.3880  -4.3880  -3.4422  -2.0864
    -2.0864  -2.0864  -2.0864  -2.0864  -2.0864  -2.0107  -2.0106  -2.0106
    -2.0106  -2.0106  -2.0106  -0.8239  -0.8239  -0.8239  -0.7053  -0.6329
    -0.6329  -0.6329  -0.6329  -0.6329  -0.6329  -0.0694  -0.0694  -0.0694
     0.2520   0.2520   0.2520   1.5466   1.5466   1.5466   1.5466   1.5466
     1.5466   1.5886   1.5886   1.5886   1.5886   1.5886   1.5886   2.3167
     2.3167   2.3167   3.1132   3.3133   3.3133   3.3133   4.1501   4.1501
     4.1501   4.8878   4.8878   4.8878   4.8878   4.8878   4.8878   5.0710
     5.2603   5.4354   5.4354   5.4354   5.4354   5.4354   5.4354   5.4520
     5.4520   5.4520   5.4520   5.4520   5.4520   5.6229   5.6229   5.6229
     5.6229   5.6229   5.6229   6.1957   6.3945   6.5691   6.5691   6.5691
     6.8701   6.8701   6.8701   6.8701   6.8701   6.8701   7.0188   7.0188
     7.0188   7.0188   7.0188   7.0188   7.0963   7.0963   7.0963   7.0963
     7.0963   7.0963   7.1947   7.1947   7.1947   7.1947   7.1947   7.1947
     8.0348   8.0348   8.0348   8.0348   8.0348   8.0348   8.1494   8.1494
     8.1494   8.1494   8.1494   8.1494   8.1822   8.1822   8.1822   8.1822
     8.1822   8.1822   8.2030   8.3645   8.3854   8.3854   8.3854   9.3000

     occupation numbers 
     1.0000   1.0000   1.0000   1.0000   1.0000   1.0000   1.0000   1.0000
     1.0000   1.0000   1.0000   1.0000   1.0000   1.0000   1.0000   1.0000
     1.0000   1.0000   1.0000   1.0000   1.0000   1.0000   1.0000   1.0000
     1.0000   1.0000   1.0000   1.0000   1.0000   1.0000   1.0000   1.0000
     1.0000   1.0000   1.0000   1.0000   1.0000   1.0000   1.0000   1.0000
     1.0000   1.0000   1.0000   1.0000   1.0000   1.0000   1.0000   1.0000
     1.0000   1.0000   1.0000   1.0000   1.0000   1.0000   1.0000   1.0000
     1.0000   1.0000   1.0000   1.0000   1.0000   1.0000   1.0000   1.0000
     1.0000   1.0000   1.0000   1.0000   1.0000   1.0000   1.0000   1.0000
     1.0000   1.0000   1.0000   1.0000   1.0000   1.0000   1.0000   1.0000
     1.0000   1.0000   1.0000   1.0000   1.0000   1.0000   1.0000   1.0000
     1.0000   1.0000   1.0000   1.0000   1.0000   1.0000   1.0000   1.0000
     1.0000   1.0000   1.0000   1.0000   1.0000   1.0000   1.0000   1.0000
     1.0000   1.0000   1.0000   1.0000   1.0000   1.0000   1.0000   1.0000
     1.0000   1.0000   1.0000   1.0000   1.0000   1.0000   1.0000   1.0000
     1.0000   1.0000   1.0000   1.0000   1.0000   1.0000   1.0000   1.0000
     1.0000   1.0000   1.0000   1.0000   1.0000   1.0000   1.0000   1.0000
     1.0000   1.0000   1.0000   1.0000   1.0000   1.0000   1.0000   1.0000
     1.0000   1.0000   1.0000   1.0000   1.0000   1.0000   1.0000   1.0000
     1.0000   1.0000   1.0000   1.0000   1.0000   1.0000   1.0000   1.0000
     1.0000   1.0000   1.0000   1.0000   1.0000   1.0000   1.0000   1.0000
     1.0000   1.0000   1.0000   1.0000   1.0000   1.0000   1.0000   1.0000
     1.0000   1.0000   1.0000   1.0000   1.0000   1.0000   1.0000   1.0000
     1.0000   1.0000   1.0000   1.0000   1.0000   1.0000   1.0000   1.0000
     1.0000   1.0000   1.0000   1.0000   1.0000   1.0000   1.0000   1.0000
     1.0000   1.0000   1.0000   1.0000   1.0000   1.0000   1.0000   1.0000
     1.0000   1.0000   1.0000   1.0000   1.0000   1.0000   1.0000   1.0000
     1.0000   1.0000   1.0000   1.0000   1.0000   1.0000   1.0000   1.0000
     1.0000   1.0000   1.0000   1.0000   1.0000   1.0000   1.0000   1.0000
     1.0000   1.0000   1.0000   1.0000   1.0000   1.0000   1.0000   1.0000
     1.0000   1.0000   1.0000   1.0000   1.0000   1.0000   1.0000   1.0000
     1.0000   1.0000   1.0000   1.0000   1.0000   1.0000   1.0000   1.0000
     1.0000   1.0000   1.0000   1.0000   1.0000   1.0000   1.0000   1.0000
     1.0000   1.0000   1.0000   1.0000   1.0000   1.0000   1.0000   1.0000
     1.0000   1.0000   1.0000   1.0000   1.0000   1.0000   1.0000   1.0000
     1.0000   1.0000   1.0000   1.0000   1.0000   1.0000   1.0000   1.0000
     1.0000   1.0000   1.0000   1.0000   1.0000   1.0000   1.0000   1.0000
     1.0000   1.0000   1.0000   1.0000   1.0000   1.0000   1.0000   1.0000
     1.0000   1.0000   1.0000   1.0000   1.0000   1.0000   1.0000   1.0000
     1.0000   1.0000   1.0000   1.0000   1.0000   1.0000   1.0000   1.0000
     1.0000   1.0000   1.0000   1.0000   1.0000   1.0000   1.0000   1.0000
     1.0000   1.0000   1.0000   1.0000   1.0000   1.0000   1.0000   1.0000
     1.0000   1.0000   1.0000   1.0000   1.0000   1.0000   1.0000   1.0000
     1.0000   1.0000   1.0000   1.0000   1.0000   1.0000   1.0000   1.0000
     1.0000   1.0000   1.0000   1.0000   1.0000   1.0000   1.0000   1.0000
     1.0000   1.0000   1.0000   1.0000   1.0000   1.0000   1.0000   1.0000
     1.0000   1.0000   1.0000   1.0000   1.0000   1.0000   1.0000   1.0000
     1.0000   1.0000   1.0000   1.0000   1.0000   1.0000   1.0000   1.0000
     1.0000   1.0000   1.0000   1.0000   1.0000   1.0000   1.0000   1.0000
     1.0000   1.0000   1.0000   1.0000   1.0000   1.0000   1.0000   1.0000
     1.0000   1.0000   1.0000   1.0000   1.0000   1.0000   1.0000   1.0000
     1.0000   1.0000   1.0000   1.0000   1.0000   1.0000   1.0000   1.0000
     1.0000   1.0000   1.0000   1.0000   1.0000   1.0000   1.0000   1.0000
     1.0000   1.0000   1.0000   1.0000   1.0000   1.0000   1.0000   1.0000
     1.0000   1.0000   1.0000   1.0000   1.0000   1.0000   1.0000   1.0000
     1.0000   1.0000   1.0000   1.0000   1.0000   1.0000   1.0000   1.0000
     1.0000   1.0000   1.0000   1.0000   1.0000   1.0000   1.0000   1.0000
     1.0000   1.0000   1.0000   1.0000   1.0000   1.0000   1.0000   1.0000
     1.0000   1.0000   1.0000   1.0000   1.0000   1.0000   1.0000   1.0000
     1.0000   1.0000   1.0000   0.0829   0.0829   0.0829   0.0829   0.0829
     0.0829   0.0306   0.0306   0.0306   0.0306   0.0306   0.0306   0.0000
     0.0000   0.0000   0.0000   0.0000   0.0000   0.0000   0.0000   0.0000
     0.0000   0.0000   0.0000   0.0000   0.0000   0.0000   0.0000   0.0000
     0.0000   0.0000   0.0000   0.0000   0.0000   0.0000   0.0000   0.0000
     0.0000   0.0000   0.0000   0.0000   0.0000   0.0000   0.0000   0.0000
     0.0000   0.0000   0.0000   0.0000   0.0000   0.0000   0.0000   0.0000
     0.0000   0.0000   0.0000   0.0000   0.0000   0.0000   0.0000   0.0000
     0.0000   0.0000   0.0000   0.0000   0.0000   0.0000   0.0000   0.0000
     0.0000   0.0000   0.0000   0.0000   0.0000   0.0000   0.0000   0.0000
     0.0000   0.0000   0.0000   0.0000   0.0000   0.0000   0.0000   0.0000
     0.0000   0.0000   0.0000   0.0000   0.0000   0.0000   0.0000   0.0000
     0.0000   0.0000   0.0000   0.0000   0.0000   0.0000   0.0000   0.0000

          k = 0.0000 0.2887 0.0000 ( 64808 PWs)   bands (ev):

  -125.0385-125.0376-125.0372-125.0372-125.0365-125.0365-125.0363-125.0356
  -125.0356-125.0353-125.0352-125.0352-125.0352-125.0352-125.0349-125.0349
  -124.8595-124.8595-124.8586-124.8585-124.8582-124.8582-124.8581-124.8581
  -124.8575-124.8575-124.8575-124.8575-124.8573-124.8572-124.8566-124.8566
  -124.8565-124.8565-124.8563-124.8563-124.8562-124.8562-124.8562-124.8562
  -124.8561-124.8561-124.8561-124.8561-124.8559-124.8559-124.8559-124.8559
   -79.2042 -79.2042 -79.2036 -79.1996 -79.1996 -79.1987 -79.1987 -79.1968
   -79.1968 -79.1938 -79.1906 -79.1906 -79.1880 -79.1880 -79.1873 -79.1862
   -79.1858 -79.1858 -79.1850 -79.1850 -79.1847 -79.1839 -79.1839 -79.1839
   -79.1839 -79.1836 -79.1836 -79.1836 -79.1835 -79.1835 -79.1835 -79.1834
   -79.1832 -79.1832 -79.1812 -79.1812 -79.1800 -79.1790 -79.1790 -79.1779
   -79.1754 -79.1751 -79.1751 -79.1731 -79.1731 -79.1718 -79.1702 -79.1692
   -79.0221 -79.0221 -79.0220 -79.0220 -79.0215 -79.0214 -79.0175 -79.0175
   -79.0174 -79.0174 -79.0166 -79.0166 -79.0165 -79.0165 -79.0162 -79.0159
   -79.0151 -79.0150 -79.0147 -79.0147 -79.0147 -79.0147 -79.0146 -79.0146
   -79.0145 -79.0145 -79.0139 -79.0139 -79.0138 -79.0138 -79.0136 -79.0135
   -79.0129 -79.0129 -79.0128 -79.0128 -79.0126 -79.0125 -79.0125 -79.0125
   -79.0125 -79.0125 -79.0124 -79.0124 -79.0124 -79.0124 -79.0122 -79.0122
   -79.0121 -79.0121 -79.0117 -79.0117 -79.0085 -79.0085 -79.0085 -79.0085
   -79.0059 -79.0059 -79.0058 -79.0058 -79.0018 -79.0018 -79.0018 -79.0018
   -79.0015 -79.0015 -79.0015 -79.0015 -78.9992 -78.9992 -78.9991 -78.9991
   -78.9979 -78.9979 -78.9970 -78.9970 -78.9969 -78.9969 -78.9959 -78.9958
   -78.9933 -78.9933 -78.9930 -78.9930 -78.9930 -78.9930 -78.9911 -78.9911
   -78.9910 -78.9910 -78.9897 -78.9897 -78.9882 -78.9881 -78.9872 -78.9871
    -8.4851  -7.6015  -7.2943  -7.2295  -7.2295  -7.0131  -6.8713  -6.8451
    -6.8451  -6.8255  -6.8247  -6.8247  -6.6940  -6.6833  -6.6778  -6.6778
    -6.6570  -6.6569  -6.6325  -6.6325  -6.5792  -6.5686  -6.5583  -6.5583
    -6.5416  -6.5416  -6.5335  -6.5335  -6.5191  -6.5191  -6.5031  -6.4994
    -6.4994  -6.4972  -6.4972  -6.4967  -6.4967  -6.4768  -6.4768  -6.4645
    -6.4645  -6.4389  -6.4389  -6.3976  -6.3976  -6.3855  -6.3855  -6.3680
    -6.3680  -6.3611  -6.3117  -6.3072  -6.3072  -6.3037  -6.3037  -6.3013
    -6.3013  -6.2634  -6.2634  -6.2434  -6.2397  -6.2115  -6.2115  -6.2046
    -6.2046  -6.2040  -6.2040  -6.2035  -6.2035  -6.2006  -6.1935  -6.1935
    -6.1870  -6.1870  -6.1669  -6.1669  -6.1661  -6.1661  -6.1617  -6.1363
    -6.1121  -6.1121  -6.1096  -6.1085  -6.1085  -6.0865  -6.0865  -6.0831
    -6.0831  -6.0713  -6.0645  -6.0508  -6.0508  -6.0301  -6.0301  -6.0283
    -6.0283  -5.9545  -5.9545  -5.9418  -5.9418  -5.9384  -5.9347  -5.9313
    -5.9312  -5.9279  -5.9279  -5.9089  -5.9044  -5.9044  -5.9039  -5.9039
    -5.8849  -5.8849  -5.8840  -5.8715  -5.8647  -5.8602  -5.8602  -5.8530
    -5.8305  -5.8305  -5.8242  -5.8242  -5.8025  -5.7983  -5.7878  -5.7878
    -5.7829  -5.7829  -5.7749  -5.7749  -5.7641  -5.7641  -5.7634  -5.7634
    -5.7529  -5.7362  -5.7362  -5.7287  -5.7287  -5.7235  -5.7159  -5.7159
    -5.7011  -5.7009  -5.7009  -5.6995  -5.6995  -5.6919  -5.6919  -5.6825
    -5.6825  -5.6796  -5.6796  -5.6734  -5.6585  -5.6585  -5.6532  -5.6318
    -5.6285  -5.6285  -5.6228  -5.6228  -5.6110  -5.6110  -5.6100  -5.6100
    -5.6043  -5.6013  -5.5944  -5.5944  -5.5934  -5.5590  -5.5571  -5.5537
    -5.5537  -5.5460  -5.5460  -5.5410  -5.5410  -5.5377  -5.5377  -5.5317
    -5.5317  -5.5277  -5.5216  -5.5204  -5.5204  -5.5119  -5.5119  -5.5054
    -5.5054  -5.4864  -5.4864  -5.4500  -5.4492  -5.4447  -5.4447  -5.4429
    -5.4429  -5.4422  -5.4422  -5.4345  -5.4345  -5.4209  -5.4191  -5.4191
    -5.4190  -5.4128  -5.4102  -5.4058  -5.3954  -5.3954  -5.3909  -5.3909
    -5.3843  -5.3796  -5.3796  -5.3720  -5.3613  -5.3613  -5.3572  -5.3491
    -5.3374  -5.3319  -5.3319  -5.3275  -5.3050  -5.3050  -5.2951  -5.2951
    -5.2936  -5.2936  -5.2850  -5.2788  -5.2788  -5.2694  -5.2694  -5.1326
    -5.1326  -5.1256  -5.1256  -5.1197  -5.1197  -5.1019  -5.1011  -4.9356
    -4.9206  -4.6282  -4.6282  -3.8726  -3.8726  -3.4719  -3.3772  -3.3772
    -3.3571  -2.6646  -2.2925  -2.2925  -2.2047  -2.0039  -2.0039  -1.9640
    -1.9640  -1.5051  -1.5051  -1.2744  -1.2744  -1.1070  -0.7878  -0.5554
    -0.5554  -0.5537  -0.5537  -0.5450   0.0309   0.0309   0.2791   0.2791
     0.5757   0.5757   0.6411   0.8897   0.9055   0.9055   1.1913   1.1913
     1.5671   1.5671   2.2343   2.2344   2.6617   2.7099   2.7099   2.7291
     2.7902   2.7902   2.9619   2.9619   3.2250   3.5544   3.7052   3.7052
     3.9257   3.9257   4.1168   4.1932   4.1932   4.5607   4.5607   4.8111
     4.8111   4.8507   4.8507   5.1689   5.1689   5.1692   5.1692   5.1839
     5.3753   5.4303   5.4303   5.5755   5.6519   5.8003   5.8003   5.8118
     6.0860   6.1113   6.1113   6.2942   6.3118   6.3202   6.3202   6.5070
     6.5359   6.5359   6.6024   6.6024   6.7268   6.7530   6.7530   7.0195
     7.0195   7.0938   7.0938   7.1772   7.1772   7.2365   7.3208   7.3208
     7.4053   7.4209   7.4209   7.4612   7.4612   7.6630   7.6630   7.6638
     7.6638   7.6960   7.6960   7.7432   7.8525   7.8525   7.9628   7.9628
     8.0398   8.0398   8.1284   8.3131   8.3186   8.4762   8.6331   8.6331
     8.7015   8.7049   8.7049   8.8171   8.8171   8.8316   8.8316   8.8457

     occupation numbers 
     1.0000   1.0000   1.0000   1.0000   1.0000   1.0000   1.0000   1.0000
     1.0000   1.0000   1.0000   1.0000   1.0000   1.0000   1.0000   1.0000
     1.0000   1.0000   1.0000   1.0000   1.0000   1.0000   1.0000   1.0000
     1.0000   1.0000   1.0000   1.0000   1.0000   1.0000   1.0000   1.0000
     1.0000   1.0000   1.0000   1.0000   1.0000   1.0000   1.0000   1.0000
     1.0000   1.0000   1.0000   1.0000   1.0000   1.0000   1.0000   1.0000
     1.0000   1.0000   1.0000   1.0000   1.0000   1.0000   1.0000   1.0000
     1.0000   1.0000   1.0000   1.0000   1.0000   1.0000   1.0000   1.0000
     1.0000   1.0000   1.0000   1.0000   1.0000   1.0000   1.0000   1.0000
     1.0000   1.0000   1.0000   1.0000   1.0000   1.0000   1.0000   1.0000
     1.0000   1.0000   1.0000   1.0000   1.0000   1.0000   1.0000   1.0000
     1.0000   1.0000   1.0000   1.0000   1.0000   1.0000   1.0000   1.0000
     1.0000   1.0000   1.0000   1.0000   1.0000   1.0000   1.0000   1.0000
     1.0000   1.0000   1.0000   1.0000   1.0000   1.0000   1.0000   1.0000
     1.0000   1.0000   1.0000   1.0000   1.0000   1.0000   1.0000   1.0000
     1.0000   1.0000   1.0000   1.0000   1.0000   1.0000   1.0000   1.0000
     1.0000   1.0000   1.0000   1.0000   1.0000   1.0000   1.0000   1.0000
     1.0000   1.0000   1.0000   1.0000   1.0000   1.0000   1.0000   1.0000
     1.0000   1.0000   1.0000   1.0000   1.0000   1.0000   1.0000   1.0000
     1.0000   1.0000   1.0000   1.0000   1.0000   1.0000   1.0000   1.0000
     1.0000   1.0000   1.0000   1.0000   1.0000   1.0000   1.0000   1.0000
     1.0000   1.0000   1.0000   1.0000   1.0000   1.0000   1.0000   1.0000
     1.0000   1.0000   1.0000   1.0000   1.0000   1.0000   1.0000   1.0000
     1.0000   1.0000   1.0000   1.0000   1.0000   1.0000   1.0000   1.0000
     1.0000   1.0000   1.0000   1.0000   1.0000   1.0000   1.0000   1.0000
     1.0000   1.0000   1.0000   1.0000   1.0000   1.0000   1.0000   1.0000
     1.0000   1.0000   1.0000   1.0000   1.0000   1.0000   1.0000   1.0000
     1.0000   1.0000   1.0000   1.0000   1.0000   1.0000   1.0000   1.0000
     1.0000   1.0000   1.0000   1.0000   1.0000   1.0000   1.0000   1.0000
     1.0000   1.0000   1.0000   1.0000   1.0000   1.0000   1.0000   1.0000
     1.0000   1.0000   1.0000   1.0000   1.0000   1.0000   1.0000   1.0000
     1.0000   1.0000   1.0000   1.0000   1.0000   1.0000   1.0000   1.0000
     1.0000   1.0000   1.0000   1.0000   1.0000   1.0000   1.0000   1.0000
     1.0000   1.0000   1.0000   1.0000   1.0000   1.0000   1.0000   1.0000
     1.0000   1.0000   1.0000   1.0000   1.0000   1.0000   1.0000   1.0000
     1.0000   1.0000   1.0000   1.0000   1.0000   1.0000   1.0000   1.0000
     1.0000   1.0000   1.0000   1.0000   1.0000   1.0000   1.0000   1.0000
     1.0000   1.0000   1.0000   1.0000   1.0000   1.0000   1.0000   1.0000
     1.0000   1.0000   1.0000   1.0000   1.0000   1.0000   1.0000   1.0000
     1.0000   1.0000   1.0000   1.0000   1.0000   1.0000   1.0000   1.0000
     1.0000   1.0000   1.0000   1.0000   1.0000   1.0000   1.0000   1.0000
     1.0000   1.0000   1.0000   1.0000   1.0000   1.0000   1.0000   1.0000
     1.0000   1.0000   1.0000   1.0000   1.0000   1.0000   1.0000   1.0000
     1.0000   1.0000   1.0000   1.0000   1.0000   1.0000   1.0000   1.0000
     1.0000   1.0000   1.0000   1.0000   1.0000   1.0000   1.0000   1.0000
     1.0000   1.0000   1.0000   1.0000   1.0000   1.0000   1.0000   1.0000
     1.0000   1.0000   1.0000   1.0000   1.0000   1.0000   1.0000   1.0000
     1.0000   1.0000   1.0000   1.0000   1.0000   1.0000   1.0000   1.0000
     1.0000   1.0000   1.0000   1.0000   1.0000   1.0000   1.0000   1.0000
     1.0000   1.0000   1.0000   1.0000   1.0000   1.0000   1.0000   1.0000
     1.0000   1.0000   1.0000   1.0000   1.0000   1.0000   1.0000   1.0000
     1.0000   1.0000   1.0000   1.0000   1.0000   1.0000   1.0000   1.0000
     1.0000   1.0000   1.0000   1.0000   1.0000   1.0000   1.0000   1.0000
     1.0000   1.0000   1.0000   1.0000   1.0000   1.0000   1.0000   1.0000
     1.0000   1.0000   1.0000   1.0000   1.0000   1.0000   1.0000   1.0000
     1.0000   1.0000   1.0000   1.0000   1.0000   1.0000   1.0000   1.0000
     1.0000   1.0000   1.0000   1.0000   1.0000   1.0000   1.0000   1.0000
     1.0000   1.0000   1.0000   1.0000   1.0000   1.0000   1.0000   1.0000
     1.0000   1.0000   1.0000   1.0000   1.0000   1.0000   1.0000   1.0000
     1.0000   1.0000   1.0000   1.0000   1.0000   1.0000   1.0475   1.0475
     0.0521   0.0521   0.0000   0.0000   0.0000   0.0000   0.0000   0.0000
     0.0000   0.0000   0.0000   0.0000   0.0000   0.0000   0.0000   0.0000
     0.0000   0.0000   0.0000   0.0000   0.0000   0.0000   0.0000   0.0000
     0.0000   0.0000   0.0000   0.0000   0.0000   0.0000   0.0000   0.0000
     0.0000   0.0000   0.0000   0.0000   0.0000   0.0000   0.0000   0.0000
     0.0000   0.0000   0.0000   0.0000   0.0000   0.0000   0.0000   0.0000
     0.0000   0.0000   0.0000   0.0000   0.0000   0.0000   0.0000   0.0000
     0.0000   0.0000   0.0000   0.0000   0.0000   0.0000   0.0000   0.0000
     0.0000   0.0000   0.0000   0.0000   0.0000   0.0000   0.0000   0.0000
     0.0000   0.0000   0.0000   0.0000   0.0000   0.0000   0.0000   0.0000
     0.0000   0.0000   0.0000   0.0000   0.0000   0.0000   0.0000   0.0000
     0.0000   0.0000   0.0000   0.0000   0.0000   0.0000   0.0000   0.0000

          k = 0.0000-0.5774 0.0000 ( 64842 PWs)   bands (ev):

  -125.0382-125.0382-125.0373-125.0373-125.0361-125.0361-125.0361-125.0361
  -125.0357-125.0357-125.0352-125.0352-125.0352-125.0352-125.0348-125.0348
  -124.8592-124.8592-124.8591-124.8591-124.8583-124.8583-124.8582-124.8582
  -124.8571-124.8571-124.8571-124.8571-124.8570-124.8570-124.8570-124.8570
  -124.8567-124.8567-124.8567-124.8566-124.8562-124.8562-124.8562-124.8562
  -124.8561-124.8561-124.8561-124.8561-124.8558-124.8558-124.8558-124.8558
   -79.2022 -79.2022 -79.2021 -79.2021 -79.1997 -79.1997 -79.1986 -79.1986
   -79.1941 -79.1941 -79.1941 -79.1941 -79.1892 -79.1892 -79.1869 -79.1869
   -79.1859 -79.1859 -79.1845 -79.1845 -79.1845 -79.1845 -79.1841 -79.1840
   -79.1835 -79.1835 -79.1835 -79.1834 -79.1830 -79.1830 -79.1826 -79.1826
   -79.1811 -79.1811 -79.1811 -79.1811 -79.1777 -79.1777 -79.1777 -79.1777
   -79.1769 -79.1769 -79.1742 -79.1741 -79.1732 -79.1731 -79.1702 -79.1702
   -79.0200 -79.0200 -79.0200 -79.0200 -79.0200 -79.0200 -79.0200 -79.0200
   -79.0176 -79.0176 -79.0175 -79.0175 -79.0165 -79.0165 -79.0165 -79.0165
   -79.0157 -79.0157 -79.0156 -79.0155 -79.0148 -79.0148 -79.0146 -79.0146
   -79.0134 -79.0134 -79.0134 -79.0134 -79.0133 -79.0133 -79.0133 -79.0133
   -79.0130 -79.0130 -79.0129 -79.0129 -79.0125 -79.0125 -79.0125 -79.0125
   -79.0124 -79.0124 -79.0124 -79.0124 -79.0121 -79.0121 -79.0120 -79.0120
   -79.0120 -79.0120 -79.0120 -79.0120 -79.0120 -79.0120 -79.0120 -79.0120
   -79.0071 -79.0071 -79.0071 -79.0071 -79.0006 -79.0005 -79.0005 -79.0005
   -78.9990 -78.9990 -78.9990 -78.9990 -78.9990 -78.9990 -78.9989 -78.9989
   -78.9957 -78.9957 -78.9957 -78.9957 -78.9956 -78.9956 -78.9956 -78.9956
   -78.9949 -78.9949 -78.9948 -78.9948 -78.9921 -78.9921 -78.9921 -78.9920
   -78.9911 -78.9911 -78.9911 -78.9911 -78.9882 -78.9882 -78.9882 -78.9881
    -8.1372  -8.1372  -7.2984  -7.2984  -7.0195  -7.0195  -6.8470  -6.8470
    -6.8333  -6.8333  -6.7230  -6.7230  -6.7229  -6.7229  -6.6410  -6.6410
    -6.6230  -6.6230  -6.6230  -6.6230  -6.6177  -6.6177  -6.5891  -6.5891
    -6.5891  -6.5891  -6.5342  -6.5342  -6.5220  -6.5220  -6.5220  -6.5220
    -6.4963  -6.4963  -6.4681  -6.4681  -6.4681  -6.4681  -6.4506  -6.4506
    -6.4506  -6.4506  -6.4469  -6.4469  -6.4281  -6.4281  -6.4132  -6.4132
    -6.4132  -6.4132  -6.4006  -6.4006  -6.2986  -6.2986  -6.2857  -6.2857
    -6.2857  -6.2857  -6.2805  -6.2804  -6.2745  -6.2745  -6.2608  -6.2608
    -6.2608  -6.2608  -6.2196  -6.2196  -6.2105  -6.2105  -6.2105  -6.2105
    -6.1869  -6.1869  -6.1855  -6.1855  -6.1440  -6.1440  -6.1313  -6.1313
    -6.1059  -6.1058  -6.0924  -6.0924  -6.0727  -6.0727  -6.0727  -6.0727
    -6.0405  -6.0405  -6.0405  -6.0405  -6.0365  -6.0365  -6.0263  -6.0263
    -6.0158  -6.0158  -6.0126  -6.0126  -5.9806  -5.9806  -5.9801  -5.9801
    -5.9801  -5.9801  -5.9414  -5.9414  -5.9307  -5.9307  -5.9061  -5.9061
    -5.8985  -5.8985  -5.8528  -5.8528  -5.8528  -5.8528  -5.8080  -5.8079
    -5.7990  -5.7989  -5.7989  -5.7989  -5.7955  -5.7955  -5.7824  -5.7824
    -5.7810  -5.7810  -5.7772  -5.7772  -5.7612  -5.7612  -5.7612  -5.7612
    -5.7582  -5.7582  -5.7582  -5.7581  -5.7554  -5.7554  -5.7395  -5.7395
    -5.7395  -5.7395  -5.7293  -5.7293  -5.6694  -5.6694  -5.6677  -5.6677
    -5.6540  -5.6540  -5.6341  -5.6341  -5.6341  -5.6341  -5.6189  -5.6189
    -5.6096  -5.6096  -5.5957  -5.5957  -5.5957  -5.5957  -5.5854  -5.5854
    -5.5641  -5.5641  -5.5302  -5.5302  -5.5219  -5.5219  -5.5219  -5.5219
    -5.5152  -5.5152  -5.5149  -5.5149  -5.5143  -5.5143  -5.5143  -5.5143
    -5.4900  -5.4900  -5.4900  -5.4900  -5.4847  -5.4847  -5.4816  -5.4816
    -5.4755  -5.4755  -5.4741  -5.4741  -5.4553  -5.4553  -5.4553  -5.4553
    -5.4444  -5.4444  -5.4444  -5.4444  -5.4342  -5.4342  -5.4134  -5.4134
    -5.4045  -5.4045  -5.3994  -5.3994  -5.3994  -5.3994  -5.3984  -5.3984
    -5.3976  -5.3976  -5.3975  -5.3975  -5.3733  -5.3733  -5.3629  -5.3629
    -5.3482  -5.3482  -5.3482  -5.3482  -5.3181  -5.3181  -5.3181  -5.3181
    -5.2496  -5.2495  -5.2495  -5.2495  -5.2258  -5.2258  -5.2258  -5.2258
    -5.2220  -5.2219  -5.1977  -5.1977  -5.1949  -5.1948  -4.6918  -4.6918
    -4.4031  -4.4031  -4.4031  -4.4031  -3.7118  -3.7118  -3.1020  -3.1020
    -3.0538  -3.0538  -3.0538  -3.0538  -2.3822  -2.3822  -2.2323  -2.2323
    -1.7404  -1.7404  -1.7404  -1.7404  -0.7453  -0.7453  -0.7453  -0.7453
    -0.3182  -0.3182  -0.3182  -0.3182  -0.0829  -0.0828   0.0235   0.0235
     1.0407   1.0407   1.0571   1.0571   1.3536   1.3536   1.3832   1.3832
     1.3832   1.3832   2.2309   2.2309   2.9145   2.9145   2.9145   2.9145
     3.1098   3.1098   3.1098   3.1098   3.3296   3.3296   3.5601   3.5601
     3.8744   3.8744   3.8744   3.8744   4.0068   4.0068   4.2753   4.2753
     4.4516   4.4516   4.7562   4.7562   4.8750   4.8750   5.4934   5.4934
     5.5225   5.5225   5.7201   5.7201   5.8079   5.8079   5.9371   5.9371
     5.9371   5.9371   5.9926   5.9926   5.9926   5.9926   6.1589   6.1589
     6.1589   6.1589   6.4242   6.4242   6.5672   6.5672   6.6385   6.6385
     6.6594   6.6594   6.8443   6.8443   6.8713   6.8713   7.0306   7.0306
     7.0306   7.0306   7.5821   7.5821   7.7419   7.7419   8.0717   8.0717
     8.0911   8.0911   8.0911   8.0911   8.2880   8.2880   8.4717   8.4717
     8.4717   8.4717   8.6302   8.6302   8.6302   8.6302   8.6645   8.6646
     8.7463   8.7463   8.8103   8.8103   9.0053   9.0053   9.0053   9.0053

     occupation numbers 
     1.0000   1.0000   1.0000   1.0000   1.0000   1.0000   1.0000   1.0000
     1.0000   1.0000   1.0000   1.0000   1.0000   1.0000   1.0000   1.0000
     1.0000   1.0000   1.0000   1.0000   1.0000   1.0000   1.0000   1.0000
     1.0000   1.0000   1.0000   1.0000   1.0000   1.0000   1.0000   1.0000
     1.0000   1.0000   1.0000   1.0000   1.0000   1.0000   1.0000   1.0000
     1.0000   1.0000   1.0000   1.0000   1.0000   1.0000   1.0000   1.0000
     1.0000   1.0000   1.0000   1.0000   1.0000   1.0000   1.0000   1.0000
     1.0000   1.0000   1.0000   1.0000   1.0000   1.0000   1.0000   1.0000
     1.0000   1.0000   1.0000   1.0000   1.0000   1.0000   1.0000   1.0000
     1.0000   1.0000   1.0000   1.0000   1.0000   1.0000   1.0000   1.0000
     1.0000   1.0000   1.0000   1.0000   1.0000   1.0000   1.0000   1.0000
     1.0000   1.0000   1.0000   1.0000   1.0000   1.0000   1.0000   1.0000
     1.0000   1.0000   1.0000   1.0000   1.0000   1.0000   1.0000   1.0000
     1.0000   1.0000   1.0000   1.0000   1.0000   1.0000   1.0000   1.0000
     1.0000   1.0000   1.0000   1.0000   1.0000   1.0000   1.0000   1.0000
     1.0000   1.0000   1.0000   1.0000   1.0000   1.0000   1.0000   1.0000
     1.0000   1.0000   1.0000   1.0000   1.0000   1.0000   1.0000   1.0000
     1.0000   1.0000   1.0000   1.0000   1.0000   1.0000   1.0000   1.0000
     1.0000   1.0000   1.0000   1.0000   1.0000   1.0000   1.0000   1.0000
     1.0000   1.0000   1.0000   1.0000   1.0000   1.0000   1.0000   1.0000
     1.0000   1.0000   1.0000   1.0000   1.0000   1.0000   1.0000   1.0000
     1.0000   1.0000   1.0000   1.0000   1.0000   1.0000   1.0000   1.0000
     1.0000   1.0000   1.0000   1.0000   1.0000   1.0000   1.0000   1.0000
     1.0000   1.0000   1.0000   1.0000   1.0000   1.0000   1.0000   1.0000
     1.0000   1.0000   1.0000   1.0000   1.0000   1.0000   1.0000   1.0000
     1.0000   1.0000   1.0000   1.0000   1.0000   1.0000   1.0000   1.0000
     1.0000   1.0000   1.0000   1.0000   1.0000   1.0000   1.0000   1.0000
     1.0000   1.0000   1.0000   1.0000   1.0000   1.0000   1.0000   1.0000
     1.0000   1.0000   1.0000   1.0000   1.0000   1.0000   1.0000   1.0000
     1.0000   1.0000   1.0000   1.0000   1.0000   1.0000   1.0000   1.0000
     1.0000   1.0000   1.0000   1.0000   1.0000   1.0000   1.0000   1.0000
     1.0000   1.0000   1.0000   1.0000   1.0000   1.0000   1.0000   1.0000
     1.0000   1.0000   1.0000   1.0000   1.0000   1.0000   1.0000   1.0000
     1.0000   1.0000   1.0000   1.0000   1.0000   1.0000   1.0000   1.0000
     1.0000   1.0000   1.0000   1.0000   1.0000   1.0000   1.0000   1.0000
     1.0000   1.0000   1.0000   1.0000   1.0000   1.0000   1.0000   1.0000
     1.0000   1.0000   1.0000   1.0000   1.0000   1.0000   1.0000   1.0000
     1.0000   1.0000   1.0000   1.0000   1.0000   1.0000   1.0000   1.0000
     1.0000   1.0000   1.0000   1.0000   1.0000   1.0000   1.0000   1.0000
     1.0000   1.0000   1.0000   1.0000   1.0000   1.0000   1.0000   1.0000
     1.0000   1.0000   1.0000   1.0000   1.0000   1.0000   1.0000   1.0000
     1.0000   1.0000   1.0000   1.0000   1.0000   1.0000   1.0000   1.0000
     1.0000   1.0000   1.0000   1.0000   1.0000   1.0000   1.0000   1.0000
     1.0000   1.0000   1.0000   1.0000   1.0000   1.0000   1.0000   1.0000
     1.0000   1.0000   1.0000   1.0000   1.0000   1.0000   1.0000   1.0000
     1.0000   1.0000   1.0000   1.0000   1.0000   1.0000   1.0000   1.0000
     1.0000   1.0000   1.0000   1.0000   1.0000   1.0000   1.0000   1.0000
     1.0000   1.0000   1.0000   1.0000   1.0000   1.0000   1.0000   1.0000
     1.0000   1.0000   1.0000   1.0000   1.0000   1.0000   1.0000   1.0000
     1.0000   1.0000   1.0000   1.0000   1.0000   1.0000   1.0000   1.0000
     1.0000   1.0000   1.0000   1.0000   1.0000   1.0000   1.0000   1.0000
     1.0000   1.0000   1.0000   1.0000   1.0000   1.0000   1.0000   1.0000
     1.0000   1.0000   1.0000   1.0000   1.0000   1.0000   1.0000   1.0000
     1.0000   1.0000   1.0000   1.0000   1.0000   1.0000   1.0000   1.0000
     1.0000   1.0000   1.0000   1.0000   1.0000   1.0000   1.0000   1.0000
     1.0000   1.0000   1.0000   1.0000   1.0000   1.0000   1.0000   1.0000
     1.0000   1.0000   1.0000   1.0000   1.0000   1.0000   1.0000   1.0000
     1.0000   1.0000   1.0000   1.0000   1.0000   1.0000   1.0000   1.0000
     1.0000   1.0000   1.0000   1.0000   1.0000   1.0000   1.0000   1.0000
     1.0013   1.0013   1.0021   1.0021   0.9155   0.9155   0.7805   0.7805
     0.7805   0.7805   0.0000   0.0000   0.0000   0.0000   0.0000   0.0000
     0.0000   0.0000   0.0000   0.0000   0.0000   0.0000   0.0000   0.0000
     0.0000   0.0000   0.0000   0.0000   0.0000   0.0000   0.0000   0.0000
     0.0000   0.0000   0.0000   0.0000   0.0000   0.0000   0.0000   0.0000
     0.0000   0.0000   0.0000   0.0000   0.0000   0.0000   0.0000   0.0000
     0.0000   0.0000   0.0000   0.0000   0.0000   0.0000   0.0000   0.0000
     0.0000   0.0000   0.0000   0.0000   0.0000   0.0000   0.0000   0.0000
     0.0000   0.0000   0.0000   0.0000   0.0000   0.0000   0.0000   0.0000
     0.0000   0.0000   0.0000   0.0000   0.0000   0.0000   0.0000   0.0000
     0.0000   0.0000   0.0000   0.0000   0.0000   0.0000   0.0000   0.0000
     0.0000   0.0000   0.0000   0.0000   0.0000   0.0000   0.0000   0.0000
     0.0000   0.0000   0.0000   0.0000   0.0000   0.0000   0.0000   0.0000

          k = 0.2500 0.1443 0.0000 ( 64808 PWs)   bands (ev):

  -125.0385-125.0376-125.0372-125.0372-125.0365-125.0365-125.0363-125.0356
  -125.0356-125.0353-125.0352-125.0352-125.0352-125.0352-125.0349-125.0349
  -124.8595-124.8595-124.8586-124.8585-124.8582-124.8582-124.8581-124.8581
  -124.8575-124.8575-124.8575-124.8575-124.8573-124.8572-124.8566-124.8566
  -124.8565-124.8565-124.8563-124.8563-124.8562-124.8562-124.8562-124.8562
  -124.8562-124.8562-124.8561-124.8561-124.8559-124.8559-124.8559-124.8559
   -79.2042 -79.2042 -79.2036 -79.1996 -79.1996 -79.1987 -79.1987 -79.1968
   -79.1968 -79.1938 -79.1906 -79.1906 -79.1880 -79.1880 -79.1873 -79.1862
   -79.1858 -79.1858 -79.1850 -79.1850 -79.1847 -79.1839 -79.1839 -79.1839
   -79.1839 -79.1836 -79.1836 -79.1836 -79.1835 -79.1835 -79.1835 -79.1834
   -79.1832 -79.1832 -79.1812 -79.1812 -79.1800 -79.1790 -79.1790 -79.1779
   -79.1754 -79.1751 -79.1751 -79.1731 -79.1731 -79.1718 -79.1702 -79.1692
   -79.0221 -79.0221 -79.0220 -79.0220 -79.0215 -79.0214 -79.0175 -79.0175
   -79.0174 -79.0174 -79.0166 -79.0166 -79.0165 -79.0165 -79.0162 -79.0159
   -79.0151 -79.0150 -79.0147 -79.0147 -79.0147 -79.0147 -79.0146 -79.0146
   -79.0145 -79.0145 -79.0139 -79.0139 -79.0138 -79.0138 -79.0136 -79.0135
   -79.0129 -79.0129 -79.0128 -79.0128 -79.0126 -79.0125 -79.0125 -79.0125
   -79.0125 -79.0125 -79.0124 -79.0124 -79.0123 -79.0123 -79.0122 -79.0122
   -79.0121 -79.0121 -79.0117 -79.0117 -79.0085 -79.0085 -79.0085 -79.0085
   -79.0059 -79.0059 -79.0058 -79.0058 -79.0018 -79.0018 -79.0018 -79.0018
   -79.0015 -79.0015 -79.0015 -79.0015 -78.9992 -78.9992 -78.9991 -78.9991
   -78.9979 -78.9979 -78.9970 -78.9970 -78.9969 -78.9969 -78.9959 -78.9958
   -78.9933 -78.9933 -78.9930 -78.9930 -78.9930 -78.9930 -78.9911 -78.9911
   -78.9910 -78.9910 -78.9897 -78.9897 -78.9882 -78.9881 -78.9872 -78.9871
    -8.4851  -7.6015  -7.2943  -7.2295  -7.2295  -7.0131  -6.8713  -6.8451
    -6.8451  -6.8255  -6.8247  -6.8247  -6.6940  -6.6833  -6.6778  -6.6778
    -6.6570  -6.6569  -6.6325  -6.6325  -6.5792  -6.5686  -6.5583  -6.5583
    -6.5416  -6.5416  -6.5335  -6.5335  -6.5191  -6.5191  -6.5031  -6.4994
    -6.4994  -6.4972  -6.4972  -6.4967  -6.4967  -6.4768  -6.4768  -6.4645
    -6.4645  -6.4389  -6.4389  -6.3976  -6.3976  -6.3855  -6.3855  -6.3680
    -6.3680  -6.3611  -6.3117  -6.3072  -6.3072  -6.3037  -6.3037  -6.3013
    -6.3013  -6.2634  -6.2634  -6.2434  -6.2397  -6.2115  -6.2115  -6.2046
    -6.2046  -6.2040  -6.2040  -6.2035  -6.2035  -6.2006  -6.1935  -6.1935
    -6.1870  -6.1870  -6.1669  -6.1669  -6.1661  -6.1661  -6.1617  -6.1363
    -6.1121  -6.1121  -6.1096  -6.1085  -6.1085  -6.0865  -6.0865  -6.0831
    -6.0831  -6.0713  -6.0645  -6.0508  -6.0508  -6.0301  -6.0301  -6.0283
    -6.0283  -5.9545  -5.9545  -5.9418  -5.9418  -5.9384  -5.9347  -5.9313
    -5.9312  -5.9279  -5.9279  -5.9089  -5.9044  -5.9044  -5.9039  -5.9039
    -5.8849  -5.8849  -5.8840  -5.8715  -5.8647  -5.8602  -5.8602  -5.8530
    -5.8305  -5.8305  -5.8242  -5.8242  -5.8025  -5.7983  -5.7878  -5.7878
    -5.7829  -5.7829  -5.7749  -5.7749  -5.7641  -5.7641  -5.7634  -5.7634
    -5.7529  -5.7362  -5.7362  -5.7287  -5.7287  -5.7235  -5.7159  -5.7159
    -5.7011  -5.7009  -5.7009  -5.6995  -5.6995  -5.6919  -5.6919  -5.6825
    -5.6825  -5.6796  -5.6796  -5.6734  -5.6585  -5.6585  -5.6532  -5.6318
    -5.6285  -5.6285  -5.6228  -5.6228  -5.6110  -5.6110  -5.6100  -5.6100
    -5.6043  -5.6013  -5.5944  -5.5944  -5.5934  -5.5590  -5.5571  -5.5537
    -5.5537  -5.5460  -5.5460  -5.5410  -5.5410  -5.5377  -5.5377  -5.5317
    -5.5317  -5.5277  -5.5216  -5.5204  -5.5204  -5.5119  -5.5119  -5.5054
    -5.5054  -5.4864  -5.4864  -5.4500  -5.4492  -5.4447  -5.4447  -5.4429
    -5.4429  -5.4422  -5.4422  -5.4345  -5.4345  -5.4209  -5.4191  -5.4191
    -5.4190  -5.4128  -5.4102  -5.4058  -5.3954  -5.3954  -5.3909  -5.3909
    -5.3843  -5.3796  -5.3796  -5.3720  -5.3613  -5.3613  -5.3572  -5.3491
    -5.3374  -5.3319  -5.3319  -5.3275  -5.3050  -5.3050  -5.2951  -5.2951
    -5.2936  -5.2936  -5.2850  -5.2788  -5.2788  -5.2694  -5.2694  -5.1326
    -5.1326  -5.1256  -5.1256  -5.1197  -5.1197  -5.1019  -5.1011  -4.9356
    -4.9206  -4.6282  -4.6282  -3.8726  -3.8726  -3.4719  -3.3772  -3.3772
    -3.3571  -2.6646  -2.2925  -2.2925  -2.2047  -2.0039  -2.0039  -1.9640
    -1.9640  -1.5051  -1.5051  -1.2744  -1.2744  -1.1070  -0.7878  -0.5554
    -0.5554  -0.5537  -0.5537  -0.5450   0.0309   0.0309   0.2791   0.2791
     0.5757   0.5757   0.6411   0.8897   0.9055   0.9055   1.1913   1.1913
     1.5671   1.5671   2.2343   2.2344   2.6617   2.7099   2.7099   2.7291
     2.7902   2.7902   2.9619   2.9619   3.2250   3.5544   3.7052   3.7052
     3.9257   3.9257   4.1168   4.1932   4.1932   4.5607   4.5607   4.8111
     4.8111   4.8507   4.8507   5.1689   5.1689   5.1692   5.1692   5.1839
     5.3753   5.4303   5.4303   5.5755   5.6519   5.8003   5.8003   5.8118
     6.0860   6.1113   6.1113   6.2942   6.3118   6.3202   6.3202   6.5070
     6.5359   6.5359   6.6024   6.6024   6.7268   6.7530   6.7530   7.0195
     7.0195   7.0938   7.0938   7.1772   7.1772   7.2365   7.3208   7.3208
     7.4053   7.4209   7.4209   7.4612   7.4612   7.6630   7.6630   7.6638
     7.6638   7.6960   7.6960   7.7432   7.8525   7.8525   7.9628   7.9628
     8.0398   8.0398   8.1284   8.3131   8.3186   8.4762   8.6331   8.6331
     8.7015   8.7048   8.7048   8.8171   8.8171   8.8316   8.8316   8.8457

     occupation numbers 
     1.0000   1.0000   1.0000   1.0000   1.0000   1.0000   1.0000   1.0000
     1.0000   1.0000   1.0000   1.0000   1.0000   1.0000   1.0000   1.0000
     1.0000   1.0000   1.0000   1.0000   1.0000   1.0000   1.0000   1.0000
     1.0000   1.0000   1.0000   1.0000   1.0000   1.0000   1.0000   1.0000
     1.0000   1.0000   1.0000   1.0000   1.0000   1.0000   1.0000   1.0000
     1.0000   1.0000   1.0000   1.0000   1.0000   1.0000   1.0000   1.0000
     1.0000   1.0000   1.0000   1.0000   1.0000   1.0000   1.0000   1.0000
     1.0000   1.0000   1.0000   1.0000   1.0000   1.0000   1.0000   1.0000
     1.0000   1.0000   1.0000   1.0000   1.0000   1.0000   1.0000   1.0000
     1.0000   1.0000   1.0000   1.0000   1.0000   1.0000   1.0000   1.0000
     1.0000   1.0000   1.0000   1.0000   1.0000   1.0000   1.0000   1.0000
     1.0000   1.0000   1.0000   1.0000   1.0000   1.0000   1.0000   1.0000
     1.0000   1.0000   1.0000   1.0000   1.0000   1.0000   1.0000   1.0000
     1.0000   1.0000   1.0000   1.0000   1.0000   1.0000   1.0000   1.0000
     1.0000   1.0000   1.0000   1.0000   1.0000   1.0000   1.0000   1.0000
     1.0000   1.0000   1.0000   1.0000   1.0000   1.0000   1.0000   1.0000
     1.0000   1.0000   1.0000   1.0000   1.0000   1.0000   1.0000   1.0000
     1.0000   1.0000   1.0000   1.0000   1.0000   1.0000   1.0000   1.0000
     1.0000   1.0000   1.0000   1.0000   1.0000   1.0000   1.0000   1.0000
     1.0000   1.0000   1.0000   1.0000   1.0000   1.0000   1.0000   1.0000
     1.0000   1.0000   1.0000   1.0000   1.0000   1.0000   1.0000   1.0000
     1.0000   1.0000   1.0000   1.0000   1.0000   1.0000   1.0000   1.0000
     1.0000   1.0000   1.0000   1.0000   1.0000   1.0000   1.0000   1.0000
     1.0000   1.0000   1.0000   1.0000   1.0000   1.0000   1.0000   1.0000
     1.0000   1.0000   1.0000   1.0000   1.0000   1.0000   1.0000   1.0000
     1.0000   1.0000   1.0000   1.0000   1.0000   1.0000   1.0000   1.0000
     1.0000   1.0000   1.0000   1.0000   1.0000   1.0000   1.0000   1.0000
     1.0000   1.0000   1.0000   1.0000   1.0000   1.0000   1.0000   1.0000
     1.0000   1.0000   1.0000   1.0000   1.0000   1.0000   1.0000   1.0000
     1.0000   1.0000   1.0000   1.0000   1.0000   1.0000   1.0000   1.0000
     1.0000   1.0000   1.0000   1.0000   1.0000   1.0000   1.0000   1.0000
     1.0000   1.0000   1.0000   1.0000   1.0000   1.0000   1.0000   1.0000
     1.0000   1.0000   1.0000   1.0000   1.0000   1.0000   1.0000   1.0000
     1.0000   1.0000   1.0000   1.0000   1.0000   1.0000   1.0000   1.0000
     1.0000   1.0000   1.0000   1.0000   1.0000   1.0000   1.0000   1.0000
     1.0000   1.0000   1.0000   1.0000   1.0000   1.0000   1.0000   1.0000
     1.0000   1.0000   1.0000   1.0000   1.0000   1.0000   1.0000   1.0000
     1.0000   1.0000   1.0000   1.0000   1.0000   1.0000   1.0000   1.0000
     1.0000   1.0000   1.0000   1.0000   1.0000   1.0000   1.0000   1.0000
     1.0000   1.0000   1.0000   1.0000   1.0000   1.0000   1.0000   1.0000
     1.0000   1.0000   1.0000   1.0000   1.0000   1.0000   1.0000   1.0000
     1.0000   1.0000   1.0000   1.0000   1.0000   1.0000   1.0000   1.0000
     1.0000   1.0000   1.0000   1.0000   1.0000   1.0000   1.0000   1.0000
     1.0000   1.0000   1.0000   1.0000   1.0000   1.0000   1.0000   1.0000
     1.0000   1.0000   1.0000   1.0000   1.0000   1.0000   1.0000   1.0000
     1.0000   1.0000   1.0000   1.0000   1.0000   1.0000   1.0000   1.0000
     1.0000   1.0000   1.0000   1.0000   1.0000   1.0000   1.0000   1.0000
     1.0000   1.0000   1.0000   1.0000   1.0000   1.0000   1.0000   1.0000
     1.0000   1.0000   1.0000   1.0000   1.0000   1.0000   1.0000   1.0000
     1.0000   1.0000   1.0000   1.0000   1.0000   1.0000   1.0000   1.0000
     1.0000   1.0000   1.0000   1.0000   1.0000   1.0000   1.0000   1.0000
     1.0000   1.0000   1.0000   1.0000   1.0000   1.0000   1.0000   1.0000
     1.0000   1.0000   1.0000   1.0000   1.0000   1.0000   1.0000   1.0000
     1.0000   1.0000   1.0000   1.0000   1.0000   1.0000   1.0000   1.0000
     1.0000   1.0000   1.0000   1.0000   1.0000   1.0000   1.0000   1.0000
     1.0000   1.0000   1.0000   1.0000   1.0000   1.0000   1.0000   1.0000
     1.0000   1.0000   1.0000   1.0000   1.0000   1.0000   1.0000   1.0000
     1.0000   1.0000   1.0000   1.0000   1.0000   1.0000   1.0000   1.0000
     1.0000   1.0000   1.0000   1.0000   1.0000   1.0000   1.0000   1.0000
     1.0000   1.0000   1.0000   1.0000   1.0000   1.0000   1.0475   1.0475
     0.0521   0.0521   0.0000   0.0000   0.0000   0.0000   0.0000   0.0000
     0.0000   0.0000   0.0000   0.0000   0.0000   0.0000   0.0000   0.0000
     0.0000   0.0000   0.0000   0.0000   0.0000   0.0000   0.0000   0.0000
     0.0000   0.0000   0.0000   0.0000   0.0000   0.0000   0.0000   0.0000
     0.0000   0.0000   0.0000   0.0000   0.0000   0.0000   0.0000   0.0000
     0.0000   0.0000   0.0000   0.0000   0.0000   0.0000   0.0000   0.0000
     0.0000   0.0000   0.0000   0.0000   0.0000   0.0000   0.0000   0.0000
     0.0000   0.0000   0.0000   0.0000   0.0000   0.0000   0.0000   0.0000
     0.0000   0.0000   0.0000   0.0000   0.0000   0.0000   0.0000   0.0000
     0.0000   0.0000   0.0000   0.0000   0.0000   0.0000   0.0000   0.0000
     0.0000   0.0000   0.0000   0.0000   0.0000   0.0000   0.0000   0.0000
     0.0000   0.0000   0.0000   0.0000   0.0000   0.0000   0.0000   0.0000

          k = 0.2500 0.4330 0.0000 ( 64876 PWs)   bands (ev):

  -125.0383-125.0378-125.0378-125.0367-125.0367-125.0361-125.0359-125.0359
  -125.0356-125.0355-125.0355-125.0354-125.0351-125.0350-125.0350-125.0348
  -124.8593-124.8592-124.8588-124.8588-124.8588-124.8587-124.8577-124.8577
  -124.8576-124.8576-124.8571-124.8571-124.8569-124.8569-124.8569-124.8569
  -124.8566-124.8565-124.8565-124.8565-124.8565-124.8565-124.8564-124.8564
  -124.8561-124.8560-124.8560-124.8560-124.8559-124.8559-124.8558-124.8557
   -79.2033 -79.2016 -79.2016 -79.2011 -79.2011 -79.1989 -79.1989 -79.1969
   -79.1969 -79.1964 -79.1929 -79.1921 -79.1884 -79.1884 -79.1870 -79.1865
   -79.1865 -79.1852 -79.1852 -79.1849 -79.1849 -79.1845 -79.1843 -79.1843
   -79.1839 -79.1839 -79.1838 -79.1837 -79.1833 -79.1832 -79.1832 -79.1830
   -79.1815 -79.1797 -79.1797 -79.1783 -79.1783 -79.1783 -79.1776 -79.1776
   -79.1769 -79.1769 -79.1754 -79.1754 -79.1728 -79.1713 -79.1713 -79.1699
   -79.0211 -79.0211 -79.0195 -79.0195 -79.0194 -79.0194 -79.0190 -79.0190
   -79.0189 -79.0189 -79.0168 -79.0168 -79.0168 -79.0168 -79.0159 -79.0157
   -79.0154 -79.0153 -79.0152 -79.0152 -79.0148 -79.0148 -79.0147 -79.0147
   -79.0143 -79.0143 -79.0141 -79.0141 -79.0140 -79.0140 -79.0135 -79.0134
   -79.0133 -79.0132 -79.0132 -79.0132 -79.0129 -79.0128 -79.0128 -79.0128
   -79.0127 -79.0127 -79.0127 -79.0126 -79.0123 -79.0122 -79.0122 -79.0122
   -79.0121 -79.0121 -79.0120 -79.0119 -79.0108 -79.0107 -79.0100 -79.0099
   -79.0063 -79.0063 -79.0063 -79.0063 -79.0028 -79.0028 -79.0028 -79.0028
   -78.9995 -78.9994 -78.9977 -78.9977 -78.9976 -78.9976 -78.9963 -78.9962
   -78.9962 -78.9962 -78.9962 -78.9962 -78.9956 -78.9956 -78.9955 -78.9955
   -78.9949 -78.9948 -78.9948 -78.9948 -78.9934 -78.9934 -78.9933 -78.9933
   -78.9908 -78.9907 -78.9893 -78.9893 -78.9892 -78.9892 -78.9879 -78.9879
    -8.2513  -7.8045  -7.8045  -7.1056  -6.8977  -6.8132  -6.8132  -6.7860
    -6.7860  -6.7851  -6.7851  -6.7715  -6.7715  -6.7420  -6.7100  -6.7100
    -6.6721  -6.6721  -6.6410  -6.6410  -6.6057  -6.6028  -6.6028  -6.5781
    -6.5781  -6.5739  -6.5739  -6.5594  -6.5594  -6.5412  -6.5412  -6.5373
    -6.5133  -6.5133  -6.4837  -6.4837  -6.4596  -6.4596  -6.4544  -6.4412
    -6.4412  -6.4310  -6.4179  -6.4033  -6.4033  -6.3934  -6.3934  -6.3910
    -6.3905  -6.3905  -6.3713  -6.3619  -6.3618  -6.2961  -6.2961  -6.2922
    -6.2866  -6.2866  -6.2687  -6.2683  -6.2671  -6.2671  -6.2523  -6.2518
    -6.2518  -6.2389  -6.2389  -6.2317  -6.2258  -6.2205  -6.2205  -6.2146
    -6.2145  -6.1931  -6.1931  -6.1598  -6.1598  -6.1410  -6.1385  -6.1329
    -6.1329  -6.1261  -6.1029  -6.1029  -6.0917  -6.0916  -6.0848  -6.0790
    -6.0488  -6.0488  -6.0366  -6.0366  -6.0344  -6.0154  -6.0154  -6.0046
    -5.9867  -5.9849  -5.9845  -5.9845  -5.9751  -5.9751  -5.9655  -5.9655
    -5.9636  -5.9636  -5.9508  -5.9402  -5.9379  -5.9000  -5.8945  -5.8945
    -5.8880  -5.8874  -5.8874  -5.8816  -5.8796  -5.8796  -5.8669  -5.8592
    -5.8592  -5.8382  -5.8382  -5.8303  -5.8303  -5.8262  -5.8256  -5.8149
    -5.8149  -5.8069  -5.8069  -5.8045  -5.7899  -5.7751  -5.7751  -5.7652
    -5.7497  -5.7497  -5.7388  -5.7388  -5.7386  -5.7368  -5.6958  -5.6958
    -5.6900  -5.6900  -5.6787  -5.6787  -5.6473  -5.6458  -5.6458  -5.6435
    -5.6435  -5.6347  -5.6184  -5.6184  -5.6117  -5.6101  -5.6101  -5.5863
    -5.5863  -5.5854  -5.5790  -5.5789  -5.5723  -5.5723  -5.5722  -5.5722
    -5.5715  -5.5715  -5.5654  -5.5654  -5.5542  -5.5542  -5.5413  -5.5413
    -5.5402  -5.5384  -5.5384  -5.5319  -5.5319  -5.5316  -5.5024  -5.5024
    -5.4994  -5.4994  -5.4952  -5.4944  -5.4936  -5.4744  -5.4744  -5.4736
    -5.4736  -5.4733  -5.4619  -5.4548  -5.4548  -5.4467  -5.4467  -5.4457
    -5.4457  -5.4442  -5.4442  -5.4336  -5.4336  -5.4328  -5.4328  -5.4246
    -5.4246  -5.4169  -5.4136  -5.4136  -5.4028  -5.4028  -5.4023  -5.3945
    -5.3880  -5.3787  -5.3786  -5.3672  -5.3584  -5.3584  -5.3521  -5.3504
    -5.3499  -5.3499  -5.3287  -5.3158  -5.3158  -5.3015  -5.3015  -5.2712
    -5.2712  -5.2687  -5.2664  -5.2664  -5.2612  -5.2612  -5.2530  -5.2226
    -5.1822  -5.1822  -5.1790  -5.1790  -5.1333  -5.1333  -5.0525  -5.0525
    -4.4412  -4.2173  -4.2173  -4.0352  -4.0352  -3.2283  -3.2283  -3.1871
    -3.1371  -2.8603  -2.8603  -2.8408  -2.8408  -2.7728  -2.7728  -1.7886
    -1.7886  -1.6919  -1.6919  -1.4060  -1.4060  -0.8351  -0.4657  -0.4657
    -0.3944  -0.3944  -0.3043  -0.2341   0.3099   0.3576   0.3576   0.4338
     0.4338   0.7106   0.7106   0.7961   0.9773   0.9773   1.1045   1.4320
     1.4320   1.9838   1.9838   2.5382   2.5595   2.8381   2.9936   3.1075
     3.3427   3.3427   3.3715   3.3715   3.4485   3.4548   3.4548   3.5859
     3.5859   3.6790   3.8949   3.8949   4.3831   4.3831   4.3987   4.4336
     4.4523   4.4523   4.5841   4.5841   4.8863   4.9436   5.1453   5.1453
     5.2243   5.2243   5.4097   5.4539   5.4539   5.4690   5.4690   5.6052
     5.8609   5.8609   6.0647   6.0647   6.0944   6.1307   6.1307   6.5437
     6.5464   6.5464   6.6524   6.6538   6.6538   6.7319   6.9588   7.0058
     7.0058   7.0062   7.0062   7.0125   7.0511   7.0511   7.1810   7.1810
     7.1813   7.1813   7.2085   7.2085   7.2264   7.2264   7.4404   7.4404
     8.0894   8.2204   8.2204   8.3479   8.3690   8.3796   8.3796   8.5190
     8.5190   8.5493   8.5570   8.5916   8.5916   8.6207   8.6207   8.6676
     8.6862   8.6862   8.6991   8.7583   8.8004   8.8004   9.0092   9.0092

     occupation numbers 
     1.0000   1.0000   1.0000   1.0000   1.0000   1.0000   1.0000   1.0000
     1.0000   1.0000   1.0000   1.0000   1.0000   1.0000   1.0000   1.0000
     1.0000   1.0000   1.0000   1.0000   1.0000   1.0000   1.0000   1.0000
     1.0000   1.0000   1.0000   1.0000   1.0000   1.0000   1.0000   1.0000
     1.0000   1.0000   1.0000   1.0000   1.0000   1.0000   1.0000   1.0000
     1.0000   1.0000   1.0000   1.0000   1.0000   1.0000   1.0000   1.0000
     1.0000   1.0000   1.0000   1.0000   1.0000   1.0000   1.0000   1.0000
     1.0000   1.0000   1.0000   1.0000   1.0000   1.0000   1.0000   1.0000
     1.0000   1.0000   1.0000   1.0000   1.0000   1.0000   1.0000   1.0000
     1.0000   1.0000   1.0000   1.0000   1.0000   1.0000   1.0000   1.0000
     1.0000   1.0000   1.0000   1.0000   1.0000   1.0000   1.0000   1.0000
     1.0000   1.0000   1.0000   1.0000   1.0000   1.0000   1.0000   1.0000
     1.0000   1.0000   1.0000   1.0000   1.0000   1.0000   1.0000   1.0000
     1.0000   1.0000   1.0000   1.0000   1.0000   1.0000   1.0000   1.0000
     1.0000   1.0000   1.0000   1.0000   1.0000   1.0000   1.0000   1.0000
     1.0000   1.0000   1.0000   1.0000   1.0000   1.0000   1.0000   1.0000
     1.0000   1.0000   1.0000   1.0000   1.0000   1.0000   1.0000   1.0000
     1.0000   1.0000   1.0000   1.0000   1.0000   1.0000   1.0000   1.0000
     1.0000   1.0000   1.0000   1.0000   1.0000   1.0000   1.0000   1.0000
     1.0000   1.0000   1.0000   1.0000   1.0000   1.0000   1.0000   1.0000
     1.0000   1.0000   1.0000   1.0000   1.0000   1.0000   1.0000   1.0000
     1.0000   1.0000   1.0000   1.0000   1.0000   1.0000   1.0000   1.0000
     1.0000   1.0000   1.0000   1.0000   1.0000   1.0000   1.0000   1.0000
     1.0000   1.0000   1.0000   1.0000   1.0000   1.0000   1.0000   1.0000
     1.0000   1.0000   1.0000   1.0000   1.0000   1.0000   1.0000   1.0000
     1.0000   1.0000   1.0000   1.0000   1.0000   1.0000   1.0000   1.0000
     1.0000   1.0000   1.0000   1.0000   1.0000   1.0000   1.0000   1.0000
     1.0000   1.0000   1.0000   1.0000   1.0000   1.0000   1.0000   1.0000
     1.0000   1.0000   1.0000   1.0000   1.0000   1.0000   1.0000   1.0000
     1.0000   1.0000   1.0000   1.0000   1.0000   1.0000   1.0000   1.0000
     1.0000   1.0000   1.0000   1.0000   1.0000   1.0000   1.0000   1.0000
     1.0000   1.0000   1.0000   1.0000   1.0000   1.0000   1.0000   1.0000
     1.0000   1.0000   1.0000   1.0000   1.0000   1.0000   1.0000   1.0000
     1.0000   1.0000   1.0000   1.0000   1.0000   1.0000   1.0000   1.0000
     1.0000   1.0000   1.0000   1.0000   1.0000   1.0000   1.0000   1.0000
     1.0000   1.0000   1.0000   1.0000   1.0000   1.0000   1.0000   1.0000
     1.0000   1.0000   1.0000   1.0000   1.0000   1.0000   1.0000   1.0000
     1.0000   1.0000   1.0000   1.0000   1.0000   1.0000   1.0000   1.0000
     1.0000   1.0000   1.0000   1.0000   1.0000   1.0000   1.0000   1.0000
     1.0000   1.0000   1.0000   1.0000   1.0000   1.0000   1.0000   1.0000
     1.0000   1.0000   1.0000   1.0000   1.0000   1.0000   1.0000   1.0000
     1.0000   1.0000   1.0000   1.0000   1.0000   1.0000   1.0000   1.0000
     1.0000   1.0000   1.0000   1.0000   1.0000   1.0000   1.0000   1.0000
     1.0000   1.0000   1.0000   1.0000   1.0000   1.0000   1.0000   1.0000
     1.0000   1.0000   1.0000   1.0000   1.0000   1.0000   1.0000   1.0000
     1.0000   1.0000   1.0000   1.0000   1.0000   1.0000   1.0000   1.0000
     1.0000   1.0000   1.0000   1.0000   1.0000   1.0000   1.0000   1.0000
     1.0000   1.0000   1.0000   1.0000   1.0000   1.0000   1.0000   1.0000
     1.0000   1.0000   1.0000   1.0000   1.0000   1.0000   1.0000   1.0000
     1.0000   1.0000   1.0000   1.0000   1.0000   1.0000   1.0000   1.0000
     1.0000   1.0000   1.0000   1.0000   1.0000   1.0000   1.0000   1.0000
     1.0000   1.0000   1.0000   1.0000   1.0000   1.0000   1.0000   1.0000
     1.0000   1.0000   1.0000   1.0000   1.0000   1.0000   1.0000   1.0000
     1.0000   1.0000   1.0000   1.0000   1.0000   1.0000   1.0000   1.0000
     1.0000   1.0000   1.0000   1.0000   1.0000   1.0000   1.0000   1.0000
     1.0000   1.0000   1.0000   1.0000   1.0000   1.0000   1.0000   1.0000
     1.0000   1.0000   1.0000   1.0000   1.0000   1.0000   1.0000   1.0000
     1.0000   1.0000   1.0000   1.0000   1.0000   1.0000   1.0000   1.0000
     1.0000   1.0000   1.0000   1.0000   1.0000   1.0000   1.0000   1.0000
     1.0000   1.0000   1.0000   1.0000   1.0001   1.0001   1.0082   0.5160
     0.5160   0.0000   0.0000   0.0000   0.0000   0.0000   0.0000   0.0000
     0.0000   0.0000   0.0000   0.0000   0.0000   0.0000   0.0000   0.0000
     0.0000   0.0000   0.0000   0.0000   0.0000   0.0000   0.0000   0.0000
     0.0000   0.0000   0.0000   0.0000   0.0000   0.0000   0.0000   0.0000
     0.0000   0.0000   0.0000   0.0000   0.0000   0.0000   0.0000   0.0000
     0.0000   0.0000   0.0000   0.0000   0.0000   0.0000   0.0000   0.0000
     0.0000   0.0000   0.0000   0.0000   0.0000   0.0000   0.0000   0.0000
     0.0000   0.0000   0.0000   0.0000   0.0000   0.0000   0.0000   0.0000
     0.0000   0.0000   0.0000   0.0000   0.0000   0.0000   0.0000   0.0000
     0.0000   0.0000   0.0000   0.0000   0.0000   0.0000   0.0000   0.0000
     0.0000   0.0000   0.0000   0.0000   0.0000   0.0000   0.0000   0.0000
     0.0000   0.0000   0.0000   0.0000   0.0000   0.0000   0.0000   0.0000

          k = 0.2500-0.4330 0.0000 ( 64876 PWs)   bands (ev):

  -125.0383-125.0378-125.0378-125.0367-125.0367-125.0361-125.0359-125.0359
  -125.0356-125.0355-125.0355-125.0355-125.0351-125.0350-125.0350-125.0348
  -124.8593-124.8592-124.8588-124.8588-124.8588-124.8587-124.8577-124.8577
  -124.8576-124.8576-124.8571-124.8571-124.8569-124.8569-124.8569-124.8568
  -124.8566-124.8565-124.8565-124.8565-124.8565-124.8565-124.8564-124.8564
  -124.8561-124.8560-124.8560-124.8560-124.8559-124.8559-124.8558-124.8557
   -79.2033 -79.2016 -79.2016 -79.2011 -79.2011 -79.1990 -79.1989 -79.1969
   -79.1969 -79.1964 -79.1929 -79.1921 -79.1884 -79.1884 -79.1870 -79.1865
   -79.1865 -79.1852 -79.1852 -79.1849 -79.1849 -79.1845 -79.1843 -79.1843
   -79.1839 -79.1839 -79.1838 -79.1838 -79.1833 -79.1832 -79.1832 -79.1830
   -79.1815 -79.1797 -79.1797 -79.1783 -79.1783 -79.1783 -79.1776 -79.1776
   -79.1769 -79.1769 -79.1754 -79.1754 -79.1728 -79.1713 -79.1713 -79.1699
   -79.0211 -79.0211 -79.0195 -79.0195 -79.0194 -79.0194 -79.0190 -79.0190
   -79.0189 -79.0189 -79.0168 -79.0168 -79.0168 -79.0168 -79.0159 -79.0157
   -79.0154 -79.0154 -79.0152 -79.0152 -79.0148 -79.0148 -79.0147 -79.0147
   -79.0143 -79.0143 -79.0141 -79.0141 -79.0140 -79.0140 -79.0135 -79.0134
   -79.0133 -79.0132 -79.0132 -79.0131 -79.0129 -79.0128 -79.0128 -79.0127
   -79.0127 -79.0127 -79.0127 -79.0127 -79.0123 -79.0122 -79.0122 -79.0122
   -79.0122 -79.0121 -79.0120 -79.0119 -79.0108 -79.0107 -79.0100 -79.0099
[...]
     1.0000   1.0000   1.0000   1.0000   1.0000   1.0000   1.0000   1.0000
     1.0000   1.0000   1.0000   1.0000   1.0000   1.0000   1.0000   1.0000
     1.0000   1.0000   1.0000   1.0000   1.0000   1.0000   1.0000   1.0000
     1.0000   1.0000   1.0000   1.0000   1.0000   1.0000   1.0000   1.0000
     1.0000   1.0000   1.0000   1.0000   1.0000   1.0000   1.0000   1.0000
     1.0000   1.0000   1.0000   1.0000   1.0000   1.0000   1.0000   1.0000
     1.0000   1.0000   1.0000   1.0000   1.0000   1.0000   1.0000   1.0000
     1.0000   1.0000   1.0000   1.0000   1.0000   1.0000   1.0000   1.0000
     1.0000   1.0000   1.0000   1.0000   1.0000   1.0000   1.0000   1.0000
     1.0000   1.0000   1.0000   1.0000   1.0000   1.0000   1.0000   1.0000
     1.0000   1.0000   1.0000   1.0000   1.0000   1.0000   1.0000   1.0000
     1.0000   1.0000   1.0000   1.0000   1.0000   1.0000   1.0000   1.0000
     1.0000   1.0000   1.0000   1.0000   1.0000   1.0000   1.0000   1.0000
     1.0000   1.0000   1.0000   1.0000   1.0000   1.0000   1.0000   1.0000
     1.0000   1.0000   1.0000   1.0000   1.0000   1.0000   1.0000   1.0000
     1.0000   1.0000   1.0000   1.0000   1.0000   1.0000   1.0000   1.0000
     1.0000   1.0000   1.0000   1.0000   1.0000   1.0000   1.0000   1.0000
     1.0000   1.0000   1.0000   1.0000   1.0000   1.0000   1.0000   1.0000
     1.0000   1.0000   1.0000   1.0000   1.0000   1.0000   1.0000   1.0000
     1.0000   1.0000   1.0000   1.0000   1.0000   1.0000   1.0000   1.0000
     1.0000   1.0000   1.0000   1.0000   1.0000   1.0000   1.0000   1.0000
     1.0000   1.0000   1.0000   1.0000   1.0000   1.0000   1.0000   1.0000
     1.0000   1.0000   1.0000   1.0000   1.0000   1.0000   1.0000   1.0000
     1.0000   1.0000   1.0000   1.0000   1.0000   1.0000   1.0000   1.0000
     1.0000   1.0000   1.0000   1.0000   1.0000   1.0000   1.0000   1.0000
     1.0000   1.0000   1.0000   1.0000   1.0000   1.0000   1.0000   1.0000
     1.0000   1.0000   1.0000   1.0000   1.0000   1.0000   1.0000   1.0000
     1.0000   1.0000   1.0000   1.0000   1.0000   1.0000   1.0000   1.0000
     1.0000   1.0000   1.0000   1.0000   1.0000   1.0000   1.0000   1.0000
     1.0000   1.0000   1.0000   1.0000   1.0000   1.0000   1.0000   1.0000
     1.0000   1.0000   1.0000   1.0000   1.0000   1.0000   1.0000   1.0000
     1.0000   1.0000   1.0000   1.0000   1.0000   1.0000   1.0000   1.0000
     1.0000   1.0000   1.0000   1.0000   1.0000   1.0000   1.0000   1.0000
     1.0000   1.0000   1.0000   1.0000   1.0000   1.0000   1.0000   1.0000
     1.0000   1.0000   1.0000   1.0000   1.0000   1.0000   1.0000   1.0000
     1.0000   1.0000   1.0000   1.0000   1.0000   1.0000   1.0000   1.0000
     1.0000   1.0000   1.0000   1.0000   1.0000   1.0000   1.0000   1.0000
     1.0000   1.0000   1.0000   1.0000   1.0000   1.0000   1.0000   1.0000
     1.0000   1.0000   1.0000   1.0000   1.0000   1.0000   1.0000   1.0000
     1.0000   1.0000   1.0000   1.0000   1.0000   1.0000   1.0000   1.0000
     1.0000   1.0000   1.0000   1.0000   1.0000   1.0000   1.0000   1.0000
     1.0000   1.0000   1.0000   1.0000   1.0001   1.0001   1.0082   0.5161
     0.5160   0.0000   0.0000   0.0000   0.0000   0.0000   0.0000   0.0000
     0.0000   0.0000   0.0000   0.0000   0.0000   0.0000   0.0000   0.0000
     0.0000   0.0000   0.0000   0.0000   0.0000   0.0000   0.0000   0.0000
     0.0000   0.0000   0.0000   0.0000   0.0000   0.0000   0.0000   0.0000
     0.0000   0.0000   0.0000   0.0000   0.0000   0.0000   0.0000   0.0000
     0.0000   0.0000   0.0000   0.0000   0.0000   0.0000   0.0000   0.0000
     0.0000   0.0000   0.0000   0.0000   0.0000   0.0000   0.0000   0.0000
     0.0000   0.0000   0.0000   0.0000   0.0000   0.0000   0.0000   0.0000
     0.0000   0.0000   0.0000   0.0000   0.0000   0.0000   0.0000   0.0000
     0.0000   0.0000   0.0000   0.0000   0.0000   0.0000   0.0000   0.0000
     0.0000   0.0000   0.0000   0.0000   0.0000   0.0000   0.0000   0.0000
     0.0000   0.0000   0.0000   0.0000   0.0000   0.0000   0.0000   0.0000

          k =-0.5000-0.8660 0.0000 ( 64842 PWs)   bands (ev):

  -125.0382-125.0382-125.0373-125.0373-125.0361-125.0361-125.0361-125.0361
  -125.0357-125.0357-125.0352-125.0352-125.0352-125.0352-125.0348-125.0348
  -124.8592-124.8592-124.8591-124.8591-124.8583-124.8583-124.8582-124.8582
  -124.8571-124.8571-124.8571-124.8571-124.8570-124.8570-124.8570-124.8570
  -124.8567-124.8567-124.8567-124.8566-124.8562-124.8562-124.8562-124.8562
  -124.8561-124.8561-124.8561-124.8561-124.8558-124.8558-124.8558-124.8558
   -79.2022 -79.2022 -79.2021 -79.2021 -79.1997 -79.1997 -79.1987 -79.1986
   -79.1941 -79.1941 -79.1941 -79.1941 -79.1892 -79.1892 -79.1869 -79.1869
   -79.1859 -79.1859 -79.1845 -79.1845 -79.1845 -79.1844 -79.1840 -79.1840
   -79.1835 -79.1835 -79.1835 -79.1835 -79.1831 -79.1830 -79.1826 -79.1826
   -79.1811 -79.1811 -79.1811 -79.1811 -79.1777 -79.1777 -79.1777 -79.1777
   -79.1769 -79.1769 -79.1742 -79.1741 -79.1732 -79.1731 -79.1702 -79.1702
   -79.0200 -79.0200 -79.0200 -79.0200 -79.0200 -79.0200 -79.0200 -79.0200
   -79.0176 -79.0176 -79.0175 -79.0175 -79.0165 -79.0165 -79.0165 -79.0165
   -79.0158 -79.0157 -79.0156 -79.0155 -79.0148 -79.0148 -79.0146 -79.0146
   -79.0134 -79.0134 -79.0134 -79.0134 -79.0133 -79.0133 -79.0133 -79.0133
   -79.0130 -79.0130 -79.0129 -79.0129 -79.0125 -79.0125 -79.0125 -79.0124
   -79.0124 -79.0124 -79.0124 -79.0124 -79.0121 -79.0121 -79.0120 -79.0120
   -79.0120 -79.0120 -79.0120 -79.0120 -79.0120 -79.0120 -79.0120 -79.0120
   -79.0071 -79.0071 -79.0071 -79.0071 -79.0006 -79.0005 -79.0005 -79.0005
   -78.9990 -78.9990 -78.9990 -78.9990 -78.9990 -78.9990 -78.9990 -78.9989
   -78.9957 -78.9957 -78.9957 -78.9957 -78.9956 -78.9956 -78.9956 -78.9956
   -78.9949 -78.9949 -78.9948 -78.9948 -78.9921 -78.9921 -78.9921 -78.9920
   -78.9911 -78.9911 -78.9911 -78.9911 -78.9882 -78.9882 -78.9882 -78.9881
    -8.1372  -8.1372  -7.2984  -7.2984  -7.0195  -7.0195  -6.8470  -6.8470
    -6.8333  -6.8333  -6.7230  -6.7229  -6.7229  -6.7229  -6.6410  -6.6410
    -6.6230  -6.6230  -6.6230  -6.6230  -6.6177  -6.6177  -6.5891  -6.5891
    -6.5891  -6.5891  -6.5342  -6.5342  -6.5220  -6.5220  -6.5220  -6.5220
    -6.4963  -6.4963  -6.4681  -6.4681  -6.4681  -6.4681  -6.4506  -6.4506
    -6.4506  -6.4506  -6.4469  -6.4469  -6.4281  -6.4281  -6.4132  -6.4132
    -6.4132  -6.4132  -6.4006  -6.4006  -6.2986  -6.2986  -6.2857  -6.2857
    -6.2857  -6.2857  -6.2805  -6.2804  -6.2745  -6.2745  -6.2608  -6.2608
    -6.2608  -6.2608  -6.2196  -6.2196  -6.2105  -6.2105  -6.2105  -6.2105
    -6.1869  -6.1869  -6.1855  -6.1855  -6.1440  -6.1440  -6.1313  -6.1313
    -6.1059  -6.1059  -6.0924  -6.0924  -6.0727  -6.0727  -6.0727  -6.0727
    -6.0405  -6.0405  -6.0405  -6.0405  -6.0365  -6.0365  -6.0263  -6.0263
    -6.0158  -6.0158  -6.0126  -6.0126  -5.9806  -5.9806  -5.9801  -5.9801
    -5.9801  -5.9801  -5.9414  -5.9414  -5.9307  -5.9307  -5.9061  -5.9061
    -5.8985  -5.8985  -5.8528  -5.8528  -5.8528  -5.8528  -5.8079  -5.8079
    -5.7990  -5.7990  -5.7989  -5.7989  -5.7955  -5.7955  -5.7824  -5.7824
    -5.7810  -5.7810  -5.7772  -5.7772  -5.7612  -5.7612  -5.7612  -5.7612
    -5.7582  -5.7582  -5.7582  -5.7581  -5.7554  -5.7554  -5.7395  -5.7395
    -5.7395  -5.7395  -5.7293  -5.7293  -5.6694  -5.6694  -5.6677  -5.6677
    -5.6540  -5.6540  -5.6341  -5.6341  -5.6341  -5.6341  -5.6189  -5.6189
    -5.6096  -5.6096  -5.5957  -5.5957  -5.5957  -5.5957  -5.5854  -5.5854
    -5.5641  -5.5641  -5.5302  -5.5302  -5.5219  -5.5219  -5.5219  -5.5219
    -5.5152  -5.5152  -5.5149  -5.5149  -5.5143  -5.5143  -5.5143  -5.5143
    -5.4900  -5.4900  -5.4900  -5.4900  -5.4847  -5.4847  -5.4816  -5.4816
    -5.4755  -5.4755  -5.4741  -5.4741  -5.4553  -5.4553  -5.4553  -5.4553
    -5.4444  -5.4444  -5.4444  -5.4444  -5.4342  -5.4342  -5.4134  -5.4134
    -5.4045  -5.4045  -5.3994  -5.3994  -5.3994  -5.3994  -5.3984  -5.3984
    -5.3976  -5.3976  -5.3975  -5.3975  -5.3733  -5.3733  -5.3629  -5.3629
    -5.3482  -5.3482  -5.3482  -5.3482  -5.3181  -5.3181  -5.3181  -5.3181
    -5.2495  -5.2495  -5.2495  -5.2495  -5.2258  -5.2258  -5.2258  -5.2258
    -5.2220  -5.2219  -5.1977  -5.1977  -5.1949  -5.1948  -4.6918  -4.6918
    -4.4031  -4.4031  -4.4031  -4.4031  -3.7118  -3.7118  -3.1020  -3.1020
    -3.0538  -3.0538  -3.0538  -3.0538  -2.3822  -2.3822  -2.2323  -2.2323
    -1.7404  -1.7404  -1.7404  -1.7404  -0.7453  -0.7453  -0.7453  -0.7453
    -0.3182  -0.3182  -0.3182  -0.3182  -0.0828  -0.0828   0.0235   0.0235
     1.0407   1.0407   1.0571   1.0571   1.3536   1.3536   1.3832   1.3832
     1.3832   1.3832   2.2309   2.2309   2.9145   2.9145   2.9145   2.9145
     3.1098   3.1098   3.1098   3.1098   3.3296   3.3296   3.5601   3.5601
     3.8744   3.8744   3.8744   3.8744   4.0068   4.0068   4.2753   4.2753
     4.4516   4.4516   4.7562   4.7562   4.8750   4.8750   5.4934   5.4934
     5.5225   5.5225   5.7201   5.7201   5.8079   5.8079   5.9371   5.9371
     5.9371   5.9371   5.9926   5.9926   5.9926   5.9926   6.1589   6.1589
     6.1589   6.1589   6.4242   6.4242   6.5672   6.5672   6.6385   6.6385
     6.6594   6.6594   6.8443   6.8443   6.8713   6.8713   7.0306   7.0306
     7.0306   7.0306   7.5821   7.5821   7.7419   7.7419   8.0717   8.0717
     8.0911   8.0911   8.0911   8.0911   8.2880   8.2880   8.4717   8.4717
     8.4717   8.4717   8.6302   8.6302   8.6302   8.6302   8.6645   8.6645
     8.7463   8.7463   8.8103   8.8103   9.0053   9.0053   9.0053   9.0053

     occupation numbers 
     1.0000   1.0000   1.0000   1.0000   1.0000   1.0000   1.0000   1.0000
     1.0000   1.0000   1.0000   1.0000   1.0000   1.0000   1.0000   1.0000
     1.0000   1.0000   1.0000   1.0000   1.0000   1.0000   1.0000   1.0000
     1.0000   1.0000   1.0000   1.0000   1.0000   1.0000   1.0000   1.0000
     1.0000   1.0000   1.0000   1.0000   1.0000   1.0000   1.0000   1.0000
     1.0000   1.0000   1.0000   1.0000   1.0000   1.0000   1.0000   1.0000
     1.0000   1.0000   1.0000   1.0000   1.0000   1.0000   1.0000   1.0000
     1.0000   1.0000   1.0000   1.0000   1.0000   1.0000   1.0000   1.0000
     1.0000   1.0000   1.0000   1.0000   1.0000   1.0000   1.0000   1.0000
     1.0000   1.0000   1.0000   1.0000   1.0000   1.0000   1.0000   1.0000
     1.0000   1.0000   1.0000   1.0000   1.0000   1.0000   1.0000   1.0000
     1.0000   1.0000   1.0000   1.0000   1.0000   1.0000   1.0000   1.0000
     1.0000   1.0000   1.0000   1.0000   1.0000   1.0000   1.0000   1.0000
     1.0000   1.0000   1.0000   1.0000   1.0000   1.0000   1.0000   1.0000
     1.0000   1.0000   1.0000   1.0000   1.0000   1.0000   1.0000   1.0000
     1.0000   1.0000   1.0000   1.0000   1.0000   1.0000   1.0000   1.0000
     1.0000   1.0000   1.0000   1.0000   1.0000   1.0000   1.0000   1.0000
     1.0000   1.0000   1.0000   1.0000   1.0000   1.0000   1.0000   1.0000
     1.0000   1.0000   1.0000   1.0000   1.0000   1.0000   1.0000   1.0000
     1.0000   1.0000   1.0000   1.0000   1.0000   1.0000   1.0000   1.0000
     1.0000   1.0000   1.0000   1.0000   1.0000   1.0000   1.0000   1.0000
     1.0000   1.0000   1.0000   1.0000   1.0000   1.0000   1.0000   1.0000
     1.0000   1.0000   1.0000   1.0000   1.0000   1.0000   1.0000   1.0000
     1.0000   1.0000   1.0000   1.0000   1.0000   1.0000   1.0000   1.0000
     1.0000   1.0000   1.0000   1.0000   1.0000   1.0000   1.0000   1.0000
     1.0000   1.0000   1.0000   1.0000   1.0000   1.0000   1.0000   1.0000
     1.0000   1.0000   1.0000   1.0000   1.0000   1.0000   1.0000   1.0000
     1.0000   1.0000   1.0000   1.0000   1.0000   1.0000   1.0000   1.0000
     1.0000   1.0000   1.0000   1.0000   1.0000   1.0000   1.0000   1.0000
     1.0000   1.0000   1.0000   1.0000   1.0000   1.0000   1.0000   1.0000
     1.0000   1.0000   1.0000   1.0000   1.0000   1.0000   1.0000   1.0000
     1.0000   1.0000   1.0000   1.0000   1.0000   1.0000   1.0000   1.0000
     1.0000   1.0000   1.0000   1.0000   1.0000   1.0000   1.0000   1.0000
     1.0000   1.0000   1.0000   1.0000   1.0000   1.0000   1.0000   1.0000
     1.0000   1.0000   1.0000   1.0000   1.0000   1.0000   1.0000   1.0000
     1.0000   1.0000   1.0000   1.0000   1.0000   1.0000   1.0000   1.0000
     1.0000   1.0000   1.0000   1.0000   1.0000   1.0000   1.0000   1.0000
     1.0000   1.0000   1.0000   1.0000   1.0000   1.0000   1.0000   1.0000
     1.0000   1.0000   1.0000   1.0000   1.0000   1.0000   1.0000   1.0000
     1.0000   1.0000   1.0000   1.0000   1.0000   1.0000   1.0000   1.0000
     1.0000   1.0000   1.0000   1.0000   1.0000   1.0000   1.0000   1.0000
     1.0000   1.0000   1.0000   1.0000   1.0000   1.0000   1.0000   1.0000
     1.0000   1.0000   1.0000   1.0000   1.0000   1.0000   1.0000   1.0000
     1.0000   1.0000   1.0000   1.0000   1.0000   1.0000   1.0000   1.0000
     1.0000   1.0000   1.0000   1.0000   1.0000   1.0000   1.0000   1.0000
     1.0000   1.0000   1.0000   1.0000   1.0000   1.0000   1.0000   1.0000
     1.0000   1.0000   1.0000   1.0000   1.0000   1.0000   1.0000   1.0000
     1.0000   1.0000   1.0000   1.0000   1.0000   1.0000   1.0000   1.0000
     1.0000   1.0000   1.0000   1.0000   1.0000   1.0000   1.0000   1.0000
     1.0000   1.0000   1.0000   1.0000   1.0000   1.0000   1.0000   1.0000
     1.0000   1.0000   1.0000   1.0000   1.0000   1.0000   1.0000   1.0000
     1.0000   1.0000   1.0000   1.0000   1.0000   1.0000   1.0000   1.0000
     1.0000   1.0000   1.0000   1.0000   1.0000   1.0000   1.0000   1.0000
     1.0000   1.0000   1.0000   1.0000   1.0000   1.0000   1.0000   1.0000
     1.0000   1.0000   1.0000   1.0000   1.0000   1.0000   1.0000   1.0000
     1.0000   1.0000   1.0000   1.0000   1.0000   1.0000   1.0000   1.0000
     1.0000   1.0000   1.0000   1.0000   1.0000   1.0000   1.0000   1.0000
     1.0000   1.0000   1.0000   1.0000   1.0000   1.0000   1.0000   1.0000
     1.0000   1.0000   1.0000   1.0000   1.0000   1.0000   1.0000   1.0000
     1.0013   1.0013   1.0021   1.0021   0.9155   0.9155   0.7805   0.7805
     0.7805   0.7805   0.0000   0.0000   0.0000   0.0000   0.0000   0.0000
     0.0000   0.0000   0.0000   0.0000   0.0000   0.0000   0.0000   0.0000
     0.0000   0.0000   0.0000   0.0000   0.0000   0.0000   0.0000   0.0000
     0.0000   0.0000   0.0000   0.0000   0.0000   0.0000   0.0000   0.0000
     0.0000   0.0000   0.0000   0.0000   0.0000   0.0000   0.0000   0.0000
     0.0000   0.0000   0.0000   0.0000   0.0000   0.0000   0.0000   0.0000
     0.0000   0.0000   0.0000   0.0000   0.0000   0.0000   0.0000   0.0000
     0.0000   0.0000   0.0000   0.0000   0.0000   0.0000   0.0000   0.0000
     0.0000   0.0000   0.0000   0.0000   0.0000   0.0000   0.0000   0.0000
     0.0000   0.0000   0.0000   0.0000   0.0000   0.0000   0.0000   0.0000
     0.0000   0.0000   0.0000   0.0000   0.0000   0.0000   0.0000   0.0000
     0.0000   0.0000   0.0000   0.0000   0.0000   0.0000   0.0000   0.0000

     the Fermi energy is     1.4539 ev

!    total energy              =  -22154.25365463 Ry
     estimated scf accuracy    <       0.00000048 Ry
     smearing contrib. (-TS)   =      -0.00326887 Ry
     internal energy E=F+TS    =  -22154.25038576 Ry

     The total energy is F=E-TS. E is the sum of the following terms:
     one-electron contribution = -144866.28687648 Ry
     hartree contribution      =   72366.94571005 Ry
     xc contribution           =   -2024.15716302 Ry
     ewald contribution        =   52369.24794370 Ry

     convergence has been achieved in  11 iterations

     Writing all to output data dir ./tmp/Zn002.save/ :
     XML data file, charge density, pseudopotentials, collected wavefunctions

     init_run     :    115.58s CPU    116.36s WALL (       1 calls)
     electrons    :   5075.67s CPU   5111.01s WALL (       1 calls)

     Called by init_run:
     wfcinit      :    114.28s CPU    115.00s WALL (       1 calls)
     wfcinit:atom :      0.09s CPU      0.15s WALL (      10 calls)
     wfcinit:wfcr :    113.14s CPU    113.71s WALL (      10 calls)
     potinit      :      0.07s CPU      0.09s WALL (       1 calls)
     hinit0       :      0.04s CPU      0.04s WALL (       1 calls)

     Called by electrons:
     c_bands      :   4728.11s CPU   4761.19s WALL (      12 calls)
     sum_band     :    336.84s CPU    338.72s WALL (      12 calls)
     v_of_rho     :      0.83s CPU      0.86s WALL (      12 calls)
     v_h          :      0.06s CPU      0.06s WALL (      12 calls)
     v_xc         :      0.77s CPU      0.80s WALL (      12 calls)
     newd         :     10.63s CPU     10.93s WALL (      12 calls)
     mix_rho      :      0.10s CPU      0.11s WALL (      12 calls)

     Called by c_bands:
     init_us_2    :      5.19s CPU      5.22s WALL (     250 calls)
     cegterg      :   4718.07s CPU   4751.02s WALL (     120 calls)

     Called by sum_band:
     sum_band:wei :      0.05s CPU      0.05s WALL (      12 calls)
     sum_band:loo :    325.65s CPU    327.22s WALL (      12 calls)
     sum_band:buf :      1.03s CPU      1.04s WALL (     120 calls)
     sum_band:ini :      2.49s CPU      2.50s WALL (     120 calls)
     sum_band:cal :    278.75s CPU    279.99s WALL (     120 calls)
     sum_band:bec :      2.44s CPU      2.44s WALL (     120 calls)
     addusdens    :     10.70s CPU     11.00s WALL (      12 calls)
                                        0.00s GPU  (      12 calls)
     addusd:skk   :      0.11s CPU      0.12s WALL (      12 calls)
                                        0.00s GPU  (      12 calls)

     Called by *egterg:
     cdiaghg      :    300.58s CPU    312.06s WALL (     686 calls)
     cegterg:over :    746.27s CPU    748.66s WALL (     576 calls)
     cegterg:upda :    327.59s CPU    329.53s WALL (     576 calls)
     cegterg:last :   1127.92s CPU   1134.84s WALL (     237 calls)
     cdiaghg:chol :     18.98s CPU     19.03s WALL (     686 calls)
     cdiaghg:inve :      3.03s CPU      3.04s WALL (     686 calls)
     cdiaghg:para :     77.84s CPU     79.39s WALL (    1372 calls)
     h_psi        :   1473.19s CPU   1479.98s WALL (     706 calls)
     s_psi        :    611.80s CPU    613.25s WALL (     706 calls)
     g_psi        :      0.64s CPU      0.64s WALL (     576 calls)

     Called by h_psi:
     h_psi:calbec :    666.82s CPU    669.77s WALL (     706 calls)
     vloc_psi     :    185.29s CPU    186.59s WALL (     706 calls)
     add_vuspsi   :    619.03s CPU    620.51s WALL (     706 calls)

     General routines
     calbec       :    945.56s CPU    949.75s WALL (     826 calls)
     fft          :      0.78s CPU      0.85s WALL (     154 calls)
     ffts         :      0.02s CPU      0.03s WALL (      24 calls)
     fftw         :    196.81s CPU    198.17s WALL (  399186 calls)
     interpolate  :      0.05s CPU      0.06s WALL (      12 calls)

     Parallel routines

     PWSCF        :      1h26m CPU      1h27m WALL


   This run was terminated on:  16:46:31  26Mar2025            

=------------------------------------------------------------------------------=
   JOB DONE.
=------------------------------------------------------------------------------=
Note: The following floating-point exceptions are signalling: IEEE_DENORMAL
Note: The following floating-point exceptions are signalling: IEEE_DENORMAL
Note: The following floating-point exceptions are signalling: IEEE_DENORMAL
Note: The following floating-point exceptions are signalling: IEEE_DENORMAL
Note: The following floating-point exceptions are signalling: IEEE_DENORMAL
Note: The following floating-point exceptions are signalling: IEEE_DENORMAL
Note: The following floating-point exceptions are signalling: IEEE_DENORMAL
Note: The following floating-point exceptions are signalling: IEEE_DENORMAL
Note: The following floating-point exceptions are signalling: IEEE_DENORMAL
Note: The following floating-point exceptions are signalling: IEEE_DENORMAL
Note: The following floating-point exceptions are signalling: IEEE_DENORMAL
