[Molden Format]
[Title]
 Molden file created by orca_2mkl for BaseName=4nitroaniline_3

[Atoms] AU
O    1   8          5.1420583378         2.0470224743        -0.0002854114 
O    2   8          5.1420949294        -2.0470306815        -0.0007791095 
N    3   7          4.0636157637        -0.0000412676        -0.0003011171 
N    4   7         -6.5659254153         0.0000105449         0.0024279943 
C    5   6          1.3049104320        -0.0000034962         0.0001685008 
C    6   6         -3.9880421608        -0.0000002229         0.0008317805 
C    7   6          0.0006332710         2.2982855180         0.0006394293 
C    8   6          0.0006351012        -2.2982896500         0.0000115915 
C    9   6         -2.6188694032         2.2985884774         0.0009538857 
C   10   6         -2.6188710031        -2.2985870157         0.0003267059 
H   11   1          1.0754701572         4.0545612570         0.0006706317 
H   12   1          1.0754853003        -4.0545603322        -0.0004291424 
H   13   1         -3.6454307207         4.0909134543         0.0013824690 
H   14   1         -3.6454437708        -4.0909060889         0.0002589433 
H   15   1         -7.5478115293         1.6354910845        -0.0057449354 
H   16   1         -7.5478357119        -1.6354540554        -0.0061793397 
[GTO]
  1 0 
s   5 1.0  
     2266.1767785000        -0.0053893504 
      340.8701019100        -0.0402347214 
       77.3631351670        -0.1800818421 
       21.4796449400        -0.4682885766 
        6.6589433124        -0.4469261716 
s   1 1.0  
        0.8097597567         1.0000000000 
s   1 1.0  
        0.2553077223         0.9999999999 
p   3 1.0  
       17.7215043170         0.0626302488 
        3.8635505440         0.3333113849 
        1.0480920883         0.7414863830 
p   1 1.0  
        0.2764154441         1.0000000002 
d   1 1.0  
        1.2000000000         1.0000000000 

  2 0 
s   5 1.0  
     2266.1767785000        -0.0053893504 
      340.8701019100        -0.0402347214 
       77.3631351670        -0.1800818421 
       21.4796449400        -0.4682885766 
        6.6589433124        -0.4469261716 
s   1 1.0  
        0.8097597567         1.0000000000 
s   1 1.0  
        0.2553077223         0.9999999999 
p   3 1.0  
       17.7215043170         0.0626302488 
        3.8635505440         0.3333113849 
        1.0480920883         0.7414863830 
p   1 1.0  
        0.2764154441         1.0000000002 
d   1 1.0  
        1.2000000000         1.0000000000 

  3 0 
s   5 1.0  
     1712.8415853000        -0.0054477996 
      257.6481267700        -0.0406271746 
       58.4582458530        -0.1811196225 
       16.1983679050        -0.4684397556 
        5.0052600809        -0.4461684629 
s   1 1.0  
        0.5873185657         1.0000000000 
s   1 1.0  
        0.1876459225         0.9999999999 
p   3 1.0  
       13.5714702330        -0.0588481170 
        2.9257372874        -0.3202462476 
        0.7992775075        -0.7532822652 
p   1 1.0  
        0.2195434803         0.9999999998 
d   1 1.0  
        1.0000000000         1.0000000000 

  4 0 
s   5 1.0  
     1712.8415853000        -0.0054477996 
      257.6481267700        -0.0406271746 
       58.4582458530        -0.1811196225 
       16.1983679050        -0.4684397556 
        5.0052600809        -0.4461684629 
s   1 1.0  
        0.5873185657         1.0000000000 
s   1 1.0  
        0.1876459225         0.9999999999 
p   3 1.0  
       13.5714702330        -0.0588481170 
        2.9257372874        -0.3202462476 
        0.7992775075        -0.7532822652 
p   1 1.0  
        0.2195434803         0.9999999998 
d   1 1.0  
        1.0000000000         1.0000000000 

  5 0 
s   5 1.0  
     1238.4016938000         0.0055173650 
      186.2900499200         0.0410888285 
       42.2511763460         0.1822538213 
       11.6765579320         0.4682845944 
        3.5930506482         0.4457581733 
s   1 1.0  
        0.4024514736         0.9999999999 
s   1 1.0  
        0.1309018267         1.0000000001 
p   3 1.0  
        9.4680970621         0.0568883320 
        2.0103545142         0.3129405934 
        0.5477100471         0.7606501651 
p   1 1.0  
        0.1526861379         0.9999999997 
d   1 1.0  
        0.8000000000         1.0000000000 

  6 0 
s   5 1.0  
     1238.4016938000         0.0055173650 
      186.2900499200         0.0410888285 
       42.2511763460         0.1822538213 
       11.6765579320         0.4682845944 
        3.5930506482         0.4457581733 
s   1 1.0  
        0.4024514736         0.9999999999 
s   1 1.0  
        0.1309018267         1.0000000001 
p   3 1.0  
        9.4680970621         0.0568883320 
        2.0103545142         0.3129405934 
        0.5477100471         0.7606501651 
p   1 1.0  
        0.1526861379         0.9999999997 
d   1 1.0  
        0.8000000000         1.0000000000 

  7 0 
s   5 1.0  
     1238.4016938000         0.0055173650 
      186.2900499200         0.0410888285 
       42.2511763460         0.1822538213 
       11.6765579320         0.4682845944 
        3.5930506482         0.4457581733 
s   1 1.0  
        0.4024514736         0.9999999999 
s   1 1.0  
        0.1309018267         1.0000000001 
p   3 1.0  
        9.4680970621         0.0568883320 
        2.0103545142         0.3129405934 
        0.5477100471         0.7606501651 
p   1 1.0  
        0.1526861379         0.9999999997 
d   1 1.0  
        0.8000000000         1.0000000000 

  8 0 
s   5 1.0  
     1238.4016938000         0.0055173650 
      186.2900499200         0.0410888285 
       42.2511763460         0.1822538213 
       11.6765579320         0.4682845944 
        3.5930506482         0.4457581733 
s   1 1.0  
        0.4024514736         0.9999999999 
s   1 1.0  
        0.1309018267         1.0000000001 
p   3 1.0  
        9.4680970621         0.0568883320 
        2.0103545142         0.3129405934 
        0.5477100471         0.7606501651 
p   1 1.0  
        0.1526861379         0.9999999997 
d   1 1.0  
        0.8000000000         1.0000000000 

  9 0 
s   5 1.0  
     1238.4016938000         0.0055173650 
      186.2900499200         0.0410888285 
       42.2511763460         0.1822538213 
       11.6765579320         0.4682845944 
        3.5930506482         0.4457581733 
s   1 1.0  
        0.4024514736         0.9999999999 
s   1 1.0  
        0.1309018267         1.0000000001 
p   3 1.0  
        9.4680970621         0.0568883320 
        2.0103545142         0.3129405934 
        0.5477100471         0.7606501651 
p   1 1.0  
        0.1526861379         0.9999999997 
d   1 1.0  
        0.8000000000         1.0000000000 

 10 0 
s   5 1.0  
     1238.4016938000         0.0055173650 
      186.2900499200         0.0410888285 
       42.2511763460         0.1822538213 
       11.6765579320         0.4682845944 
        3.5930506482         0.4457581733 
s   1 1.0  
        0.4024514736         0.9999999999 
s   1 1.0  
        0.1309018267         1.0000000001 
p   3 1.0  
        9.4680970621         0.0568883320 
        2.0103545142         0.3129405934 
        0.5477100471         0.7606501651 
p   1 1.0  
        0.1526861379         0.9999999997 
d   1 1.0  
        0.8000000000         1.0000000000 

 11 0 
s   3 1.0  
       13.0107010000         0.0334854848 
        1.9622572000         0.2347218709 
        0.4445379600         0.8137702852 
s   1 1.0  
        0.1219496200         0.9999999999 
p   1 1.0  
        0.8000000000         1.0000000000 

 12 0 
s   3 1.0  
       13.0107010000         0.0334854848 
        1.9622572000         0.2347218709 
        0.4445379600         0.8137702852 
s   1 1.0  
        0.1219496200         0.9999999999 
p   1 1.0  
        0.8000000000         1.0000000000 

 13 0 
s   3 1.0  
       13.0107010000         0.0334854848 
        1.9622572000         0.2347218709 
        0.4445379600         0.8137702852 
s   1 1.0  
        0.1219496200         0.9999999999 
p   1 1.0  
        0.8000000000         1.0000000000 

 14 0 
s   3 1.0  
       13.0107010000         0.0334854848 
        1.9622572000         0.2347218709 
        0.4445379600         0.8137702852 
s   1 1.0  
        0.1219496200         0.9999999999 
p   1 1.0  
        0.8000000000         1.0000000000 

 15 0 
s   3 1.0  
       13.0107010000         0.0334854848 
        1.9622572000         0.2347218709 
        0.4445379600         0.8137702852 
s   1 1.0  
        0.1219496200         0.9999999999 
p   1 1.0  
        0.8000000000         1.0000000000 

 16 0 
s   3 1.0  
       13.0107010000         0.0334854848 
        1.9622572000         0.2347218709 
        0.4445379600         0.8137702852 
s   1 1.0  
        0.1219496200         0.9999999999 
p   1 1.0  
        0.8000000000         1.0000000000 

[5D]
[9G]
[MO]
 Sym=     1a
 Ene= -1.91402476238581E+01
 Spin= Alpha
 Occup= 2.000000
  1      -0.320733548176
  2       0.013427578368
  3      -0.011635331552
  4      -0.000434358076
  5      -0.000972009012
  6      -0.000000024655
  7       0.003268903794
  8       0.002797610314
  9      -0.000000379877
 10       0.000151773083
 11       0.000000122783
 12       0.000000061526
 13      -0.000409587036
 14      -0.000190524633
 15       0.935330765949
 16      -0.038878877107
 17       0.031443359843
 18       0.001463592514
 19      -0.002321617412
 20      -0.000000575806
 21      -0.005910795165
 22       0.008432023508
 23       0.000002222598
 24      -0.000092119728
 25      -0.000000074336
 26       0.000000011159
 27       0.000183914097
 28      -0.000073044345
 29       0.000207164504
 30       0.000752929069
 31      -0.010739677829
 32      -0.000391603528
 33       0.001421523859
 34       0.000000262761
 35      -0.003105663688
 36       0.015718531343
 37       0.000002651377
 38      -0.000295917841
 39      -0.000000178518
 40       0.000000397858
 41      -0.000464095143
 42      -0.001363372655
 43       0.000010102004
 44       0.000129169953
 45      -0.000076325560
 46      -0.000039691226
 47       0.000017553328
 48      -0.000000009914
 49      -0.000318366922
 50      -0.000551226355
 51      -0.000000594678
 52       0.000022744415
 53       0.000000121671
 54       0.000000041371
 55      -0.000020523876
 56      -0.000030255554
 57      -0.000026278386
 58       0.000126362381
 59       0.006207206383
 60       0.000098204652
 61      -0.000396781403
 62      -0.000000059346
 63      -0.000319708120
 64      -0.010472029048
 65      -0.000001496931
 66       0.000001328452
 67      -0.000000087004
 68       0.000000113447
 69       0.000022892926
 70      -0.000632694096
 71       0.000007535196
 72      -0.000153349548
 73       0.000135618537
 74      -0.000053189275
 75      -0.000111689328
 76       0.000000031020
 77       0.000348585270
 78       0.005146216984
 79       0.000000943893
 80      -0.000006085756
 81      -0.000000045201
 82       0.000000036734
 83       0.000031963321
 84       0.000015969710
 85      -0.000008988709
 86       0.000597563504
 87       0.000929428976
 88      -0.000062221121
 89      -0.000041922776
 90       0.000000032218
 91       0.003576094705
 92      -0.002098406261
 93      -0.000000775625
 94       0.000146502954
 95       0.000000041692
 96      -0.000000038841
 97       0.000043354396
 98      -0.000020812813
 99      -0.000040261660
100       0.000008294577
101      -0.000034716181
102       0.000473339854
103       0.000062071380
104      -0.000000083456
105      -0.010150725231
106      -0.005620477610
107       0.000000670757
108      -0.000113729263
109      -0.000000077925
110       0.000000014840
111       0.000196357993
112      -0.000082735246
113       0.000000397151
114      -0.000015785633
115      -0.000917642417
116       0.000039895969
117       0.000030517847
118      -0.000000061069
119       0.003346204616
120       0.001965267809
121      -0.000000034978
122       0.000000347714
123      -0.000000004650
124       0.000000020277
125      -0.000006043509
126      -0.000037505510
127       0.000025560860
128      -0.000095084185
129      -0.005884228010
130      -0.000055952461
131      -0.000010902564
132       0.000000085917
133      -0.007222733722
134       0.003001453319
135       0.000000900634
136       0.000118452527
137       0.000000035592
138      -0.000000019439
139      -0.000088653086
140       0.000020132775
141      -0.000040260667
142       0.000677172209
143      -0.000060153529
144      -0.000114219102
145       0.000000001346
146       0.000440095919
147      -0.001605853674
148       0.000401281925
149      -0.000021831219
150      -0.000000073428
151       0.000048839001
152      -0.000008065676
153      -0.000119965133
154      -0.000043405682
155      -0.000000001261
156       0.000045160010
157       0.000437352314
158       0.000249305695
159      -0.000130708431
160      -0.000000020942
161      -0.000001803700
162       0.000126745685
163       0.000016477944
164       0.000019667040
165       0.000000315582
166      -0.000060056742
167      -0.000340888671
168      -0.000018515686
169      -0.000026463523
170      -0.000000730491
 Sym=     1a
 Ene= -1.91401992877131E+01
 Spin= Alpha
 Occup= 2.000000
  1       0.935344599236
  2      -0.038804808435
  3       0.030778605311
  4       0.001515942322
  5       0.002184791327
  6      -0.000000053697
  7      -0.004944837135
  8      -0.008504622205
  9      -0.000000010917
 10       0.000001222856
 11       0.000000017860
 12       0.000000026261
 13      -0.000085495777
 14      -0.000055496992
 15       0.320773814608
 16      -0.013212385125
 17       0.009703034534
 18       0.000587402350
 19      -0.000573338604
 20      -0.000000183925
 21      -0.000453963310
 22       0.003010786346
 23       0.000000402899
 24       0.000120595343
 25       0.000000154747
 26      -0.000000023630
 27      -0.000375865109
 28       0.000184456237
 29       0.000423347543
 30       0.001538772722
 31      -0.021947414958
 32      -0.000800183817
 33      -0.000695362852
 34       0.000000102302
 35      -0.006346775834
 36      -0.007689458445
 37       0.000000569710
 38      -0.000604697075
 39       0.000000052474
 40       0.000000105170
 41      -0.000948538234
 42       0.000667010170
 43       0.000020665595
 44       0.000264328295
 45      -0.000158266498
 46      -0.000081187878
 47      -0.000008619002
 48      -0.000000025428
 49      -0.000651834000
 50       0.000268961769
 51      -0.000001026158
 52       0.000046528834
 53       0.000000258817
 54      -0.000000026003
 55      -0.000041997302
 56       0.000014837868
 57      -0.000053719111
 58       0.000258534256
 59       0.012687464401
 60       0.000200900278
 61       0.000194205841
 62      -0.000000013313
 63      -0.000654479025
 64       0.005120876681
 65       0.000000488268
 66       0.000002755672
 67       0.000000016418
 68      -0.000000053208
 69       0.000046823425
 70       0.000309503047
 71       0.000015366558
 72      -0.000313062507
 73       0.000276798753
 74      -0.000108710552
 75       0.000054595904
 76       0.000000100710
 77       0.000709719866
 78      -0.002515640447
 79       0.000000170764
 80      -0.000012468021
 81      -0.000000097339
 82      -0.000000023666
 83       0.000065405325
 84      -0.000007800097
 85      -0.000057983541
 86       0.000474997013
 87       0.000679129299
 88       0.000551225755
 89      -0.000111199967
 90      -0.000000117871
 91      -0.010076171080
 92       0.005486945354
 93       0.000002263034
 94      -0.000030172869
 95      -0.000000034934
 96      -0.000000049302
 97       0.000282432314
 98       0.000088566343
 99      -0.000042669476
100       0.000763224260
101       0.001147153195
102       0.000289160394
103       0.000101328838
104      -0.000000006095
105      -0.003361738674
106      -0.001712539333
107       0.000000276227
108       0.000097175298
109       0.000000002532
110      -0.000000039063
111       0.000207463234
112      -0.000037919494
113       0.000032682826
114      -0.000132646404
115      -0.008166498025
116      -0.000039893943
117       0.000037528169
118       0.000000073360
119      -0.006545778369
120      -0.002273816034
121       0.000000028133
122       0.000150315079
123       0.000000031401
124      -0.000000000995
125      -0.000117021249
126      -0.000054687906
127       0.000020355444
128      -0.000093799645
129      -0.005733435254
130       0.000007030034
131      -0.000047116192
132      -0.000000020065
133      -0.001376378559
134      -0.000154237800
135      -0.000000030419
136       0.000092487919
137       0.000000035789
138      -0.000000038565
139      -0.000076549596
140       0.000063165962
141       0.000526146502
142      -0.001507472910
143       0.000461469432
144      -0.000061146654
145      -0.000000087172
146       0.000291075554
147      -0.000390417916
148       0.000235765166
149       0.000127733193
150      -0.000000013675
151       0.000095261900
152       0.000547890189
153       0.000222493336
154       0.000131822962
155       0.000000022322
156       0.000097077493
157       0.000329965721
158       0.000041872867
159      -0.000046662592
160      -0.000000002701
161      -0.000077262567
162      -0.000333154642
163      -0.000010553448
164       0.000048809783
165      -0.000000671657
166      -0.000049160551
167      -0.000104700347
168       0.000006490706
169      -0.000045554241
170      -0.000000176645
 Sym=     1a
 Ene= -1.45390524794152E+01
 Spin= Alpha
 Occup= 2.000000
  1      -0.000225909202
  2      -0.000399178470
  3      -0.002141188811
  4       0.000580462787
  5       0.001295418520
  6       0.000000028656
  7       0.000615513645
  8       0.003223394401
  9       0.000000210277
 10       0.001193259739
 11       0.000000020340
 12      -0.000000083794
 13       0.001193973445
 14      -0.001352800655
 15      -0.000225905541
 16      -0.000399199982
 17      -0.002143724422
 18       0.000580609167
 19      -0.001295589186
 20      -0.000000281431
 21       0.000616264386
 22      -0.003224428468
 23      -0.000000573121
 24       0.001193293064
 25       0.000000347517
 26      -0.000000703419
 27       0.001193912737
 28       0.001352951276
 29      -0.988518178466
 30       0.044157564868
 31      -0.029160748361
 32       0.000167679811
 33       0.000000115914
 34       0.000000035187
 35       0.012712141595
 36      -0.000001994927
 37      -0.000002246213
 38      -0.001383220721
 39      -0.000000232938
 40       0.000000451269
 41      -0.001339405350
 42      -0.000000232778
 43       0.000053285557
 44      -0.000606984299
 45       0.002245669326
 46       0.000119531972
 47       0.000000008813
 48      -0.000000013877
 49       0.001366507204
 50       0.000000308124
 51      -0.000000386487
 52      -0.000075170189
 53      -0.000000220056
 54       0.000000008987
 55       0.000062924371
 56      -0.000000006297
 57       0.000142937072
 58       0.000338356927
 59       0.018818532789
 60      -0.000848399462
 61      -0.000000031001
 62       0.000000124568
 63       0.013187832948
 64       0.000002464707
 65      -0.000002269032
 66       0.000240373057
 67       0.000000207560
 68       0.000000068170
 69      -0.000916749796
 70       0.000000042881
 71       0.000044993729
 72      -0.000444601832
 73      -0.008217300866
 74      -0.000066742837
 75       0.000000019790
 76      -0.000000031804
 77      -0.001225731736
 78      -0.000001440692
 79      -0.000000818712
 80       0.000028486377
 81       0.000000126789
 82       0.000000004891
 83      -0.000111769863
 84      -0.000000014393
 85      -0.000028411554
 86       0.000481345414
 87      -0.006941779321
 88      -0.000247429398
 89      -0.000030744669
 90       0.000000024646
 91       0.000910642988
 92       0.000864411221
 93       0.000000083896
 94      -0.000109831361
 95       0.000000044992
 96      -0.000000030170
 97      -0.000273138015
 98       0.000375135271
 99      -0.000028421155
100       0.000481418583
101      -0.006939196822
102      -0.000247434701
103       0.000030776505
104       0.000000036620
105       0.000912965982
106      -0.000862563832
107      -0.000000163333
108      -0.000109853348
109      -0.000000054856
110       0.000000157197
111      -0.000273096882
112      -0.000375091225
113       0.000015773666
114      -0.000728398621
115       0.007881881358
116      -0.000106730124
117       0.000119417964
118      -0.000000006216
119       0.002951448967
120      -0.003427076609
121      -0.000000488134
122      -0.000183791227
123      -0.000000047251
124      -0.000000041736
125       0.000086317931
126       0.000054298103
127       0.000015774888
128      -0.000728343949
129       0.007880876088
130      -0.000106732659
131      -0.000119397316
132      -0.000000038479
133       0.002953111374
134       0.003425604471
135       0.000000451711
136      -0.000183758586
137      -0.000000055403
138       0.000000087379
139       0.000086313369
140      -0.000054274606
141      -0.000174773176
142       0.000114686556
143      -0.000058848126
144       0.000239606707
145       0.000000023825
146      -0.000174803355
147       0.000114635847
148      -0.000058907873
149      -0.000239609641
150      -0.000000040170
151       0.000373892073
152       0.000900453350
153      -0.000069746752
154      -0.000080450607
155      -0.000000038862
156       0.000373868087
157       0.000900411285
158      -0.000069788887
159       0.000080484021
160      -0.000000019629
161      -0.000036545861
162       0.000155736728
163      -0.000063690607
164      -0.000056968705
165       0.000000340202
166      -0.000036406461
167       0.000155883717
168      -0.000063669089
169       0.000056991834
170       0.000000355972
 Sym=     1a
 Ene= -1.43643337272985E+01
 Spin= Alpha
 Occup= 2.000000
  1       0.000016173308
  2       0.000155818245
  3      -0.000452258437
  4      -0.000037960428
  5      -0.000001959518
  6       0.000000008751
  7       0.000076933296
  8       0.000197252490
  9       0.000000036319
 10       0.000028684025
 11       0.000000004396
 12      -0.000000020536
 13       0.000023732195
 14       0.000006062303
 15       0.000016169253
 16       0.000155786615
 17      -0.000452096652
 18      -0.000037952728
 19       0.000001960238
 20       0.000000008995
 21       0.000076865761
 22      -0.000197215424
 23      -0.000000008641
 24       0.000028680747
 25       0.000000002281
 26       0.000000002799
 27       0.000023734476
 28      -0.000006062732
 29       0.000140218950
 30       0.000500078486
 31      -0.000891340009
 32       0.000100478429
 33       0.000000002198
 34      -0.000000082169
 35       0.001089990143
 36       0.000000126035
 37      -0.000000354648
 38       0.000028966958
 39       0.000000014195
 40       0.000000001543
 41      -0.000065098264
 42       0.000000001892
 43       0.988104575619
 44      -0.047495792171
 45       0.036734963412
 46      -0.000384461334
 47       0.000000015073
 48      -0.000031373332
 49       0.010129944689
 50      -0.000000019960
 51      -0.000008930676
 52       0.001994343550
 53      -0.000014703721
 54      -0.000000572537
 55       0.000832016506
 56      -0.000000017848
 57      -0.000027341341
 58       0.000278445977
 59       0.005396069408
 60      -0.000086564263
 61       0.000000016399
 62      -0.000000114848
 63      -0.001057092685
 64      -0.000000270593
 65      -0.000000082027
 66       0.000004909025
 67      -0.000000018473
 68      -0.000000012757
 69       0.000086028252
 70      -0.000000002529
 71      -0.000302475980
 72      -0.000079514140
 73      -0.018053650769
 74      -0.001623551194
 75       0.000000001796
 76       0.000002591560
 77       0.012579481657
 78      -0.000000032122
 79      -0.000011664068
 80      -0.000725180302
 81      -0.000003006565
 82      -0.000000031345
 83       0.001481853069
 84      -0.000000016565
 85      -0.000011442204
 86       0.000582180073
 87      -0.006601660607
 88      -0.000110455284
 89      -0.000086520879
 90      -0.000000315872
 91       0.003084323786
 92       0.002409182071
 93       0.000000763988
 94       0.000153174511
 95       0.000000055211
 96      -0.000000107749
 97      -0.000081343210
 98       0.000056961473
 99      -0.000011434939
100       0.000582109332
101      -0.006601607004
102      -0.000110480711
103       0.000086531952
104      -0.000000293356
105       0.003083869398
106      -0.002409105037
107       0.000000111195
108       0.000153151001
109       0.000000041480
110       0.000000056892
111      -0.000081291011
112      -0.000056937906
113       0.000036782875
114      -0.000461851458
115       0.006192930507
116      -0.000201935320
117       0.000026834522
118       0.000000542132
119       0.001146590951
120      -0.000198109377
121       0.000000782131
122       0.000146289505
123       0.000000204500
124      -0.000000746112
125       0.000269614622
126       0.000331739711
127       0.000036788593
128      -0.000461901541
129       0.006192539024
130      -0.000201958330
131      -0.000026836415
132       0.000000535246
133       0.001146300804
134       0.000197995287
135       0.000000833142
136       0.000146298230
137       0.000000113572
138       0.000000603056
139       0.000269605469
140      -0.000331741773
141      -0.000303665038
142      -0.000777485914
143      -0.000086451960
144       0.000097698167
145      -0.000000134805
146      -0.000303518716
147      -0.000777407099
148      -0.000086468819
149      -0.000097666252
150      -0.000000161203
151       0.000148558818
152      -0.000120212279
153      -0.000117012978
154      -0.000262372471
155      -0.000000192766
156       0.000148533708
157      -0.000120270222
158      -0.000117005967
159       0.000262367308
160      -0.000000119897
161       0.003585476451
162      -0.002659400023
163       0.001381108493
164      -0.003694413277
165       0.000019429398
166       0.003585502097
167      -0.002659391636
168       0.001381162408
169       0.003694394745
170       0.000020409547
 Sym=     1a
 Ene= -1.02575722381174E+01
 Spin= Alpha
 Occup= 2.000000
  1       0.000019069619
  2       0.000214474429
  3      -0.000879064600
  4      -0.000027854054
  5       0.000019979868
  6       0.000000020159
  7       0.000406446483
  8       0.000170842714
  9      -0.000000153291
 10       0.000018691010
 11       0.000000011119
 12       0.000000021895
 13      -0.000019296715
 14      -0.000041303800
 15       0.000019070389
 16       0.000214465507
 17      -0.000878856361
 18      -0.000027858764
 19      -0.000019975281
 20       0.000000009207
 21       0.000406409863
 22      -0.000170754338
 23      -0.000000178863
 24       0.000018689091
 25       0.000000018787
 26      -0.000000025501
 27      -0.000019299767
 28       0.000041296233
 29      -0.000036278136
 30      -0.000684638994
 31       0.007167004538
 32      -0.000115799607
 33       0.000000014052
 34       0.000000083740
 35      -0.002337022123
 36       0.000000233523
 37       0.000000732276
 38      -0.000095986349
 39      -0.000000051038
 40       0.000000015584
 41       0.000033059662
 42       0.000000002064
 43      -0.000129953087
 44       0.001331603428
 45      -0.029078654006
 46       0.001053463279
 47      -0.000000004961
 48      -0.000002522248
 49      -0.015302088831
 50       0.000000007862
 51       0.000017764086
 52       0.001566384522
 53       0.000003365450
 54      -0.000000178849
 55      -0.001346991313
 56       0.000000007862
 57      -0.001159364028
 58      -0.002069740119
 59       0.003553463530
 60       0.000475794096
 61      -0.000000004048
 62       0.000000069015
 63      -0.009783614644
 64      -0.000000091008
 65       0.000000886530
 66      -0.000051681363
 67       0.000000031513
 68       0.000000026668
 69      -0.000113145662
 70       0.000000000718
 71       0.988100367120
 72       0.049434307175
 73      -0.032470197993
 74       0.000148254885
 75      -0.000000000856
 76       0.000001031470
 77      -0.040111926612
 78       0.000000257201
 79       0.000013754221
 80      -0.002407192592
 81      -0.000002248339
 82       0.000000444344
 83       0.000923448541
 84      -0.000000023656
 85      -0.000082119690
 86      -0.001251123448
 87      -0.020831370676
 88       0.000012488293
 89       0.000294281992
 90       0.000000161797
 91       0.008586366023
 92       0.000444470846
 93      -0.000000706111
 94      -0.000236700191
 95      -0.000000085759
 96       0.000000116131
 97       0.000056034800
 98       0.000019348946
 99      -0.000082116696
100      -0.001251068474
101      -0.020831550284
102       0.000012520741
103      -0.000294315745
104       0.000000081640
105       0.008586321929
106      -0.000444707705
107      -0.000000842523
108      -0.000236713940
109      -0.000000091741
110      -0.000000016737
111       0.000056016836
112      -0.000019376939
113       0.003539084429
114      -0.002491014322
115       0.035690628629
116       0.001068957615
117       0.001608821728
118      -0.000000062233
119       0.012094794851
120      -0.010507435254
121      -0.000004805957
122       0.000862419176
123      -0.000000006234
124       0.000000208182
125       0.000362448845
126      -0.001268952559
127       0.003539342703
128      -0.002491002945
129       0.035690932408
130       0.001068951839
131      -0.001608830647
132      -0.000000501406
133       0.012094785068
134       0.010507638796
135      -0.000001930639
136       0.000862425445
137       0.000000339613
138      -0.000000715623
139       0.000362455397
140       0.001268946282
141       0.000208670240
142       0.001227052324
143      -0.000288339571
144       0.000068078323
145       0.000000037234
146       0.000208606304
147       0.001226974326
148      -0.000288294371
149      -0.000068144942
150       0.000000028832
151       0.000966929484