[Molden Format]
[Title]
 Molden file created by orca_2mkl for BaseName=ABN_3

[Atoms] AU
N    1   7          6.1161975806        -0.0001533885         0.0007124656 
N    2   7         -6.7213507414         0.0002102368        -0.0002523233 
C    3   6          3.5338946236        -0.0000880075         0.0002334027 
C    4   6          2.1606811166        -2.2918359786         0.0001889175 
C    5   6          2.1607985245         2.2917302008         0.0001467716 
C    6   6         -1.8210508134         0.0000471384        -0.0000012001 
C    7   6         -0.4600029046        -2.2880175883         0.0000768291 
C    8   6         -0.4598848988         2.2880454543         0.0000425516 
C    9   6         -4.5245361789         0.0001245113        -0.0001394781 
H   10   1          3.1824097338        -4.0872110843         0.0002659816 
H   11   1          3.1826201976         4.0870533559         0.0001923486 
H   12   1         -1.4868951326        -4.0774768235         0.0000298639 
H   13   1         -1.4866956903         4.0775509080        -0.0000314093 
H   14   1          7.0967188388         1.6356901158        -0.0017863621 
H   15   1          7.0966355019        -1.6360469958        -0.0017570579 
[GTO]
  1 0
s   5 1.0 
     1712.8415853000        -1.0337585405
      257.6481267700        -1.8620740805
       58.4582458530        -2.7290401880
       16.1983679050        -2.6956734544
        5.0052600809        -1.0640914367
s   1 1.0 
        0.5873185657         0.4781513534
s   1 1.0 
        0.1876459225         0.2031956662
p   3 1.0 
       13.5714702330        -2.1850243557
        2.9257372874        -1.7466999024
        0.7992775075        -0.8114650516
p   1 1.0 
        0.2195434803         0.2142105067
d   1 1.0 
        1.0000000000         2.8508218814

  2 0
s   5 1.0 
     1712.8415853000        -1.0337585405
      257.6481267700        -1.8620740805
       58.4582458530        -2.7290401880
       16.1983679050        -2.6956734544
        5.0052600809        -1.0640914367
s   1 1.0 
        0.5873185657         0.4781513534
s   1 1.0 
        0.1876459225         0.2031956662
p   3 1.0 
       13.5714702330        -2.1850243557
        2.9257372874        -1.7466999024
        0.7992775075        -0.8114650516
p   1 1.0 
        0.2195434803         0.2142105067
d   1 1.0 
        1.0000000000         2.8508218814

  3 0
s   5 1.0 
     1238.4016938000         0.8208956682
      186.2900499200         1.4766449896
       42.2511763460         2.1526124058
       11.6765579320         2.1081722461
        3.5930506482         0.8290999933
s   1 1.0 
        0.4024514736         0.3601183351
s   1 1.0 
        0.1309018267         0.1551027052
p   3 1.0 
        9.4680970621         1.3467645142
        2.0103545142         1.0678070931
        0.5477100471         0.5108735714
p   1 1.0 
        0.1526861379         0.1360471976
d   1 1.0 
        0.8000000000         1.9292013661

  4 0
s   5 1.0 
     1238.4016938000         0.8208956682
      186.2900499200         1.4766449896
       42.2511763460         2.1526124058
       11.6765579320         2.1081722461
        3.5930506482         0.8290999933
s   1 1.0 
        0.4024514736         0.3601183351
s   1 1.0 
        0.1309018267         0.1551027052
p   3 1.0 
        9.4680970621         1.3467645142
        2.0103545142         1.0678070931
        0.5477100471         0.5108735714
p   1 1.0 
        0.1526861379         0.1360471976
d   1 1.0 
        0.8000000000         1.9292013661

  5 0
s   5 1.0 
     1238.4016938000         0.8208956682
      186.2900499200         1.4766449896
       42.2511763460         2.1526124058
       11.6765579320         2.1081722461
        3.5930506482         0.8290999933
s   1 1.0 
        0.4024514736         0.3601183351
s   1 1.0 
        0.1309018267         0.1551027052
p   3 1.0 
        9.4680970621         1.3467645142
        2.0103545142         1.0678070931
        0.5477100471         0.5108735714
p   1 1.0 
        0.1526861379         0.1360471976
d   1 1.0 
        0.8000000000         1.9292013661

  6 0
s   5 1.0 
     1238.4016938000         0.8208956682
      186.2900499200         1.4766449896
       42.2511763460         2.1526124058
       11.6765579320         2.1081722461
        3.5930506482         0.8290999933
s   1 1.0 
        0.4024514736         0.3601183351
s   1 1.0 
        0.1309018267         0.1551027052
p   3 1.0 
        9.4680970621         1.3467645142
        2.0103545142         1.0678070931
        0.5477100471         0.5108735714
p   1 1.0 
        0.1526861379         0.1360471976
d   1 1.0 
        0.8000000000         1.9292013661

  7 0
s   5 1.0 
     1238.4016938000         0.8208956682
      186.2900499200         1.4766449896
       42.2511763460         2.1526124058
       11.6765579320         2.1081722461
        3.5930506482         0.8290999933
s   1 1.0 
        0.4024514736         0.3601183351
s   1 1.0 
        0.1309018267         0.1551027052
p   3 1.0 
        9.4680970621         1.3467645142
        2.0103545142         1.0678070931
        0.5477100471         0.5108735714
p   1 1.0 
        0.1526861379         0.1360471976
d   1 1.0 
        0.8000000000         1.9292013661

  8 0
s   5 1.0 
     1238.4016938000         0.8208956682
      186.2900499200         1.4766449896
       42.2511763460         2.1526124058
       11.6765579320         2.1081722461
        3.5930506482         0.8290999933
s   1 1.0 
        0.4024514736         0.3601183351
s   1 1.0 
        0.1309018267         0.1551027052
p   3 1.0 
        9.4680970621         1.3467645142
        2.0103545142         1.0678070931
        0.5477100471         0.5108735714
p   1 1.0 
        0.1526861379         0.1360471976
d   1 1.0 
        0.8000000000         1.9292013661

  9 0
s   5 1.0 
     1238.4016938000         0.8208956682
      186.2900499200         1.4766449896
       42.2511763460         2.1526124058
       11.6765579320         2.1081722461
        3.5930506482         0.8290999933
s   1 1.0 
        0.4024514736         0.3601183351
s   1 1.0 
        0.1309018267         0.1551027052
p   3 1.0 
        9.4680970621         1.3467645142
        2.0103545142         1.0678070931
        0.5477100471         0.5108735714
p   1 1.0 
        0.1526861379         0.1360471976
d   1 1.0 
        0.8000000000         1.9292013661

 10 0
s   3 1.0 
       13.0107010000         0.1634903809
        1.9622572000         0.2773515510
        0.4445379600         0.3157501452
s   1 1.0 
        0.1219496200         0.1470772262
p   1 1.0 
        0.8000000000         1.0784563492

 11 0
s   3 1.0 
       13.0107010000         0.1634903809
        1.9622572000         0.2773515510
        0.4445379600         0.3157501452
s   1 1.0 
        0.1219496200         0.1470772262
p   1 1.0 
        0.8000000000         1.0784563492

 12 0
s   3 1.0 
       13.0107010000         0.1634903809
        1.9622572000         0.2773515510
        0.4445379600         0.3157501452
s   1 1.0 
        0.1219496200         0.1470772262
p   1 1.0 
        0.8000000000         1.0784563492

 13 0
s   3 1.0 
       13.0107010000         0.1634903809
        1.9622572000         0.2773515510
        0.4445379600         0.3157501452
s   1 1.0 
        0.1219496200         0.1470772262
p   1 1.0 
        0.8000000000         1.0784563492

 14 0
s   3 1.0 
       13.0107010000         0.1634903809
        1.9622572000         0.2773515510
        0.4445379600         0.3157501452
s   1 1.0 
        0.1219496200         0.1470772262
p   1 1.0 
        0.8000000000         1.0784563492

 15 0
s   3 1.0 
       13.0107010000         0.1634903809
        1.9622572000         0.2773515510
        0.4445379600         0.3157501452
s   1 1.0 
        0.1219496200         0.1470772262
p   1 1.0 
        0.8000000000         1.0784563492

[5D]
[7F]
[9G]
[MO]
 Sym=     1a
 Ene= -1.43587507123547E+01
 Spin= Alpha
 Occup= 2.000000
  1      -0.988097354898
  2       0.047630005427
  3      -0.037518071572
  4      -0.000369456501
  5       0.000000009542
  6       0.000009344855
  7       0.010548168901
  8      -0.000000277037
  9       0.000002753865
 10      -0.001971890472
 11      -0.000004368435
 12      -0.000000038387
 13      -0.000861767300
 14       0.000000045409
 15       0.000108385954
 16      -0.000425564665
 17       0.006735458237
 18       0.000041792356
 19      -0.000000005263
 20      -0.000000009823
 21       0.001749560138
 22      -0.000000095743
 23       0.000000027649
 24      -0.000004158857
 25      -0.000000006554
 26       0.000000000016
 27       0.000010991514
 28      -0.000000003340
 29       0.000289803835
 30       0.000228942687
 31       0.018542833620
 32      -0.001624969652
 33       0.000000042190
 34      -0.000000762923
 35       0.013238191492
 36      -0.000000251302
 37       0.000003593828
 38       0.000722853865
 39      -0.000000879628
 40      -0.000000001670
 41      -0.001447050909
 42       0.000000071153
 43      -0.000037519967
 44       0.000578362870
 45      -0.006540003983
 46      -0.000210720946
 47       0.000046724517
 48      -0.000000160055
 49       0.001395204262
 50      -0.000306757809
 51      -0.000000237902
 52      -0.000109877747
 53       0.000000043202
 54      -0.000000207381
 55      -0.000292933497
 56      -0.000329466349
 57      -0.000037518342
 58       0.000578348150
 59      -0.006540261691
 60      -0.000210718636
 61      -0.000046717309
 62      -0.000000159443
 63       0.001395222460
 64       0.000306859096
 65      -0.000000250333
 66      -0.000109878666
 67       0.000000037802
 68       0.000000198710
 69      -0.000292900681
 70       0.000329499971
 71       0.000035411021
 72      -0.000218080075
 73      -0.014444675224
 74      -0.000197835824
 75      -0.000000004810
 76       0.000000032616
 77       0.004592787955
 78      -0.000000054442
 79       0.000000259691
 80       0.000064612867
 81      -0.000000011553
 82      -0.000000000347
 83      -0.000182049294
 84       0.000000008740
 85       0.000024930452
 86      -0.000756024999
 87       0.007216448380
 88      -0.000145235016
 89      -0.000125469320
 90       0.000000090156
 91       0.002893425893
 92       0.001958041116
 93      -0.000000127189
 94      -0.000125270468
 95       0.000000018054
 96      -0.000000029116
 97       0.000141710020
 98      -0.000092472943
 99       0.000024936608
100      -0.000756089832
101       0.007216412498
102      -0.000145211375
103       0.000125455327
104       0.000000088589
105       0.002893518127
106      -0.001958397483
107      -0.000000106219
108      -0.000125243349
109       0.000000016034
110       0.000000027488
111       0.000141740417
112       0.000092497097
113       0.000061347077
114      -0.001291452556
115       0.005875239283
116      -0.000054989630
117      -0.000000001391
118      -0.000000032211
119       0.010321419916
120      -0.000000325177
121       0.000000642691
122      -0.000095730465
123       0.000000008957
124      -0.000000000243
125       0.000122436085
126      -0.000000006383
127      -0.000168265915
128       0.000029171241
129      -0.000129340491
130      -0.000277048630
131       0.000000049153
132      -0.000168285503
133       0.000029144445
134      -0.000129323287
135       0.000277055077
136       0.000000044669
137       0.000241009856
138       0.000431202997
139      -0.000082752840
140       0.000113919495
141       0.000000040072
142       0.000241178608
143       0.000431299530
144      -0.000082733223
145      -0.000113963847
146       0.000000042642
147      -0.003579368544
148       0.002623755824
149       0.001364757457
150       0.003710131064
151      -0.000005963343
152      -0.003579369363
153       0.002623754358
154       0.001364567154
155      -0.003710200462
156      -0.000005897017
 Sym=     1a
 Ene= -1.43066946923518E+01
 Spin= Alpha
 Occup= 2.000000
  1       0.000150617988
  2       0.000281455225
  3      -0.002184901008
  4       0.000049652300
  5       0.000000000176
  6       0.000000008798
  7       0.000986640734
  8      -0.000000000268
  9       0.000000235670
 10       0.000037884839
 11      -0.000000037516
 12       0.000000000365
 13      -0.000029243252
 14       0.000000001476
 15       0.988647659269
 16      -0.045736212001
 17       0.060134909902
 18       0.005085193038
 19      -0.000000199529
 20       0.000000258023
 21       0.016064188874
 22      -0.000000627243
 23       0.000000815356
 24       0.000677566616
 25      -0.000000121962
 26      -0.000000000057
 27      -0.001183728858
 28       0.000000093915
 29      -0.000022587924
 30       0.000443281579
 31      -0.002567147178
 32      -0.000061249685
 33       0.000000002548
 34      -0.000000000873
 35       0.003362423039
 36      -0.000000165964
 37       0.000000371021
 38       0.000041175942
 39       0.000000022321
 40       0.000000001058
 41       0.000080488751
 42      -0.000000004452
 43      -0.000010865357
 44       0.000210991116
 45       0.003799490985
 46      -0.000078442838
 47       0.000009802314
 48      -0.000000003123
 49      -0.000539620074
 50       0.001175326043
 51      -0.000000092526
 52       0.000028440466
 53      -0.000000002729
 54      -0.000000008961
 55       0.000006805584
 56       0.000038078331
 57      -0.000010868394
 58       0.000211001148
 59       0.003799875751
 60      -0.000078465911
 61      -0.000009796740
 62      -0.000000002233
 63      -0.000539752830
 64      -0.001175437340
 65      -0.000000070279
 66       0.000028430529
 67      -0.000000001811
 68       0.000000007570
 69       0.000006822153
 70      -0.000038075101
 71       0.000276514778
 72      -0.003217592440
 73      -0.018624034485
 74       0.000698363143
 75      -0.000000041858
 76       0.000000037373
 77       0.015479933398
 78      -0.000000080542
 79       0.000000746696
 80       0.000235215490
 81      -0.000000052147
 82       0.000000004448
 83      -0.000491110294
 84       0.000000006871
 85       0.000051919077
 86      -0.000437632508
 87      -0.003543783132
 88       0.000103300426
 89      -0.000089474799
 90       0.000000007420
 91      -0.001748454487
 92      -0.001996717625
 93      -0.000000055458
 94       0.000107524016
 95      -0.000000010418
 96       0.000000029188
 97      -0.000046905016
 98      -0.000089521596
 99       0.000051920675
100      -0.000437653344
101      -0.003544408937
102       0.000103312857
103       0.000089476810
104       0.000000006793
105      -0.001748410192
106       0.001997028299
107      -0.000000080602
108       0.000107521145
109      -0.000000010509
110       0.000000002877
111      -0.000046963010
112       0.000089533918
113      -0.000328162573
114      -0.001864290719
115      -0.011832559078
116      -0.003492412994
117       0.000000143435
118      -0.000000181857
119       0.039522072290
120      -0.000001513984
121       0.000002050039
122      -0.001378783225
123       0.000000250227
124       0.000000000428
125       0.002485914828
126      -0.000000188008
127       0.000077601157
128      -0.000238994326
129      -0.000019263743
130      -0.000046658690
131       0.000000003697
132       0.000077611512
133      -0.000238986525
134      -0.000019261121
135       0.000046660218
136       0.000000003245
137      -0.000393697774
138       0.000307445985
139       0.000036916407
140       0.000144232501
141       0.000000014550
142      -0.000393737631
143       0.000307477615
144       0.000036864025
145      -0.000144241506
146       0.000000003096
147       0.000017827284
148      -0.000051501653
149      -0.000030668676
150       0.000024242847
151      -0.000000050147
152       0.000017840375
153      -0.000051497486
154      -0.000030670042
155      -0.000024239780
156      -0.000000049689
 Sym=     1a
 Ene= -1.02519028253998E+01
 Spin= Alpha
 Occup= 2.000000
  1       0.000124361351
  2      -0.001426660846
  3       0.028996890559
  4       0.001022873093
  5      -0.000000027420
  6       0.000000748597
  7      -0.015406100268
  8       0.000000380863
  9      -0.000005196153
 10      -0.001578360690
 11       0.000001020313
 12      -0.000000012021
 13       0.001364299219
 14      -0.000000069799
 15       0.000019995153
 16       0.000310531581
 17      -0.004990495268
 18      -0.000049882269
 19       0.000000004945
 20       0.000000005757
 21      -0.001319691616
 22       0.000000066594
 23      -0.000000020159
 24       0.000003855808
 25       0.000000003582
 26      -0.000000000006
 27      -0.000000672213
 28      -0.000000000473
 29      -0.988103617450
 30      -0.049331082775
 31       0.030964356580
 32       0.000157390638
 33      -0.000000008331
 34      -0.000000289529
 35      -0.039346407030
 36       0.000001017499
 37      -0.000004250034
 38       0.002416278177
 39      -0.000000680471
 40       0.000000030692
 41      -0.000924655458
 42       0.000000048444
 43      -0.003638899404
 44       0.002547031989
 45      -0.032482560685
 46       0.001052092674
 47       0.001615839500
 48       0.000000074085
 49       0.010855505651
 50      -0.010014160594
 51       0.000001123194
 52      -0.000893395868
 53       0.000000048500
 54       0.000000125550
 55      -0.000339506098
 56       0.001261959339
 57      -0.003636794424
 58       0.002547130345
 59      -0.032482618615
 60       0.001052009974
 61      -0.001615895658
 62       0.000000104270
 63       0.010856005461
 64       0.010013657426
 65       0.000000917508
 66      -0.000893398133
 67       0.000000074195
 68      -0.000000160432
 69      -0.000339635443
 70      -0.001261925682
 71       0.000711918443
 72       0.001518678548
 73       0.004244836162
 74       0.000613182183
 75      -0.000000012122
 76      -0.000000013079
 77      -0.010207036662
 78       0.000000196815
 79      -0.000000313215
 80       0.000044484533
 81       0.000000004757
 82       0.000000002953
 83       0.000124502003
 84      -0.000000006698
 85       0.000117886476
 86       0.001296156498
 87       0.017177834345
 88       0.000104001475
 89       0.000316754603
 90      -0.000000033881
 91       0.006750726911
 92      -0.000386009096
 93       0.000000202694
 94       0.000232667286
 95      -0.000000030320
 96       0.000000019143
 97      -0.000100759510
 98      -0.000040967363
 99       0.000117898981
100       0.001296161633
101       0.017177944665
102       0.000103977470
103      -0.000316755358
104      -0.000000028212
105       0.006750668013
106       0.000385613002
107       0.000000161627
108       0.000232666086
109      -0.000000032312
110      -0.000000011948
111      -0.000100757838
112       0.000040973899
113      -0.000051924080
114       0.000080231898
115      -0.005923135822
116      -0.000140382868
117       0.000000012037
118       0.000000001952
119      -0.008232823509
120       0.000000271352
121      -0.000000527799
122      -0.000021103498
123      -0.000000008521
124      -0.000000000628
125      -0.000115488412
126       0.000000005402
127      -0.000944217911
128      -0.001336781550
129      -0.000257694008
130      -0.000380343383
131      -0.000000053332
132      -0.000944230721
133      -0.001336784666
134      -0.000257670919
135       0.000380359773
136      -0.000000057853
137      -0.000421852371
138      -0.001098362497
139      -0.000240638730
140       0.000075392424
141      -0.000000011795
142      -0.000421854950
143      -0.001098381029
144      -0.000240643463
145      -0.000075368304
146      -0.000000007911
147      -0.000479627777
148       0.000006662218
149       0.001439948159
150      -0.000274137498
151       0.000000608632
152      -0.000479631432
153       0.000006654062
154       0.001439962893
155       0.000274063876
156       0.000000603814
 Sym=     1a
 Ene= -1.02150292932441E+01
 Spin= Alpha
 Occup= 2.000000
  1       0.000032664577
  2       0.000574913720
  3      -0.005249729585
  4       0.000056923385
  5       0.000000000494
  6       0.000000025105
  7       0.001779041529
  8      -0.000000003359
  9       0.000000913718
 10       0.000042657374
 11       0.000000016306
 12       0.000000000246
 13      -0.000031905241
 14       0.000000000959
 15      -0.000364694437
 16      -0.004468697850
 17       0.037794998252
 18       0.000927101772
 19      -0.000000049737
 20       0.000000043947
 21       0.011128014081
 22      -0.000000480794
 23       0.000000548611
 24       0.000052857818
 25      -0.000000011638
 26       0.000000000181
 27      -0.000074706997
 28       0.000000010780
 29      -0.000939847902
 30       0.001523941057
 31       0.006404573683
 32      -0.000367296857
 33       0.000000009388
 34      -0.000000039968
 35       0.004279451631
 36      -0.000000301943
 37       0.000000554096
 38       0.000028477015
 39       0.000000027856
 40      -0.000000000137
 41       0.000039044581
 42      -0.000000000327
 43      -0.000821174188
 44       0.000744698045
 45       0.004705738948
 46       0.000103606454
 47       0.000257299816
 48      -0.000000003375
 49      -0.003643278678
 50      -0.003534456382
 51      -0.000000210549
 52       0.000224039605
 53      -0.000000017905
 54      -0.000000010259
 55      -0.000036002327
 56       0.000104218941
 57      -0.000821188777
 58       0.000744661916
 59       0.004706200738
 60       0.000103576531
 61      -0.000257328096
 62      -0.000000000748
 63      -0.003643033686
 64       0.003534369885
 65      -0.000000255371
 66       0.000224045601
 67      -0.000000017581
 68       0.000000015031
 69      -0.000035989967
 70      -0.000104229547
 71      -0.986954607455
 72      -0.048277295051
 73       0.002528953027
 74       0.000083394351
 75      -0.000000018661
 76       0.000000036379
 77       0.025542821891
 78      -0.000000339084
 79       0.000001180674
 80       0.002142039972
 81      -0.000000213819
 82       0.000000023393
 83      -0.000548346790
 84       0.000000049087
 85      -0.029181766553
 86       0.001571479202
 87      -0.016049411407
 88      -0.001353205116
 89       0.001672288825
 90      -0.000000068588
 91      -0.003481496519
 92      -0.001473504751
 93      -0.000000121011
 94      -0.000848122276
 95       0.000000052274
 96      -0.000000074036
 97      -0.000489254699
 98      -0.001235443167
 99      -0.029181420632
100       0.001571455624
101      -0.016049974500
102      -0.001353257460
103      -0.001672200170
104      -0.000000044206
105      -0.003481392967
106       0.001473946439
107      -0.000000130832
108      -0.000848120593
109       0.000000034730
110       0.000000045734
111      -0.000489136581
112       0.001235490440
113      -0.025838225413
114      -0.002505745848
115       0.001986691539
116       0.002547070192
117      -0.000000070870
118       0.000000127223
119       0.040583405479
120      -0.000001463070
121       0.000002136925
122      -0.001368770616
123       0.000000235527
124      -0.000000001615
125       0.002180090667
126      -0.000000121358
127      -0.000459078089
128      -0.001255123007
129       0.000191629400
130       0.000116773722
131       0.000000018019
132      -0.000459037685
133      -0.001255083546
134       0.000191563916
135      -0.000116809309
136       0.000000021596
137       0.000159211883
138       0.001041162382
139       0.000342850446
140      -0.000329381522
141       0.000000016783
142       0.000159172222
143       0.001041198914
144       0.000342875699
145       0.000329369831
146       0.000000010991
147       0.000166081379
148       0.000074259535
149      -0.000097578624
150       0.000010678903
151       0.000000024920
152       0.000166098137
153       0.000074274657
154      -0.000097580095
155      -0.000010672504
156       0.000000025442
 Sym=     1a
 Ene= -1.02089115508717E+01
 Spin= Alpha
 Occup= 2.000000
  1      -0.000050500688
  2      -0.000914224475
  3       0.008911611586
  4      -0.000101734220
  5       0.000000026515
  6      -0.000000039145
  7      -0.003200374978
  8       0.000001748633
  9      -0.000001370431
 10      -0.000062996918
 11      -0.000000024532
 12      -0.000000000603
 13       0.000042793371
 14      -0.000000108755
 15       0.000282379477
 16       0.001597238577
 17      -0.037969466344
 18       0.000757156048
 19      -0.000000228094
 20       0.000000042874
 21      -0.012341590431
 22      -0.000000702151
 23      -0.000000611535
 24       0.000331746425
 25      -0.000000055156
 26      -0.000000000402
 27      -0.000543428294
 28      -0.000000015912
 29       0.000151027558
 30      -0.001442291021
 31      -0.007442557086
 32       0.000290822505
 33       0.000000492556
 34       0.000000027520
 35      -0.008594703302
 36      -0.000010372999
 37      -0.000001060507
 38      -0.000176923600
 39      -0.000000054295
 40      -0.000000003561
 41      -0.000044751256
 42      -0.000000023413
 43       0.011934371942
 44      -0.003172621967
 45       0.008391523232
 46       0.001641856714
 47      -0.000114924070
 48       0.000000061989
 49       0.000000473181
 50       0.001180608400
 51       0.000000182635
 52       0.000540212957
 53      -0.000000067903
 54       0.000000030077
 55      -0.000724653121
 56       0.000026634912
 57       0.011961952180
 58      -0.003174237076
 59       0.008419890066
 60       0.001644714788
 61       0.000114228549
 62       0.000000062278
 63       0.000007488272
 64      -0.001184889687
 65       0.000000198537
 66       0.000541562586
 67      -0.000000059673
 68      -0.000000027606
 69      -0.000726153101
 70      -0.000026752868
 71      -0.046145176748
 72      -0.006801317992
 73       0.064118949532
 74      -0.000243955255
 75      -0.000001946917
 76      -0.000000014805
 77      -0.025438675031
 78      -0.000009663411
 79      -0.000001266752
 80       0.001676492547
 81      -0.000000107417
 82       0.000000025397
 83       0.000594013690
 84      -0.000001716617
 85       0.659252934676
 86       0.032806271210
 87      -0.027704275499
 88      -0.000035053478
 89       0.000140383871
 90      -0.000000039184
 91       0.001248426407
 92      -0.001563031181
 93       0.000000080231
 94      -0.001901067377
 95       0.000000127302
 96       0.000000018175
 97      -0.000503956534
 98       0.000471225669
 99       0.660476695708
100       0.032866763760
101      -0.027726867540
102      -0.000035299229
103      -0.000140382020
104      -0.000000041271
105       0.001237772737
106       0.001565346124
107       0.000000064155
108      -0.001903878588
109       0.000000129384
110      -0.000000075818
111      -0.000503989137
112      -0.000471461620
113       0.320508316778
114       0.020483989990
115      -0.024505304235
116      -0.000233335148
117       0.000000236749
118      -0.000000005214
119      -0.049353056651
120       0.000004884769
121      -0.000002578414
122      -0.001011258085
123       0.000000157000
124      -0.000000003267
125       0.001308951298
126       0.000000306105
127      -0.000009401275
128      -0.000323465538
129      -0.000336418984
130       0.000125728620
131      -0.000000036573
132      -0.000010278664
133      -0.000326343039
134      -0.000337381036
135      -0.000125690675
136      -0.000000032587
137      -0.003094647995
138       0.005761964102
139      -0.001121761927
140      -0.001861947460
141      -0.000000050380
142      -0.003101710245
143       0.005765864755
144      -0.001123283306
145       0.001865215946
146      -0.000000077887
147      -0.000191896497
148      -0.000011396259
149       0.000112632197
150      -0.000007108270
151       0.000000039163
152      -0.000191601695
153      -0.000010425111
154       0.000112633086
155       0.000007147472
156       0.000000039603
 Sym=     1a
 Ene= -1.02088848321634E+01
 Spin= Alpha
 Occup= 2.000000
  1       0.000000029869
  2       0.000000756331
  3      -0.000007692356
  4       0.000000123159
  5       0.000018316548
  6       0.000000000097
  7       0.000002789817
  8       0.002188549665
  9      -0.000000022539
 10       0.000000087881
 11       0.000000000984
 12      -0.000000250664
 13      -0.000000022654
 14      -0.000071865008
 15      -0.000000282383
 16      -0.000001364521
 17       0.000036127558
 18      -0.000000855367
 19      -0.000236643717
 20       0.000000001402
 21       0.000011916461
 22      -0.001435792268
 23       0.000000011304
 24      -0.000000331201
 25       0.000000000286
 26      -0.000000003951
 27       0.000000546079
 28      -0.000076246598
 29      -0.000000079873
 30       0.000001204514
 31       0.000007832812
 32      -0.000000228908
 33       0.000568104540
 34      -0.000000006845
 35       0.000006440199
 36      -0.012267696591
 37       0.000000123183
 38       0.000000144384
 39      -0.000000000694
 40      -0.000000039659
 41       0.000000043891
 42      -0.000016433026
 43      -0.015787549310
 44       0.000899791213
 45      -0.016933927970
 46      -0.001667397613
 47      -0.000366754756
 48      -0.000000125700
 49      -0.003691148298
 50      -0.002416166892
 51       0.000000057130
 52      -0.000764073544
 53       0.000000095924
 54      -0.000000010424
 55       0.000855901689
 56      -0.000119891028
 57       0.015767289359
 58      -0.000894389664
 59       0.016915616591
 60       0.001664616339
 61      -0.000367041151
 62       0.000000126256
 63       0.003692212164
 64      -0.002413127980
 65      -0.000000010387
 66       0.000763186330
 67      -0.000000086510
 68      -0.000000002510
 69      -0.000854692793
 70      -0.000119779688
 71       0.000041439052
 72       0.000006112801
 73      -0.000060224294
 74      -0.000000010264
 75      -0.002247166891
 76       0.000000016759
 77       0.000021500537
 78      -0.012051433708
 79       0.000000088950
 80      -0.000001505607
 81       0.000000014440
 82      -0.000000094688
 83      -0.000000424768
 84      -0.001919349446
 85      -0.699110268371