[Molden Format]
[Title]
 Molden file created by orca_2mkl for BaseName=aniline_3

[Atoms] AU
N    1   7         -4.5254651156        -0.0002786669         0.0048973313 
C    2   6         -1.9276356484        -0.0000547791         0.0020743161 
C    3   6         -0.5565541664         2.2867688855         0.0013391366 
C    4   6         -0.5561613581        -2.2866456835         0.0013888843 
C    5   6          2.0771863697         2.2732332647         0.0001303065 
C    6   6          2.0775781104        -2.2726569961         0.0001845320 
C    7   6          3.4258174432         0.0004030859        -0.0004562416 
H    8   1         -1.5816643723         4.0819615121         0.0018902426 
H    9   1         -1.5809561210        -4.0820190456         0.0019783894 
H   10   1          3.0907738835         4.0740530517        -0.0004271301 
H   11   1          3.0914672474        -4.0733072789        -0.0003290165 
H   12   1          5.4892451045         0.0005865992        -0.0014658736 
H   13   1         -5.5034175494        -1.6359403981        -0.0060501772 
H   14   1         -5.5036919129         1.6352192575        -0.0060995630 
[GTO]
  1 0
s   5 1.0 
     1712.8415853000        -1.0337585405
      257.6481267700        -1.8620740805
       58.4582458530        -2.7290401880
       16.1983679050        -2.6956734544
        5.0052600809        -1.0640914367
s   1 1.0 
        0.5873185657         0.4781513534
s   1 1.0 
        0.1876459225         0.2031956662
p   3 1.0 
       13.5714702330        -2.1850243557
        2.9257372874        -1.7466999024
        0.7992775075        -0.8114650516
p   1 1.0 
        0.2195434803         0.2142105067
d   1 1.0 
        1.0000000000         2.8508218814

  2 0
s   5 1.0 
     1238.4016938000         0.8208956682
      186.2900499200         1.4766449896
       42.2511763460         2.1526124058
       11.6765579320         2.1081722461
        3.5930506482         0.8290999933
s   1 1.0 
        0.4024514736         0.3601183351
s   1 1.0 
        0.1309018267         0.1551027052
p   3 1.0 
        9.4680970621         1.3467645142
        2.0103545142         1.0678070931
        0.5477100471         0.5108735714
p   1 1.0 
        0.1526861379         0.1360471976
d   1 1.0 
        0.8000000000         1.9292013661

  3 0
s   5 1.0 
     1238.4016938000         0.8208956682
      186.2900499200         1.4766449896
       42.2511763460         2.1526124058
       11.6765579320         2.1081722461
        3.5930506482         0.8290999933
s   1 1.0 
        0.4024514736         0.3601183351
s   1 1.0 
        0.1309018267         0.1551027052
p   3 1.0 
        9.4680970621         1.3467645142
        2.0103545142         1.0678070931
        0.5477100471         0.5108735714
p   1 1.0 
        0.1526861379         0.1360471976
d   1 1.0 
        0.8000000000         1.9292013661

  4 0
s   5 1.0 
     1238.4016938000         0.8208956682
      186.2900499200         1.4766449896
       42.2511763460         2.1526124058
       11.6765579320         2.1081722461
        3.5930506482         0.8290999933
s   1 1.0 
        0.4024514736         0.3601183351
s   1 1.0 
        0.1309018267         0.1551027052
p   3 1.0 
        9.4680970621         1.3467645142
        2.0103545142         1.0678070931
        0.5477100471         0.5108735714
p   1 1.0 
        0.1526861379         0.1360471976
d   1 1.0 
        0.8000000000         1.9292013661

  5 0
s   5 1.0 
     1238.4016938000         0.8208956682
      186.2900499200         1.4766449896
       42.2511763460         2.1526124058
       11.6765579320         2.1081722461
        3.5930506482         0.8290999933
s   1 1.0 
        0.4024514736         0.3601183351
s   1 1.0 
        0.1309018267         0.1551027052
p   3 1.0 
        9.4680970621         1.3467645142
        2.0103545142         1.0678070931
        0.5477100471         0.5108735714
p   1 1.0 
        0.1526861379         0.1360471976
d   1 1.0 
        0.8000000000         1.9292013661

  6 0
s   5 1.0 
     1238.4016938000         0.8208956682
      186.2900499200         1.4766449896
       42.2511763460         2.1526124058
       11.6765579320         2.1081722461
        3.5930506482         0.8290999933
s   1 1.0 
        0.4024514736         0.3601183351
s   1 1.0 
        0.1309018267         0.1551027052
p   3 1.0 
        9.4680970621         1.3467645142
        2.0103545142         1.0678070931
        0.5477100471         0.5108735714
p   1 1.0 
        0.1526861379         0.1360471976
d   1 1.0 
        0.8000000000         1.9292013661

  7 0
s   5 1.0 
     1238.4016938000         0.8208956682
      186.2900499200         1.4766449896
       42.2511763460         2.1526124058
       11.6765579320         2.1081722461
        3.5930506482         0.8290999933
s   1 1.0 
        0.4024514736         0.3601183351
s   1 1.0 
        0.1309018267         0.1551027052
p   3 1.0 
        9.4680970621         1.3467645142
        2.0103545142         1.0678070931
        0.5477100471         0.5108735714
p   1 1.0 
        0.1526861379         0.1360471976
d   1 1.0 
        0.8000000000         1.9292013661

  8 0
s   3 1.0 
       13.0107010000         0.1634903809
        1.9622572000         0.2773515510
        0.4445379600         0.3157501452
s   1 1.0 
        0.1219496200         0.1470772262
p   1 1.0 
        0.8000000000         1.0784563492

  9 0
s   3 1.0 
       13.0107010000         0.1634903809
        1.9622572000         0.2773515510
        0.4445379600         0.3157501452
s   1 1.0 
        0.1219496200         0.1470772262
p   1 1.0 
        0.8000000000         1.0784563492

 10 0
s   3 1.0 
       13.0107010000         0.1634903809
        1.9622572000         0.2773515510
        0.4445379600         0.3157501452
s   1 1.0 
        0.1219496200         0.1470772262
p   1 1.0 
        0.8000000000         1.0784563492

 11 0
s   3 1.0 
       13.0107010000         0.1634903809
        1.9622572000         0.2773515510
        0.4445379600         0.3157501452
s   1 1.0 
        0.1219496200         0.1470772262
p   1 1.0 
        0.8000000000         1.0784563492

 12 0
s   3 1.0 
       13.0107010000         0.1634903809
        1.9622572000         0.2773515510
        0.4445379600         0.3157501452
s   1 1.0 
        0.1219496200         0.1470772262
p   1 1.0 
        0.8000000000         1.0784563492

 13 0
s   3 1.0 
       13.0107010000         0.1634903809
        1.9622572000         0.2773515510
        0.4445379600         0.3157501452
s   1 1.0 
        0.1219496200         0.1470772262
p   1 1.0 
        0.8000000000         1.0784563492

 14 0
s   3 1.0 
       13.0107010000         0.1634903809
        1.9622572000         0.2773515510
        0.4445379600         0.3157501452
s   1 1.0 
        0.1219496200         0.1470772262
p   1 1.0 
        0.8000000000         1.0784563492

[5D]
[7F]
[9G]
[MO]
 Sym=     1a
 Ene= -1.43305811916518E+01
 Spin= Alpha
 Occup= 2.000000
  1       0.988118049054
  2      -0.047408367908
  3       0.036339344214
  4      -0.000470156603
  5      -0.000000042163
  6      -0.000042715761
  7       0.009982426001
  8       0.000000854898
  9      -0.000014946672
 10       0.001980003633
 11      -0.000019043288
 12       0.000000063835
 13       0.000882200012
 14       0.000000144142
 15      -0.000292632203
 16      -0.000078259642
 17      -0.018138861016
 18      -0.001544680007
 19      -0.000000128591
 20       0.000003725239
 21       0.012327895104
 22       0.000001018028
 23      -0.000018261995
 24      -0.000697080309
 25      -0.000004592310
 26       0.000000001293
 27       0.001463175813
 28       0.000000248799
 29       0.000034770749
 30      -0.000429783685
 31       0.006498012578
 32      -0.000188940991
 33       0.000027437424
 34       0.000000768506
 35       0.001049048571
 36      -0.000400888068
 37       0.000000574964
 38       0.000153122960
 39       0.000000178147
 40      -0.000000945102
 41       0.000279319264
 42       0.000331734352
 43       0.000034772802
 44      -0.000429785923
 45       0.006497916760
 46      -0.000188936344
 47      -0.000027468700
 48       0.000000769283
 49       0.001048995177
 50       0.000401018044
 51       0.000000565997
 52       0.000153124687
 53       0.000000185769
 54       0.000000958703
 55       0.000279429508
 56      -0.000331640822
 57      -0.000009809374
 58       0.000574480105
 59      -0.007750498401
 60      -0.000112924282
 61      -0.000081957263
 62      -0.000000359820
 63       0.003181257838
 64       0.003292685262
 65      -0.000000322699
 66       0.000166912852
 67       0.000000187924
 68      -0.000000157552
 69      -0.000058714655
 70       0.000047035136
 71      -0.000009806557
 72       0.000574465176
 73      -0.007750537647
 74      -0.000112951962
 75       0.000081961326
 76      -0.000000399252
 77       0.003181780056
 78      -0.003292141155
 79      -0.000000216743
 80       0.000166932435
 81       0.000000180738
 82       0.000000141314
 83      -0.000058682006
 84      -0.000047063245
 85      -0.000012631640
 86       0.000073349145
 87       0.006548925585
 88      -0.000078714544
 89      -0.000000011909
 90      -0.000000082390
 91      -0.003431722535
 92      -0.000000322233
 93       0.000001046221
 94       0.000016872455
 95       0.000000005504
 96      -0.000000006048
 97       0.000035514390
 98       0.000000010226
 99       0.000151982547
100      -0.000137478002
101      -0.000109836575
102      -0.000251311497
103      -0.000000158741
104       0.000151977489
105      -0.000137485246
106      -0.000109883750
107       0.000251295201
108      -0.000000163575
109      -0.000353504650
110      -0.000939204401
111      -0.000066610804
112       0.000074759639
113      -0.000000176246
114      -0.000353469821
115      -0.000939197144
116      -0.000066610120
117      -0.000074755433
118      -0.000000178072
119       0.000237186304
120       0.000227924580
121       0.000072800718
122       0.000000005697
123       0.000000010063
124       0.003603077733
125      -0.002695913582
126       0.001381605592
127       0.003699068525
128       0.000026291570
129       0.003603063425
130      -0.002695893910
131       0.001382228323
132      -0.003698831582
133       0.000026402817
 Sym=     1a
 Ene= -1.02214880212663E+01
 Spin= Alpha
 Occup= 2.000000
  1      -0.000138216310
  2       0.001330422882
  3      -0.027369766240
  4       0.001012779956
  5       0.000000090414
  6      -0.000003594670
  7      -0.014732554733
  8      -0.000001290896
  9       0.000026064266
 10       0.001563313999
 11       0.000005590606
 12       0.000000020046
 13      -0.001375925477
 14      -0.000000237925
 15       0.988126837521
 16       0.048977646408
 17      -0.030432278262
 18       0.000185032915
 19       0.000000018523
 20       0.000000992871
 21      -0.037511142646
 22      -0.000003132996
 23       0.000028448480
 24      -0.002408911086
 25      -0.000004247090
 26      -0.000000036580
 27       0.000843376368
 28       0.000000149224
 29       0.003961293646
 30      -0.002691464714
 31       0.030588993454
 32       0.001039076512
 33       0.001645667639
 34      -0.000000744014
 35       0.010448919012
 36      -0.009408719094
 37      -0.000006922000
 38       0.000870029891
 39       0.000000654015
 40       0.000001000116
 41       0.000345636023
 42      -0.001246012587
 43       0.003961233186
 44      -0.002691441261
 45       0.030588940730
 46       0.001039356370
 47      -0.001645478442
 48      -0.000000708505
 49       0.010447109214
 50       0.009410511616
 51      -0.000007114847
 52       0.000870031554
 53       0.000000628374
 54      -0.000000960180
 55       0.000345210549
 56       0.001246133487
 57       0.000008732718
 58      -0.001112583299
 59      -0.014683907254
 60       0.000101650212
 61       0.000272628830
 62       0.000000077762
 63       0.005793777780
 64      -0.002205340025
 65      -0.000002237709
 66      -0.000269135924
 67      -0.000000282962
 68       0.000000022056
 69       0.000028191628
 70       0.000080012911
 71       0.000008751266
 72      -0.001112569186
 73      -0.014683800631
 74       0.000101696748
 75      -0.000272613611
 76       0.000000083401
 77       0.005793295295
 78       0.002206315202
 79      -0.000002269626
 80      -0.000269137078
 81      -0.000000282152
 82      -0.000000030707
 83       0.000028216519
 84      -0.000080005600
 85      -0.000356909638
 86      -0.001407976906
 87       0.000307151213
 88       0.000399027598
 89       0.000000035498
 90      -0.000000090116
 91      -0.002646800476
 92      -0.000000268664
 93       0.000000878693
 94      -0.000082863378
 95      -0.000000048153
 96      -0.000000001204
 97      -0.000029866267
 98      -0.000000005309
 99       0.000921350948
100       0.001371935866
101      -0.000263785949
102      -0.000410295475
103       0.000000291821
104       0.000921332670
105       0.001371891998
106      -0.000263853043
107       0.000410244040
108       0.000000282629
109       0.000603404851
110       0.001605044014
111      -0.000238209908
112       0.000104853252
113       0.000000111205
114       0.000603404666
115       0.001605047365
116      -0.000238184146
117      -0.000104895431
118       0.000000113005
119       0.000471771762
120       0.000966214006
121      -0.000040776292
122      -0.000000003267
123       0.000000069245
124       0.000452762172
125       0.000043361127
126       0.001411623081
127      -0.000263578720
128      -0.000002952358
129       0.000452790199
130       0.000043366028
131       0.001411580497
132       0.000263815149
133      -0.000002959252
 Sym=     1a
 Ene= -1.01769442586270E+01
 Spin= Alpha
 Occup= 2.000000
  1      -0.000005353034
  2       0.000197695042
  3      -0.005706491276
  4       0.000053994234
  5      -0.000000078736
  6       0.000000122073
  7      -0.001282448376
  8      -0.000003833446
  9       0.000006024702
 10      -0.000022954016
 11      -0.000000590096
 12       0.000000002411
 13       0.000032879582
 14      -0.000000104226
 15       0.000067241032
 16       0.001068106490
 17       0.003377905780
 18       0.000286529773
 19      -0.000000669437
 20      -0.000000266140
 21      -0.007268784028
 22       0.000019577633
 23       0.000004361073
 24       0.000170269929
 25       0.000000122154
 26       0.000000002721
 27      -0.000110274212
 28       0.000000088202
 29      -0.019974586665
 30       0.002447470716
 31      -0.002818214502
 32       0.001643522198
 33      -0.000059614955
 34      -0.000000784971
 35       0.003094137940
 36       0.000224054552
 37      -0.000001521751
 38      -0.000736129317
 39      -0.000000976667
 40       0.000000025176
 41       0.000870849789
 42      -0.000007412288
 43      -0.019904663160
 44       0.002446210847
 45      -0.002765463250
 46       0.001639351068
 47       0.000060714164
 48      -0.000000780361
 49       0.003082588265
 50      -0.000211874147
 51      -0.000001502317
 52      -0.000734375190
 53      -0.000000968697
 54      -0.000000034749
 55       0.000868707539
 56       0.000007368566
 57      -0.699229328693
 58      -0.033705709707
 59       0.022751733482
 60      -0.000221240700
 61      -0.000201147472
 62       0.000000237829
 63       0.002822930320
 64      -0.003578690345
 65      -0.000001364435
 66       0.001750777655
 67       0.000001299419
 68       0.000000282543
 69       0.000278819580
 70      -0.000333320751
 71      -0.697421292417
 72      -0.033616790747
 73       0.022695819502
 74      -0.000221373221
 75       0.000200468921
 76       0.000000234244
 77       0.002834288484
 78       0.003567834914
 79      -0.000001461360
 80       0.001746906766
 81       0.000001282214
 82      -0.000000197289
 83       0.000278385195
 84       0.000332745964
 85      -0.021594996220
 86       0.003989201482
 87      -0.020504095753
 88      -0.001400728316
 89       0.000003556195
 90       0.000000621446
 91       0.000969896907
 92       0.000002698454
 93      -0.000000309463
 94      -0.001520744168
 95      -0.000000844013
 96      -0.000000040749
 97      -0.000810571217
 98      -0.000002138223
 99       0.000194220812
100       0.000760238552
101      -0.000445046632
102       0.000005610034
103       0.000000229277
104       0.000192920828
105       0.000755968759
106      -0.000443741303
107      -0.000005863521
108       0.000000227566
109       0.003377431398
110      -0.004566442819
111      -0.001269791134
112      -0.001816733256
113       0.000000688533
114       0.003366520579
115      -0.004558395757
116      -0.001267849203
117       0.001811522260
118       0.000000661392
119       0.000384449425
120       0.002206690037
121       0.000449682264
122      -0.000000804960
123      -0.000000221811
124       0.000178465548
125       0.000266456616
126       0.000048262231
127       0.000071091342
128       0.000000508408
129       0.000179667171
130       0.000268132266
131       0.000048325378
132      -0.000071250659
133       0.000000519287
 Sym=     1a
 Ene= -1.01769306834035E+01
 Spin= Alpha
 Occup= 2.000000
  1       0.000000003464
  2      -0.000000262107
  3       0.000007241435
  4      -0.000000075156
  5      -0.000055048213
  6      -0.000000000565
  7       0.000001928788
  8      -0.002995747786
  9       0.000000026388
 10       0.000000046803
 11       0.000000000324
 12       0.000001759079
 13      -0.000000020241
 14      -0.000064153703
 15      -0.000000102096
 16      -0.000001374369
 17      -0.000004263100
 18      -0.000000320402
 19      -0.000541983561
 20       0.000000004685
 21       0.000007970040
 22       0.015844189847
 23      -0.000000173051
 24      -0.000000222282
 25      -0.000000000078
 26       0.000000156315
 27       0.000000131139
 28       0.000083315673
 29      -0.027081309666
 30       0.000471784838
 31      -0.020438304954
 32       0.001607421011
 33       0.000316502208
 34      -0.000001070005
 35       0.004573799556
 36       0.004599658128
 37      -0.000001282352
 38      -0.000675672566
 39      -0.000000911899
 40       0.000000071911
 41       0.000823815129
 42      -0.000130184074
 43       0.027133383002
 44      -0.000478073139
 45       0.020445630233
 46      -0.001611729152
 47       0.000316069093
 48       0.000001059860
 49      -0.004582403571
 50       0.004599409797
 51       0.000001191319
 52       0.000677573639
 53       0.000000913412
 54       0.000000080384
 55      -0.000826022613
 56      -0.000130487237
 57      -0.697349906291
 58      -0.034279585718
 59       0.021624121023
 60       0.000043311042
 61      -0.000229282139
 62       0.000000176494
 63      -0.004495177208
 64      -0.004445494904
 65       0.000001508458
 66       0.001485807722
 67       0.000001225651
 68       0.000000222231
 69       0.000129788678
 70      -0.000238445662
 71       0.699158100198
 72       0.034366778614
 73      -0.021682942641
 74      -0.000042673375
 75      -0.000229850414
 76      -0.000000175390
 77       0.004488804698
 78      -0.004453866416
 79      -0.000001403690
 80      -0.001490356938
 81      -0.000001222737
 82       0.000000161919
 83      -0.000130451519
 84      -0.000239382739
 85       0.000028086680
 86      -0.000005171610
 87       0.000026370409
 88       0.000001570360
 89       0.002844516322
 90      -0.000000035502
 91      -0.000001384828
 92       0.001874958897
 93      -0.000000018880
 94       0.000001971649
 95       0.000000019445
 96       0.000000744852
 97       0.000001314873
 98      -0.001549513800
 99       0.000496425839
100       0.001641581236
101      -0.000504133825
102      -0.000069387178
103       0.000000155350
104      -0.000496922721
105      -0.001643533697
106       0.000505295471
107      -0.000069293781
108      -0.000000155128
109       0.004189750744
110      -0.003124009035
111      -0.000878445662
112      -0.001881439855
113       0.000000602129
114      -0.004198522623
115       0.003135787180
116       0.000882017933
117      -0.001886108157
118      -0.000000540300
119      -0.000000497623
120      -0.000002852038
121      -0.000000527061
122      -0.000645619475
123       0.000000007608
124      -0.000526201599
125      -0.000664078889
126      -0.000032991159
127      -0.000079702913
128      -0.000003216486
129       0.000525842340
130       0.000663408799
131       0.000032894619
132      -0.000079560232
133       0.000003220350
 Sym=     1a
 Ene= -1.01713381992276E+01
 Spin= Alpha
 Occup= 2.000000
  1       0.000108504871
  2       0.001340750782
  3      -0.012856881202
  4      -0.000290768764
  5      -0.000005508967
  6       0.000000210484
  7      -0.004991055572
  8      -0.000126094831
  9       0.000007633782
 10      -0.000065401705
 11       0.000000344801
 12       0.000000091360
 13      -0.000069997025
 14      -0.000000188379
 15      -0.004523590090
 16      -0.003523823365
 17       0.019887875889
 18      -0.001556648172
 19       0.000040211450
 20       0.000000683540
 21      -0.011408152531
 22       0.000377241658
 23       0.000010959817
 24       0.001371154339
 25       0.000000212380
 26       0.000000026608
 27       0.001236818833
 28       0.000035185479
 29       0.685510495219
 30       0.033403447247
 31      -0.018639936030
 32      -0.000414586696
 33       0.000071331062
 34       0.000000299362
 35       0.005919802511
 36      -0.000090857254
 37      -0.000004706348
 38      -0.001823990744
 39      -0.000001357978
 40       0.000000421860
 41      -0.000287905391
 42      -0.000406856684
 43       0.711083236541
 44       0.034674249901
 45      -0.018988910482
 46      -0.000418203585
 47      -0.000074063695
 48       0.000000334893
 49       0.005521633165
 50       0.000200068716
 51      -0.000004620673
 52      -0.001885786898
 53      -0.000001410882
 54      -0.000000496022
 55      -0.000285478747
 56       0.000411708830
 57      -0.018650472565
 58      -0.004554028822
 59       0.002314173891
 60       0.001806296213
 61       0.000049737935
 62      -0.000000763986
 63       0.002531168373
 64      -0.001288950699
 65      -0.000000633926
 66       0.000752763046
 67       0.000000926615
 68       0.000000046043
 69      -0.000861686650
 70       0.000000922039
 71      -0.019624555170
 72      -0.004657426816
 73       0.002841503555
 74       0.001864420280
 75      -0.000035702938
 76      -0.000000792545
 77       0.002517441162
 78       0.001242512064
 79      -0.000000595725
 80       0.000785945999
 81       0.000000956436
 82      -0.000000036754
 83      -0.000893998021
 84       0.000001795857
 85      -0.000252050633
 86      -0.000572268127
 87      -0.003516122916
 88       0.000136526877
 89      -0.000010200842
 90       0.000000003499
 91      -0.003506000733
 92       0.000077656234
 93       0.000001198625
 94      -0.000320940642
 95      -0.000000270951
 96      -0.000000004886
 97       0.000071740202
 98       0.000004029295
 99      -0.002736740976
100       0.005738618638
101      -0.001247910967
102       0.001837955689
103       0.000000810891
104      -0.002885086001
105       0.005845231035
106      -0.001275347931
107      -0.001910124112
108       0.000000899973
109       0.000287754957
110      -0.000366364351
111      -0.000512681820
112      -0.000118316689
113       0.000000217553
114       0.000274678935
115      -0.000441229677
116      -0.000529957088
117       0.000123920119
118       0.000000214393
119       0.000819563190
120       0.001589863399
121       0.000092968908
122      -0.000004578167
123       0.000000013433
124       0.000215526603
125      -0.000329941984
126       0.000242941283
127      -0.000124405585
128      -0.000000661224
129       0.000279138372
130      -0.000292742417
131       0.000245831904
132       0.000118674669
133      -0.000000366773
 Sym=     1a
 Ene= -1.01713355755436E+01
 Spin= Alpha
 Occup= 2.000000
  1       0.000002006507
  2       0.000024664197
  3      -0.000235375301
  4      -0.000005298634
  5       0.000304174937
  6       0.000000000254
  7      -0.000092155959
  8       0.006854966910
  9       0.000000048840
 10      -0.000001252746
 11       0.000000009409
 12      -0.000004955250
 13      -0.000001315346
 14       0.000014358286
 15      -0.000082903521
 16      -0.000064549197
 17       0.000364451842
 18      -0.000028333690
 19      -0.002202700685
 20       0.000000035464
 21      -0.000207216533
 22      -0.020666889733
 23       0.000000436500
 24       0.000025113864
 25       0.000000023501
 26       0.000000658467
 27       0.000022979217
 28      -0.001908691261
 29       0.710840500570
 30       0.035312873927
 31      -0.009873010310
 32      -0.000106928165
 33       0.000074736697
 34       0.000000871542
 35      -0.010782468239
 36      -0.002969046949
 37       0.000002592630
 38      -0.001721257335
 39      -0.000001434764
 40       0.000000070452
 41       0.000065649907
 42      -0.000143691580
 43      -0.685258681385
 44      -0.034065875390
 45       0.009183743610
 46       0.000091674691
 47       0.000072121265
 48      -0.000000865679
 49       0.010992668724
 50      -0.002961912638
 51      -0.000002710375
 52       0.001653309362
 53       0.000001386785
 54       0.000000120225
 55      -0.000076106707
 56      -0.000128745342
 57      -0.026927412049
 58      -0.002906546210
 59       0.014438666837
 60       0.001620413021
 61      -0.000373728661
 62      -0.000000888873
 63      -0.000343410113
 64       0.001269343612
 65       0.000001456677
 66       0.000919921676
 67       0.000000990184
 68       0.000000048847
 69      -0.000898485572
 70      -0.000082866584
 71       0.026226586821
 72       0.002737829290
 73      -0.014344339341
 74      -0.001553109842
 75      -0.000375565809
 76       0.000000864784
 77       0.000435753090
 78       0.001315796931
 79      -0.000001491420
 80      -0.000891736815
 81      -0.000000950264
 82       0.000000030638
 83       0.000866354057
 84      -0.000082552884
 85      -0.000004678885
 86      -0.000010475806
 87      -0.000064398469
 88       0.000002468027
 89       0.000557167306
 90      -0.000000006629
 91      -0.000063864676
 92      -0.004228857599
 93       0.000000070432
 94      -0.000005884385
 95      -0.000000002428
 96      -0.000000017786
 97       0.000001363324
 98      -0.000218146330
 99      -0.004101458861
100       0.003015687171
101      -0.000778670844
102       0.002001234549
103       0.000000718602
104       0.003998493478
105      -0.002803450249
106       0.000732040939
107       0.001932809540
108      -0.000000706206
109      -0.000352020794
110      -0.002051091966
111      -0.000479663869
112      -0.000158108449
113       0.000000070995
114       0.000362316639
115       0.002036292492
116       0.000460593213
117      -0.000153595487
118      -0.000000059825
119       0.000015001726
120       0.000029113332
121       0.000001709017
122       0.000244950572
123      -0.000000004225
124       0.001736087496
125       0.001006143186
126       0.000081350725
127       0.000148578529
128       0.000008156020
129      -0.001727213031
130      -0.001017718379
131      -0.000072487856
132       0.000153293744
133      -0.000008181043
 Sym=     1a
 Ene= -1.01651230058125E+01
 Spin= Alpha
 Occup= 2.000000
  1      -0.000002580128
  2       0.000080819208
  3      -0.002139320039
  4       0.000036058927
  5       0.000000002379
  6       0.000000044950
  7      -0.000267333202
  8      -0.000000022315
  9       0.000002963044
 10      -0.000013466145
 11      -0.000000330795
 12       0.000000000269
 13       0.000014158311
 14      -0.000000005702
 15      -0.000537361836
 16       0.001023495390
 17       0.005754834796
 18       0.000300411486
 19       0.000000024111
 20      -0.000000268543
 21      -0.001212192524
 22       0.000000098880
 23       0.000000534605
 24      -0.000002512034
 25       0.000000053615
 26      -0.000000000027
 27      -0.000049596491
 28      -0.000000009891
 29       0.000270155928
 30       0.000318211032
 31       0.005563233732
 32      -0.000249843725
 33      -0.000214271624
 34       0.000000076559
 35       0.004564281824
 36       0.003754631733
 37      -0.000002020468
 38       0.000176723315
 39       0.000000159649
 40      -0.000000023494
 41      -0.000051190904
 42       0.000108941220
 43       0.000270260744
 44       0.000318164888
 45       0.005563187085
 46      -0.000249847204
 47       0.000214275103
 48       0.000000070758
 49       0.004564563890
 50      -0.003753598589
 51      -0.000001926488
 52       0.000176744021
 53       0.000000163055
 54       0.000000030347
 55      -0.000051119537
 56      -0.000108986664
 57       0.014334931222
 58       0.004305187295
 59      -0.018482183032
 60       0.001310912482
 61      -0.001847339779
 62      -0.000000577439
 63       0.003547766023
 64      -0.000077919497
 65      -0.000001652114
 66      -0.001136844930
 67      -0.000000580218
 68       0.000000432590
 69      -0.000673888385
 70      -0.001045550509
 71       0.014335107167
 72       0.004305215714
 73      -0.018482132942
 74       0.001310602360
 75       0.001847573638
 76      -0.000000621775
 77       0.003547434722
 78       0.000078358104
 79      -0.000001644222
 80      -0.001136845583
 81      -0.000000605486
 82      -0.000000496275
 83      -0.000674258162
 84       0.001045321617
 85      -0.987936655551
 86      -0.048283951044
 87       0.034677648988
 88      -0.000213394539
 89      -0.000000013488
 90       0.000000217971
 91      -0.006019087029
 92      -0.000000685754
 93       0.000002698499
 94       0.002377567526
 95       0.000002273275
 96       0.000000042802
 97      -0.000581337832
 98      -0.000000119605
 99      -0.000456855174
100      -0.001020863749
101      -0.000225222624
102      -0.000187911299
103       0.000000115266