[Molden Format]
[Title]
 Molden file created by orca_2mkl for BaseName=honokiol_3

[Atoms] AU
O    1   8          0.3244471814         3.8876317642        -3.4066570724 
O    2   8         -7.7357289204        -2.6437815479         2.3293909126 
C    3   6          1.9848672126         0.8399938911        -0.5191026679 
C    4   6         -0.5771125541        -0.0169378567         0.2334513982 
C    5   6         -4.9221797682        -1.2396735539        -0.8568387653 
C    6   6         -2.5312168949        -0.3632077978        -1.5362244769 
C    7   6          6.6029254592         0.5068892221         0.0111797791 
C    8   6          4.1328363833        -0.2495609807         0.5881940220 
C    9   6          2.3767541638         2.7823933193        -2.3143710309 
C   10   6         -1.1079629596        -0.5786153391         2.7709655202 
C   11   6         -5.3935858176        -1.7871916616         1.7052566471 
C   12   6         -7.0239865313        -1.5126974424        -2.7774343403 
C   13   6          8.8432408733        -0.7425656562         1.2964238550 
C   14   6          6.9233707222         2.4272874261        -1.7742213148 
C   15   6         -3.4827122378        -1.4567568649         3.5003810373 
C   16   6          4.8309773215         3.5502577982        -2.9218689050 
C   17   6         -8.7648340020         0.7459137696        -2.7532354157 
C   18   6          8.8187927626        -3.5770174421         1.0691857240 
C   19   6        -11.1887015461         0.7030823547        -2.0566493606 
C   20   6          8.7382829278        -5.1888323371         3.0101396295 
H   21   1         -2.1705521568         0.0569489961        -3.5209752947 
H   22   1          3.8603508680        -1.7942037770         1.9304447527 
H   23   1          0.3457293706        -0.2947978090         4.2078327541 
H   24   1         -6.1725691857        -1.7081325089        -4.6704668176 
H   25   1         -8.1197629289        -3.2388992158        -2.3951643730 
H   26   1         10.5964605865         0.0061311515         0.4484726031 
H   27   1          8.8913274583        -0.2179010311         3.3162289964 
H   28   1          8.8236825664         3.0595378600        -2.2834146238 
H   29   1         -3.8675379635        -1.8746203727         5.4900150364 
H   30   1          5.0989896830         5.0594519669        -4.3123003786 
H   31   1         -7.8913599184         2.5435847673        -3.3082987761 
H   32   1          8.8310831466        -4.3178769699        -0.8679434293 
H   33   1          0.8893205421         5.2216928519        -4.5172907559 
H   34   1         -7.8114366587        -2.9372218372         4.1293259259 
H   35   1        -12.3438440474         2.4174523653        -2.0526964009 
H   36   1        -12.0982814421        -1.0518699420        -1.4458623739 
H   37   1          8.7096896172        -7.2350060675         2.7205968660 
H   38   1          8.7029062910        -4.5162099945         4.9680556070 
[GTO]
  1 0 
s   5 1.0  
     2266.1767785000        -0.0053893504 
      340.8701019100        -0.0402347214 
       77.3631351670        -0.1800818421 
       21.4796449400        -0.4682885766 
        6.6589433124        -0.4469261716 
s   1 1.0  
        0.8097597567         1.0000000000 
s   1 1.0  
        0.2553077223         0.9999999999 
p   3 1.0  
       17.7215043170         0.0626302488 
        3.8635505440         0.3333113849 
        1.0480920883         0.7414863830 
p   1 1.0  
        0.2764154441         1.0000000002 
d   1 1.0  
        1.2000000000         1.0000000000 

  2 0 
s   5 1.0  
     2266.1767785000        -0.0053893504 
      340.8701019100        -0.0402347214 
       77.3631351670        -0.1800818421 
       21.4796449400        -0.4682885766 
        6.6589433124        -0.4469261716 
s   1 1.0  
        0.8097597567         1.0000000000 
s   1 1.0  
        0.2553077223         0.9999999999 
p   3 1.0  
       17.7215043170         0.0626302488 
        3.8635505440         0.3333113849 
        1.0480920883         0.7414863830 
p   1 1.0  
        0.2764154441         1.0000000002 
d   1 1.0  
        1.2000000000         1.0000000000 

  3 0 
s   5 1.0  
     1238.4016938000         0.0055173650 
      186.2900499200         0.0410888285 
       42.2511763460         0.1822538213 
       11.6765579320         0.4682845944 
        3.5930506482         0.4457581733 
s   1 1.0  
        0.4024514736         0.9999999999 
s   1 1.0  
        0.1309018267         1.0000000001 
p   3 1.0  
        9.4680970621         0.0568883320 
        2.0103545142         0.3129405934 
        0.5477100471         0.7606501651 
p   1 1.0  
        0.1526861379         0.9999999997 
d   1 1.0  
        0.8000000000         1.0000000000 

  4 0 
s   5 1.0  
     1238.4016938000         0.0055173650 
      186.2900499200         0.0410888285 
       42.2511763460         0.1822538213 
       11.6765579320         0.4682845944 
        3.5930506482         0.4457581733 
s   1 1.0  
        0.4024514736         0.9999999999 
s   1 1.0  
        0.1309018267         1.0000000001 
p   3 1.0  
        9.4680970621         0.0568883320 
        2.0103545142         0.3129405934 
        0.5477100471         0.7606501651 
p   1 1.0  
        0.1526861379         0.9999999997 
d   1 1.0  
        0.8000000000         1.0000000000 

  5 0 
s   5 1.0  
     1238.4016938000         0.0055173650 
      186.2900499200         0.0410888285 
       42.2511763460         0.1822538213 
       11.6765579320         0.4682845944 
        3.5930506482         0.4457581733 
s   1 1.0  
        0.4024514736         0.9999999999 
s   1 1.0  
        0.1309018267         1.0000000001 
p   3 1.0  
        9.4680970621         0.0568883320 
        2.0103545142         0.3129405934 
        0.5477100471         0.7606501651 
p   1 1.0  
        0.1526861379         0.9999999997 
d   1 1.0  
        0.8000000000         1.0000000000 

  6 0 
s   5 1.0  
     1238.4016938000         0.0055173650 
      186.2900499200         0.0410888285 
       42.2511763460         0.1822538213 
       11.6765579320         0.4682845944 
        3.5930506482         0.4457581733 
s   1 1.0  
        0.4024514736         0.9999999999 
s   1 1.0  
        0.1309018267         1.0000000001 
p   3 1.0  
        9.4680970621         0.0568883320 
        2.0103545142         0.3129405934 
        0.5477100471         0.7606501651 
p   1 1.0  
        0.1526861379         0.9999999997 
d   1 1.0  
        0.8000000000         1.0000000000 

  7 0 
s   5 1.0  
     1238.4016938000         0.0055173650 
      186.2900499200         0.0410888285 
       42.2511763460         0.1822538213 
       11.6765579320         0.4682845944 
        3.5930506482         0.4457581733 
s   1 1.0  
        0.4024514736         0.9999999999 
s   1 1.0  
        0.1309018267         1.0000000001 
p   3 1.0  
        9.4680970621         0.0568883320 
        2.0103545142         0.3129405934 
        0.5477100471         0.7606501651 
p   1 1.0  
        0.1526861379         0.9999999997 
d   1 1.0  
        0.8000000000         1.0000000000 

  8 0 
s   5 1.0  
     1238.4016938000         0.0055173650 
      186.2900499200         0.0410888285 
       42.2511763460         0.1822538213 
       11.6765579320         0.4682845944 
        3.5930506482         0.4457581733 
s   1 1.0  
        0.4024514736         0.9999999999 
s   1 1.0  
        0.1309018267         1.0000000001 
p   3 1.0  
        9.4680970621         0.0568883320 
        2.0103545142         0.3129405934 
        0.5477100471         0.7606501651 
p   1 1.0  
        0.1526861379         0.9999999997 
d   1 1.0  
        0.8000000000         1.0000000000 

  9 0 
s   5 1.0  
     1238.4016938000         0.0055173650 
      186.2900499200         0.0410888285 
       42.2511763460         0.1822538213 
       11.6765579320         0.4682845944 
        3.5930506482         0.4457581733 
s   1 1.0  
        0.4024514736         0.9999999999 
s   1 1.0  
        0.1309018267         1.0000000001 
p   3 1.0  
        9.4680970621         0.0568883320 
        2.0103545142         0.3129405934 
        0.5477100471         0.7606501651 
p   1 1.0  
        0.1526861379         0.9999999997 
d   1 1.0  
        0.8000000000         1.0000000000 

 10 0 
s   5 1.0  
     1238.4016938000         0.0055173650 
      186.2900499200         0.0410888285 
       42.2511763460         0.1822538213 
       11.6765579320         0.4682845944 
        3.5930506482         0.4457581733 
s   1 1.0  
        0.4024514736         0.9999999999 
s   1 1.0  
        0.1309018267         1.0000000001 
p   3 1.0  
        9.4680970621         0.0568883320 
        2.0103545142         0.3129405934 
        0.5477100471         0.7606501651 
p   1 1.0  
        0.1526861379         0.9999999997 
d   1 1.0  
        0.8000000000         1.0000000000 

 11 0 
s   5 1.0  
     1238.4016938000         0.0055173650 
      186.2900499200         0.0410888285 
       42.2511763460         0.1822538213 
       11.6765579320         0.4682845944 
        3.5930506482         0.4457581733 
s   1 1.0  
        0.4024514736         0.9999999999 
s   1 1.0  
        0.1309018267         1.0000000001 
p   3 1.0  
        9.4680970621         0.0568883320 
        2.0103545142         0.3129405934 
        0.5477100471         0.7606501651 
p   1 1.0  
        0.1526861379         0.9999999997 
d   1 1.0  
        0.8000000000         1.0000000000 

 12 0 
s   5 1.0  
     1238.4016938000         0.0055173650 
      186.2900499200         0.0410888285 
       42.2511763460         0.1822538213 
       11.6765579320         0.4682845944 
        3.5930506482         0.4457581733 
s   1 1.0  
        0.4024514736         0.9999999999 
s   1 1.0  
        0.1309018267         1.0000000001 
p   3 1.0  
        9.4680970621         0.0568883320 
        2.0103545142         0.3129405934 
        0.5477100471         0.7606501651 
p   1 1.0  
        0.1526861379         0.9999999997 
d   1 1.0  
        0.8000000000         1.0000000000 

 13 0 
s   5 1.0  
     1238.4016938000         0.0055173650 
      186.2900499200         0.0410888285 
       42.2511763460         0.1822538213 
       11.6765579320         0.4682845944 
        3.5930506482         0.4457581733 
s   1 1.0  
        0.4024514736         0.9999999999 
s   1 1.0  
        0.1309018267         1.0000000001 
p   3 1.0  
        9.4680970621         0.0568883320 
        2.0103545142         0.3129405934 
        0.5477100471         0.7606501651 
p   1 1.0  
        0.1526861379         0.9999999997 
d   1 1.0  
        0.8000000000         1.0000000000 

 14 0 
s   5 1.0  
     1238.4016938000         0.0055173650 
      186.2900499200         0.0410888285 
       42.2511763460         0.1822538213 
       11.6765579320         0.4682845944 
        3.5930506482         0.4457581733 
s   1 1.0  
        0.4024514736         0.9999999999 
s   1 1.0  
        0.1309018267         1.0000000001 
p   3 1.0  
        9.4680970621         0.0568883320 
        2.0103545142         0.3129405934 
        0.5477100471         0.7606501651 
p   1 1.0  
        0.1526861379         0.9999999997 
d   1 1.0  
        0.8000000000         1.0000000000 

 15 0 
s   5 1.0  
     1238.4016938000         0.0055173650 
      186.2900499200         0.0410888285 
       42.2511763460         0.1822538213 
       11.6765579320         0.4682845944 
        3.5930506482         0.4457581733 
s   1 1.0  
        0.4024514736         0.9999999999 
s   1 1.0  
        0.1309018267         1.0000000001 
p   3 1.0  
        9.4680970621         0.0568883320 
        2.0103545142         0.3129405934 
        0.5477100471         0.7606501651 
p   1 1.0  
        0.1526861379         0.9999999997 
d   1 1.0  
        0.8000000000         1.0000000000 

 16 0 
s   5 1.0  
     1238.4016938000         0.0055173650 
      186.2900499200         0.0410888285 
       42.2511763460         0.1822538213 
       11.6765579320         0.4682845944 
        3.5930506482         0.4457581733 
s   1 1.0  
        0.4024514736         0.9999999999 
s   1 1.0  
        0.1309018267         1.0000000001 
p   3 1.0  
        9.4680970621         0.0568883320 
        2.0103545142         0.3129405934 
        0.5477100471         0.7606501651 
p   1 1.0  
        0.1526861379         0.9999999997 
d   1 1.0  
        0.8000000000         1.0000000000 

 17 0 
s   5 1.0  
     1238.4016938000         0.0055173650 
      186.2900499200         0.0410888285 
       42.2511763460         0.1822538213 
       11.6765579320         0.4682845944 
        3.5930506482         0.4457581733 
s   1 1.0  
        0.4024514736         0.9999999999 
s   1 1.0  
        0.1309018267         1.0000000001 
p   3 1.0  
        9.4680970621         0.0568883320 
        2.0103545142         0.3129405934 
        0.5477100471         0.7606501651 
p   1 1.0  
        0.1526861379         0.9999999997 
d   1 1.0  
        0.8000000000         1.0000000000 

 18 0 
s   5 1.0  
     1238.4016938000         0.0055173650 
      186.2900499200         0.0410888285 
       42.2511763460         0.1822538213 
       11.6765579320         0.4682845944 
        3.5930506482         0.4457581733 
s   1 1.0  
        0.4024514736         0.9999999999 
s   1 1.0  
        0.1309018267         1.0000000001 
p   3 1.0  
        9.4680970621         0.0568883320 
        2.0103545142         0.3129405934 
        0.5477100471         0.7606501651 
p   1 1.0  
        0.1526861379         0.9999999997 
d   1 1.0  
        0.8000000000         1.0000000000 

 19 0 
s   5 1.0  
     1238.4016938000         0.0055173650 
      186.2900499200         0.0410888285 
       42.2511763460         0.1822538213 
       11.6765579320         0.4682845944 
        3.5930506482         0.4457581733 
s   1 1.0  
        0.4024514736         0.9999999999 
s   1 1.0  
        0.1309018267         1.0000000001 
p   3 1.0  
        9.4680970621         0.0568883320 
        2.0103545142         0.3129405934 
        0.5477100471         0.7606501651 
p   1 1.0  
        0.1526861379         0.9999999997 
d   1 1.0  
        0.8000000000         1.0000000000 

 20 0 
s   5 1.0  
     1238.4016938000         0.0055173650 
      186.2900499200         0.0410888285 
       42.2511763460         0.1822538213 
       11.6765579320         0.4682845944 
        3.5930506482         0.4457581733 
s   1 1.0  
        0.4024514736         0.9999999999 
s   1 1.0  
        0.1309018267         1.0000000001 
p   3 1.0  
        9.4680970621         0.0568883320 
        2.0103545142         0.3129405934 
        0.5477100471         0.7606501651 
p   1 1.0  
        0.1526861379         0.9999999997 
d   1 1.0  
        0.8000000000         1.0000000000 

 21 0 
s   3 1.0  
       13.0107010000         0.0334854848 
        1.9622572000         0.2347218709 
        0.4445379600         0.8137702852 
s   1 1.0  
        0.1219496200         0.9999999999 
p   1 1.0  
        0.8000000000         1.0000000000 

 22 0 
s   3 1.0  
       13.0107010000         0.0334854848 
        1.9622572000         0.2347218709 
        0.4445379600         0.8137702852 
s   1 1.0  
        0.1219496200         0.9999999999 
p   1 1.0  
        0.8000000000         1.0000000000 

 23 0 
s   3 1.0  
       13.0107010000         0.0334854848 
        1.9622572000         0.2347218709 
        0.4445379600         0.8137702852 
s   1 1.0  
        0.1219496200         0.9999999999 
p   1 1.0  
        0.8000000000         1.0000000000 

 24 0 
s   3 1.0  
       13.0107010000         0.0334854848 
        1.9622572000         0.2347218709 
        0.4445379600         0.8137702852 
s   1 1.0  
        0.1219496200         0.9999999999 
p   1 1.0  
        0.8000000000         1.0000000000 

 25 0 
s   3 1.0  
       13.0107010000         0.0334854848 
        1.9622572000         0.2347218709 
        0.4445379600         0.8137702852 
s   1 1.0  
        0.1219496200         0.9999999999 
p   1 1.0  
        0.8000000000         1.0000000000 

 26 0 
s   3 1.0  
       13.0107010000         0.0334854848 
        1.9622572000         0.2347218709 
        0.4445379600         0.8137702852 
s   1 1.0  
        0.1219496200         0.9999999999 
p   1 1.0  
        0.8000000000         1.0000000000 

 27 0 
s   3 1.0  
       13.0107010000         0.0334854848 
        1.9622572000         0.2347218709 
        0.4445379600         0.8137702852 
s   1 1.0  
        0.1219496200         0.9999999999 
p   1 1.0  
        0.8000000000         1.0000000000 

 28 0 
s   3 1.0  
       13.0107010000         0.0334854848 
        1.9622572000         0.2347218709 
        0.4445379600         0.8137702852 
s   1 1.0  
        0.1219496200         0.9999999999 
p   1 1.0  
        0.8000000000         1.0000000000 

 29 0 
s   3 1.0  
       13.0107010000         0.0334854848 
        1.9622572000         0.2347218709 
        0.4445379600         0.8137702852 
s   1 1.0  
        0.1219496200         0.9999999999 
p   1 1.0  
        0.8000000000         1.0000000000 

 30 0 
s   3 1.0  
       13.0107010000         0.0334854848 
        1.9622572000         0.2347218709 
        0.4445379600         0.8137702852 
s   1 1.0  
        0.1219496200         0.9999999999 
p   1 1.0  
        0.8000000000         1.0000000000 

 31 0 
s   3 1.0  
       13.0107010000         0.0334854848 
        1.9622572000         0.2347218709 
        0.4445379600         0.8137702852 
s   1 1.0  
        0.1219496200         0.9999999999 
p   1 1.0  
        0.8000000000         1.0000000000 

 32 0 
s   3 1.0  
       13.0107010000         0.0334854848 
        1.9622572000         0.2347218709 
        0.4445379600         0.8137702852 
s   1 1.0  
        0.1219496200         0.9999999999 
p   1 1.0  
        0.8000000000         1.0000000000 

 33 0 
s   3 1.0  
       13.0107010000         0.0334854848 
        1.9622572000         0.2347218709 
        0.4445379600         0.8137702852 
s   1 1.0  
        0.1219496200         0.9999999999 
p   1 1.0  
        0.8000000000         1.0000000000 

 34 0 
s   3 1.0  
       13.0107010000         0.0334854848 
        1.9622572000         0.2347218709 
        0.4445379600         0.8137702852 
s   1 1.0  
        0.1219496200         0.9999999999 
p   1 1.0  
        0.8000000000         1.0000000000 

 35 0 
s   3 1.0  
       13.0107010000         0.0334854848 
        1.9622572000         0.2347218709 
        0.4445379600         0.8137702852 
s   1 1.0  
        0.1219496200         0.9999999999 
p   1 1.0  
        0.8000000000         1.0000000000 

 36 0 
s   3 1.0  
       13.0107010000         0.0334854848 
        1.9622572000         0.2347218709 
        0.4445379600         0.8137702852 
s   1 1.0  
        0.1219496200         0.9999999999 
p   1 1.0  
        0.8000000000         1.0000000000 

 37 0 
s   3 1.0  
       13.0107010000         0.0334854848 
        1.9622572000         0.2347218709 
        0.4445379600         0.8137702852 
s   1 1.0  
        0.1219496200         0.9999999999 
p   1 1.0  
        0.8000000000         1.0000000000 

 38 0 
s   3 1.0  
       13.0107010000         0.0334854848 
        1.9622572000         0.2347218709 
        0.4445379600         0.8137702852 
s   1 1.0  
        0.1219496200         0.9999999999 
p   1 1.0  
        0.8000000000         1.0000000000 

[5D]
[9G]
[MO]
 Sym=     1a
 Ene= -1.91621443503635E+01
 Spin= Alpha
 Occup= 2.000000
  1      -0.988439759064
  2       0.044141015473
  3      -0.037550025668
  4       0.002480025035
  5       0.000518604231
  6      -0.000302385976
  7      -0.007595438721
  8       0.004621307877
  9      -0.004420602695
 10       0.000137823658
 11      -0.000416687183
 12      -0.000755571269
 13      -0.000520622852
 14       0.000468378260
 15       0.002780447203
 16      -0.000244448244
 17       0.000513025971
 18      -0.000043591782
 19       0.000003998347
 20       0.000004175458
 21       0.000293518994
 22       0.000009675849
 23      -0.000104904841
 24      -0.000004161188
 25      -0.000011987661
 26      -0.000008187576
 27       0.000024589953
 28       0.000008492146
 29       0.000005773937
 30       0.000232707872
 31       0.004203026971
 32      -0.000419152574
 33      -0.000317597520
 34       0.000260496217
 35       0.023338280186
 36       0.009527394658
 37      -0.008177955156
 38      -0.000046319789
 39      -0.000207730511
 40       0.000075630402
 41       0.000045786656
 42       0.000226490790
 43      -0.000065248420
 44       0.001130667333
 45       0.009274501347
 46      -0.000071164731
 47      -0.000070844957
 48       0.000096055687
 49       0.015035076711
 50       0.003654708434
 51      -0.002411749766
 52      -0.000173775431
 53      -0.000105871527
 54       0.000152226037
 55       0.000203469976
 56       0.000066455607
 57      -0.000012853057
 58       0.000025218154
 59      -0.002793517418
 60      -0.000092292088
 61       0.000041653081
 62      -0.000061853944
 63       0.001877802533
 64      -0.000259695684
 65       0.000408473389
 66      -0.000005288366
 67      -0.000082482428
 68      -0.000014008094
 69       0.000065559325
 70       0.000027042078
 71       0.000013789575
 72      -0.000021601637
 73       0.004977259974
 74      -0.000062730781
 75      -0.000273134845
 76       0.000108650772
 77       0.001418749929
 78       0.000984202319
 79       0.003433278066
 80       0.000254399116
 81       0.000067380226
 82       0.000061777549
 83       0.000007513168
 84      -0.000055580342
 85       0.000017999071
 86      -0.000150489184
 87       0.007867000569
 88       0.000068521119
 89      -0.000053930278
 90       0.000062583176
 91      -0.002702357737
 92       0.000826649120
 93      -0.000948231975
 94       0.000017849853
 95      -0.000037208803
 96      -0.000028204078
 97      -0.000034209534
 98       0.000038388537
 99       0.000066446268
100      -0.001172447599
101      -0.010207935723
102       0.000202058050
103      -0.000231343459
104       0.000232827602
105      -0.002236260162
106      -0.003609722794
107       0.003251006117
108      -0.000139679892
109      -0.000009140430
110       0.000043391253
111       0.000239116700
112       0.000030110891
113      -0.000056388403
114       0.003182555123
115      -0.013941281486
116       0.000132185548
117       0.000088919061
118      -0.000078851230
119      -0.025370748249
120       0.014382407472
121      -0.014236834620
122       0.000102831150
123      -0.000487821577
124       0.000101720617
125      -0.000197636188
126       0.000493728745
127      -0.000035664720
128       0.000228235931
129       0.002617777666
130      -0.000032476212
131       0.000017276671
132      -0.000062585728
133      -0.002523045836
134      -0.000012317812
135      -0.002638579962
136       0.000106799776
137       0.000149676139
138      -0.000032214272
139       0.000045685347
140       0.000009899670
141       0.000013090947
142      -0.000227592971
143       0.001700669702
144      -0.000045886940
145      -0.000046260027
146       0.000005213438
147       0.000689010431
148       0.000620908631
149      -0.000063411833
150       0.000047023787
151       0.000064254415
152      -0.000015185920
153      -0.000004083406
154      -0.000004859755
155       0.000017882553
156      -0.000441278350
157       0.003743636724
158      -0.000015250183
159      -0.000026630832
160       0.000020858926
161       0.000926421843
162       0.000823046423
163       0.000898854441
164       0.000033211158
165       0.000052953294
166       0.000011957699
167       0.000015514335
168       0.000005072602
169       0.000006472291
170      -0.000092190753
171       0.000734222145
172       0.000009577945
173       0.000014770968
174      -0.000004093294
175      -0.000247048821
176       0.000060002768
177      -0.000142492365
178      -0.000007818547
179       0.000005710548
180      -0.000008200119
181       0.000007038225
182      -0.000011405845
183       0.000041376969
184      -0.000668535254
185      -0.012854674326
186       0.000224234795
187      -0.000100789237
188       0.000103853613
189       0.003647889081
190      -0.000149351330
191       0.000364589156
192       0.000004377251
193       0.000034270866
194      -0.000091600020
195      -0.000020467282
196      -0.000036873334
197       0.000005768395
198      -0.000209297671
199      -0.002095171248
200      -0.000063721384
201      -0.000023751019
202       0.000034439166
203       0.000466166263
204      -0.000171921337
205       0.000710772762
206       0.000011363776
207      -0.000012350917
208      -0.000018740782
209       0.000042166215
210       0.000037527612
211      -0.000036120423
212       0.000477336865
213       0.020058433381
214      -0.000131031840
215       0.000046936050
216      -0.000046579863
217       0.000748003828
218      -0.009392636207
219       0.008691032222
220       0.000185166281
221      -0.000180422599
222      -0.000386496211
223      -0.000402545681
224       0.000185590305
225       0.000012935040
226      -0.000188434394
227       0.000571431918
228       0.000008619319
229       0.000021247622
230      -0.000032500198
231      -0.001102699329
232       0.000304472646
233       0.000257209861
234      -0.000003191090
235       0.000007898033
236       0.000020030718
237       0.000007082688
238       0.000011868486
239       0.000009003137
240      -0.000111293062
241       0.000351164386
242       0.000027782127
243      -0.000006103119
244      -0.000010228378
245      -0.000047690281
246      -0.000207863195
247       0.000213139941
248       0.000000264560
249       0.000002364806
250      -0.000005649275
251      -0.000000557943
252       0.000008322928
253       0.000003672644
254      -0.000011256437
255      -0.001299598776
256      -0.000009032684
257      -0.000001839238
258       0.000010604510
259      -0.000589642540
260      -0.000068902060
261       0.000131153651
262       0.000015153274
263       0.000001984198
264       0.000013817418
265       0.000000915481
266      -0.000001277344
267       0.000003633468
268      -0.000032074012
269      -0.000355160798
270       0.000011574438
271      -0.000004402183
272       0.000003792799
273      -0.000026886872
274      -0.000122459361
275       0.000139799375
276      -0.000002178521
277      -0.000002607133
278      -0.000002169462
279       0.000004530623
280       0.000002560528
281      -0.000112025871
282       0.000543411649
283      -0.000254667693
284      -0.000092336408
285      -0.000071274678
286      -0.000152765280
287      -0.000733954033
288       0.000109734458
289       0.000075547607
290      -0.000072227184
291       0.000316868522
292       0.001185078495
293       0.000012773630
294      -0.000046005727
295       0.000077603510
296      -0.000152007007
297      -0.000125881478
298      -0.000025779950
299      -0.000031997189
300       0.000005608504
301      -0.000021628688
302      -0.000042625125
303       0.000005062097
304       0.000003182504
305      -0.000037898431
306       0.000004939641
307      -0.000111524037
308       0.000007130670
309      -0.000013592586
310       0.000016503960
311      -0.000045788466
312      -0.000054953565
313       0.000021628751
314      -0.000007963274
315      -0.000002634689
316       0.000079124681
317       0.000690022891
318      -0.000103195689
319      -0.000028904933
320       0.000017524833
321      -0.000004663183
322       0.000125429635
323      -0.000044433232
324       0.000008339295
325      -0.000030392465
326       0.001015681559
327       0.001430884896
328       0.000179492907
329       0.000242152225
330      -0.000210670372
331       0.000053443365
332      -0.000162813060
333       0.000039989759
334       0.000001268609
335      -0.000013828320
336      -0.000019314608
337      -0.000009142995
338       0.000011902277
339       0.000000341898
340       0.000001590440
341      -0.001459744875
342       0.000174587706
343       0.001334215255
344       0.002099351777
345      -0.001739361868
346      -0.000017645247
347       0.000095226521
348      -0.000007993994
349       0.000007664246
350      -0.000007026324
351       0.000014123450
352       0.000042080943
353       0.000016794834
354       0.000010446783
355      -0.000000320980
356       0.000008807188
357       0.000003261152
358       0.000017928285
359      -0.000005376614
360      -0.000002096018
361      -0.000000923053
362      -0.000013326582
363       0.000004695818
364      -0.000000013020
365      -0.000005588588
366      -0.000008410702
367       0.000023043140
368       0.000002948985
369       0.000004747481
370      -0.000005033414
 Sym=     1a
 Ene= -1.91603054623386E+01
 Spin= Alpha
 Occup= 2.000000
  1       0.002799648660
  2      -0.000034872591
  3      -0.000263244316
  4      -0.000027070784
  5      -0.000012355549
  6       0.000013605354
  7       0.000056468770
  8       0.000114772002
  9      -0.000107654793
 10      -0.000003377552
 11      -0.000003513623
 12      -0.000001792710
 13       0.000000293461
 14       0.000004569888
 15       0.988436208623
 16      -0.044188591254
 17       0.037659652427
 18      -0.002034318605
 19      -0.000443942191
 20      -0.001484978890
 21       0.009034872859
 22       0.003449335697
 23      -0.002965691580
 24      -0.001079594380
 25       0.000085671115
 26       0.000279276077
 27       0.000171670047
 28       0.000100397636
 29       0.000006235348
 30      -0.000077393975
 31      -0.001270582013
 32      -0.000034109346
 33      -0.000021619827
 34       0.000010570957
 35       0.001818315477
 36       0.000537089026
 37      -0.000420306033
 38       0.000013140609
 39       0.000006130029
 40       0.000005476969