[Molden Format]
[Title]
 Molden file created by orca_2mkl for BaseName=p_toluidine_3

[Atoms] AU
N    1   7         -5.3418119575         0.0001261574        -0.0229144229 
C    2   6          2.6565165170        -0.0000060963         0.0330865164 
C    3   6         -2.7415122532         0.0000293300        -0.0063599063 
C    4   6          1.2706508382        -2.2593837337         0.0287055066 
C    5   6          1.2706431841         2.2594827282         0.0274673383 
C    6   6         -1.3623948636        -2.2785183159         0.0081761754 
C    7   6         -1.3623090910         2.2786303475         0.0069352075 
C    8   6          5.5068934517         0.0002851162        -0.0141513985 
H    9   1          2.2789569006        -4.0649726607         0.0454144323 
H   10   1          2.2789548975         4.0650882175         0.0431946003 
H   11   1         -2.3770429429        -4.0797906615         0.0119409500 
H   12   1         -2.3769664096         4.0799035291         0.0097191037 
H   13   1          6.2860637566         1.6773801689         0.9415345418 
H   14   1          6.2858564556        -1.6867620473         0.9238811754 
H   15   1          6.2443846952         0.0106422232        -1.9680135184 
H   16   1         -6.3190978191         1.6358489883        -0.0323949993 
H   17   1         -6.3192253024        -1.6355266469        -0.0314969871 
[GTO]
  1 0
s   5 1.0 
     1712.8415853000        -1.0337585405
      257.6481267700        -1.8620740805
       58.4582458530        -2.7290401880
       16.1983679050        -2.6956734544
        5.0052600809        -1.0640914367
s   1 1.0 
        0.5873185657         0.4781513534
s   1 1.0 
        0.1876459225         0.2031956662
p   3 1.0 
       13.5714702330        -2.1850243557
        2.9257372874        -1.7466999024
        0.7992775075        -0.8114650516
p   1 1.0 
        0.2195434803         0.2142105067
d   1 1.0 
        1.0000000000         2.8508218814

  2 0
s   5 1.0 
     1238.4016938000         0.8208956682
      186.2900499200         1.4766449896
       42.2511763460         2.1526124058
       11.6765579320         2.1081722461
        3.5930506482         0.8290999933
s   1 1.0 
        0.4024514736         0.3601183351
s   1 1.0 
        0.1309018267         0.1551027052
p   3 1.0 
        9.4680970621         1.3467645142
        2.0103545142         1.0678070931
        0.5477100471         0.5108735714
p   1 1.0 
        0.1526861379         0.1360471976
d   1 1.0 
        0.8000000000         1.9292013661

  3 0
s   5 1.0 
     1238.4016938000         0.8208956682
      186.2900499200         1.4766449896
       42.2511763460         2.1526124058
       11.6765579320         2.1081722461
        3.5930506482         0.8290999933
s   1 1.0 
        0.4024514736         0.3601183351
s   1 1.0 
        0.1309018267         0.1551027052
p   3 1.0 
        9.4680970621         1.3467645142
        2.0103545142         1.0678070931
        0.5477100471         0.5108735714
p   1 1.0 
        0.1526861379         0.1360471976
d   1 1.0 
        0.8000000000         1.9292013661

  4 0
s   5 1.0 
     1238.4016938000         0.8208956682
      186.2900499200         1.4766449896
       42.2511763460         2.1526124058
       11.6765579320         2.1081722461
        3.5930506482         0.8290999933
s   1 1.0 
        0.4024514736         0.3601183351
s   1 1.0 
        0.1309018267         0.1551027052
p   3 1.0 
        9.4680970621         1.3467645142
        2.0103545142         1.0678070931
        0.5477100471         0.5108735714
p   1 1.0 
        0.1526861379         0.1360471976
d   1 1.0 
        0.8000000000         1.9292013661

  5 0
s   5 1.0 
     1238.4016938000         0.8208956682
      186.2900499200         1.4766449896
       42.2511763460         2.1526124058
       11.6765579320         2.1081722461
        3.5930506482         0.8290999933
s   1 1.0 
        0.4024514736         0.3601183351
s   1 1.0 
        0.1309018267         0.1551027052
p   3 1.0 
        9.4680970621         1.3467645142
        2.0103545142         1.0678070931
        0.5477100471         0.5108735714
p   1 1.0 
        0.1526861379         0.1360471976
d   1 1.0 
        0.8000000000         1.9292013661

  6 0
s   5 1.0 
     1238.4016938000         0.8208956682
      186.2900499200         1.4766449896
       42.2511763460         2.1526124058
       11.6765579320         2.1081722461
        3.5930506482         0.8290999933
s   1 1.0 
        0.4024514736         0.3601183351
s   1 1.0 
        0.1309018267         0.1551027052
p   3 1.0 
        9.4680970621         1.3467645142
        2.0103545142         1.0678070931
        0.5477100471         0.5108735714
p   1 1.0 
        0.1526861379         0.1360471976
d   1 1.0 
        0.8000000000         1.9292013661

  7 0
s   5 1.0 
     1238.4016938000         0.8208956682
      186.2900499200         1.4766449896
       42.2511763460         2.1526124058
       11.6765579320         2.1081722461
        3.5930506482         0.8290999933
s   1 1.0 
        0.4024514736         0.3601183351
s   1 1.0 
        0.1309018267         0.1551027052
p   3 1.0 
        9.4680970621         1.3467645142
        2.0103545142         1.0678070931
        0.5477100471         0.5108735714
p   1 1.0 
        0.1526861379         0.1360471976
d   1 1.0 
        0.8000000000         1.9292013661

  8 0
s   5 1.0 
     1238.4016938000         0.8208956682
      186.2900499200         1.4766449896
       42.2511763460         2.1526124058
       11.6765579320         2.1081722461
        3.5930506482         0.8290999933
s   1 1.0 
        0.4024514736         0.3601183351
s   1 1.0 
        0.1309018267         0.1551027052
p   3 1.0 
        9.4680970621         1.3467645142
        2.0103545142         1.0678070931
        0.5477100471         0.5108735714
p   1 1.0 
        0.1526861379         0.1360471976
d   1 1.0 
        0.8000000000         1.9292013661

  9 0
s   3 1.0 
       13.0107010000         0.1634903809
        1.9622572000         0.2773515510
        0.4445379600         0.3157501452
s   1 1.0 
        0.1219496200         0.1470772262
p   1 1.0 
        0.8000000000         1.0784563492

 10 0
s   3 1.0 
       13.0107010000         0.1634903809
        1.9622572000         0.2773515510
        0.4445379600         0.3157501452
s   1 1.0 
        0.1219496200         0.1470772262
p   1 1.0 
        0.8000000000         1.0784563492

 11 0
s   3 1.0 
       13.0107010000         0.1634903809
        1.9622572000         0.2773515510
        0.4445379600         0.3157501452
s   1 1.0 
        0.1219496200         0.1470772262
p   1 1.0 
        0.8000000000         1.0784563492

 12 0
s   3 1.0 
       13.0107010000         0.1634903809
        1.9622572000         0.2773515510
        0.4445379600         0.3157501452
s   1 1.0 
        0.1219496200         0.1470772262
p   1 1.0 
        0.8000000000         1.0784563492

 13 0
s   3 1.0 
       13.0107010000         0.1634903809
        1.9622572000         0.2773515510
        0.4445379600         0.3157501452
s   1 1.0 
        0.1219496200         0.1470772262
p   1 1.0 
        0.8000000000         1.0784563492

 14 0
s   3 1.0 
       13.0107010000         0.1634903809
        1.9622572000         0.2773515510
        0.4445379600         0.3157501452
s   1 1.0 
        0.1219496200         0.1470772262
p   1 1.0 
        0.8000000000         1.0784563492

 15 0
s   3 1.0 
       13.0107010000         0.1634903809
        1.9622572000         0.2773515510
        0.4445379600         0.3157501452
s   1 1.0 
        0.1219496200         0.1470772262
p   1 1.0 
        0.8000000000         1.0784563492

 16 0
s   3 1.0 
       13.0107010000         0.1634903809
        1.9622572000         0.2773515510
        0.4445379600         0.3157501452
s   1 1.0 
        0.1219496200         0.1470772262
p   1 1.0 
        0.8000000000         1.0784563492

 17 0
s   3 1.0 
       13.0107010000         0.1634903809
        1.9622572000         0.2773515510
        0.4445379600         0.3157501452
s   1 1.0 
        0.1219496200         0.1470772262
p   1 1.0 
        0.8000000000         1.0784563492

[5D]
[7F]
[9G]
[MO]
 Sym=     1a
 Ene= -1.43276291550199E+01
 Spin= Alpha
 Occup= 2.000000
  1      -0.988115820293
  2       0.047456346280
  3      -0.036615184964
  4       0.000465717700
  5      -0.000000039199
  6       0.000012840489
  7      -0.010142494056
  8       0.000000559223
  9      -0.000065211730
 10      -0.001971249792
 11       0.000020588014
 12      -0.000001190535
 13      -0.000895568400
 14       0.000000098810
 15       0.000008387564
 16       0.000072960378
 17      -0.007887641960
 18       0.000120543417
 19      -0.000000016696
 20       0.000003318102
 21       0.002047657860
 22       0.000000847424
 23       0.000049671085
 24       0.000016497724
 25       0.000007223524
 26      -0.000000016301
 27      -0.000084848997
 28      -0.000000085007
 29       0.000287825830
 30       0.000127472607
 31       0.018232617263
 32       0.001540803818
 33       0.000000012267
 34       0.000008916324
 35      -0.012600687648
 36      -0.000001868901
 37      -0.000066228667
 38       0.000695412501
 39      -0.000016870657
 40      -0.000000064831
 41      -0.001450867524
 42       0.000000132070
 43       0.000011298430
 44      -0.000603562967
 45       0.007814594260
 46       0.000136073425
 47      -0.000087440980
 48      -0.000000167093
 49      -0.003183681974
 50       0.002988785240
 51      -0.000033385392
 52      -0.000161059199
 53       0.000003191291
 54      -0.000001508100
 55       0.000087964080
 56       0.000056220808
 57       0.000011291484
 58      -0.000603514975
 59       0.007819349806
 60       0.000136239591
 61       0.000087497896
 62      -0.000000229367
 63      -0.003189172731
 64      -0.002987551064
 65      -0.000031719186
 66      -0.000161081938
 67       0.000003231056
 68       0.000001393560
 69       0.000088019472
 70      -0.000056182935
 71      -0.000035897260
 72       0.000487841377
 73      -0.006641506016
 74       0.000189908041
 75       0.000036973851
 76       0.000003347811
 77      -0.001140942551
 78      -0.000373133344
 79      -0.000021374759
 80      -0.000137144477
 81      -0.000002084094
 82      -0.000000688059
 83      -0.000299279935
 84       0.000335107195
 85      -0.000035886419
 86       0.000487786129
 87      -0.006644947406
 88       0.000189915366
 89      -0.000036975082
 90       0.000003372216
 91      -0.001146702039
 92       0.000371729493
 93      -0.000021648161
 94      -0.000137102249
 95      -0.000001903304
 96       0.000000395731
 97      -0.000299266104
 98      -0.000335059702
 99       0.000030518529
100      -0.000640839392
101       0.002329626848
102       0.000072140425
103      -0.000000041972
104      -0.000003469875
105      -0.001014313354
106       0.000002185298
107      -0.000080993261
108      -0.000036349766
109      -0.000002014355
110       0.000000038512
111       0.000046975820
112       0.000000079226
113       0.000339477026
114       0.000762127136
115       0.000078783218
116       0.000081327664
117       0.000000635078
118       0.000339479621
119       0.000762029703
120       0.000078976125
121      -0.000081370931
122       0.000000680790
123      -0.000151223456
124       0.000136440994
125       0.000115966017
126      -0.000260085326
127       0.000003717218
128      -0.000151326123
129       0.000136279476
130       0.000116174055
131       0.000260161415
132       0.000003580600
133      -0.000101324789
134      -0.000102166009
135       0.000042258765
136      -0.000023114743
137      -0.000012847521
138      -0.000100509131
139      -0.000100113785
140       0.000041739330
141       0.000023252783
142      -0.000012789088
143      -0.000122051805
144      -0.000239453041
145       0.000071845499
146      -0.000000286876
147       0.000014868814
148      -0.003603181850
149       0.002678810739
150      -0.001375860680
151       0.003705997776
152      -0.000016240463
153      -0.003603180412
154       0.002678947636
155      -0.001376139476
156      -0.003705903743
157      -0.000014209057
 Sym=     1a
 Ene= -1.02176150012051E+01
 Spin= Alpha
 Occup= 2.000000
  1       0.000136869752
  2      -0.001375707142
  3       0.027630352142
  4      -0.001004381813
  5      -0.000000006715
  6      -0.000008053506
  7       0.014838155346
  8      -0.000001958840
  9       0.000079510023
 10      -0.001570033140
 11       0.000024924785
 12      -0.000000359236
 13       0.001385971511
 14      -0.000000071256
 15       0.000394316627
 16       0.001186840713
 17       0.001602053255
 18      -0.000568103562
 19       0.000000461722
 20      -0.000002294470
 21       0.004476389646
 22      -0.000016645580
 23       0.000139105690
 24       0.000052977226
 25       0.000013196392
 26       0.000000051251
 27       0.000038062423
 28       0.000000080392
 29      -0.988116774403
 30      -0.049064216572
 31       0.030772497841
 32      -0.000227272164
 33      -0.000000091039
 34      -0.000011901195
 35       0.037973470336
 36       0.000006037716
 37       0.000274817840
 38       0.002406517055
 39      -0.000033461032
 40       0.000000914861
 41      -0.000862325712
 42       0.000000317983
 43       0.000040049897
 44       0.001192902398
 45       0.015156034224
 46      -0.000083087213
 47       0.000296306058
 48       0.000002393798
 49      -0.006476666015
 50      -0.002032349238
 51      -0.000094843303
 52       0.000259171497
 53      -0.000004323149
 54      -0.000002591081
 55      -0.000051880123
 56       0.000062528792
 57       0.000040747987
 58       0.001193985411
 59       0.015174293095
 60      -0.000082803033
 61      -0.000296328949
 62       0.000002463769
 63      -0.006465298266
 64       0.002017966157
 65      -0.000095509887
 66       0.000259070696
 67      -0.000004278177
 68       0.000002804644
 69      -0.000051735523
 70      -0.000062758648
 71      -0.004181914214
 72       0.002610814159
 73      -0.031490653125
 74      -0.001059647699
 75       0.001631514224
 76      -0.000012718328
 77      -0.010652030641
 78      -0.009455588695
 79      -0.000035567763
 80      -0.000876582186
 81       0.000012884518
 82      -0.000013122681
 83      -0.000335133346
 84      -0.001242867944
 85      -0.004181636962
 86       0.002610876292
 87      -0.031496378915
 88      -0.001059594821
 89      -0.001631381437
 90      -0.000011808368
 91      -0.010644191612
 92       0.009464222356
 93      -0.000040813114
 94      -0.000876490142
 95       0.000012187540
 96       0.000012113244
 97      -0.000335184709
 98       0.001243025114
 99      -0.000117207520
100      -0.000174567905
101      -0.003861741401
102       0.000160723029
103      -0.000000342763
104       0.000022424398
105       0.001233595846
106       0.000012253601
107      -0.000556508310
108       0.000018212935
109      -0.000011224109
110      -0.000000062494
111      -0.000041688640
112      -0.000000073556
113      -0.000542923515
114      -0.001521630554
115       0.000259756872
116       0.000102335860
117       0.000004877611
118      -0.000542666842
119      -0.001518871872
120       0.000259344024
121      -0.000102335588
122       0.000004925686
123      -0.000905731417
124      -0.001279977242
125       0.000271342760
126      -0.000407907371
127       0.000004693511
128      -0.000905892100
129      -0.001280886729
130       0.000271091453
131       0.000407678901
132       0.000004491316
133       0.000124802641
134       0.000564146975
135      -0.000045952190
136      -0.000020070042
137      -0.000000513856
138       0.000126991629
139       0.000576617838
140      -0.000047183432
141       0.000019995960
142      -0.000000883690
143      -0.000012798705
144      -0.000155921870
145       0.000056688319
146      -0.000000423584
147      -0.000012511652
148      -0.000456116417
149      -0.000048897264
150      -0.001414607556
151      -0.000265248857
152      -0.000007101140
153      -0.000456658566
154      -0.000049545474
155      -0.001414621457
156       0.000265254232
157      -0.000007243356
 Sym=     1a
 Ene= -1.01728710625637E+01
 Spin= Alpha
 Occup= 2.000000
  1       0.000031057709
  2       0.000336035985
  3       0.000761749954
  4      -0.000084843817
  5      -0.000000103644
  6      -0.000001510792
  7      -0.000163137284
  8       0.000000218470
  9      -0.000035958114
 10       0.000031993126
 11      -0.000004449211
 12       0.000000008640
 13      -0.000026524563
 14       0.000000088720
 15      -0.008073250326
 16       0.002255434364
 17      -0.031233226833
 18       0.000828596730
 19       0.000000037192
 20       0.000020719388
 21       0.017842250205
 22       0.000015643366
 23      -0.000165017987
 24      -0.000670683738
 25      -0.000027611096
 26       0.000000065221
 27       0.001415065013
 28      -0.000000870250
 29       0.000178784168
 30      -0.000412066038
 31       0.017490156574
 32      -0.000108928626
 33       0.000000229302
 34      -0.000011055453
 35       0.008126546368
 36      -0.000009728941
 37       0.000227219378
 38      -0.000080225623
 39       0.000004327624
 40      -0.000000044097
 41      -0.000019793854
 42       0.000000020555
 43      -0.006448144020
 44      -0.000174635277
 45       0.028009000050
 46       0.000504173416
 47       0.000033341829
 48      -0.000033688042
 49      -0.011017602001
 50       0.011525932075
 51       0.000191498467
 52       0.000004394864
 53       0.000023928041
 54       0.000012758575
 55       0.000004749518
 56       0.000083856946
 57      -0.006781929060
 58      -0.000195982829
 59       0.028049169308
 60       0.000504238421
 61      -0.000033338452
 62      -0.000033667624
 63      -0.011054891836
 64      -0.011510739972
 65       0.000197597540
 66       0.000004564801
 67       0.000023976329
 68      -0.000012756324
 69       0.000004943213
 70      -0.000083170218
 71      -0.004484021800
 72      -0.000326411448
 73      -0.024760487156
 74      -0.000146988935
 75       0.000025764025
 76       0.000019071391
 77      -0.007314562769
 78      -0.007125399417
 79      -0.000244108383
 80       0.000135003483
 81      -0.000010471933
 82      -0.000003740314
 83      -0.000046366386
 84      -0.000019280377
 85      -0.004532083729
 86      -0.000326825038
 87      -0.024793942894
 88      -0.000146209658
 89      -0.000025982189
 90       0.000019110182
 91      -0.007345822479
 92       0.007116168039
 93      -0.000248276161
 94       0.000135109250
 95      -0.000010479849
 96       0.000003839266
 97      -0.000046171536
 98       0.000019309569
 99      -0.987720139371
100      -0.052403594205
101       0.035378425840
102      -0.000618763128
103      -0.000000694184
104       0.000031269453
105       0.000693307717
106       0.000008096422
107      -0.000483400169
108      -0.000266248851
109      -0.000027215620
110       0.000000076504
111       0.000508511390
112       0.000000551986
113       0.001490213656
114       0.002389458567
115       0.000123749699
116       0.000066245287
117       0.000001232175
118       0.001491203502
119       0.002375275414
120       0.000123695986
121      -0.000066380820
122       0.000001319001
123      -0.000410483896
124      -0.000514146028
125       0.000144287081
126       0.000033253178
127       0.000024272859
128      -0.000410242793
129      -0.000511933723
130       0.000145377830
131      -0.000032886656
132       0.000024303969
133       0.003192226326
134      -0.007104608924
135      -0.000760414155
136      -0.002268807863
137      -0.001295824315
138       0.003196451106
139      -0.007099572468
140      -0.000762287082
141       0.002282372204
142      -0.001272468785
143       0.003032599247
144      -0.007705138005
145      -0.000575218653
146      -0.000014282599
147       0.002583309559
148       0.000006422580
149      -0.000151771900
150       0.000019994480
151       0.000030893398
152       0.000003833770
153       0.000005931018
154      -0.000150728216
155       0.000020066585
156      -0.000030950948
157       0.000003852218
 Sym=     1a
 Ene= -1.01724328790027E+01
 Spin= Alpha
 Occup= 2.000000
  1      -0.000003275068
  2       0.000249979880
  3      -0.006317175227
  4       0.000051239713
  5      -0.000002068763
  6       0.000000981280
  7      -0.001521684556
  8      -0.000121890602
  9      -0.000008685839
 10      -0.000010153697
 11      -0.000000076685
 12      -0.000000017017
 13       0.000024447632
 14      -0.000003059174
 15      -0.072093003709
 16       0.001583845467
 17      -0.018713530117
 18      -0.001135886258
 19       0.000110650748
 20      -0.000003716912
 21      -0.008209638946
 22       0.000559858734
 23      -0.000068733185
 24      -0.001297882368
 25       0.000003437153
 26      -0.000001706839
 27      -0.001041643507
 28      -0.000090944732
 29       0.000058896115
 30       0.001399356762
 31       0.000943112064
 32       0.000378454924
 33      -0.000020988300
 34       0.000001384088
 35      -0.008826573122
 36       0.000620231055
 37      -0.000041876658
 38       0.000152973672
 39      -0.000003435283
 40      -0.000000064111
 41      -0.000100603142
 42       0.000004874373
 43      -0.661873871390
 44      -0.031780744266
 45       0.015815228024
 46      -0.000234868243
 47       0.000239867557
 48      -0.000011092651
 49       0.005576241641
 50       0.000641426611
 51       0.000081092417
 52       0.001628720317
 53      -0.000020954214
 54       0.000015198324
 55       0.000313247161
 56       0.000384789301
 57      -0.728586695415
 58      -0.035075182136
 59       0.017164114806
 60      -0.000248649420
 61      -0.000254646885
 62      -0.000008031647
 63       0.004874483831
 64      -0.000755020739
 65       0.000064894706
 66       0.001776724144
 67      -0.000023155604
 68      -0.000014869102
 69       0.000320761942
 70      -0.000397018606
 71      -0.032642433131
 72       0.001951617388
 73       0.002799556417
 74       0.001616559568
 75       0.000111182700
 76       0.000016112460
 77       0.004057650829
 78       0.000676911028
 79      -0.000001366853
 80      -0.000635803898
 81       0.000013899041
 82      -0.000002837500
 83       0.000829419307
 84      -0.000013560399
 85      -0.037626473455
 86       0.001860935886
 87       0.001149028906
 88       0.001773423273
 89      -0.000078187608
 90       0.000016715780
 91       0.004404644739
 92      -0.000452136027
 93       0.000008066371
 94      -0.000699771025
 95       0.000016065696
 96       0.000002559372
 97       0.000911696188
 98       0.000003120799
 99       0.010120892539
100       0.000793415767
101       0.010910135517
102      -0.000350706797
103      -0.000001816150
104      -0.000010296640
105      -0.004016712296
106      -0.000198797065
107       0.000469578575
108       0.000058668614
109      -0.000020086826
110       0.000001535211
111       0.000161408593
112       0.000022710471
113       0.002835261403
114      -0.005068487638
115      -0.001237125288
116       0.001700071703
117      -0.000017926744
118       0.003229164838
119      -0.005314437529
120      -0.001312386680
121      -0.001885515422
122      -0.000018089217
123       0.000221094174
124       0.000425757963
125      -0.000424690728
126       0.000022509142
127      -0.000000462978
128       0.000292025926
129       0.000582124954
130      -0.000467648062
131      -0.000032818212
132      -0.000001582739
133      -0.000333158713
134      -0.000729989594
135       0.000165030272
136       0.000036849437
137      -0.000002125785
138      -0.000366455073
139      -0.000860817361
140       0.000145772642
141      -0.000023825600
142       0.000013601160
143      -0.000073243202
144      -0.000574385128
145      -0.000006076412
146       0.000014147781
147      -0.000108764550
148       0.000208242113
149       0.000303045759
150       0.000057867000
151      -0.000070989933
152       0.000000518817
153       0.000165861441
154       0.000247165304
155       0.000055125964
156       0.000064540089
157       0.000000431691
 Sym=     1a
 Ene= -1.01724167221990E+01
 Spin= Alpha
 Occup= 2.000000
  1      -0.000000122993
  2       0.000012250042
  3      -0.000302800621
  4       0.000002320463
  5       0.000042046734
  6       0.000000039705
  7      -0.000073750087
  8       0.002529598772
  9      -0.000001049768
 10      -0.000000493694
 11      -0.000000014772
 12       0.000000416937
 13       0.000001132456
 14       0.000064036196
 15      -0.003500142401
 16       0.000073024904
 17      -0.000858620601
 18      -0.000055357914
 19      -0.002318379556
 20       0.000000398479
 21      -0.000380005524
 22      -0.011542839183
 23       0.000000773412
 24      -0.000062857412
 25      -0.000000310766
 26       0.000016583408
 27      -0.000049473623
 28       0.001898190696
 29       0.000002325023
 30       0.000064999519
 31       0.000049397170
 32       0.000017448745
 33       0.000447735872
 34      -0.000000037024
 35      -0.000421978522
 36      -0.012933144889
 37       0.000001264067
 38       0.000007628251
 39      -0.000000145702
 40       0.000002434289
 41      -0.000004534528
 42      -0.000095412082
 43      -0.729527259916
 44      -0.035975534382
 45       0.014909090274
 46      -0.000150275567
 47       0.000165963844
 48       0.000030854905
 49      -0.006994515533
 50       0.001253058311
 51      -0.000171812377
 52       0.001630262684
 53      -0.000026338991
 54       0.000016670774
 55       0.000091057554
 56       0.000145717130
 57       0.662874369538
 58       0.032771227335
 59      -0.013318108750
 60       0.000129120075
 61       0.000141526520
 62      -0.000031672529
 63       0.007468764145
 64       0.001198430709
 65       0.000176817583
 66      -0.001466936549
 67       0.000024126128
 68       0.000013787069
 69      -0.000060969014
 70       0.000109204025
 71      -0.050971035973
 72      -0.000727048369
 73      -0.017136993021
 74       0.001715671681
 75      -0.000340670455
 76       0.000006650555
 77       0.003855270383
 78      -0.002331367078
 79       0.000097544535
 80      -0.000707008469
 81       0.000023669248
 82       0.000001027880
 83       0.000902723409
 84       0.000109069963
 85       0.047943277337
 86       0.000924255348
 87       0.017289139180
 88      -0.001553890663
 89      -0.000349373471
 90      -0.000004926094
 91      -0.003460346650
 92      -0.002391563084
 93      -0.000095417328
 94       0.000642262716
 95      -0.000022243513
 96       0.000001447130
 97      -0.000819340496
 98       0.000109563071
 99       0.000245374420
100       0.000031350964
101       0.000482057751
102      -0.000016489920
103       0.000035742961
104      -0.000000361327
105      -0.000188961769
106       0.004060158028
107       0.000018759839
108       0.000002002400
109      -0.000000867386
110      -0.000025305190
111       0.000008349523
112      -0.000459388939
113       0.004252993172
114      -0.002811131700
115      -0.000849814331
116       0.002020591335
117      -0.000013065386
118      -0.003960632786
119       0.002304419576
120       0.000728781279
121       0.001849283487
122       0.000010339744
123       0.000739193098
124       0.001668121209
125      -0.000474413810
126       0.000102907991
127      -0.000012037517
128      -0.000715105208
129      -0.001612949128
130       0.000431606500
131       0.000101211936
132       0.000011827475
133      -0.000342887812
134      -0.001377396237
135      -0.000210610304
136      -0.000128585937
137       0.000177139850
138       0.000318661593
139       0.001328528339
140       0.000224391699
141      -0.000126140779
142      -0.000176193886
143      -0.000002581128
144      -0.000030526171
145      -0.000002500245
146      -0.000293066322
147      -0.000005520157
148      -0.000427936162
149      -0.000570131328
150      -0.000025871005
151       0.000063723027
152      -0.000000505843
153       0.000445646193
154       0.000595531634
155       0.000031259070
156       0.000070060125
157       0.000000496452
 Sym=     1a
 Ene= -1.01693518051232E+01
 Spin= Alpha
 Occup= 2.000000
  1       0.000090300316
  2       0.001129172401
  3      -0.011060865096
  4      -0.000239122472
  5       0.000167929253
  6      -0.000001532529
  7      -0.004234024850
  8       0.003686748131
  9      -0.000029875263
 10      -0.000054796985
 11       0.000000046103
 12      -0.000000675153
 13      -0.000054846896
 14       0.000003937641
 15      -0.011091856441
 16      -0.000798894848
 17      -0.003334663706
 18       0.000283441088
 19       0.000381512507
 20       0.000001324359
 21      -0.004617070584
 22      -0.002954720691
 23      -0.000177198281
 24      -0.000270863645
 25      -0.000012956442
 26       0.000000182370
 27       0.000057524072
 28      -0.000105602685
 29      -0.004037494302
 30      -0.002846589740
 31       0.015894246348
 32      -0.001282196077
 33      -0.001246716596
 34      -0.000016070843
 35      -0.010250100382
 36      -0.010702246616
 37      -0.000035584149
 38       0.001149723960
 39      -0.000009923931
 40      -0.000011923451
 41       0.001014509192
 42      -0.001055854007
 43      -0.000794576789
 44      -0.002271084361
 45      -0.007665229141
 46       0.000610671784
 47      -0.000253146239
 48       0.000003306525
 49       0.003071557364
 50       0.001143539960
 51       0.000076780743
 52       0.000141091676
 53      -0.000003319162
 54       0.000006273124
 55      -0.000230592527
 56      -0.000033158364
 57      -0.055546869015
 58      -0.006645701771
 59       0.009660621607
 60       0.002372460744
 61      -0.000186250704
 62       0.000012789527
 63       0.003292231358
 64      -0.000409455755
 65       0.000094730398
 66       0.001188038139