[Molden Format]
[Title]
 Molden file created by orca_2mkl for BaseName=superoxideradical_3

[Atoms] AU
O    1   8         -0.0086763841         0.0000000000         0.0000000000 
O    2   8          2.5220121422         0.0000000000         0.0000000000 
[GTO]
  1 0 
s   5 1.0  
     2266.1767785000        -0.0053893504 
      340.8701019100        -0.0402347214 
       77.3631351670        -0.1800818421 
       21.4796449400        -0.4682885766 
        6.6589433124        -0.4469261716 
s   1 1.0  
        0.8097597567         1.0000000000 
s   1 1.0  
        0.2553077223         0.9999999999 
p   3 1.0  
       17.7215043170         0.0626302488 
        3.8635505440         0.3333113849 
        1.0480920883         0.7414863830 
p   1 1.0  
        0.2764154441         1.0000000002 
d   1 1.0  
        1.2000000000         1.0000000000 

  2 0 
s   5 1.0  
     2266.1767785000        -0.0053893504 
      340.8701019100        -0.0402347214 
       77.3631351670        -0.1800818421 
       21.4796449400        -0.4682885766 
        6.6589433124        -0.4469261716 
s   1 1.0  
        0.8097597567         1.0000000000 
s   1 1.0  
        0.2553077223         0.9999999999 
p   3 1.0  
       17.7215043170         0.0626302488 
        3.8635505440         0.3333113849 
        1.0480920883         0.7414863830 
p   1 1.0  
        0.2764154441         1.0000000002 
d   1 1.0  
        1.2000000000         1.0000000000 

[5D]
[9G]
[MO]
 Sym=     1a
 Ene= -1.88073354902578E+01
 Spin= Alpha
 Occup= 1.000000
  1       0.699283638822
  2      -0.027311429938
  3       0.016743195707
  4      -0.001413076562
  5       0.000000000004
  6      -0.000000000032
  7       0.005117413116
  8       0.000000000012
  9      -0.000000000028
 10       0.000239837405
 11       0.000000000030
 12      -0.000091993932
 13      -0.000484398277
 14       0.000000000017
 15      -0.699286265494
 16       0.027311526220
 17      -0.016743226961
 18      -0.001413080249
 19       0.000000000066
 20      -0.000000000082
 21       0.005117416552
 22      -0.000000000074
 23      -0.000000000096
 24      -0.000239835344
 25       0.000000000126
 26       0.000091994297
 27       0.000484395013
 28       0.000000000054
 Sym=     1a
 Ene= -1.88070547791392E+01
 Spin= Alpha
 Occup= 1.000000
  1       0.699602340035
  2      -0.025707356010
  3       0.008211914246
  4      -0.000882887343
  5       0.000000000011
  6       0.000000000013
  7       0.000912074286
  8      -0.000000000018
  9      -0.000000000047
 10      -0.000520425575
 11      -0.000000000048
 12      -0.000089765499
 13       0.000834086876
 14      -0.000000000016
 15       0.699599714550
 16      -0.025707253663
 17       0.008211850332
 18       0.000882881729
 19       0.000000000072
 20      -0.000000000074
 21      -0.000912054633
 22      -0.000000000063
 23      -0.000000000088
 24      -0.000520426330
 25       0.000000000122
 26      -0.000089765125
 27       0.000834088513
 28       0.000000000050
 Sym=     1a
 Ene= -7.35803529038554E-01
 Spin= Alpha
 Occup= 1.000000
  1       0.203769385255
  2       0.406433410924
  3       0.235956220358
  4       0.141502649612
  5       0.000000000010
  6      -0.000000000140
  7       0.040602752831
  8      -0.000000000148
  9      -0.000000000327
 10      -0.007193675108
 11      -0.000000000123
 12       0.004712494797
 13       0.015993920801
 14      -0.000000000022
 15       0.203769385399
 16       0.406433413819
 17       0.235956217776
 18      -0.141502651737
 19       0.000000000183
 20      -0.000000000726
 21      -0.040602752671
 22      -0.000000000181
 23      -0.000000000628
 24      -0.007193674872
 25       0.000000000250
 26       0.004712494843
 27       0.015993920501
 28       0.000000000120
 Sym=     1a
 Ene= -3.96186472230955E-01
 Spin= Alpha
 Occup= 1.000000
  1       0.219319777534
  2       0.444233368941
  3       0.388455102068
  4      -0.098573886586
  5      -0.000000000057
  6      -0.000000000894
  7      -0.057093032244
  8      -0.000000000062
  9      -0.000000000784
 10       0.005039702836
 11      -0.000000000003
 12       0.005599905988
 13      -0.004529419705
 14       0.000000000018
 15      -0.219319778050
 16      -0.444233365889
 17      -0.388455107883
 18      -0.098573892475
 19       0.000000000216
 20      -0.000000001546
 21      -0.057093034604
 22      -0.000000000309
 23      -0.000000001233
 24      -0.005039702708
 25       0.000000000277
 26      -0.005599905922
 27       0.004529419597
 28       0.000000000112
 Sym=     1a
 Ene= -8.96363869344846E-02
 Spin= Alpha
 Occup= 1.000000
  1      -0.000000003974
  2      -0.000000008472
  3      -0.000000013321
  4       0.000000031910
  5       0.250614332881
  6       0.361622975572
  7       0.000000019085
  8       0.174162081831
  9       0.251306422105
 10      -0.000000000861
 11       0.015488117428
 12      -0.000000000138
 13       0.000000001391
 14       0.010733658995
 15      -0.000000004549
 16      -0.000000007406
 17      -0.000000018167
 18      -0.000000033492
 19       0.250614333687
 20       0.361622976745
 21      -0.000000020216
 22       0.174162082488
 23       0.251306423058
 24      -0.000000000914
 25      -0.015488117360
 26      -0.000000000180
 27       0.000000001443
 28      -0.010733658946
 Sym=     1a
 Ene= -8.66627465483507E-02
 Spin= Alpha
 Occup= 1.000000
  1       0.059798030596
  2       0.099142567886
  3       0.234084830211
  4      -0.447386835827
  5       0.000000019378
  6       0.000000025766
  7      -0.270243407768
  8       0.000000013455
  9       0.000000017847
 10       0.012088427695
 11       0.000000001036
 12       0.002240204666
 13      -0.019257771769
 14       0.000000000839
 15       0.059798029022
 16       0.099142569444
 17       0.234084818786
 18       0.447386832289
 19       0.000000019538
 20       0.000000025144
 21       0.270243406867
 22       0.000000013522
 23       0.000000017438
 24       0.012088427746
 25      -0.000000001025
 26       0.002240204620
 27      -0.019257771863
 28      -0.000000000758
 Sym=     1a
 Ene= -4.94288413209986E-02
 Spin= Alpha
 Occup= 1.000000
  1       0.000000000651
  2       0.000000000612
  3       0.000000002147
  4      -0.000000001743
  5      -0.355070851376
  6       0.246073600900
  7      -0.000000001057
  8      -0.257137453857
  9       0.178203079300
 10       0.000000000022
 11       0.011046049079
 12       0.000000000016
 13      -0.000000000013
 14      -0.015938823080
 15       0.000000000012
 16       0.000000000040
 17       0.000000000170
 18       0.000000001112
 19      -0.355070852939
 20       0.246073601991
 21       0.000000000727
 22      -0.257137455187
 23       0.178203080225
 24       0.000000000045
 25      -0.011046049043
 26       0.000000000008
 27      -0.000000000097
 28       0.015938823027
 Sym=     1a
 Ene=  9.94283435765046E-02
 Spin= Alpha
 Occup= 1.000000
  1      -0.000000000064
  2      -0.000000001134
  3       0.000000001655
  4      -0.000000000303
  5      -0.284876754988
  6      -0.411061788158
  7      -0.000000000237
  8      -0.232878801201
  9      -0.336031443465
 10      -0.000000000014
 11       0.003738354693
 12      -0.000000000002
 13       0.000000000016
 14       0.002590797334
 15      -0.000000000086
 16      -0.000000000538
 17       0.000000000414
 18      -0.000000000134
 19       0.284876754323
 20       0.411061787164
 21       0.000000000016
 22       0.232878800677
 23       0.336031442723
 24      -0.000000000005
 25       0.003738354849
 26      -0.000000000009
 27      -0.000000000003
 28       0.002590797464
 Sym=     1a
 Ene=  1.43298808265014E-01
 Spin= Alpha
 Occup= 1.000000
  1      -0.000000000184
  2      -0.000000000080
  3      -0.000000000372
  4       0.000000000232
  5      -0.404797926976
  6       0.280535799506
  7       0.000000000354
  8      -0.345376619502
  9       0.239355164405
 10      -0.000000000000
 11      -0.002476790497
 12      -0.000000000010
 13       0.000000000011
 14       0.003573900694
 15       0.000000000004
 16       0.000000000213
 17      -0.000000000445
 18      -0.000000000047
 19       0.404797925693
 20      -0.280535798591
 21       0.000000000130
 22       0.345376618446
 23      -0.239355163684
 24       0.000000000034
 25      -0.002476790618
 26      -0.000000000007
 27      -0.000000000039
 28       0.003573900908
 Sym=     1a
 Ene=  5.06388219771930E-01
 Spin= Alpha
 Occup= 0.000000
  1      -0.114029476340
  2      -0.271604639059
  3      -0.635468971854
  4      -0.496553741246
  5      -0.000000000149
  6      -0.000000000443
  7      -0.819207275866
  8      -0.000000000152
  9      -0.000000000261
 10      -0.009138672822
 11      -0.000000000040
 12      -0.003035880675
 13       0.013551879449
 14      -0.000000000026
 15       0.114029475670
 16       0.271604639765
 17       0.635468967215
 18      -0.496553742417
 19      -0.000000000419
 20      -0.000000000987
 21      -0.819207278099
 22      -0.000000000029
 23      -0.000000000448
 24       0.009138672797
 25      -0.000000000089
 26       0.003035880624
 27      -0.013551879455
 28      -0.000000000029
 Sym=     1a
 Ene=  1.11242437772105E+00
 Spin= Alpha
 Occup= 0.000000
  1       0.220353623925
  2       1.101824707288
  3      -0.988993717764
  4      -0.216163665957
  5       0.000000000203
  6       0.000000001936
  7       0.221511950990
  8       0.000000000009
  9      -0.000000001720
 10      -0.016233840817
 11      -0.000000000109
 12       0.002296950411
 13       0.029840490755
 14      -0.000000000063
 15       0.220353624108
 16       1.101824707632
 17      -0.988993721833
 18       0.216163665619
 19       0.000000001128
 20       0.000000002831
 21      -0.221511943870
 22      -0.000000000673
 23      -0.000000001247
 24      -0.016233840622
 25       0.000000000280
 26       0.002296950423
 27       0.029840490509
 28       0.000000000093
 Sym=     1a
 Ene=  1.17464105828648E+00
 Spin= Alpha
 Occup= 0.000000
  1      -0.115820672087
  2      -0.539894561434
  3      -0.007921407340
  4       0.599351893736
  5      -0.000000000891
  6      -0.000000001216
  7      -0.979501230783
  8       0.000000000419
  9       0.000000000283
 10       0.015114280665
 11      -0.000000000022
 12      -0.001608417644
 13      -0.027384929355
 14      -0.000000000022
 15       0.115820672219
 16       0.539894561233
 17       0.007921405281
 18       0.599351897984
 19      -0.000000001835
 20      -0.000000003094
 21      -0.979501237314
 22       0.000000001687
 23       0.000000002753
 24      -0.015114280466
 25      -0.000000000107
 26       0.001608417636
 27       0.027384929000
 28      -0.000000000016
 Sym=     1a
 Ene=  1.19683515716445E+00
 Spin= Alpha
 Occup= 0.000000
  1       0.000000001166
  2       0.000000004824
  3      -0.000000002125
  4      -0.000000002737
  5      -0.392857047014
  6      -0.566869847043
  7       0.000000004342
  8       0.356241049502
  9       0.514035166559
 10      -0.000000000091
 11      -0.011904800689
 12       0.000000000000
 13       0.000000000150
 14      -0.008250348943
 15       0.000000000222
 16       0.000000001174
 17      -0.000000003072
 18      -0.000000001127
 19      -0.392857048277
 20      -0.566869849199
 21       0.000000002614
 22       0.356241051468
 23       0.514035169842
 24       0.000000000006
 25       0.011904800700
 26      -0.000000000000
 27      -0.000000000005
 28       0.008250348944
 Sym=     1a
 Ene=  1.22750895129253E+00
 Spin= Alpha
 Occup= 0.000000
  1      -0.000000000065
  2      -0.000000000502
  3      -0.000000000138
  4       0.000000000525
  5      -0.570946382996
  6       0.395682143443
  7      -0.000000001233
  8       0.511198052569
  9      -0.354274892416
 10       0.000000000032
 11       0.009012901851
 12      -0.000000000013
 13      -0.000000000016
 14      -0.013005064940
 15      -0.000000000275
 16      -0.000000001458
 17       0.000000002154
 18      -0.000000000269
 19      -0.570946386051
 20       0.395682145969
 21      -0.000000000338
 22       0.511198057206
 23      -0.354274896212
 24      -0.000000000014
 25      -0.009012901889
 26      -0.000000000004
 27       0.000000000002
 28       0.013005064974
 Sym=     1a
 Ene=  1.29736865379867E+00
 Spin= Alpha
 Occup= 0.000000
  1      -0.000000000152
  2      -0.000000000405
  3      -0.000000001980
  4       0.000000000866
  5      -0.374604048645
  6      -0.540530508726
  7      -0.000000002696
  8       0.558228749567
  9       0.805489753256
 10       0.000000000045
 11      -0.017886417029
 12      -0.000000000020
 13      -0.000000000089
 14      -0.012395805603
 15      -0.000000000015
 16      -0.000000000536
 17       0.000000002738
 18       0.000000001136
 19       0.374604047423
 20       0.540530506355
 21      -0.000000003020
 22      -0.558228748451
 23      -0.805489751105
 24      -0.000000000001
 25      -0.017886417004
 26      -0.000000000007
 27       0.000000000002
 28      -0.012395805587
 Sym=     1a
 Ene=  1.32524366714152E+00
 Spin= Alpha
 Occup= 0.000000
  1      -0.000000000217
  2      -0.000000000833
  3       0.000000002926
  4       0.000000000797
  5      -0.545235723041
  6       0.377864816256
  7       0.000000000563
  8       0.801646023765
  9      -0.555564987428
 10      -0.000000000119
 11       0.012192217582
 12      -0.000000000011
 13       0.000000000237
 14      -0.017592584984
 15       0.000000000198
 16       0.000000001436
 17      -0.000000002824
 18      -0.000000001529
 19       0.545235719698
 20      -0.377864813711
 21       0.000000003300
 22      -0.801646020773
 23       0.555564985150
 24      -0.000000000080
 25       0.012192217553
 26      -0.000000000005
 27       0.000000000153
 28      -0.017592584940
 Sym=     1a
 Ene=  1.36899112207827E+00
 Spin= Alpha
 Occup= 0.000000
  1       0.061265125254
  2       0.406445640472
  3      -0.147847691917
  4       0.616352173912
  5       0.000000000864
  6      -0.000000001116
  7      -0.739485833501
  8      -0.000000001244
  9       0.000000001511
 10      -0.071263940462
 11      -0.000000000093
 12      -0.002257811023
 13       0.121739589672
 14       0.000000000026
 15       0.061265125913
 16       0.406445640620
 17      -0.147847679722
 18      -0.616352168788
 19      -0.000000000732
 20       0.000000000714
 21       0.739485819616
 22       0.000000001248
 23      -0.000000000825
 24      -0.071263940512
 25       0.000000000089
 26      -0.002257810990
 27       0.121739589829
 28       0.000000000070
 Sym=     1a
 Ene=  1.52490783533302E+00
 Spin= Alpha
 Occup= 0.000000
  1       0.181472417352
  2       1.256552057799
  3      -3.185428389577
  4       0.267053890354
  5       0.000000000003
  6       0.000000000756
  7      -1.898781778739
  8       0.000000000233
  9      -0.000000000691
 10       0.007211339907
 11       0.000000000147
 12      -0.000596963805
 13      -0.012937983931
 14      -0.000000000039
 15      -0.181472416729
 16      -1.256552057041
 17       3.185428390115
 18       0.267053893768
 19       0.000000000616
 20      -0.000000000503
 21      -1.898781780601
 22      -0.000000000360
 23       0.000000001493
 24      -0.007211339359
 25       0.000000000324
 26       0.000596963857
 27       0.012937983011
 28       0.000000000135
 Sym=     1a
 Ene=  2.57689695437257E+00
 Spin= Alpha
 Occup= 0.000000
  1      -0.000000000364
  2      -0.000000000880
  3       0.000000000794
  4       0.000000000147
  5       0.014320539879
  6       0.020663901008
  7       0.000000000119
  8       0.033283046577
  9       0.048025799427
 10       0.000000000146
 11      -0.546164303190
 12      -0.000000000055
 13      -0.000000000288
 14      -0.378504981388
 15      -0.000000000076
 16      -0.000000000056
 17      -0.000000000267
 18      -0.000000000136
 19       0.014320539832
 20       0.020663900979
 21       0.000000000258
 22       0.033283046396
 23       0.048025799178
 24       0.000000000197
 25       0.546164303693
 26       0.000000000095
 27      -0.000000000244
 28       0.378504981736
 Sym=     1a
 Ene=  2.60821993240567E+00
 Spin= Alpha
 Occup= 0.000000
  1      -0.000000000064
  2      -0.000000000117
  3       0.000000000000
  4       0.000000000050
  5      -0.022011686610
  6       0.015254665721
  7      -0.000000000108
  8      -0.047438673596
  9       0.032876126980
 10      -0.000000000035
 11      -0.378478603095
 12       0.000000000015
 13      -0.000000000081
 14       0.546126243909
 15      -0.000000000033
 16      -0.000000000109
 17       0.000000000153
 18       0.000000000004
 19      -0.022011686567
 20       0.015254665717
 21      -0.000000000077
 22      -0.047438673277
 23       0.032876126761
 24       0.000000000150
 25       0.378478603516
 26      -0.000000000049
 27      -0.000000000056
 28      -0.546126244517
 Sym=     1a
 Ene=  2.86452611085025E+00
 Spin= Alpha
 Occup= 0.000000
  1      -0.018365872479
  2      -0.093119674629
  3       0.042274280377
  4      -0.096616582857
  5       0.000000000018
  6       0.000000000051
  7       0.071878352025
  8      -0.000000000021
  9      -0.000000000042
 10      -0.304584850568
 11      -0.000000000180
 12      -0.619753421216
 13       0.060527947982
 14      -0.000000000104
 15      -0.018365872780
 16      -0.093119675452
 17       0.042274281581
 18       0.096616582710
 19      -0.000000000006
 20      -0.000000000034
 21      -0.071878352680
 22       0.000000000005
 23       0.000000000010
 24      -0.304584851343
 25       0.000000000035
 26      -0.619753423103
 27       0.060527947788
 28       0.000000000002
 Sym=     1a
 Ene=  2.87067696626329E+00
 Spin= Alpha
 Occup= 0.000000
  1      -0.000031125643
  2      -0.000156904210
  3       0.000070875168
  4      -0.000161083889
  5       0.000000000025
  6      -0.000000000018
  7       0.000119804864
  8      -0.000000000034
  9       0.000000000021
 10       0.566867712640
 11       0.000000000066
 12      -0.246566947570
 13       0.327676816838
 14      -0.000000000068
 15      -0.000031125619
 16      -0.000156904191
 17       0.000070875175
 18       0.000161083895
 19      -0.000000000016
 20       0.000000000010
 21      -0.000119804858
 22       0.000000000025
 23      -0.000000000014
 24       0.566867714518
 25       0.000000000032
 26      -0.246566948380
 27       0.327676817896
 28      -0.000000000045
 Sym=     1a
 Ene=  2.92640361619991E+00
 Spin= Alpha
 Occup= 0.000000
  1      -0.060572853369
  2      -0.291292114539
  3       0.125602078792
  4      -0.273256116739
  5      -0.000000000013
  6       0.000000000073
  7       0.202768497803
  8       0.000000000007
  9      -0.000000000024
 10      -0.232613378055
 11      -0.000000000322
 12       0.211137902710
 13       0.561153830859
 14      -0.000000000106
 15      -0.060572853992
 16      -0.291292116588
 17       0.125602082341
 18       0.273256116305
 19      -0.000000000003
 20      -0.000000000063
 21      -0.202768499785
 22      -0.000000000020
 23      -0.000000000051
 24      -0.232613378222
 25       0.000000000215
 26       0.211137904139
 27       0.561153831654
 28       0.000000000073
 Sym=     1a
 Ene=  3.04390748976115E+00
 Spin= Alpha
 Occup= 0.000000
  1       0.000316129782
  2       0.000077817641
  3       0.004268431763
  4       0.000167061306
  5      -0.000000000013
  6       0.000000000016
  7       0.003128298675
  8       0.000000000016
  9      -0.000000000015
 10      -0.603754199515
 11       0.000000000070
 12       0.162388912087
 13      -0.346503449033
 14      -0.000000000068
 15      -0.000316129852
 16      -0.000077817816
 17      -0.004268431686
 18       0.000167061385
 19      -0.000000000009
 20       0.000000000014
 21       0.003128298607
 22       0.000000000009
 23      -0.000000000011
 24       0.603754197547
 25      -0.000000000051
 26      -0.162388911553
 27       0.346503448069
 28       0.000000000056
 Sym=     1a
 Ene=  3.04398325245054E+00
 Spin= Alpha
 Occup= 0.000000
  1      -0.002425739833
  2      -0.000596072976
  3      -0.032757716431
  4      -0.001281862460
  5      -0.000000000010
  6      -0.000000000008
  7      -0.024007470297
  8       0.000000000007
  9       0.000000000005
 10       0.147480037688
 11      -0.000000000071
 12       0.696019349730
 13       0.069229882161
 14      -0.000000000066
 15       0.002425739826
 16       0.000596072716
 17       0.032757716550
 18      -0.001281862193
 19      -0.000000000007
 20      -0.000000000011
 21      -0.024007470496
 22       0.000000000004
 23       0.000000000007
 24      -0.147480037541
 25       0.000000000039
 26      -0.696019347456
 27      -0.069229881328
 28       0.000000000036
 Sym=     1a
 Ene=  3.50209775337273E+00
 Spin= Alpha
 Occup= 0.000000
  1       0.000000000283
  2       0.000000000703
  3      -0.000000000743
  4       0.000000000055
  5       0.027232292184
  6       0.039294926625
  7      -0.000000000318
  8      -0.128899379265
  9      -0.185995609706
 10       0.000000000032
 11      -0.639371512424
 12       0.000000000038
 13      -0.000000000015
 14      -0.443099718855
 15      -0.000000000099
 16      -0.000000000287
 17       0.000000000563
 18      -0.000000000005
 19      -0.027232292112
 20      -0.039294926522
 21      -0.000000000249
 22       0.128899379273
 23       0.185995609718
 24       0.000000000071
 25      -0.639371511996
 26       0.000000000071
 27      -0.000000000051
 28      -0.443099718558
 Sym=     1a
 Ene=  3.53632404100262E+00
 Spin= Alpha
 Occup= 0.000000
  1      -0.000000000054
  2      -0.000000000175
  3       0.000000000233
  4      -0.000000000029
  5       0.039316168349
  6      -0.027247072031
  7       0.000000000053
  8      -0.185482841507
  9       0.128544053061
 10      -0.000000000023
 11       0.443106019418
 12       0.000000000022
 13      -0.000000000065
 14      -0.639380605238
 15       0.000000000032
 16       0.000000000099
 17      -0.000000000138
 18      -0.000000000006
 19      -0.039316168247
 20       0.027247071961
 21       0.000000000086
 22       0.185482841515
 23      -0.128544053065
 24      -0.000000000094
 25       0.443106019058
 26       0.000000000034
 27       0.000000000024
 28      -0.639380604720
 Sym=     1a
 Ene=  4.17918536830382E+00
 Spin= Alpha
 Occup= 0.000000
  1       0.004986589881
  2      -0.308114210012
  3       1.635704452389
  4       0.105007051973
  5       0.000000000049
  6      -0.000000000016
  7       1.151417784698
  8       0.000000000013
  9       0.000000000021
 10      -0.471033074914
 11       0.000000000055
 12       0.009836466697
 13       0.823229801443
 14      -0.000000000049
 15      -0.004986590231
 16       0.308114209304
 17      -1.635704452118
 18       0.105007052224
 19      -0.000000000014
 20       0.000000000016
 21       1.151417784477
 22       0.000000000048
 23      -0.000000000022
 24       0.471033074658
 25       0.000000000036
 26      -0.009836466632
 27      -0.823229800987
 28      -0.000000000002
 Sym=     1a
 Ene= -1.87932494369055E+01
 Spin= Beta
 Occup= 1.000000
  1      -0.699457736456
  2       0.026676525473
  3      -0.016157917707
  4       0.001407783003
  5       0.000000000016
  6       0.000000000066
  7      -0.004850192766
  8      -0.000000000014
  9       0.000000000027
 10      -0.000385796803
 11      -0.000000000010
 12      -0.000105846239
 13       0.000588851071
 14      -0.000000000006
 15       0.699460960384
 16      -0.026676641008
 17       0.016157955060
 18       0.001407787302
 19      -0.000000000063
 20       0.000000000094
 21      -0.004850196788
 22       0.000000000059
 23       0.000000000064
 24       0.000385794871
 25      -0.000000000114
 26       0.000105846637
 27      -0.000588847494
 28      -0.000000000043
 Sym=     1a
 Ene= -1.87930184834020E+01
 Spin= Beta
 Occup= 1.000000
  1       0.699771263869
  2      -0.025131138482
  3       0.008016019220
  4      -0.000861423593
  5      -0.000000000019
  6      -0.000000000028
  7       0.000879501949
  8      -0.000000000020
  9      -0.000000000056
 10      -0.000394201441
 11      -0.000000000030
 12       0.000094473241
 13       0.000753620138
 14      -0.000000000002
 15       0.699768041379
 16      -0.025131015793
 17       0.008015943903
 18       0.000861416785
 19       0.000000000067
 20      -0.000000000090
 21      -0.000879479278
 22      -0.000000000048
 23      -0.000000000054
 24      -0.000394203078
 25       0.000000000080
 26       0.000094472784
 27       0.000753622715
 28       0.000000000020
 Sym=     1a
 Ene= -7.05648807123314E-01
 Spin= Beta
 Occup= 1.000000
  1       0.200499979882
  2       0.394602250589
  3       0.240498471445
  4       0.147568612885
  5      -0.000000000013
  6      -0.000000000131
  7       0.044961422859
  8      -0.000000000168
  9      -0.000000000357
 10      -0.011197694156
 11      -0.000000000150
 12      -0.000947443780
 13       0.018684117436
 14      -0.000000000040
 15       0.200499980320
 16       0.394602254877
 17       0.240498466689
 18      -0.147568614235
 19       0.000000000211
 20      -0.000000000720
 21      -0.044961421821
 22      -0.000000000265
 23      -0.000000000728
 24      -0.011197693939
 25       0.000000000215
 26      -0.000947443727
 27       0.018684117237
 28       0.000000000103
 Sym=     1a
 Ene= -3.53736175693645E-01
 Spin= Beta
 Occup= 1.000000
  1      -0.216022213178
  2      -0.432807756378
  3      -0.389565932535
  4       0.103490595012
  5       0.000000000022
  6       0.000000000974
  7       0.069231634867
  8       0.000000000135
  9       0.000000001009
 10      -0.000378363102
 11       0.000000000055
 12       0.001955843675
 13       0.002122307362
 14       0.000000000011
 15       0.216022213503
 16       0.432807752544
 17       0.389565939270
 18       0.103490600975
 19      -0.000000000511
 20       0.000000001199
 21       0.069231638051
 22       0.000000000237
 23       0.000000001145
 24       0.000378363016
 25      -0.000000000259
 26      -0.001955843742
 27      -0.002122307400
 28      -0.000000000099
 Sym=     1a
 Ene= -6.96949637171791E-02
 Spin= Beta
 Occup= 1.000000
  1      -0.061706139393
  2      -0.100323170622
  3      -0.242725787366
  4       0.442038704458
  5      -0.000000000483
  6       0.000000001749
  7       0.273398061951
  8      -0.000000000227
  9       0.000000001496
 10      -0.010113084871
 11       0.000000000163
 12       0.000962072339
 13       0.018237947007
 14      -0.000000000022
 15      -0.061706137471
 16      -0.100323171102
 17      -0.242725776480
 18      -0.442038701051
 19      -0.000000000599
 20       0.000000002378
 21      -0.273398060715
 22      -0.000000000215
 23       0.000000001938
 24      -0.010113084981
 25      -0.000000000159
 26       0.000962072301
 27       0.018237947115
 28      -0.000000000056
 Sym=     1a
 Ene= -3.70000546218329E-02
 Spin= Beta
 Occup= 1.000000
  1       0.000000000731
  2       0.000000000815
  3       0.000000002273
  4      -0.000000001841
  5      -0.351085989578
  6       0.243312972205
  7      -0.000000001082
  8      -0.260647474796
  9       0.180636399116
 10       0.000000000005
 11       0.011226138509
 12      -0.000000000009
 13      -0.000000000012
 14      -0.016198676927
 15      -0.000000000004
 16      -0.000000000013
 17       0.000000000182
 18       0.000000001271
 19      -0.351085991226
 20       0.243312973364
 21       0.000000000910
 22      -0.260647476225
 23       0.180636400127
 24       0.000000000038
 25      -0.011226138470
 26       0.000000000006
 27      -0.000000000086
 28       0.016198676872
 Sym=     1a
 Ene= -2.92234717362581E-03
 Spin= Beta
 Occup= 1.000000
  1      -0.000000000268
  2       0.000000002129
  3      -0.000000003786
  4       0.000000002377
  5      -0.233265343057
  6      -0.336587881634
  7       0.000000003350
  8      -0.189205601936
  9      -0.273012313022
 10      -0.000000000024
 11      -0.018548825134
 12       0.000000000009
 13       0.000000000044
 14      -0.012854907699
 15      -0.000000000039
 16       0.000000000439
 17      -0.000000002147
 18      -0.000000000313
 19      -0.233265343942
 20      -0.336587882963
 21       0.000000001369
 22      -0.189205602702
 23      -0.273012314176
 24      -0.000000000003
 25       0.018548825074
 26       0.000000000011
 27       0.000000000018
 28       0.012854907659
 Sym=     1a
 Ene=  1.58677549808829E-01
 Spin= Beta
 Occup= 1.000000
  1       0.000000000231
  2       0.000000000330
  3       0.000000000148
  4      -0.000000000134
  5       0.401329935170
  6      -0.278133444514
  7      -0.000000000311
  8       0.350456530789
  9      -0.242876668845
 10      -0.000000000001
 11       0.002550192314
 12       0.000000000001
 13       0.000000000000
 14      -0.003679763483
 15       0.000000000014
 16      -0.000000000137
 17       0.000000000398
 18       0.000000000090
 19      -0.401329933853
 20       0.278133443551
 21      -0.000000000096
 22      -0.350456529642
 23       0.242876668038
 24      -0.000000000052
 25       0.002550192446
 26       0.000000000009
 27       0.000000000068
 28      -0.003679763712
 Sym=     1a
 Ene=  2.67715571213840E-01
 Spin= Beta
 Occup= 0.000000
  1      -0.000000000140
  2      -0.000000000311
  3      -0.000000000166
  4       0.000000000037
  5       0.267180613498
  6       0.385525663838
  7       0.000000000008
  8       0.258624151380
  9       0.373179189231
 10      -0.000000000006
 11      -0.003983261132
 12      -0.000000000006
 13       0.000000000008
 14      -0.002760509440
 15      -0.000000000055
 16       0.000000000002
 17      -0.000000000304
 18      -0.000000000232
 19      -0.267180612930
 20      -0.385525662978
 21      -0.000000000219
 22      -0.258624150622
 23      -0.373179188133
 24       0.000000000014
 25      -0.003983261312
 26       0.000000000011
 27      -0.000000000007
 28      -0.002760509567
 Sym=     1a